<event>
 5    1  0.1125356E+001  0.2750133E+03  0.7818608E-02  0.1098444E+00
          2   -1    0    0  501    0  0.00000000000E+00  0.00000000000E+00  0.41219246919E+03  0.41219246919E+03  0.00000000000E+00 0.  1.
         -2   -1    0    0    0  501 -0.00000000000E+00 -0.00000000000E+00 -0.45871965438E+02  0.45871965438E+02  0.00000000000E+00 0.  1.
         35    2    1    2    0    0  0.00000000000E+00  0.00000000000E+00  0.36632050375E+03  0.45806443463E+03  0.27501329932E+03 0.  0.
         25    1    3    3    0    0 -0.11633064100E+02 -0.61648381689E+02  0.22300373161E+03  0.26089560261E+03  0.12000000000E+03 0.  0.
         25    1    3    3    0    0  0.11633064100E+02  0.61648381689E+02  0.14331677214E+03  0.19716883202E+03  0.12000000000E+03 0.  0.
<mgrwt>
<rscale>  0 0.27501330E+03</rscale>
<asrwt>0</asrwt>
<pdfrwt beam="1">  1        2 0.63414224E-01 0.27501330E+03</pdfrwt>
<pdfrwt beam="2">  1       -2 0.70572257E-02 0.27501330E+03</pdfrwt>
<totfact> 0.88285798E+03</totfact>
</mgrwt>
</event>
<event>
 5    1  0.1125356E+001  0.2749042E+03  0.7818608E-02  0.1098505E+00
          3   -1    0    0  501    0  0.00000000000E+00  0.00000000000E+00  0.95686813523E+03  0.95686813523E+03  0.00000000000E+00 0. -1.
         -3   -1    0    0    0  501 -0.00000000000E+00 -0.00000000000E+00 -0.19744712550E+02  0.19744712550E+02  0.00000000000E+00 0. -1.
         35    2    1    2    0    0  0.00000000000E+00  0.00000000000E+00  0.93712342268E+03  0.97661284778E+03  0.27490424717E+03 0.  0.
         25    1    3    3    0    0  0.74971348670E+01  0.58425543470E+02  0.35491681869E+03  0.37925677232E+03  0.12000000000E+03 0.  0.
         25    1    3    3    0    0 -0.74971348670E+01 -0.58425543470E+02  0.58220660399E+03  0.59735607546E+03  0.12000000000E+03 0.  0.
<mgrwt>
<rscale>  0 0.27490425E+03</rscale>
<asrwt>0</asrwt>
<pdfrwt beam="1">  1        3 0.14721045E+00 0.27490425E+03</pdfrwt>
<pdfrwt beam="2">  1       -3 0.30376488E-02 0.27490425E+03</pdfrwt>
<totfact> 0.45594359E+02</totfact>
</mgrwt>
</event>
<event>
 5    1  0.1125356E+001  0.2752456E+03  0.7818608E-02  0.1098314E+00
          1   -1    0    0  501    0  0.00000000000E+00  0.00000000000E+00  0.17901854226E+02  0.17901854226E+02  0.00000000000E+00 0.  1.
         -1   -1    0    0    0  501 -0.00000000000E+00 -0.00000000000E+00 -0.10579931508E+04  0.10579931508E+04  0.00000000000E+00 0.  1.
         35    2    1    2    0    0  0.00000000000E+00  0.00000000000E+00 -0.10400912966E+04  0.10758950051E+04  0.27524562964E+03 0.  0.
         25    1    3    3    0    0 -0.54403521170E+02 -0.37321235803E+02 -0.57355861761E+03  0.58967966354E+03  0.12000000000E+03 0.  0.
         25    1    3    3    0    0  0.54403521170E+02  0.37321235803E+02 -0.46653267900E+03  0.48621534153E+03  0.12000000000E+03 0.  0.
<mgrwt>
<rscale>  0 0.27524563E+03</rscale>
<asrwt>0</asrwt>
<pdfrwt beam="1">  1        1 0.27541317E-02 0.27524563E+03</pdfrwt>
<pdfrwt beam="2">  1       -1 0.16276816E+00 0.27524563E+03</pdfrwt>
<totfact> 0.11673260E+03</totfact>
</mgrwt>
</event>
<event>
 5    1  0.1125356E+001  0.2748100E+03  0.7818608E-02  0.1098558E+00
         -2   -1    0    0    0  501 -0.00000000000E+00  0.00000000000E+00  0.17677151396E+02  0.17677151396E+02  0.00000000000E+00 0. -1.
          2   -1    0    0  501    0  0.00000000000E+00 -0.00000000000E+00 -0.10680528979E+04  0.10680528979E+04  0.00000000000E+00 0. -1.
         35    2    1    2    0    0  0.00000000000E+00  0.00000000000E+00 -0.10503757465E+04  0.10857300493E+04  0.27480999090E+03 0.  0.
         25    1    3    3    0    0 -0.45581953733E+02 -0.10152583774E+02 -0.33573933878E+03  0.35958544613E+03  0.12000000000E+03 0.  0.
         25    1    3    3    0    0  0.45581953733E+02  0.10152583774E+02 -0.71463640775E+03  0.72614460319E+03  0.12000000000E+03 0.  0.
<mgrwt>
<rscale>  0 0.27480999E+03</rscale>
<asrwt>0</asrwt>
<pdfrwt beam="1">  1        2 0.16431589E+00 0.27480999E+03</pdfrwt>
<pdfrwt beam="2">  1       -2 0.27195608E-02 0.27480999E+03</pdfrwt>
<totfact> 0.11679267E+04</totfact>
</mgrwt>
</event>
<event>
 5    1  0.1125356E+001  0.2753766E+03  0.7818608E-02  0.1098241E+00
          1   -1    0    0  501    0  0.00000000000E+00  0.00000000000E+00  0.15158071505E+03  0.15158071505E+03  0.00000000000E+00 0. -1.
         -1   -1    0    0    0  501 -0.00000000000E+00 -0.00000000000E+00 -0.12506915763E+03  0.12506915763E+03  0.00000000000E+00 0. -1.
         35    2    1    2    0    0  0.00000000000E+00  0.00000000000E+00  0.26511557419E+02  0.27664987268E+03  0.27537663187E+03 0.  0.
         25    1    3    3    0    0 -0.47613077588E+02  0.69637812374E+01  0.60830546746E+02  0.14288406078E+03  0.12000000000E+03 0.  0.
         25    1    3    3    0    0  0.47613077588E+02 -0.69637812374E+01 -0.34318989327E+02  0.13376581191E+03  0.12000000000E+03 0.  0.
<mgrwt>
<rscale>  0 0.27537663E+03</rscale>
<asrwt>0</asrwt>
<pdfrwt beam="1">  1        1 0.23320110E-01 0.27537663E+03</pdfrwt>
<pdfrwt beam="2">  1       -1 0.19241409E-01 0.27537663E+03</pdfrwt>
<totfact> 0.44668574E+03</totfact>
</mgrwt>
</event>
<event>
 5    1  0.1125356E+001  0.2743004E+03  0.7818608E-02  0.1098843E+00
          2   -1    0    0  501    0  0.00000000000E+00  0.00000000000E+00  0.55320154246E+02  0.55320154246E+02  0.00000000000E+00 0. -1.
         -2   -1    0    0    0  501 -0.00000000000E+00 -0.00000000000E+00 -0.34002403624E+03  0.34002403624E+03  0.00000000000E+00 0. -1.
         35    2    1    2    0    0  0.00000000000E+00  0.00000000000E+00 -0.28470388200E+03  0.39534419049E+03  0.27430043480E+03 0.  0.
         25    1    3    3    0    0  0.22403185527E+02 -0.45759288177E+02 -0.20374389115E+03  0.24188300551E+03  0.12000000000E+03 0.  0.
         25    1    3    3    0    0 -0.22403185527E+02  0.45759288177E+02 -0.80959990852E+02  0.15346118498E+03  0.12000000000E+03 0.  0.
<mgrwt>
<rscale>  0 0.27430043E+03</rscale>
<asrwt>0</asrwt>
<pdfrwt beam="1">  1        2 0.85107930E-02 0.27430043E+03</pdfrwt>
<pdfrwt beam="2">  1       -2 0.52311390E-01 0.27430043E+03</pdfrwt>
<totfact> 0.27449942E+03</totfact>
</mgrwt>
</event>
<event>
 5    1  0.1125356E+001  0.2750977E+03  0.7818608E-02  0.1098397E+00
          2   -1    0    0  501    0  0.00000000000E+00  0.00000000000E+00  0.21366043862E+04  0.21366043862E+04  0.00000000000E+00 0. -1.
         -2   -1    0    0    0  501 -0.00000000000E+00 -0.00000000000E+00 -0.88550241531E+01  0.88550241531E+01  0.00000000000E+00 0. -1.
         35    2    1    2    0    0  0.00000000000E+00  0.00000000000E+00  0.21277493621E+04  0.21454594104E+04  0.27509768044E+03 0.  0.
         25    1    3    3    0    0  0.55988163518E+01 -0.61507223967E+02  0.85677046441E+03  0.86733506445E+03  0.12000000000E+03 0.  0.
         25    1    3    3    0    0 -0.55988163518E+01  0.61507223967E+02  0.12709788977E+04  0.12781243459E+04  0.12000000000E+03 0.  0.
<mgrwt>
<rscale>  0 0.27509768E+03</rscale>
<asrwt>0</asrwt>
<pdfrwt beam="1">  1        2 0.32870796E+00 0.27509768E+03</pdfrwt>
<pdfrwt beam="2">  1       -2 0.13623131E-02 0.27509768E+03</pdfrwt>
<totfact> 0.85469892E+03</totfact>
</mgrwt>
</event>
<event>
 4    1  0.1125356E+001  0.2534095E+03  0.7818608E-02  0.1111169E+00
          3   -1    0    0  501    0  0.00000000000E+00  0.00000000000E+00  0.20482437781E+02  0.20482437781E+02  0.00000000000E+00 0. -1.
         -3   -1    0    0    0  501 -0.00000000000E+00 -0.00000000000E+00 -0.78379813892E+03  0.78379813892E+03  0.00000000000E+00 0. -1.
         25    1    1    2    0    0  0.42349686746E+01  0.30959701644E+02 -0.29903691606E+03  0.32372753243E+03  0.12000000000E+03 0.  0.
         25    1    1    2    0    0 -0.42349686746E+01 -0.30959701644E+02 -0.46427878508E+03  0.48055304428E+03  0.12000000000E+03 0.  0.
<mgrwt>
<rscale>  0 0.25340952E+03</rscale>
<asrwt>0</asrwt>
<pdfrwt beam="1">  1        3 0.31511442E-02 0.25340952E+03</pdfrwt>
<pdfrwt beam="2">  1       -3 0.12058433E+00 0.25340952E+03</pdfrwt>
<totfact> 0.69405350E+02</totfact>
</mgrwt>
</event>
<event>
 5    1  0.1125356E+001  0.2755623E+03  0.7818608E-02  0.1098138E+00
          2   -1    0    0  501    0  0.00000000000E+00  0.00000000000E+00  0.57685216928E+02  0.57685216928E+02  0.00000000000E+00 0. -1.
         -2   -1    0    0    0  501 -0.00000000000E+00 -0.00000000000E+00 -0.32909036121E+03  0.32909036121E+03  0.00000000000E+00 0. -1.
         35    2    1    2    0    0  0.00000000000E+00  0.00000000000E+00 -0.27140514428E+03  0.38677557814E+03  0.27556232598E+03 0.  0.
         25    1    3    3    0    0  0.14015394948E+02 -0.34015878831E+02 -0.21547443086E+03  0.24936467605E+03  0.12000000000E+03 0.  0.
         25    1    3    3    0    0 -0.14015394948E+02  0.34015878831E+02 -0.55930713421E+02  0.13741090209E+03  0.12000000000E+03 0.  0.
<mgrwt>
<rscale>  0 0.27556233E+03</rscale>
<asrwt>0</asrwt>
<pdfrwt beam="1">  1        2 0.88746487E-02 0.27556233E+03</pdfrwt>
<pdfrwt beam="2">  1       -2 0.50629287E-01 0.27556233E+03</pdfrwt>
<totfact> 0.27807544E+03</totfact>
</mgrwt>
</event>
<event>
 5    1  0.1125356E+001  0.2745276E+03  0.7818608E-02  0.1098716E+00
          1   -1    0    0  501    0  0.00000000000E+00  0.00000000000E+00  0.44891758819E+02  0.44891758819E+02  0.00000000000E+00 0. -1.
         -1   -1    0    0    0  501 -0.00000000000E+00 -0.00000000000E+00 -0.41970624904E+03  0.41970624904E+03  0.00000000000E+00 0. -1.
         35    2    1    2    0    0  0.00000000000E+00  0.00000000000E+00 -0.37481449022E+03  0.46459800786E+03  0.27452760668E+03 0.  0.
         25    1    3    3    0    0 -0.62759482134E+02 -0.58021915866E+00 -0.22533495992E+03  0.26289719172E+03  0.12000000000E+03 0.  0.
         25    1    3    3    0    0  0.62759482134E+02  0.58021915866E+00 -0.14947953030E+03  0.20170081614E+03  0.12000000000E+03 0.  0.
<mgrwt>
<rscale>  0 0.27452761E+03</rscale>
<asrwt>0</asrwt>
<pdfrwt beam="1">  1        1 0.69064242E-02 0.27452761E+03</pdfrwt>
<pdfrwt beam="2">  1       -1 0.64570194E-01 0.27452761E+03</pdfrwt>
<totfact> 0.26714750E+03</totfact>
</mgrwt>
</event>
<event>
 5    1  0.1125356E+001  0.2766309E+03  0.7818608E-02  0.1097543E+00
         -2   -1    0    0    0  501 -0.00000000000E+00  0.00000000000E+00  0.80352715073E+02  0.80352715073E+02  0.00000000000E+00 0. -1.
          2   -1    0    0  501    0  0.00000000000E+00 -0.00000000000E+00 -0.23808979000E+03  0.23808979000E+03  0.00000000000E+00 0. -1.
         35    2    1    2    0    0  0.00000000000E+00  0.00000000000E+00 -0.15773707493E+03  0.31844250507E+03  0.27663088083E+03 0.  0.
         25    1    3    3    0    0  0.62886864459E+02 -0.15105562179E+02 -0.51915363154E+02  0.14587028711E+03  0.12000000000E+03 0.  0.
         25    1    3    3    0    0 -0.62886864459E+02  0.15105562179E+02 -0.10582171177E+03  0.17257221796E+03  0.12000000000E+03 0.  0.
<mgrwt>
<rscale>  0 0.27663088E+03</rscale>
<asrwt>0</asrwt>
<pdfrwt beam="1">  1        2 0.36629198E-01 0.27663088E+03</pdfrwt>
<pdfrwt beam="2">  1       -2 0.12361956E-01 0.27663088E+03</pdfrwt>
<totfact> 0.65788948E+03</totfact>
</mgrwt>
</event>
<event>
 5    1  0.1125356E+001  0.2782892E+03  0.7818608E-02  0.1096627E+00
         -2   -1    0    0    0  501 -0.00000000000E+00  0.00000000000E+00  0.18800565773E+03  0.18800565773E+03  0.00000000000E+00 0. -1.
          2   -1    0    0  501    0  0.00000000000E+00 -0.00000000000E+00 -0.10298209337E+03  0.10298209337E+03  0.00000000000E+00 0. -1.
         35    2    1    2    0    0  0.00000000000E+00  0.00000000000E+00  0.85023564368E+02  0.29098775110E+03  0.27828917477E+03 0.  0.
         25    1    3    3    0    0  0.18855036866E+02 -0.58248106702E+02  0.78927096490E+02  0.15613404789E+03  0.12000000000E+03 0.  0.
         25    1    3    3    0    0 -0.18855036866E+02  0.58248106702E+02  0.60964678782E+01  0.13485370321E+03  0.12000000000E+03 0.  0.
<mgrwt>
<rscale>  0 0.27828917E+03</rscale>
<asrwt>0</asrwt>
<pdfrwt beam="1">  1        2 0.15843399E-01 0.27828917E+03</pdfrwt>
<pdfrwt beam="2">  1       -2 0.28923947E-01 0.27828917E+03</pdfrwt>
<totfact> 0.39709521E+03</totfact>
</mgrwt>
</event>
<event>
 5    1  0.1125356E+001  0.2752067E+03  0.7818608E-02  0.1098336E+00
          2   -1    0    0  501    0  0.00000000000E+00  0.00000000000E+00  0.14415363930E+04  0.14415363930E+04  0.00000000000E+00 0.  1.
         -2   -1    0    0    0  501 -0.00000000000E+00 -0.00000000000E+00 -0.13135066538E+02  0.13135066538E+02  0.00000000000E+00 0.  1.
         35    2    1    2    0    0  0.00000000000E+00  0.00000000000E+00  0.14284013265E+04  0.14546714595E+04  0.27520666009E+03 0.  0.
         25    1    3    3    0    0 -0.46235292855E+02  0.47815531641E+02  0.65860001465E+03  0.67273918175E+03  0.12000000000E+03 0.  0.
         25    1    3    3    0    0  0.46235292855E+02 -0.47815531641E+02  0.76980131181E+03  0.78193227778E+03  0.12000000000E+03 0.  0.
<mgrwt>
<rscale>  0 0.27520666E+03</rscale>
<asrwt>0</asrwt>
<pdfrwt beam="1">  1        2 0.22177470E+00 0.27520666E+03</pdfrwt>
<pdfrwt beam="2">  1       -2 0.20207806E-02 0.27520666E+03</pdfrwt>
<totfact> 0.11168684E+04</totfact>
</mgrwt>
</event>
<event>
 5    1  0.1125356E+001  0.2725957E+03  0.7818608E-02  0.1099803E+00
         -4   -1    0    0    0  501 -0.00000000000E+00  0.00000000000E+00  0.17717774627E+03  0.17717774627E+03  0.00000000000E+00 0.  1.
          4   -1    0    0  501    0  0.00000000000E+00 -0.00000000000E+00 -0.10485009763E+03  0.10485009763E+03  0.00000000000E+00 0.  1.
         35    2    1    2    0    0  0.00000000000E+00  0.00000000000E+00  0.72327648640E+02  0.28202784390E+03  0.27259570059E+03 0.  0.
         25    1    3    3    0    0 -0.31887198928E+02 -0.53497747064E+02  0.54032845986E+02  0.14559653444E+03  0.12000000000E+03 0.  0.
         25    1    3    3    0    0  0.31887198928E+02  0.53497747064E+02  0.18294802654E+02  0.13643130946E+03  0.12000000000E+03 0.  0.
<mgrwt>
<rscale>  0 0.27259570E+03</rscale>
<asrwt>0</asrwt>
<pdfrwt beam="1">  1        4 0.16130784E-01 0.27259570E+03</pdfrwt>
<pdfrwt beam="2">  1       -4 0.27258115E-01 0.27259570E+03</pdfrwt>
<totfact> 0.79161844E+02</totfact>
</mgrwt>
</event>
<event>
 5    1  0.1125356E+001  0.2748908E+03  0.7818608E-02  0.1098513E+00
          2   -1    0    0  501    0  0.00000000000E+00  0.00000000000E+00  0.65468091282E+03  0.65468091282E+03  0.00000000000E+00 0. -1.
         -2   -1    0    0    0  501 -0.00000000000E+00 -0.00000000000E+00 -0.28855648173E+02  0.28855648173E+02  0.00000000000E+00 0. -1.
         35    2    1    2    0    0  0.00000000000E+00  0.00000000000E+00  0.62582526465E+03  0.68353656099E+03  0.27489082987E+03 0.  0.
         25    1    3    3    0    0  0.57276971798E+02 -0.33065996211E+02  0.33983552827E+03  0.36641806434E+03  0.12000000000E+03 0.  0.
         25    1    3    3    0    0 -0.57276971798E+02  0.33065996211E+02  0.28598973638E+03  0.31711849665E+03  0.12000000000E+03 0.  0.
<mgrwt>
<rscale>  0 0.27489083E+03</rscale>
<asrwt>0</asrwt>
<pdfrwt beam="1">  1        2 0.10072013E+00 0.27489083E+03</pdfrwt>
<pdfrwt beam="2">  1       -2 0.44393310E-02 0.27489083E+03</pdfrwt>
<totfact> 0.10629969E+04</totfact>
</mgrwt>
</event>
<event>
 5    1  0.1125356E+001  0.2746889E+03  0.7818608E-02  0.1098626E+00
          1   -1    0    0  501    0  0.00000000000E+00  0.00000000000E+00  0.26280017398E+03  0.26280017398E+03  0.00000000000E+00 0. -1.
         -1   -1    0    0    0  501 -0.00000000000E+00 -0.00000000000E+00 -0.71778873485E+02  0.71778873485E+02  0.00000000000E+00 0. -1.
         35    2    1    2    0    0  0.00000000000E+00  0.00000000000E+00  0.19102130050E+03  0.33457904747E+03  0.27468891816E+03 0.  0.
         25    1    3    3    0    0  0.26920624828E+01 -0.50463171469E+02  0.14873895413E+03  0.19767917278E+03  0.12000000000E+03 0.  0.
         25    1    3    3    0    0 -0.26920624828E+01  0.50463171469E+02  0.42282346366E+02  0.13689987469E+03  0.12000000000E+03 0.  0.
<mgrwt>
<rscale>  0 0.27468892E+03</rscale>
<asrwt>0</asrwt>
<pdfrwt beam="1">  1        1 0.40430796E-01 0.27468892E+03</pdfrwt>
<pdfrwt beam="2">  1       -1 0.11042904E-01 0.27468892E+03</pdfrwt>
<totfact> 0.53739158E+03</totfact>
</mgrwt>
</event>
<event>
 5    1  0.1125356E+001  0.2754377E+03  0.7818608E-02  0.1098207E+00
          1   -1    0    0  501    0  0.00000000000E+00  0.00000000000E+00  0.10782233347E+04  0.10782233347E+04  0.00000000000E+00 0. -1.
         -1   -1    0    0    0  501 -0.00000000000E+00 -0.00000000000E+00 -0.17590493630E+02  0.17590493630E+02  0.00000000000E+00 0. -1.
         35    2    1    2    0    0  0.00000000000E+00  0.00000000000E+00  0.10606328411E+04  0.10958138283E+04  0.27543769314E+03 0.  0.
         25    1    3    3    0    0 -0.45333378655E+02  0.42231870629E+02  0.63764855053E+03  0.65179315746E+03  0.12000000000E+03 0.  0.
         25    1    3    3    0    0  0.45333378655E+02 -0.42231870629E+02  0.42298429055E+03  0.44402067088E+03  0.12000000000E+03 0.  0.
<mgrwt>
<rscale>  0 0.27543769E+03</rscale>
<asrwt>0</asrwt>
<pdfrwt beam="1">  1        1 0.16588046E+00 0.27543769E+03</pdfrwt>
<pdfrwt beam="2">  1       -1 0.27062306E-02 0.27543769E+03</pdfrwt>
<totfact> 0.61452119E+03</totfact>
</mgrwt>
</event>
<event>
 5    1  0.1125356E+001  0.2748157E+03  0.7818608E-02  0.1098555E+00
          1   -1    0    0  501    0  0.00000000000E+00  0.00000000000E+00  0.14127142481E+03  0.14127142481E+03  0.00000000000E+00 0. -1.
         -1   -1    0    0    0  501 -0.00000000000E+00 -0.00000000000E+00 -0.13364994986E+03  0.13364994986E+03  0.00000000000E+00 0. -1.
         35    2    1    2    0    0  0.00000000000E+00  0.00000000000E+00  0.76214749558E+01  0.27492137467E+03  0.27481571165E+03 0.  0.
         25    1    3    3    0    0  0.50504543510E+02  0.32291286464E+02  0.33612840215E+02  0.13828687257E+03  0.12000000000E+03 0.  0.
         25    1    3    3    0    0 -0.50504543510E+02 -0.32291286464E+02 -0.25991365260E+02  0.13663450210E+03  0.12000000000E+03 0.  0.
<mgrwt>
<rscale>  0 0.27481571E+03</rscale>
<asrwt>0</asrwt>
<pdfrwt beam="1">  1        1 0.21734066E-01 0.27481571E+03</pdfrwt>
<pdfrwt beam="2">  1       -1 0.20561531E-01 0.27481571E+03</pdfrwt>
<totfact> 0.43882861E+03</totfact>
</mgrwt>
</event>
<event>
 5    1  0.1125356E+001  0.2752558E+03  0.7818608E-02  0.1098309E+00
          2   -1    0    0  501    0  0.00000000000E+00  0.00000000000E+00  0.18155676774E+03  0.18155676774E+03  0.00000000000E+00 0.  1.
         -2   -1    0    0    0  501 -0.00000000000E+00 -0.00000000000E+00 -0.10432789543E+03  0.10432789543E+03  0.00000000000E+00 0.  1.
         35    2    1    2    0    0  0.00000000000E+00  0.00000000000E+00  0.77228872312E+02  0.28588466317E+03  0.27525577544E+03 0.  0.
         25    1    3    3    0    0 -0.20763472461E+01 -0.64145390967E+02  0.17266090962E+02  0.13717529040E+03  0.12000000000E+03 0.  0.
         25    1    3    3    0    0  0.20763472461E+01  0.64145390967E+02  0.59962781349E+02  0.14870937276E+03  0.12000000000E+03 0.  0.
<mgrwt>
<rscale>  0 0.27525578E+03</rscale>
<asrwt>0</asrwt>
<pdfrwt beam="1">  1        2 0.27931810E-01 0.27525578E+03</pdfrwt>
<pdfrwt beam="2">  1       -2 0.16050446E-01 0.27525578E+03</pdfrwt>
<totfact> 0.57621214E+03</totfact>
</mgrwt>
</event>
<event>
 5    1  0.1125356E+001  0.2784218E+03  0.7818608E-02  0.1096554E+00
         -1   -1    0    0    0  501 -0.00000000000E+00  0.00000000000E+00  0.41117633516E+02  0.41117633516E+02  0.00000000000E+00 0. -1.
          1   -1    0    0  501    0  0.00000000000E+00 -0.00000000000E+00 -0.47132274954E+03  0.47132274954E+03  0.00000000000E+00 0. -1.
         35    2    1    2    0    0  0.00000000000E+00  0.00000000000E+00 -0.43020511602E+03  0.51244038305E+03  0.27842181009E+03 0.  0.
         25    1    3    3    0    0 -0.27271327421E+02 -0.63053089039E+02 -0.24479478428E+03  0.28114747687E+03  0.12000000000E+03 0.  0.
         25    1    3    3    0    0  0.27271327421E+02  0.63053089039E+02 -0.18541033174E+03  0.23129290618E+03  0.12000000000E+03 0.  0.
<mgrwt>
<rscale>  0 0.27842181E+03</rscale>
<asrwt>0</asrwt>
<pdfrwt beam="1">  1        1 0.72511189E-01 0.27842181E+03</pdfrwt>
<pdfrwt beam="2">  1       -1 0.63257900E-02 0.27842181E+03</pdfrwt>
<totfact> 0.59977312E+03</totfact>
</mgrwt>
</event>
<event>
 5    1  0.1125356E+001  0.2748867E+03  0.7818608E-02  0.1098515E+00
          2   -1    0    0  501    0  0.00000000000E+00  0.00000000000E+00  0.46990226013E+03  0.46990226013E+03  0.00000000000E+00 0. -1.
         -2   -1    0    0    0  501 -0.00000000000E+00 -0.00000000000E+00 -0.40201287702E+02  0.40201287702E+02  0.00000000000E+00 0. -1.
         35    2    1    2    0    0  0.00000000000E+00  0.00000000000E+00  0.42970097242E+03  0.51010354783E+03  0.27488671085E+03 0.  0.
         25    1    3    3    0    0 -0.28805868580E+02 -0.60504761819E+02  0.21534732377E+03  0.25547029988E+03  0.12000000000E+03 0.  0.
         25    1    3    3    0    0  0.28805868580E+02  0.60504761819E+02  0.21435364866E+03  0.25463324795E+03  0.12000000000E+03 0.  0.
<mgrwt>
<rscale>  0 0.27488671E+03</rscale>
<asrwt>0</asrwt>
<pdfrwt beam="1">  1        2 0.72292652E-01 0.27488671E+03</pdfrwt>
<pdfrwt beam="2">  1       -2 0.61848138E-02 0.27488671E+03</pdfrwt>
<totfact> 0.93716245E+03</totfact>
</mgrwt>
</event>
<event>
 5    1  0.1125356E+001  0.2750684E+03  0.7818608E-02  0.1098413E+00
          2   -1    0    0  501    0  0.00000000000E+00  0.00000000000E+00  0.77830472749E+02  0.77830472749E+02  0.00000000000E+00 0.  1.
         -2   -1    0    0    0  501 -0.00000000000E+00 -0.00000000000E+00 -0.24303666027E+03  0.24303666027E+03  0.00000000000E+00 0.  1.
         35    2    1    2    0    0  0.00000000000E+00  0.00000000000E+00 -0.16520618752E+03  0.32086713302E+03  0.27506841450E+03 0.  0.
         25    1    3    3    0    0 -0.12885375367E+02  0.10907662983E+02 -0.15847621736E+03  0.19949867538E+03  0.12000000000E+03 0.  0.
         25    1    3    3    0    0  0.12885375367E+02 -0.10907662983E+02 -0.67299701560E+01  0.12136845763E+03  0.12000000000E+03 0.  0.
<mgrwt>
<rscale>  0 0.27506841E+03</rscale>
<asrwt>0</asrwt>
<pdfrwt beam="1">  1        2 0.11973919E-01 0.27506841E+03</pdfrwt>
<pdfrwt beam="2">  1       -2 0.37390255E-01 0.27506841E+03</pdfrwt>
<totfact> 0.34568586E+03</totfact>
</mgrwt>
</event>
<event>
 5    1  0.1125356E+001  0.2747246E+03  0.7818608E-02  0.1098606E+00
          2   -1    0    0  501    0  0.00000000000E+00  0.00000000000E+00  0.13579738742E+03  0.13579738742E+03  0.00000000000E+00 0.  1.
         -2   -1    0    0    0  501 -0.00000000000E+00 -0.00000000000E+00 -0.13894525214E+03  0.13894525214E+03  0.00000000000E+00 0.  1.
         35    2    1    2    0    0  0.00000000000E+00  0.00000000000E+00 -0.31478647203E+01  0.27474263956E+03  0.27472460564E+03 0.  0.
         25    1    3    3    0    0 -0.50242466719E+01 -0.63718902355E+02 -0.21147152743E+02  0.13759558002E+03  0.12000000000E+03 0.  0.
         25    1    3    3    0    0  0.50242466719E+01  0.63718902355E+02  0.17999288023E+02  0.13714705954E+03  0.12000000000E+03 0.  0.
<mgrwt>
<rscale>  0 0.27472461E+03</rscale>
<asrwt>0</asrwt>
<pdfrwt beam="1">  1        2 0.20891906E-01 0.27472461E+03</pdfrwt>
<pdfrwt beam="2">  1       -2 0.21376193E-01 0.27472461E+03</pdfrwt>
<totfact> 0.49114526E+03</totfact>
</mgrwt>
</event>
<event>
 5    1  0.1125356E+001  0.2744940E+03  0.7818608E-02  0.1098735E+00
         -1   -1    0    0    0  501 -0.00000000000E+00  0.00000000000E+00  0.17442859598E+03  0.17442859598E+03  0.00000000000E+00 0.  1.
          1   -1    0    0  501    0  0.00000000000E+00 -0.00000000000E+00 -0.10799108852E+03  0.10799108852E+03  0.00000000000E+00 0.  1.
         35    2    1    2    0    0  0.00000000000E+00  0.00000000000E+00  0.66437507459E+02  0.28241968451E+03  0.27449396314E+03 0.  0.
         25    1    3    3    0    0  0.16241403873E+02 -0.34458847623E+02  0.89436510100E+02  0.15443472640E+03  0.12000000000E+03 0.  0.
         25    1    3    3    0    0 -0.16241403873E+02  0.34458847623E+02 -0.22999002641E+02  0.12798495811E+03  0.12000000000E+03 0.  0.
<mgrwt>
<rscale>  0 0.27449396E+03</rscale>
<asrwt>0</asrwt>
<pdfrwt beam="1">  1        1 0.16614014E-01 0.27449396E+03</pdfrwt>
<pdfrwt beam="2">  1       -1 0.26835169E-01 0.27449396E+03</pdfrwt>
<totfact> 0.39994532E+03</totfact>
</mgrwt>
</event>
<event>
 5    1  0.1125356E+001  0.2752115E+03  0.7818608E-02  0.1098333E+00
          2   -1    0    0  501    0  0.00000000000E+00  0.00000000000E+00  0.11826752298E+04  0.11826752298E+04  0.00000000000E+00 0. -1.
         -2   -1    0    0    0  501 -0.00000000000E+00 -0.00000000000E+00 -0.16010597107E+02  0.16010597107E+02  0.00000000000E+00 0. -1.
         35    2    1    2    0    0  0.00000000000E+00  0.00000000000E+00  0.11666646327E+04  0.11986858269E+04  0.27521145770E+03 0.  0.
         25    1    3    3    0    0  0.15336491718E+02  0.64225080177E+02  0.52567030107E+03  0.54322125725E+03  0.12000000000E+03 0.  0.
         25    1    3    3    0    0 -0.15336491718E+02 -0.64225080177E+02  0.64099433159E+03  0.65546456963E+03  0.12000000000E+03 0.  0.
<mgrwt>
<rscale>  0 0.27521146E+03</rscale>
<asrwt>0</asrwt>
<pdfrwt beam="1">  1        2 0.18194997E+00 0.27521146E+03</pdfrwt>
<pdfrwt beam="2">  1       -2 0.24631697E-02 0.27521146E+03</pdfrwt>
<totfact> 0.11598258E+04</totfact>
</mgrwt>
</event>
<event>
 5    1  0.1125356E+001  0.2754221E+03  0.7818608E-02  0.1098216E+00
         -2   -1    0    0    0  501 -0.00000000000E+00  0.00000000000E+00  0.13934650668E+02  0.13934650668E+02  0.00000000000E+00 0. -1.
          2   -1    0    0  501    0  0.00000000000E+00 -0.00000000000E+00 -0.13609480645E+04  0.13609480645E+04  0.00000000000E+00 0. -1.
         35    2    1    2    0    0  0.00000000000E+00  0.00000000000E+00 -0.13470134138E+04  0.13748827151E+04  0.27542211861E+03 0.  0.
         25    1    3    3    0    0 -0.51535530413E+02 -0.32329072686E+02 -0.52683827622E+03  0.54374594171E+03  0.12000000000E+03 0.  0.
         25    1    3    3    0    0  0.51535530413E+02  0.32329072686E+02 -0.82017513759E+03  0.83113677343E+03  0.12000000000E+03 0.  0.
<mgrwt>
<rscale>  0 0.27542212E+03</rscale>
<asrwt>0</asrwt>
<pdfrwt beam="1">  1        2 0.20937666E+00 0.27542212E+03</pdfrwt>
<pdfrwt beam="2">  1       -2 0.21437921E-02 0.27542212E+03</pdfrwt>
<totfact> 0.11323323E+04</totfact>
</mgrwt>
</event>
<event>
 5    1  0.1125356E+001  0.2754767E+03  0.7818608E-02  0.1098185E+00
          2   -1    0    0  501    0  0.00000000000E+00  0.00000000000E+00  0.34045903294E+04  0.34045903294E+04  0.00000000000E+00 0. -1.
         -2   -1    0    0    0  501 -0.00000000000E+00 -0.00000000000E+00 -0.55724329526E+01  0.55724329526E+01  0.00000000000E+00 0. -1.
         35    2    1    2    0    0  0.00000000000E+00  0.00000000000E+00  0.33990178964E+04  0.34101627623E+04  0.27547668752E+03 0.  0.
         25    1    3    3    0    0 -0.60365620961E+02 -0.23454189514E+02  0.14589125484E+04  0.14652712824E+04  0.12000000000E+03 0.  0.
         25    1    3    3    0    0  0.60365620961E+02  0.23454189514E+02  0.19401053481E+04  0.19448914800E+04  0.12000000000E+03 0.  0.
<mgrwt>
<rscale>  0 0.27547669E+03</rscale>
<asrwt>0</asrwt>
<pdfrwt beam="1">  1        2 0.52378147E+00 0.27547669E+03</pdfrwt>
<pdfrwt beam="2">  1       -2 0.85730010E-03 0.27547669E+03</pdfrwt>
<totfact> 0.31220021E+03</totfact>
</mgrwt>
</event>
<event>
 4    1  0.1125356E+001  0.2571206E+03  0.7818608E-02  0.1108886E+00
         -2   -1    0    0    0  501 -0.00000000000E+00  0.00000000000E+00  0.59323124441E+02  0.59323124441E+02  0.00000000000E+00 0. -1.
          2   -1    0    0  501    0  0.00000000000E+00 -0.00000000000E+00 -0.27860545672E+03  0.27860545672E+03  0.00000000000E+00 0. -1.
         25    1    1    2    0    0 -0.12260416555E+02 -0.41025357895E+02 -0.13218973242E+03  0.18359608700E+03  0.12000000000E+03 0.  0.
         25    1    1    2    0    0  0.12260416555E+02  0.41025357895E+02 -0.87092599866E+02  0.15433249417E+03  0.12000000000E+03 0.  0.
<mgrwt>
<rscale>  0 0.25712056E+03</rscale>
<asrwt>0</asrwt>
<pdfrwt beam="1">  1        2 0.42862378E-01 0.25712056E+03</pdfrwt>
<pdfrwt beam="2">  1       -2 0.91266344E-02 0.25712056E+03</pdfrwt>
<totfact> 0.89891477E+03</totfact>
</mgrwt>
</event>
<event>
 5    1  0.1125356E+001  0.2749615E+03  0.7818608E-02  0.1098473E+00
         -2   -1    0    0    0  501 -0.00000000000E+00  0.00000000000E+00  0.10701812091E+02  0.10701812091E+02  0.00000000000E+00 0. -1.
          2   -1    0    0  501    0  0.00000000000E+00 -0.00000000000E+00 -0.17661452740E+04  0.17661452740E+04  0.00000000000E+00 0. -1.
         35    2    1    2    0    0  0.00000000000E+00  0.00000000000E+00 -0.17554434620E+04  0.17768470861E+04  0.27496148710E+03 0.  0.
         25    1    3    3    0    0  0.12980871020E+02  0.11123163805E+02 -0.45849055853E+03  0.47424236425E+03  0.12000000000E+03 0.  0.
         25    1    3    3    0    0 -0.12980871020E+02 -0.11123163805E+02 -0.12969529034E+04  0.13026047219E+04  0.12000000000E+03 0.  0.
<mgrwt>
<rscale>  0 0.27496149E+03</rscale>
<asrwt>0</asrwt>
<pdfrwt beam="1">  1        2 0.27171429E+00 0.27496149E+03</pdfrwt>
<pdfrwt beam="2">  1       -2 0.16464349E-02 0.27496149E+03</pdfrwt>
<totfact> 0.10147819E+04</totfact>
</mgrwt>
</event>
<event>
 5    1  0.1125356E+001  0.2739734E+03  0.7818608E-02  0.1099027E+00
          2   -1    0    0  501    0  0.00000000000E+00  0.00000000000E+00  0.13741442559E+04  0.13741442559E+04  0.00000000000E+00 0. -1.
         -2   -1    0    0    0  501 -0.00000000000E+00 -0.00000000000E+00 -0.13656028629E+02  0.13656028629E+02  0.00000000000E+00 0. -1.
         35    2    1    2    0    0  0.00000000000E+00  0.00000000000E+00  0.13604882272E+04  0.13878002845E+04  0.27397338045E+03 0.  0.
         25    1    3    3    0    0  0.23336351052E+02 -0.57534339668E+02  0.79470189018E+03  0.80610537759E+03  0.12000000000E+03 0.  0.
         25    1    3    3    0    0 -0.23336351052E+02  0.57534339668E+02  0.56578633705E+03  0.58169490690E+03  0.12000000000E+03 0.  0.
<mgrwt>
<rscale>  0 0.27397338E+03</rscale>
<asrwt>0</asrwt>
<pdfrwt beam="1">  1        2 0.21140670E+00 0.27397338E+03</pdfrwt>
<pdfrwt beam="2">  1       -2 0.21009286E-02 0.27397338E+03</pdfrwt>
<totfact> 0.11471928E+04</totfact>
</mgrwt>
</event>
<event>
 5    1  0.1125356E+001  0.2747668E+03  0.7818608E-02  0.1098582E+00
          2   -1    0    0  501    0  0.00000000000E+00  0.00000000000E+00  0.24806866926E+04  0.24806866926E+04  0.00000000000E+00 0. -1.
         -2   -1    0    0    0  501 -0.00000000000E+00 -0.00000000000E+00 -0.76084551437E+01  0.76084551437E+01  0.00000000000E+00 0. -1.
         35    2    1    2    0    0  0.00000000000E+00  0.00000000000E+00  0.24730782374E+04  0.24882951477E+04  0.27476676237E+03 0.  0.
         25    1    3    3    0    0 -0.35193595078E+02  0.31586888052E+02  0.80813326672E+03  0.81836159332E+03  0.12000000000E+03 0.  0.
         25    1    3    3    0    0  0.35193595078E+02 -0.31586888052E+02  0.16649449707E+04  0.16699335544E+04  0.12000000000E+03 0.  0.
<mgrwt>
<rscale>  0 0.27476676E+03</rscale>
<asrwt>0</asrwt>
<pdfrwt beam="1">  1        2 0.38164346E+00 0.27476676E+03</pdfrwt>
<pdfrwt beam="2">  1       -2 0.11705335E-02 0.27476676E+03</pdfrwt>
<totfact> 0.69667848E+03</totfact>
</mgrwt>
</event>
<event>
 5    1  0.1125356E+001  0.2754189E+03  0.7818608E-02  0.1098218E+00
         -1   -1    0    0    0  501 -0.00000000000E+00  0.00000000000E+00  0.17324267362E+03  0.17324267362E+03  0.00000000000E+00 0.  1.
          1   -1    0    0  501    0  0.00000000000E+00 -0.00000000000E+00 -0.10946431221E+03  0.10946431221E+03  0.00000000000E+00 0.  1.
         35    2    1    2    0    0  0.00000000000E+00  0.00000000000E+00  0.63778361406E+02  0.28270698583E+03  0.27541888180E+03 0.  0.
         25    1    3    3    0    0  0.63623050168E+02  0.74964323923E+01  0.53899575536E+02  0.14631901194E+03  0.12000000000E+03 0.  0.
         25    1    3    3    0    0 -0.63623050168E+02 -0.74964323923E+01  0.98787858703E+01  0.13638797389E+03  0.12000000000E+03 0.  0.
<mgrwt>
<rscale>  0 0.27541888E+03</rscale>
<asrwt>0</asrwt>
<pdfrwt beam="1">  1        1 0.16840663E-01 0.27541888E+03</pdfrwt>
<pdfrwt beam="2">  1       -1 0.26652719E-01 0.27541888E+03</pdfrwt>
<totfact> 0.39750382E+03</totfact>
</mgrwt>
</event>
<event>
 5    1  0.1125356E+001  0.2742862E+03  0.7818608E-02  0.1098851E+00
         -2   -1    0    0    0  501 -0.00000000000E+00  0.00000000000E+00  0.75117205415E+02  0.75117205415E+02  0.00000000000E+00 0. -1.
          2   -1    0    0  501    0  0.00000000000E+00 -0.00000000000E+00 -0.25038519933E+03  0.25038519933E+03  0.00000000000E+00 0. -1.
         35    2    1    2    0    0  0.00000000000E+00  0.00000000000E+00 -0.17526799392E+03  0.32550240475E+03  0.27428624793E+03 0.  0.
         25    1    3    3    0    0 -0.16602049004E+02 -0.57364833774E+02 -0.53200877894E+02  0.14421055992E+03  0.12000000000E+03 0.  0.
         25    1    3    3    0    0  0.16602049004E+02  0.57364833774E+02 -0.12206711602E+03  0.18129184482E+03  0.12000000000E+03 0.  0.
<mgrwt>
<rscale>  0 0.27428625E+03</rscale>
<asrwt>0</asrwt>
<pdfrwt beam="1">  1        2 0.38520801E-01 0.27428625E+03</pdfrwt>
<pdfrwt beam="2">  1       -2 0.11556493E-01 0.27428625E+03</pdfrwt>
<totfact> 0.69436358E+03</totfact>
</mgrwt>
</event>
<event>
 5    1  0.1125356E+001  0.2766361E+03  0.7818608E-02  0.1097541E+00
         -4   -1    0    0    0  501 -0.00000000000E+00  0.00000000000E+00  0.96186599030E+03  0.96186599030E+03  0.00000000000E+00 0.  1.
          4   -1    0    0  501    0  0.00000000000E+00 -0.00000000000E+00 -0.19890378980E+02  0.19890378980E+02  0.00000000000E+00 0.  1.
         35    2    1    2    0    0  0.00000000000E+00  0.00000000000E+00  0.94197561132E+03  0.98175636928E+03  0.27663607194E+03 0.  0.
         25    1    3    3    0    0 -0.70286291927E+01  0.28627020972E+02  0.69156248103E+03  0.70251517644E+03  0.12000000000E+03 0.  0.
         25    1    3    3    0    0  0.70286291927E+01 -0.28627020972E+02  0.25041313029E+03  0.27924119284E+03  0.12000000000E+03 0.  0.
<mgrwt>
<rscale>  0 0.27663607E+03</rscale>
<asrwt>0</asrwt>
<pdfrwt beam="1">  1        4 0.30600590E-02 0.27663607E+03</pdfrwt>
<pdfrwt beam="2">  1       -4 0.14797935E+00 0.27663607E+03</pdfrwt>
<totfact> 0.32071494E+02</totfact>
</mgrwt>
</event>
<event>
 5    1  0.1125356E+001  0.2746054E+03  0.7818608E-02  0.1098672E+00
         -2   -1    0    0    0  501 -0.00000000000E+00  0.00000000000E+00  0.14190668029E+02  0.14190668029E+02  0.00000000000E+00 0. -1.
          2   -1    0    0  501    0  0.00000000000E+00 -0.00000000000E+00 -0.13284804792E+04  0.13284804792E+04  0.00000000000E+00 0. -1.
         35    2    1    2    0    0  0.00000000000E+00  0.00000000000E+00 -0.13142898112E+04  0.13426711472E+04  0.27460535656E+03 0.  0.
         25    1    3    3    0    0 -0.69658551111E+01  0.48274929317E+02 -0.87976471916E+03  0.88924965730E+03  0.12000000000E+03 0.  0.
         25    1    3    3    0    0  0.69658551111E+01 -0.48274929317E+02 -0.43452509201E+03  0.45342148992E+03  0.12000000000E+03 0.  0.
<mgrwt>
<rscale>  0 0.27460536E+03</rscale>
<asrwt>0</asrwt>
<pdfrwt beam="1">  1        2 0.20438152E+00 0.27460536E+03</pdfrwt>
<pdfrwt beam="2">  1       -2 0.21831806E-02 0.27460536E+03</pdfrwt>
<totfact> 0.11484158E+04</totfact>
</mgrwt>
</event>
<event>
 5    1  0.1125356E+001  0.2749845E+03  0.7818608E-02  0.1098460E+00
         -1   -1    0    0    0  501 -0.00000000000E+00  0.00000000000E+00  0.10026264392E+03  0.10026264392E+03  0.00000000000E+00 0. -1.
          1   -1    0    0  501    0  0.00000000000E+00 -0.00000000000E+00 -0.18854594155E+03  0.18854594155E+03  0.00000000000E+00 0. -1.
         35    2    1    2    0    0  0.00000000000E+00  0.00000000000E+00 -0.88283297632E+02  0.28880858547E+03  0.27498446938E+03 0.  0.
         25    1    3    3    0    0 -0.44374859687E+02 -0.26594527282E+02  0.75939876914E+00  0.13067889554E+03  0.12000000000E+03 0.  0.
         25    1    3    3    0    0  0.44374859687E+02  0.26594527282E+02 -0.89042696401E+02  0.15812968993E+03  0.12000000000E+03 0.  0.
<mgrwt>
<rscale>  0 0.27498447E+03</rscale>
<asrwt>0</asrwt>
<pdfrwt beam="1">  1        1 0.29007068E-01 0.27498447E+03</pdfrwt>
<pdfrwt beam="2">  1       -1 0.15425022E-01 0.27498447E+03</pdfrwt>
<totfact> 0.48265258E+03</totfact>
</mgrwt>
</event>
<event>
 5    1  0.1125356E+001  0.2707178E+03  0.7818608E-02  0.1100870E+00
          2   -1    0    0  501    0  0.00000000000E+00  0.00000000000E+00  0.42459536379E+03  0.42459536379E+03  0.00000000000E+00 0. -1.
         -2   -1    0    0    0  501 -0.00000000000E+00 -0.00000000000E+00 -0.43151736666E+02  0.43151736666E+02  0.00000000000E+00 0. -1.
         35    2    1    2    0    0  0.00000000000E+00  0.00000000000E+00  0.38144362712E+03  0.46774710046E+03  0.27071776689E+03 0.  0.
         25    1    3    3    0    0  0.46848889878E+02  0.35615659473E+02  0.15371560074E+03  0.20369531068E+03  0.12000000000E+03 0.  0.
         25    1    3    3    0    0 -0.46848889878E+02 -0.35615659473E+02  0.22772802639E+03  0.26405178978E+03  0.12000000000E+03 0.  0.
<mgrwt>
<rscale>  0 0.27071777E+03</rscale>
<asrwt>0</asrwt>
<pdfrwt beam="1">  1        2 0.65322361E-01 0.27071777E+03</pdfrwt>
<pdfrwt beam="2">  1       -2 0.66387290E-02 0.27071777E+03</pdfrwt>
<totfact> 0.93890030E+03</totfact>
</mgrwt>
</event>
<event>
 5    1  0.1125356E+001  0.2747702E+03  0.7818608E-02  0.1098580E+00
          2   -1    0    0  501    0  0.00000000000E+00  0.00000000000E+00  0.30816979424E+02  0.30816979424E+02  0.00000000000E+00 0. -1.
         -2   -1    0    0    0  501 -0.00000000000E+00 -0.00000000000E+00 -0.61247637200E+03  0.61247637200E+03  0.00000000000E+00 0. -1.
         35    2    1    2    0    0  0.00000000000E+00  0.00000000000E+00 -0.58165939258E+03  0.64329335143E+03  0.27477024405E+03 0.  0.
         25    1    3    3    0    0 -0.67440901500E+01 -0.58068018327E+02 -0.36695644790E+03  0.39047972055E+03  0.12000000000E+03 0.  0.
         25    1    3    3    0    0  0.67440901500E+01  0.58068018327E+02 -0.21470294468E+03  0.25281363088E+03  0.12000000000E+03 0.  0.
<mgrwt>
<rscale>  0 0.27477024E+03</rscale>
<asrwt>0</asrwt>
<pdfrwt beam="1">  1        2 0.47410734E-02 0.27477024E+03</pdfrwt>
<pdfrwt beam="2">  1       -2 0.94227140E-01 0.27477024E+03</pdfrwt>
<totfact> 0.16590248E+03</totfact>
</mgrwt>
</event>
<event>
 5    1  0.1125356E+001  0.2746853E+03  0.7818608E-02  0.1098628E+00
          1   -1    0    0  501    0  0.00000000000E+00  0.00000000000E+00  0.63425498557E+02  0.63425498557E+02  0.00000000000E+00 0.  1.
         -1   -1    0    0    0  501 -0.00000000000E+00 -0.00000000000E+00 -0.29740406994E+03  0.29740406994E+03  0.00000000000E+00 0.  1.
         35    2    1    2    0    0  0.00000000000E+00  0.00000000000E+00 -0.23397857138E+03  0.36082956850E+03  0.27468528471E+03 0.  0.
         25    1    3    3    0    0  0.46479087628E+01 -0.17879175199E+02 -0.20132405785E+03  0.23510134885E+03  0.12000000000E+03 0.  0.
         25    1    3    3    0    0 -0.46479087628E+01  0.17879175199E+02 -0.32654513532E+02  0.12572821965E+03  0.12000000000E+03 0.  0.
<mgrwt>
<rscale>  0 0.27468528E+03</rscale>
<asrwt>0</asrwt>
<pdfrwt beam="1">  1        1 0.97577688E-02 0.27468528E+03</pdfrwt>
<pdfrwt beam="2">  1       -1 0.45754473E-01 0.27468528E+03</pdfrwt>
<totfact> 0.31970893E+03</totfact>
</mgrwt>
</event>
<event>
 5    1  0.1125356E+001  0.2745890E+03  0.7818608E-02  0.1098682E+00
         -2   -1    0    0    0  501 -0.00000000000E+00  0.00000000000E+00  0.65560741742E+01  0.65560741742E+01  0.00000000000E+00 0.  1.
          2   -1    0    0  501    0  0.00000000000E+00 -0.00000000000E+00 -0.28751621046E+04  0.28751621046E+04  0.00000000000E+00 0.  1.
         35    2    1    2    0    0  0.00000000000E+00  0.00000000000E+00 -0.28686060304E+04  0.28817181788E+04  0.27458897298E+03 0.  0.
         25    1    3    3    0    0  0.43986579010E+02 -0.47500604317E+02 -0.12655217587E+04  0.12728458069E+04  0.12000000000E+03 0.  0.
         25    1    3    3    0    0 -0.43986579010E+02  0.47500604317E+02 -0.16030842718E+04  0.16088723719E+04  0.12000000000E+03 0.  0.
<mgrwt>
<rscale>  0 0.27458897E+03</rscale>
<asrwt>0</asrwt>
<pdfrwt beam="1">  1        2 0.44233397E+00 0.27458897E+03</pdfrwt>
<pdfrwt beam="2">  1       -2 0.10086237E-02 0.27458897E+03</pdfrwt>
<totfact> 0.51925982E+03</totfact>
</mgrwt>
</event>
<event>
 5    1  0.1125356E+001  0.2752976E+03  0.7818608E-02  0.1098285E+00
          1   -1    0    0  501    0  0.00000000000E+00  0.00000000000E+00  0.68594540511E+03  0.68594540511E+03  0.00000000000E+00 0. -1.
         -1   -1    0    0    0  501 -0.00000000000E+00 -0.00000000000E+00 -0.27622015036E+02  0.27622015036E+02  0.00000000000E+00 0. -1.
         35    2    1    2    0    0  0.00000000000E+00  0.00000000000E+00  0.65832339007E+03  0.71356742014E+03  0.27529761563E+03 0.  0.
         25    1    3    3    0    0 -0.10090836689E+02  0.64332423874E+02  0.37455538657E+03  0.39866304488E+03  0.12000000000E+03 0.  0.
         25    1    3    3    0    0  0.10090836689E+02 -0.64332423874E+02  0.28376800350E+03  0.31490437526E+03  0.12000000000E+03 0.  0.
<mgrwt>
<rscale>  0 0.27529762E+03</rscale>
<asrwt>0</asrwt>
<pdfrwt beam="1">  1        1 0.10553005E+00 0.27529762E+03</pdfrwt>
<pdfrwt beam="2">  1       -1 0.42495413E-02 0.27529762E+03</pdfrwt>
<totfact> 0.65057798E+03</totfact>
</mgrwt>
</event>
<event>
 5    1  0.1125356E+001  0.2752405E+03  0.7818608E-02  0.1098317E+00
         -2   -1    0    0    0  501 -0.00000000000E+00  0.00000000000E+00  0.57067587244E+03  0.57067587244E+03  0.00000000000E+00 0. -1.
          2   -1    0    0  501    0  0.00000000000E+00 -0.00000000000E+00 -0.33187538471E+02  0.33187538471E+02  0.00000000000E+00 0. -1.
         35    2    1    2    0    0  0.00000000000E+00  0.00000000000E+00  0.53748833396E+03  0.60386341091E+03  0.27524045830E+03 0.  0.
         25    1    3    3    0    0  0.34349146141E+02 -0.47916470237E+02  0.34029096301E+03  0.36561426595E+03  0.12000000000E+03 0.  0.
         25    1    3    3    0    0 -0.34349146141E+02  0.47916470237E+02  0.19719737095E+03  0.23824914496E+03  0.12000000000E+03 0.  0.
<mgrwt>
<rscale>  0 0.27524046E+03</rscale>
<asrwt>0</asrwt>
<pdfrwt beam="1">  1        2 0.51057756E-02 0.27524046E+03</pdfrwt>
<pdfrwt beam="2">  1       -2 0.87796281E-01 0.27524046E+03</pdfrwt>
<totfact> 0.17657647E+03</totfact>
</mgrwt>
</event>
<event>
 5    1  0.1125356E+001  0.2738852E+03  0.7818608E-02  0.1099076E+00
         -4   -1    0    0    0  501 -0.00000000000E+00  0.00000000000E+00  0.57500896055E+03  0.57500896055E+03  0.00000000000E+00 0. -1.
          4   -1    0    0  501    0  0.00000000000E+00 -0.00000000000E+00 -0.32613891857E+02  0.32613891857E+02  0.00000000000E+00 0. -1.
         35    2    1    2    0    0  0.00000000000E+00  0.00000000000E+00  0.54239506869E+03  0.60762285241E+03  0.27388523185E+03 0.  0.
         25    1    3    3    0    0 -0.17826436280E+02 -0.23324832050E+02  0.40228719052E+03  0.42082872202E+03  0.12000000000E+03 0.  0.
         25    1    3    3    0    0  0.17826436280E+02  0.23324832050E+02  0.14010787817E+03  0.18679413038E+03  0.12000000000E+03 0.  0.
<mgrwt>
<rscale>  0 0.27388523E+03</rscale>
<asrwt>0</asrwt>
<pdfrwt beam="1">  1        4 0.50175223E-02 0.27388523E+03</pdfrwt>
<pdfrwt beam="2">  1       -4 0.88462909E-01 0.27388523E+03</pdfrwt>
<totfact> 0.50348233E+02</totfact>
</mgrwt>
</event>
<event>
 5    1  0.1125356E+001  0.2791332E+03  0.7818608E-02  0.1096163E+00
         -1   -1    0    0    0  501 -0.00000000000E+00  0.00000000000E+00  0.46357803220E+02  0.46357803220E+02  0.00000000000E+00 0.  1.
          1   -1    0    0  501    0  0.00000000000E+00 -0.00000000000E+00 -0.42018453620E+03  0.42018453620E+03  0.00000000000E+00 0.  1.
         35    2    1    2    0    0  0.00000000000E+00  0.00000000000E+00 -0.37382673298E+03  0.46654233942E+03  0.27913317284E+03 0.  0.
         25    1    3    3    0    0 -0.67873111201E+02  0.10684452586E+00 -0.15059896773E+03  0.20417350396E+03  0.12000000000E+03 0.  0.
         25    1    3    3    0    0  0.67873111201E+02 -0.10684452586E+00 -0.22322776526E+03  0.26236883546E+03  0.12000000000E+03 0.  0.
<mgrwt>
<rscale>  0 0.27913317E+03</rscale>
<asrwt>0</asrwt>
<pdfrwt beam="1">  1        1 0.64643774E-01 0.27913317E+03</pdfrwt>
<pdfrwt beam="2">  1       -1 0.71319698E-02 0.27913317E+03</pdfrwt>
<totfact> 0.58076323E+03</totfact>
</mgrwt>
</event>
<event>
 5    1  0.1125356E+001  0.2749378E+03  0.7818608E-02  0.1098486E+00
         -2   -1    0    0    0  501 -0.00000000000E+00  0.00000000000E+00  0.96408376904E+01  0.96408376904E+01  0.00000000000E+00 0. -1.
          2   -1    0    0  501    0  0.00000000000E+00 -0.00000000000E+00 -0.19601711989E+04  0.19601711989E+04  0.00000000000E+00 0. -1.
         35    2    1    2    0    0  0.00000000000E+00  0.00000000000E+00 -0.19505303612E+04  0.19698120366E+04  0.27493775568E+03 0.  0.
         25    1    3    3    0    0 -0.61848936161E+02  0.25353541885E+01 -0.79037286518E+03  0.80182353728E+03  0.12000000000E+03 0.  0.
         25    1    3    3    0    0  0.61848936161E+02 -0.25353541885E+01 -0.11601574960E+04  0.11679884993E+04  0.12000000000E+03 0.  0.
<mgrwt>
<rscale>  0 0.27493776E+03</rscale>
<asrwt>0</asrwt>
<pdfrwt beam="1">  1        2 0.30156483E+00 0.27493776E+03</pdfrwt>
<pdfrwt beam="2">  1       -2 0.14832056E-02 0.27493776E+03</pdfrwt>
<totfact> 0.93514468E+03</totfact>
</mgrwt>
</event>
<event>
 5    1  0.1125356E+001  0.2751360E+03  0.7818608E-02  0.1098376E+00
         -1   -1    0    0    0  501 -0.00000000000E+00  0.00000000000E+00  0.74379139297E+02  0.74379139297E+02  0.00000000000E+00 0.  1.
          1   -1    0    0  501    0  0.00000000000E+00 -0.00000000000E+00 -0.25443895015E+03  0.25443895015E+03  0.00000000000E+00 0.  1.
         35    2    1    2    0    0  0.00000000000E+00  0.00000000000E+00 -0.18005981085E+03  0.32881808945E+03  0.27513596723E+03 0.  0.
         25    1    3    3    0    0 -0.61048147377E+02  0.15250288399E+02 -0.11845000577E+03  0.17997180741E+03  0.12000000000E+03 0.  0.
         25    1    3    3    0    0  0.61048147377E+02 -0.15250288399E+02 -0.61609805079E+02  0.14884628204E+03  0.12000000000E+03 0.  0.
<mgrwt>
<rscale>  0 0.27513597E+03</rscale>
<asrwt>0</asrwt>
<pdfrwt beam="1">  1        1 0.39144454E-01 0.27513597E+03</pdfrwt>
<pdfrwt beam="2">  1       -1 0.11442945E-01 0.27513597E+03</pdfrwt>
<totfact> 0.52952311E+03</totfact>
</mgrwt>
</event>
<event>
 5    1  0.1125356E+001  0.2750852E+03  0.7818608E-02  0.1098404E+00
         -2   -1    0    0    0  501 -0.00000000000E+00  0.00000000000E+00  0.29055008339E+03  0.29055008339E+03  0.00000000000E+00 0.  1.
          2   -1    0    0  501    0  0.00000000000E+00 -0.00000000000E+00 -0.65110844868E+02  0.65110844868E+02  0.00000000000E+00 0.  1.
         35    2    1    2    0    0  0.00000000000E+00  0.00000000000E+00  0.22543923852E+03  0.35566092825E+03  0.27508516067E+03 0.  0.
         25    1    3    3    0    0  0.11562893054E+02 -0.87980156998E+01  0.19756909465E+03  0.23161315320E+03  0.12000000000E+03 0.  0.
         25    1    3    3    0    0 -0.11562893054E+02  0.87980156998E+01  0.27870143871E+02  0.12404777505E+03  0.12000000000E+03 0.  0.
<mgrwt>
<rscale>  0 0.27508516E+03</rscale>
<asrwt>0</asrwt>
<pdfrwt beam="1">  1        2 0.10017053E-01 0.27508516E+03</pdfrwt>
<pdfrwt beam="2">  1       -2 0.44700012E-01 0.27508516E+03</pdfrwt>
<totfact> 0.30566751E+03</totfact>
</mgrwt>
</event>
<event>
 4    1  0.1125356E+001  0.2588338E+03  0.7818608E-02  0.1107846E+00
         -2   -1    0    0    0  501 -0.00000000000E+00  0.00000000000E+00  0.19042868785E+02  0.19042868785E+02  0.00000000000E+00 0.  1.
          2   -1    0    0  501    0  0.00000000000E+00 -0.00000000000E+00 -0.87952757348E+03  0.87952757348E+03  0.00000000000E+00 0.  1.
         25    1    1    2    0    0  0.18051327091E+02 -0.39709162502E+02 -0.50356327859E+03  0.51949845383E+03  0.12000000000E+03 0.  0.
         25    1    1    2    0    0 -0.18051327091E+02  0.39709162502E+02 -0.35692142611E+03  0.37907198843E+03  0.12000000000E+03 0.  0.
<mgrwt>
<rscale>  0 0.25883375E+03</rscale>
<asrwt>0</asrwt>
<pdfrwt beam="1">  1        2 0.13531193E+00 0.25883375E+03</pdfrwt>
<pdfrwt beam="2">  1       -2 0.29296722E-02 0.25883375E+03</pdfrwt>
<totfact> 0.13665641E+04</totfact>
</mgrwt>
</event>
<event>
 5    1  0.1125356E+001  0.2649958E+03  0.7818608E-02  0.1104178E+00
          1   -1    0    0  501    0  0.00000000000E+00  0.00000000000E+00  0.73806977294E+03  0.73806977294E+03  0.00000000000E+00 0.  1.
         -1   -1    0    0    0  501 -0.00000000000E+00 -0.00000000000E+00 -0.23785946492E+02  0.23785946492E+02  0.00000000000E+00 0.  1.
         35    2    1    2    0    0  0.00000000000E+00  0.00000000000E+00  0.71428382645E+03  0.76185571943E+03  0.26499575941E+03 0.  0.
         25    1    3    3    0    0  0.11554388796E+02  0.53360773253E+02  0.31913001497E+03  0.34528950531E+03  0.12000000000E+03 0.  0.
         25    1    3    3    0    0 -0.11554388796E+02 -0.53360773253E+02  0.39515381147E+03  0.41656621412E+03  0.12000000000E+03 0.  0.
<mgrwt>
<rscale>  0 0.26499576E+03</rscale>
<asrwt>0</asrwt>
<pdfrwt beam="1">  1        1 0.11354918E+00 0.26499576E+03</pdfrwt>
<pdfrwt beam="2">  1       -1 0.36593769E-02 0.26499576E+03</pdfrwt>
<totfact> 0.72884898E+03</totfact>
</mgrwt>
</event>
<event>
 5    1  0.1125356E+001  0.2743337E+03  0.7818608E-02  0.1098825E+00
         -2   -1    0    0    0  501 -0.00000000000E+00  0.00000000000E+00  0.71141439029E+02  0.71141439029E+02  0.00000000000E+00 0.  1.
          2   -1    0    0  501    0  0.00000000000E+00 -0.00000000000E+00 -0.26446963890E+03  0.26446963890E+03  0.00000000000E+00 0.  1.
         35    2    1    2    0    0  0.00000000000E+00  0.00000000000E+00 -0.19332819987E+03  0.33561107793E+03  0.27433374339E+03 0.  0.
         25    1    3    3    0    0  0.38117818097E+02 -0.28771688535E+02 -0.15317750492E+03  0.20035999134E+03  0.12000000000E+03 0.  0.
         25    1    3    3    0    0 -0.38117818097E+02  0.28771688535E+02 -0.40150694952E+02  0.13525108659E+03  0.12000000000E+03 0.  0.
<mgrwt>
<rscale>  0 0.27433374E+03</rscale>
<asrwt>0</asrwt>
<pdfrwt beam="1">  1        2 0.40687637E-01 0.27433374E+03</pdfrwt>
<pdfrwt beam="2">  1       -2 0.10944837E-01 0.27433374E+03</pdfrwt>
<totfact> 0.71427082E+03</totfact>
</mgrwt>
</event>
<event>
 5    1  0.1125356E+001  0.2755285E+03  0.7818608E-02  0.1098157E+00
          2   -1    0    0  501    0  0.00000000000E+00  0.00000000000E+00  0.16130559606E+04  0.16130559606E+04  0.00000000000E+00 0.  1.
         -2   -1    0    0    0  501 -0.00000000000E+00 -0.00000000000E+00 -0.11765860747E+02  0.11765860747E+02  0.00000000000E+00 0.  1.
         35    2    1    2    0    0  0.00000000000E+00  0.00000000000E+00  0.16012900999E+04  0.16248218214E+04  0.27552852346E+03 0.  0.
         25    1    3    3    0    0  0.13489319896E+01  0.55102095300E+02  0.56915580705E+03  0.58427424487E+03  0.12000000000E+03 0.  0.
         25    1    3    3    0    0 -0.13489319896E+01 -0.55102095300E+02  0.10321342928E+04  0.10405475765E+04  0.12000000000E+03 0.  0.
<mgrwt>
<rscale>  0 0.27552852E+03</rscale>
<asrwt>0</asrwt>
<pdfrwt beam="1">  1        2 0.24816228E+00 0.27552852E+03</pdfrwt>
<pdfrwt beam="2">  1       -2 0.18101337E-02 0.27552852E+03</pdfrwt>
<totfact> 0.10634125E+04</totfact>
</mgrwt>
</event>
<event>
 5    1  0.1125356E+001  0.2752705E+03  0.7818608E-02  0.1098301E+00
          2   -1    0    0  501    0  0.00000000000E+00  0.00000000000E+00  0.18375176631E+02  0.18375176631E+02  0.00000000000E+00 0. -1.
         -2   -1    0    0    0  501 -0.00000000000E+00 -0.00000000000E+00 -0.10309264283E+04  0.10309264283E+04  0.00000000000E+00 0. -1.
         35    2    1    2    0    0  0.00000000000E+00  0.00000000000E+00 -0.10125512517E+04  0.10493016049E+04  0.27527045038E+03 0.  0.
         25    1    3    3    0    0 -0.64592815547E+02  0.55982446974E+01 -0.43599987462E+03  0.45683636330E+03  0.12000000000E+03 0.  0.
         25    1    3    3    0    0  0.64592815547E+02 -0.55982446974E+01 -0.57655137707E+03  0.59246524165E+03  0.12000000000E+03 0.  0.
<mgrwt>
<rscale>  0 0.27527045E+03</rscale>
<asrwt>0</asrwt>
<pdfrwt beam="1">  1        2 0.28269498E-02 0.27527045E+03</pdfrwt>
<pdfrwt beam="2">  1       -2 0.15860409E+00 0.27527045E+03</pdfrwt>
<totfact> 0.93158820E+02</totfact>
</mgrwt>
</event>
<event>
 5    1  0.1125356E+001  0.2651528E+03  0.7818608E-02  0.1104086E+00
         -2   -1    0    0    0  501 -0.00000000000E+00  0.00000000000E+00  0.16053400262E+02  0.16053400262E+02  0.00000000000E+00 0. -1.
          2   -1    0    0  501    0  0.00000000000E+00 -0.00000000000E+00 -0.10948769969E+04  0.10948769969E+04  0.00000000000E+00 0. -1.
         35    2    1    2    0    0  0.00000000000E+00  0.00000000000E+00 -0.10788235966E+04  0.11109303971E+04  0.26515277610E+03 0.  0.
         25    1    3    3    0    0  0.44921314619E+02  0.84585940268E+01 -0.67754901688E+03  0.68961013811E+03  0.12000000000E+03 0.  0.
         25    1    3    3    0    0 -0.44921314619E+02 -0.84585940268E+01 -0.40127457974E+03  0.42132025903E+03  0.12000000000E+03 0.  0.
<mgrwt>
<rscale>  0 0.26515278E+03</rscale>
<asrwt>0</asrwt>
<pdfrwt beam="1">  1        2 0.16844269E+00 0.26515278E+03</pdfrwt>
<pdfrwt beam="2">  1       -2 0.24697529E-02 0.26515278E+03</pdfrwt>
<totfact> 0.12972727E+04</totfact>
</mgrwt>
</event>
<event>
 5    1  0.1125356E+001  0.2740875E+03  0.7818608E-02  0.1098963E+00
         -2   -1    0    0    0  501 -0.00000000000E+00  0.00000000000E+00  0.51165408594E+02  0.51165408594E+02  0.00000000000E+00 0. -1.
          2   -1    0    0  501    0  0.00000000000E+00 -0.00000000000E+00 -0.36706416076E+03  0.36706416076E+03  0.00000000000E+00 0. -1.
         35    2    1    2    0    0  0.00000000000E+00  0.00000000000E+00 -0.31589875216E+03  0.41822956935E+03  0.27408748797E+03 0.  0.
         25    1    3    3    0    0  0.16668419190E+02 -0.10178412858E+02 -0.25445023297E+03  0.28200417965E+03  0.12000000000E+03 0.  0.
         25    1    3    3    0    0 -0.16668419190E+02  0.10178412858E+02 -0.61448519200E+02  0.13622538970E+03  0.12000000000E+03 0.  0.
<mgrwt>
<rscale>  0 0.27408749E+03</rscale>
<asrwt>0</asrwt>
<pdfrwt beam="1">  1        2 0.56471411E-01 0.27408749E+03</pdfrwt>
<pdfrwt beam="2">  1       -2 0.78716011E-02 0.27408749E+03</pdfrwt>
<totfact> 0.84473521E+03</totfact>
</mgrwt>
</event>
<event>
 5    1  0.1125356E+001  0.2756449E+03  0.7818608E-02  0.1098092E+00
         -4   -1    0    0    0  501 -0.00000000000E+00  0.00000000000E+00  0.10247999475E+03  0.10247999475E+03  0.00000000000E+00 0. -1.
          4   -1    0    0  501    0  0.00000000000E+00 -0.00000000000E+00 -0.18535346483E+03  0.18535346483E+03  0.00000000000E+00 0. -1.
         35    2    1    2    0    0  0.00000000000E+00  0.00000000000E+00 -0.82873470086E+02  0.28783345958E+03  0.27564485921E+03 0.  0.
         25    1    3    3    0    0 -0.21426764842E+02  0.64256260779E+02 -0.38664378917E+02  0.14311850858E+03  0.12000000000E+03 0.  0.
         25    1    3    3    0    0  0.21426764842E+02 -0.64256260779E+02 -0.44209091169E+02  0.14471495100E+03  0.12000000000E+03 0.  0.
<mgrwt>
<rscale>  0 0.27564486E+03</rscale>
<asrwt>0</asrwt>
<pdfrwt beam="1">  1        4 0.28515918E-01 0.27564486E+03</pdfrwt>
<pdfrwt beam="2">  1       -4 0.15766153E-01 0.27564486E+03</pdfrwt>
<totfact> 0.75819131E+02</totfact>
</mgrwt>
</event>
<event>
 5    1  0.1125356E+001  0.2775147E+03  0.7818608E-02  0.1097054E+00
          1   -1    0    0  501    0  0.00000000000E+00  0.00000000000E+00  0.14235214707E+04  0.14235214707E+04  0.00000000000E+00 0. -1.
         -1   -1    0    0    0  501 -0.00000000000E+00 -0.00000000000E+00 -0.13525336524E+02  0.13525336524E+02  0.00000000000E+00 0. -1.
         35    2    1    2    0    0  0.00000000000E+00  0.00000000000E+00  0.14099961342E+04  0.14370468072E+04  0.27751473431E+03 0.  0.
         25    1    3    3    0    0  0.15322549710E+02 -0.36031519159E+02  0.40660393769E+03  0.42574618383E+03  0.12000000000E+03 0.  0.
         25    1    3    3    0    0 -0.15322549710E+02  0.36031519159E+02  0.10033921965E+04  0.10113006234E+04  0.12000000000E+03 0.  0.
<mgrwt>
<rscale>  0 0.27751473E+03</rscale>
<asrwt>0</asrwt>
<pdfrwt beam="1">  1        1 0.21900319E+00 0.27751473E+03</pdfrwt>
<pdfrwt beam="2">  1       -1 0.20808221E-02 0.27751473E+03</pdfrwt>
<totfact> 0.52078707E+03</totfact>
</mgrwt>
</event>
<event>
 5    1  0.1125356E+001  0.2763360E+03  0.7818608E-02  0.1097707E+00
          2   -1    0    0  501    0  0.00000000000E+00  0.00000000000E+00  0.51153303727E+03  0.51153303727E+03  0.00000000000E+00 0. -1.
         -2   -1    0    0    0  501 -0.00000000000E+00 -0.00000000000E+00 -0.37319958616E+02  0.37319958616E+02  0.00000000000E+00 0. -1.
         35    2    1    2    0    0  0.00000000000E+00  0.00000000000E+00  0.47421307865E+03  0.54885299589E+03  0.27633596785E+03 0.  0.
         25    1    3    3    0    0  0.49983260948E+02  0.19463631831E+02  0.32168219304E+03  0.34750049303E+03  0.12000000000E+03 0.  0.
         25    1    3    3    0    0 -0.49983260948E+02 -0.19463631831E+02  0.15253088561E+03  0.20135250285E+03  0.12000000000E+03 0.  0.
<mgrwt>
<rscale>  0 0.27633597E+03</rscale>
<asrwt>0</asrwt>
<pdfrwt beam="1">  1        2 0.78697385E-01 0.27633597E+03</pdfrwt>
<pdfrwt beam="2">  1       -2 0.57415325E-02 0.27633597E+03</pdfrwt>
<totfact> 0.95569461E+03</totfact>
</mgrwt>
</event>
<event>
 5    1  0.1125356E+001  0.2751513E+03  0.7818608E-02  0.1098367E+00
         -1   -1    0    0    0  501 -0.00000000000E+00  0.00000000000E+00  0.96612842886E+02  0.96612842886E+02  0.00000000000E+00 0. -1.
          1   -1    0    0  501    0  0.00000000000E+00 -0.00000000000E+00 -0.19590619721E+03  0.19590619721E+03  0.00000000000E+00 0. -1.
         35    2    1    2    0    0  0.00000000000E+00  0.00000000000E+00 -0.99293354328E+02  0.29251904010E+03  0.27515126496E+03 0.  0.
         25    1    3    3    0    0 -0.36990683679E+02 -0.56099799160E+02 -0.53260741809E+02  0.14748628669E+03  0.12000000000E+03 0.  0.
         25    1    3    3    0    0  0.36990683679E+02  0.56099799160E+02 -0.46032612518E+02  0.14503275340E+03  0.12000000000E+03 0.  0.
<mgrwt>
<rscale>  0 0.27515126E+03</rscale>
<asrwt>0</asrwt>
<pdfrwt beam="1">  1        1 0.30139414E-01 0.27515126E+03</pdfrwt>
<pdfrwt beam="2">  1       -1 0.14863515E-01 0.27515126E+03</pdfrwt>
<totfact> 0.48777315E+03</totfact>
</mgrwt>
</event>
<event>
 5    1  0.1125356E+001  0.2750017E+03  0.7818608E-02  0.1098451E+00
         -1   -1    0    0    0  501 -0.00000000000E+00  0.00000000000E+00  0.74628494642E+02  0.74628494642E+02  0.00000000000E+00 0. -1.
          1   -1    0    0  501    0  0.00000000000E+00 -0.00000000000E+00 -0.25334128773E+03  0.25334128773E+03  0.00000000000E+00 0. -1.
         35    2    1    2    0    0  0.00000000000E+00  0.00000000000E+00 -0.17871279309E+03  0.32796978238E+03  0.27500166497E+03 0.  0.
         25    1    3    3    0    0 -0.53044871127E+02  0.40598830804E+02 -0.97308121493E+02  0.16831783602E+03  0.12000000000E+03 0.  0.
         25    1    3    3    0    0  0.53044871127E+02 -0.40598830804E+02 -0.81404671599E+02  0.15965194635E+03  0.12000000000E+03 0.  0.
<mgrwt>
<rscale>  0 0.27500166E+03</rscale>
<asrwt>0</asrwt>
<pdfrwt beam="1">  1        1 0.38975582E-01 0.27500166E+03</pdfrwt>
<pdfrwt beam="2">  1       -1 0.11481307E-01 0.27500166E+03</pdfrwt>
<totfact> 0.52962845E+03</totfact>
</mgrwt>
</event>
<event>
 5    1  0.1125356E+001  0.2749063E+03  0.7818608E-02  0.1098504E+00
         -2   -1    0    0    0  501 -0.00000000000E+00  0.00000000000E+00  0.78666509338E+01  0.78666509338E+01  0.00000000000E+00 0. -1.
          2   -1    0    0  501    0  0.00000000000E+00 -0.00000000000E+00 -0.24017045872E+04  0.24017045872E+04  0.00000000000E+00 0. -1.
         35    2    1    2    0    0  0.00000000000E+00  0.00000000000E+00 -0.23938379363E+04  0.24095712381E+04  0.27490632320E+03 0.  0.
         25    1    3    3    0    0 -0.24527072361E+02  0.31817713072E+02 -0.16672548525E+04  0.16720504440E+04  0.12000000000E+03 0.  0.
         25    1    3    3    0    0  0.24527072361E+02 -0.31817713072E+02 -0.72658308379E+03  0.73752079414E+03  0.12000000000E+03 0.  0.
<mgrwt>
<rscale>  0 0.27490632E+03</rscale>
<asrwt>0</asrwt>
<pdfrwt beam="1">  1        2 0.36949246E+00 0.27490632E+03</pdfrwt>
<pdfrwt beam="2">  1       -2 0.12102558E-02 0.27490632E+03</pdfrwt>
<totfact> 0.73266518E+03</totfact>
</mgrwt>
</event>
<event>
 5    1  0.1125356E+001  0.2709403E+03  0.7818608E-02  0.1100743E+00
         -2   -1    0    0    0  501 -0.00000000000E+00  0.00000000000E+00  0.95227015623E+01  0.95227015623E+01  0.00000000000E+00 0.  1.
          2   -1    0    0  501    0  0.00000000000E+00 -0.00000000000E+00 -0.19272009521E+04  0.19272009521E+04  0.00000000000E+00 0.  1.
         35    2    1    2    0    0  0.00000000000E+00  0.00000000000E+00 -0.19176782505E+04  0.19367236536E+04  0.27094028506E+03 0.  0.
         25    1    3    3    0    0  0.48080401568E+02 -0.34248307243E+02 -0.11133927821E+04  0.11213956299E+04  0.12000000000E+03 0.  0.
         25    1    3    3    0    0 -0.48080401568E+02  0.34248307243E+02 -0.80428546839E+03  0.81532802370E+03  0.12000000000E+03 0.  0.
<mgrwt>
<rscale>  0 0.27094029E+03</rscale>
<asrwt>0</asrwt>
<pdfrwt beam="1">  1        2 0.29649270E+00 0.27094029E+03</pdfrwt>
<pdfrwt beam="2">  1       -2 0.14650298E-02 0.27094029E+03</pdfrwt>
<totfact> 0.99071893E+03</totfact>
</mgrwt>
</event>
<event>
 5    1  0.1125356E+001  0.2736234E+03  0.7818608E-02  0.1099224E+00
          1   -1    0    0  501    0  0.00000000000E+00  0.00000000000E+00  0.14631940675E+03  0.14631940675E+03  0.00000000000E+00 0.  1.
         -1   -1    0    0    0  501 -0.00000000000E+00 -0.00000000000E+00 -0.12792179472E+03  0.12792179472E+03  0.00000000000E+00 0.  1.
         35    2    1    2    0    0  0.00000000000E+00  0.00000000000E+00  0.18397612029E+02  0.27424120148E+03  0.27362339896E+03 0.  0.
         25    1    3    3    0    0 -0.28489585666E+02  0.22211742427E+02 -0.45810663357E+02  0.13343026220E+03  0.12000000000E+03 0.  0.
         25    1    3    3    0    0  0.28489585666E+02 -0.22211742427E+02  0.64208275386E+02  0.14081093928E+03  0.12000000000E+03 0.  0.
<mgrwt>
<rscale>  0 0.27362340E+03</rscale>
<asrwt>0</asrwt>
<pdfrwt beam="1">  1        1 0.22510678E-01 0.27362340E+03</pdfrwt>
<pdfrwt beam="2">  1       -1 0.19680276E-01 0.27362340E+03</pdfrwt>
<totfact> 0.45045201E+03</totfact>
</mgrwt>
</event>
<event>
 5    1  0.1125356E+001  0.2746728E+03  0.7818608E-02  0.1098635E+00
          2   -1    0    0  501    0  0.00000000000E+00  0.00000000000E+00  0.51906169418E+03  0.51906169418E+03  0.00000000000E+00 0.  1.
         -2   -1    0    0    0  501 -0.00000000000E+00 -0.00000000000E+00 -0.36337272504E+02  0.36337272504E+02  0.00000000000E+00 0.  1.
         35    2    1    2    0    0  0.00000000000E+00  0.00000000000E+00  0.48272442168E+03  0.55539896669E+03  0.27467279609E+03 0.  0.
         25    1    3    3    0    0  0.56002980411E+02  0.30314820847E+02  0.20062106802E+03  0.24228936236E+03  0.12000000000E+03 0.  0.
         25    1    3    3    0    0 -0.56002980411E+02 -0.30314820847E+02  0.28210335366E+03  0.31310960433E+03  0.12000000000E+03 0.  0.
<mgrwt>
<rscale>  0 0.27467280E+03</rscale>
<asrwt>0</asrwt>
<pdfrwt beam="1">  1        2 0.79855640E-01 0.27467280E+03</pdfrwt>
<pdfrwt beam="2">  1       -2 0.55903500E-02 0.27467280E+03</pdfrwt>
<totfact> 0.97905031E+03</totfact>
</mgrwt>
</event>
<event>
 5    1  0.1125356E+001  0.2745986E+03  0.7818608E-02  0.1098676E+00
         -2   -1    0    0    0  501 -0.00000000000E+00  0.00000000000E+00  0.55091151992E+02  0.55091151992E+02  0.00000000000E+00 0. -1.
          2   -1    0    0  501    0  0.00000000000E+00 -0.00000000000E+00 -0.34218021100E+03  0.34218021100E+03  0.00000000000E+00 0. -1.
         35    2    1    2    0    0  0.00000000000E+00  0.00000000000E+00 -0.28708905900E+03  0.39727136299E+03  0.27459863082E+03 0.  0.
         25    1    3    3    0    0  0.10392288687E+02  0.12593297173E+02 -0.23713061046E+03  0.26626587692E+03  0.12000000000E+03 0.  0.
         25    1    3    3    0    0 -0.10392288687E+02 -0.12593297173E+02 -0.49958448547E+02  0.13100548606E+03  0.12000000000E+03 0.  0.
<mgrwt>
<rscale>  0 0.27459863E+03</rscale>
<asrwt>0</asrwt>
<pdfrwt beam="1">  1        2 0.52643109E-01 0.27459863E+03</pdfrwt>
<pdfrwt beam="2">  1       -2 0.84755619E-02 0.27459863E+03</pdfrwt>
<totfact> 0.81180254E+03</totfact>
</mgrwt>
</event>
<event>
 5    1  0.1125356E+001  0.2747230E+03  0.7818608E-02  0.1098607E+00
          4   -1    0    0  501    0  0.00000000000E+00  0.00000000000E+00  0.39860976561E+03  0.39860976561E+03  0.00000000000E+00 0.  1.
         -4   -1    0    0    0  501 -0.00000000000E+00 -0.00000000000E+00 -0.47334959927E+02  0.47334959927E+02  0.00000000000E+00 0.  1.
         35    2    1    2    0    0  0.00000000000E+00  0.00000000000E+00  0.35127480569E+03  0.44594472554E+03  0.27472296797E+03 0.  0.
         25    1    3    3    0    0 -0.25964459730E+02 -0.50325811970E+02  0.23328770512E+03  0.26838404177E+03  0.12000000000E+03 0.  0.
         25    1    3    3    0    0  0.25964459730E+02  0.50325811970E+02  0.11798710057E+03  0.17756068377E+03  0.12000000000E+03 0.  0.
<mgrwt>
<rscale>  0 0.27472297E+03</rscale>
<asrwt>0</asrwt>
<pdfrwt beam="1">  1        4 0.61324577E-01 0.27472297E+03</pdfrwt>
<pdfrwt beam="2">  1       -4 0.72823018E-02 0.27472297E+03</pdfrwt>
<totfact> 0.61264096E+02</totfact>
</mgrwt>
</event>
<event>
 5    1  0.1125356E+001  0.2746832E+03  0.7818608E-02  0.1098629E+00
         -1   -1    0    0    0  501 -0.00000000000E+00  0.00000000000E+00  0.29589121270E+03  0.29589121270E+03  0.00000000000E+00 0. -1.
          1   -1    0    0  501    0  0.00000000000E+00 -0.00000000000E+00 -0.63748809876E+02  0.63748809876E+02  0.00000000000E+00 0. -1.
         35    2    1    2    0    0  0.00000000000E+00  0.00000000000E+00  0.23214240283E+03  0.35964002258E+03  0.27468318232E+03 0.  0.
         25    1    3    3    0    0 -0.26408965122E+02 -0.26406135505E+02  0.18859211828E+03  0.22663120815E+03  0.12000000000E+03 0.  0.
         25    1    3    3    0    0  0.26408965122E+02  0.26406135505E+02  0.43550284547E+02  0.13300881443E+03  0.12000000000E+03 0.  0.
<mgrwt>
<rscale>  0 0.27468318E+03</rscale>
<asrwt>0</asrwt>
<pdfrwt beam="1">  1        1 0.98075094E-02 0.27468318E+03</pdfrwt>
<pdfrwt beam="2">  1       -1 0.45521724E-01 0.27468318E+03</pdfrwt>
<totfact> 0.32048492E+03</totfact>
</mgrwt>
</event>
<event>
 5    1  0.1125356E+001  0.2747388E+03  0.7818608E-02  0.1098598E+00
         -1   -1    0    0    0  501 -0.00000000000E+00  0.00000000000E+00  0.23667570368E+02  0.23667570368E+02  0.00000000000E+00 0.  1.
          1   -1    0    0  501    0  0.00000000000E+00 -0.00000000000E+00 -0.79730811292E+03  0.79730811292E+03  0.00000000000E+00 0.  1.
         35    2    1    2    0    0  0.00000000000E+00  0.00000000000E+00 -0.77364054255E+03  0.82097568329E+03  0.27473875495E+03 0.  0.
         25    1    3    3    0    0  0.26931677805E+02  0.61136615194E+02 -0.37872180568E+03  0.40285631071E+03  0.12000000000E+03 0.  0.
         25    1    3    3    0    0 -0.26931677805E+02 -0.61136615194E+02 -0.39491873688E+03  0.41811937258E+03  0.12000000000E+03 0.  0.
<mgrwt>
<rscale>  0 0.27473875E+03</rscale>
<asrwt>0</asrwt>
<pdfrwt beam="1">  1        1 0.12266278E+00 0.27473875E+03</pdfrwt>
<pdfrwt beam="2">  1       -1 0.36411648E-02 0.27473875E+03</pdfrwt>
<totfact> 0.65403588E+03</totfact>
</mgrwt>
</event>
<event>
 5    1  0.1125356E+001  0.2754741E+03  0.7818608E-02  0.1098187E+00
         -1   -1    0    0    0  501 -0.00000000000E+00  0.00000000000E+00  0.42463569637E+02  0.42463569637E+02  0.00000000000E+00 0. -1.
          1   -1    0    0  501    0  0.00000000000E+00 -0.00000000000E+00 -0.44677111238E+03  0.44677111238E+03  0.00000000000E+00 0. -1.
         35    2    1    2    0    0  0.00000000000E+00  0.00000000000E+00 -0.40430754274E+03  0.48923468202E+03  0.27547410944E+03 0.  0.
         25    1    3    3    0    0 -0.42205767980E+02  0.28851777033E+02 -0.28073420826E+03  0.30955685678E+03  0.12000000000E+03 0.  0.
         25    1    3    3    0    0  0.42205767980E+02 -0.28851777033E+02 -0.12357333448E+03  0.17967782524E+03  0.12000000000E+03 0.  0.
<mgrwt>
<rscale>  0 0.27547411E+03</rscale>
<asrwt>0</asrwt>
<pdfrwt beam="1">  1        1 0.68734016E-01 0.27547411E+03</pdfrwt>
<pdfrwt beam="2">  1       -1 0.65328570E-02 0.27547411E+03</pdfrwt>
<totfact> 0.61245580E+03</totfact>
</mgrwt>
</event>
<event>
 5    1  0.1125356E+001  0.2787807E+03  0.7818608E-02  0.1096357E+00
         -1   -1    0    0    0  501 -0.00000000000E+00  0.00000000000E+00  0.81196837054E+02  0.81196837054E+02  0.00000000000E+00 0.  1.
          1   -1    0    0  501    0  0.00000000000E+00 -0.00000000000E+00 -0.23929099490E+03  0.23929099490E+03  0.00000000000E+00 0.  1.
         35    2    1    2    0    0  0.00000000000E+00  0.00000000000E+00 -0.15809415785E+03  0.32048783196E+03  0.27878071613E+03 0.  0.
         25    1    3    3    0    0  0.56948667388E+02  0.39637807852E+02 -0.95917921566E+02  0.16856617159E+03  0.12000000000E+03 0.  0.
         25    1    3    3    0    0 -0.56948667388E+02 -0.39637807852E+02 -0.62176236281E+02  0.15192166036E+03  0.12000000000E+03 0.  0.
<mgrwt>
<rscale>  0 0.27878072E+03</rscale>
<asrwt>0</asrwt>
<pdfrwt beam="1">  1        1 0.36813999E-01 0.27878072E+03</pdfrwt>
<pdfrwt beam="2">  1       -1 0.12491821E-01 0.27878072E+03</pdfrwt>
<totfact> 0.49894361E+03</totfact>
</mgrwt>
</event>
<event>
 5    1  0.1125356E+001  0.2745757E+03  0.7818608E-02  0.1098689E+00
          3   -1    0    0  501    0  0.00000000000E+00  0.00000000000E+00  0.24604802034E+03  0.24604802034E+03  0.00000000000E+00 0. -1.
         -3   -1    0    0    0  501 -0.00000000000E+00 -0.00000000000E+00 -0.76602746233E+02  0.76602746233E+02  0.00000000000E+00 0. -1.
         35    2    1    2    0    0  0.00000000000E+00  0.00000000000E+00  0.16944527410E+03  0.32265076657E+03  0.27457570222E+03 0.  0.
         25    1    3    3    0    0  0.32568249039E+02  0.42267950940E+02  0.37709055456E+02  0.13663543971E+03  0.12000000000E+03 0.  0.
         25    1    3    3    0    0 -0.32568249039E+02 -0.42267950940E+02  0.13173621865E+03  0.18601532686E+03  0.12000000000E+03 0.  0.
<mgrwt>
<rscale>  0 0.27457570E+03</rscale>
<asrwt>0</asrwt>
<pdfrwt beam="1">  1        3 0.37853541E-01 0.27457570E+03</pdfrwt>
<pdfrwt beam="2">  1       -3 0.11785038E-01 0.27457570E+03</pdfrwt>
<totfact> 0.98432523E+02</totfact>
</mgrwt>
</event>
<event>
 5    1  0.1125356E+001  0.2757100E+03  0.7818608E-02  0.1098055E+00
          4   -1    0    0  501    0  0.00000000000E+00  0.00000000000E+00  0.41477410060E+03  0.41477410060E+03  0.00000000000E+00 0. -1.
         -4   -1    0    0    0  501 -0.00000000000E+00 -0.00000000000E+00 -0.45817698486E+02  0.45817698486E+02  0.00000000000E+00 0. -1.
         35    2    1    2    0    0  0.00000000000E+00  0.00000000000E+00  0.36895640211E+03  0.46059179908E+03  0.27570995398E+03 0.  0.
         25    1    3    3    0    0  0.19308607428E+02 -0.59139515870E+02  0.13922804702E+03  0.19404832835E+03  0.12000000000E+03 0.  0.
         25    1    3    3    0    0 -0.19308607428E+02  0.59139515870E+02  0.22972835509E+03  0.26654347073E+03  0.12000000000E+03 0.  0.
<mgrwt>
<rscale>  0 0.27570995E+03</rscale>
<asrwt>0</asrwt>
<pdfrwt beam="1">  1        4 0.63811398E-01 0.27570995E+03</pdfrwt>
<pdfrwt beam="2">  1       -4 0.70488770E-02 0.27570995E+03</pdfrwt>
<totfact> 0.59427807E+02</totfact>
</mgrwt>
</event>
<event>
 5    1  0.1125356E+001  0.2752676E+03  0.7818608E-02  0.1098302E+00
         -2   -1    0    0    0  501 -0.00000000000E+00  0.00000000000E+00  0.10178439072E+03  0.10178439072E+03  0.00000000000E+00 0.  1.
          2   -1    0    0  501    0  0.00000000000E+00 -0.00000000000E+00 -0.18610965046E+03  0.18610965046E+03  0.00000000000E+00 0.  1.
         35    2    1    2    0    0  0.00000000000E+00  0.00000000000E+00 -0.84325259744E+02  0.28789404118E+03  0.27526755987E+03 0.  0.
         25    1    3    3    0    0  0.14463727463E+02  0.38637282550E+02  0.13583492443E+02  0.12761876932E+03  0.12000000000E+03 0.  0.
         25    1    3    3    0    0 -0.14463727463E+02 -0.38637282550E+02 -0.97908752187E+02  0.16027527186E+03  0.12000000000E+03 0.  0.
<mgrwt>
<rscale>  0 0.27526756E+03</rscale>
<asrwt>0</asrwt>
<pdfrwt beam="1">  1        2 0.28632254E-01 0.27526756E+03</pdfrwt>
<pdfrwt beam="2">  1       -2 0.15659137E-01 0.27526756E+03</pdfrwt>
<totfact> 0.58416508E+03</totfact>
</mgrwt>
</event>
<event>
 5    1  0.1125356E+001  0.2766350E+03  0.7818608E-02  0.1097541E+00
         -3   -1    0    0    0  501 -0.00000000000E+00  0.00000000000E+00  0.91029566053E+02  0.91029566053E+02  0.00000000000E+00 0.  1.
          3   -1    0    0  501    0  0.00000000000E+00 -0.00000000000E+00 -0.21017050418E+03  0.21017050418E+03  0.00000000000E+00 0.  1.
         35    2    1    2    0    0  0.00000000000E+00  0.00000000000E+00 -0.11914093813E+03  0.30120007024E+03  0.27663499267E+03 0.  0.
         25    1    3    3    0    0  0.43719993962E+02 -0.51743212411E+02 -0.72587517558E+02  0.15574898269E+03  0.12000000000E+03 0.  0.
         25    1    3    3    0    0 -0.43719993962E+02  0.51743212411E+02 -0.46553420574E+02  0.14545108755E+03  0.12000000000E+03 0.  0.
<mgrwt>
<rscale>  0 0.27663499E+03</rscale>
<asrwt>0</asrwt>
<pdfrwt beam="1">  1        3 0.32333924E-01 0.27663499E+03</pdfrwt>
<pdfrwt beam="2">  1       -3 0.14004549E-01 0.27663499E+03</pdfrwt>
<totfact> 0.99177572E+02</totfact>
</mgrwt>
</event>
<event>
 4    1  0.1125356E+001  0.2565159E+03  0.7818608E-02  0.1109255E+00
          2   -1    0    0  501    0  0.00000000000E+00  0.00000000000E+00  0.43542262773E+03  0.43542262773E+03  0.00000000000E+00 0. -1.
         -2   -1    0    0    0  501 -0.00000000000E+00 -0.00000000000E+00 -0.37779631303E+02  0.37779631303E+02  0.00000000000E+00 0. -1.
         25    1    1    2    0    0 -0.29768546977E+02  0.25254246978E+01  0.26158463241E+03  0.28934246849E+03  0.12000000000E+03 0.  0.
         25    1    1    2    0    0  0.29768546977E+02 -0.25254246978E+01  0.13605836401E+03  0.18385979054E+03  0.12000000000E+03 0.  0.
<mgrwt>
<rscale>  0 0.25651594E+03</rscale>
<asrwt>0</asrwt>
<pdfrwt beam="1">  1        2 0.66988093E-01 0.25651594E+03</pdfrwt>
<pdfrwt beam="2">  1       -2 0.58122513E-02 0.25651594E+03</pdfrwt>
<totfact> 0.11178078E+04</totfact>
</mgrwt>
</event>
<event>
 5    1  0.1125356E+001  0.2753493E+03  0.7818608E-02  0.1098257E+00
          2   -1    0    0  501    0  0.00000000000E+00  0.00000000000E+00  0.10893577355E+04  0.10893577355E+04  0.00000000000E+00 0. -1.
         -2   -1    0    0    0  501 -0.00000000000E+00 -0.00000000000E+00 -0.17399523293E+02  0.17399523293E+02  0.00000000000E+00 0. -1.
         35    2    1    2    0    0  0.00000000000E+00  0.00000000000E+00  0.10719582122E+04  0.11067572588E+04  0.27534927125E+03 0.  0.
         25    1    3    3    0    0 -0.44205109557E+02  0.16291738221E+01  0.74083628583E+03  0.75179461844E+03  0.12000000000E+03 0.  0.
         25    1    3    3    0    0  0.44205109557E+02 -0.16291738221E+01  0.33112192641E+03  0.35496264038E+03  0.12000000000E+03 0.  0.
<mgrwt>
<rscale>  0 0.27534927E+03</rscale>
<asrwt>0</asrwt>
<pdfrwt beam="1">  1        2 0.16759344E+00 0.27534927E+03</pdfrwt>
<pdfrwt beam="2">  1       -2 0.26768506E-02 0.27534927E+03</pdfrwt>
<totfact> 0.11615056E+04</totfact>
</mgrwt>
</event>
<event>
 5    1  0.1125356E+001  0.2753798E+03  0.7818608E-02  0.1098239E+00
         -2   -1    0    0    0  501 -0.00000000000E+00  0.00000000000E+00  0.77831826336E+01  0.77831826336E+01  0.00000000000E+00 0. -1.
          2   -1    0    0  501    0  0.00000000000E+00 -0.00000000000E+00 -0.24358306993E+04  0.24358306993E+04  0.00000000000E+00 0. -1.
         35    2    1    2    0    0  0.00000000000E+00  0.00000000000E+00 -0.24280475167E+04  0.24436138819E+04  0.27537984819E+03 0.  0.
         25    1    3    3    0    0  0.25879857229E+02 -0.88721492272E+01 -0.66629593213E+03  0.67756826314E+03  0.12000000000E+03 0.  0.
         25    1    3    3    0    0 -0.25879857229E+02  0.88721492272E+01 -0.17617515845E+04  0.17660456188E+04  0.12000000000E+03 0.  0.
<mgrwt>
<rscale>  0 0.27537985E+03</rscale>
<asrwt>0</asrwt>
<pdfrwt beam="1">  1        2 0.37474310E+00 0.27537985E+03</pdfrwt>
<pdfrwt beam="2">  1       -2 0.11974130E-02 0.27537985E+03</pdfrwt>
<totfact> 0.71305832E+03</totfact>
</mgrwt>
</event>
<event>
 5    1  0.1125356E+001  0.2752371E+03  0.7818608E-02  0.1098319E+00
          2   -1    0    0  501    0  0.00000000000E+00  0.00000000000E+00  0.16766939732E+02  0.16766939732E+02  0.00000000000E+00 0. -1.
         -2   -1    0    0    0  501 -0.00000000000E+00 -0.00000000000E+00 -0.11295359920E+04  0.11295359920E+04  0.00000000000E+00 0. -1.
         35    2    1    2    0    0  0.00000000000E+00  0.00000000000E+00 -0.11127690523E+04  0.11463029317E+04  0.27523707528E+03 0.  0.
         25    1    3    3    0    0  0.28144434239E+02  0.61162480669E+02 -0.54626514514E+03  0.56332811665E+03  0.12000000000E+03 0.  0.
         25    1    3    3    0    0 -0.28144434239E+02 -0.61162480669E+02 -0.56650390712E+03  0.58297481507E+03  0.12000000000E+03 0.  0.
<mgrwt>
<rscale>  0 0.27523708E+03</rscale>
<asrwt>0</asrwt>
<pdfrwt beam="1">  1        2 0.25795290E-02 0.27523708E+03</pdfrwt>
<pdfrwt beam="2">  1       -2 0.17377478E+00 0.27523708E+03</pdfrwt>
<totfact> 0.82651330E+02</totfact>
</mgrwt>
</event>
<event>
 4    1  0.1125356E+001  0.2978229E+03  0.7818608E-02  0.1086334E+00
          1   -1    0    0  501    0  0.00000000000E+00  0.00000000000E+00  0.93371885000E+03  0.93371885000E+03  0.00000000000E+00 0. -1.
         -1   -1    0    0    0  501 -0.00000000000E+00 -0.00000000000E+00 -0.23748711295E+02  0.23748711295E+02  0.00000000000E+00 0. -1.
         25    1    1    2    0    0 -0.29589381769E+02 -0.33086270519E+02  0.69991629247E+03  0.71151461635E+03  0.12000000000E+03 0.  0.
         25    1    1    2    0    0  0.29589381769E+02  0.33086270519E+02  0.21005384624E+03  0.24595294495E+03  0.12000000000E+03 0.  0.
<mgrwt>
<rscale>  0 0.29782290E+03</rscale>
<asrwt>0</asrwt>
<pdfrwt beam="1">  1        1 0.14364903E+00 0.29782290E+03</pdfrwt>
<pdfrwt beam="2">  1       -1 0.36536486E-02 0.29782290E+03</pdfrwt>
<totfact> 0.50639214E+03</totfact>
</mgrwt>
</event>
<event>
 5    1  0.1125356E+001  0.2727935E+03  0.7818608E-02  0.1099691E+00
          3   -1    0    0  501    0  0.00000000000E+00  0.00000000000E+00  0.93708008680E+03  0.93708008680E+03  0.00000000000E+00 0. -1.
         -3   -1    0    0    0  501 -0.00000000000E+00 -0.00000000000E+00 -0.19853242513E+02  0.19853242513E+02  0.00000000000E+00 0. -1.
         35    2    1    2    0    0  0.00000000000E+00  0.00000000000E+00  0.91722684428E+03  0.95693332931E+03  0.27279353524E+03 0.  0.
         25    1    3    3    0    0 -0.56136679368E+02 -0.28023944682E+02  0.40124982122E+03  0.42348327863E+03  0.12000000000E+03 0.  0.
         25    1    3    3    0    0  0.56136679368E+02  0.28023944682E+02  0.51597702306E+03  0.53345005068E+03  0.12000000000E+03 0.  0.
<mgrwt>
<rscale>  0 0.27279354E+03</rscale>
<asrwt>0</asrwt>
<pdfrwt beam="1">  1        3 0.14416613E+00 0.27279354E+03</pdfrwt>
<pdfrwt beam="2">  1       -3 0.30543457E-02 0.27279354E+03</pdfrwt>
<totfact> 0.47602512E+02</totfact>
</mgrwt>
</event>
<event>
 5    1  0.1125356E+001  0.2757375E+03  0.7818608E-02  0.1098040E+00
          2   -1    0    0  501    0  0.00000000000E+00  0.00000000000E+00  0.36422754234E+03  0.36422754234E+03  0.00000000000E+00 0.  1.
         -2   -1    0    0    0  501 -0.00000000000E+00 -0.00000000000E+00 -0.52186586600E+02  0.52186586600E+02  0.00000000000E+00 0.  1.
         35    2    1    2    0    0  0.00000000000E+00  0.00000000000E+00  0.31204095574E+03  0.41641412894E+03  0.27573749966E+03 0.  0.
         25    1    3    3    0    0  0.43141533207E+02  0.19902812163E+02  0.82804182210E+02  0.15334225253E+03  0.12000000000E+03 0.  0.
         25    1    3    3    0    0 -0.43141533207E+02 -0.19902812163E+02  0.22923677353E+03  0.26307187641E+03  0.12000000000E+03 0.  0.
<mgrwt>
<rscale>  0 0.27573750E+03</rscale>
<asrwt>0</asrwt>
<pdfrwt beam="1">  1        2 0.56035005E-01 0.27573750E+03</pdfrwt>
<pdfrwt beam="2">  1       -2 0.80287059E-02 0.27573750E+03</pdfrwt>
<totfact> 0.82615976E+03</totfact>
</mgrwt>
</event>
<event>
 5    1  0.1125356E+001  0.2751910E+03  0.7818608E-02  0.1098345E+00
         -4   -1    0    0    0  501 -0.00000000000E+00  0.00000000000E+00  0.45446986538E+02  0.45446986538E+02  0.00000000000E+00 0.  1.
          4   -1    0    0  501    0  0.00000000000E+00 -0.00000000000E+00 -0.41658462461E+03  0.41658462461E+03  0.00000000000E+00 0.  1.
         35    2    1    2    0    0  0.00000000000E+00  0.00000000000E+00 -0.37113763807E+03  0.46203161114E+03  0.27519095789E+03 0.  0.
         25    1    3    3    0    0  0.56044953026E+02  0.29578602304E+02 -0.14740880076E+03  0.20036288333E+03  0.12000000000E+03 0.  0.
         25    1    3    3    0    0 -0.56044953026E+02 -0.29578602304E+02 -0.22372883731E+03  0.26166872781E+03  0.12000000000E+03 0.  0.
<mgrwt>
<rscale>  0 0.27519096E+03</rscale>
<asrwt>0</asrwt>
<pdfrwt beam="1">  1        4 0.64089939E-01 0.27519096E+03</pdfrwt>
<pdfrwt beam="2">  1       -4 0.69918444E-02 0.27519096E+03</pdfrwt>
<totfact> 0.59657366E+02</totfact>
</mgrwt>
</event>
<event>
 5    1  0.1125356E+001  0.2678205E+03  0.7818608E-02  0.1102533E+00
          2   -1    0    0  501    0  0.00000000000E+00  0.00000000000E+00  0.10062848631E+04  0.10062848631E+04  0.00000000000E+00 0.  1.
         -2   -1    0    0    0  501 -0.00000000000E+00 -0.00000000000E+00 -0.17819962970E+02  0.17819962970E+02  0.00000000000E+00 0.  1.
         35    2    1    2    0    0  0.00000000000E+00  0.00000000000E+00  0.98846490013E+03  0.10241048261E+04  0.26782052945E+03 0.  0.
         25    1    3    3    0    0 -0.55810758453E+02  0.20397770376E+02  0.49031566044E+03  0.50827193181E+03  0.12000000000E+03 0.  0.
         25    1    3    3    0    0  0.55810758453E+02 -0.20397770376E+02  0.49814923969E+03  0.51583289426E+03  0.12000000000E+03 0.  0.
<mgrwt>
<rscale>  0 0.26782053E+03</rscale>
<asrwt>0</asrwt>
<pdfrwt beam="1">  1        2 0.15481301E+00 0.26782053E+03</pdfrwt>
<pdfrwt beam="2">  1       -2 0.27415336E-02 0.26782053E+03</pdfrwt>
<totfact> 0.12562310E+04</totfact>
</mgrwt>
</event>
<event>
 5    1  0.1125356E+001  0.2736064E+03  0.7818608E-02  0.1099233E+00
         -1   -1    0    0    0  501 -0.00000000000E+00  0.00000000000E+00  0.13456110732E+02  0.13456110732E+02  0.00000000000E+00 0. -1.
          1   -1    0    0  501    0  0.00000000000E+00 -0.00000000000E+00 -0.13908267711E+04  0.13908267711E+04  0.00000000000E+00 0. -1.
         35    2    1    2    0    0  0.00000000000E+00  0.00000000000E+00 -0.13773706604E+04  0.14042828818E+04  0.27360642566E+03 0.  0.
         25    1    3    3    0    0  0.54641637322E+02  0.22842429844E+02 -0.83454511950E+03  0.84520591669E+03  0.12000000000E+03 0.  0.
         25    1    3    3    0    0 -0.54641637322E+02 -0.22842429844E+02 -0.54282554085E+03  0.55907696512E+03  0.12000000000E+03 0.  0.
<mgrwt>
<rscale>  0 0.27360643E+03</rscale>
<asrwt>0</asrwt>
<pdfrwt beam="1">  1        1 0.21397327E+00 0.27360643E+03</pdfrwt>
<pdfrwt beam="2">  1       -1 0.20701717E-02 0.27360643E+03</pdfrwt>
<totfact> 0.55182042E+03</totfact>
</mgrwt>
</event>
<event>
 5    1  0.1125356E+001  0.2772268E+03  0.7818608E-02  0.1097213E+00
         -1   -1    0    0    0  501 -0.00000000000E+00  0.00000000000E+00  0.20588503557E+02  0.20588503557E+02  0.00000000000E+00 0. -1.
          1   -1    0    0  501    0  0.00000000000E+00 -0.00000000000E+00 -0.93322365854E+03  0.93322365854E+03  0.00000000000E+00 0. -1.
         35    2    1    2    0    0  0.00000000000E+00  0.00000000000E+00 -0.91263515499E+03  0.95381216210E+03  0.27722682853E+03 0.  0.
         25    1    3    3    0    0 -0.87418507305E+01 -0.65590352346E+02 -0.38454570974E+03  0.40823267527E+03  0.12000000000E+03 0.  0.
         25    1    3    3    0    0  0.87418507305E+01  0.65590352346E+02 -0.52808944524E+03  0.54557948683E+03  0.12000000000E+03 0.  0.
<mgrwt>
<rscale>  0 0.27722683E+03</rscale>
<asrwt>0</asrwt>
<pdfrwt beam="1">  1        1 0.14357289E+00 0.27722683E+03</pdfrwt>
<pdfrwt beam="2">  1       -1 0.31674617E-02 0.27722683E+03</pdfrwt>
<totfact> 0.62548209E+03</totfact>
</mgrwt>
</event>
<event>
 5    1  0.1125356E+001  0.2745196E+03  0.7818608E-02  0.1098720E+00
          2   -1    0    0  501    0  0.00000000000E+00  0.00000000000E+00  0.32012433968E+02  0.32012433968E+02  0.00000000000E+00 0.  1.
         -2   -1    0    0    0  501 -0.00000000000E+00 -0.00000000000E+00 -0.58852905386E+03  0.58852905386E+03  0.00000000000E+00 0.  1.
         35    2    1    2    0    0  0.00000000000E+00  0.00000000000E+00 -0.55651661989E+03  0.62054148783E+03  0.27451956196E+03 0.  0.
         25    1    3    3    0    0 -0.59883891087E+02 -0.11588384919E+02 -0.33890770774E+03  0.36466259123E+03  0.12000000000E+03 0.  0.
         25    1    3    3    0    0  0.59883891087E+02  0.11588384919E+02 -0.21760891216E+03  0.25587889660E+03  0.12000000000E+03 0.  0.
<mgrwt>
<rscale>  0 0.27451956E+03</rscale>
<asrwt>0</asrwt>
<pdfrwt beam="1">  1        2 0.49249901E-02 0.27451956E+03</pdfrwt>
<pdfrwt beam="2">  1       -2 0.90542926E-01 0.27451956E+03</pdfrwt>
<totfact> 0.17273554E+03</totfact>
</mgrwt>
</event>
<event>
 5    1  0.1125356E+001  0.2769608E+03  0.7818608E-02  0.1097361E+00
         -1   -1    0    0    0  501 -0.00000000000E+00  0.00000000000E+00  0.86231510468E+01  0.86231510468E+01  0.00000000000E+00 0. -1.
          1   -1    0    0  501    0  0.00000000000E+00 -0.00000000000E+00 -0.22238757997E+04  0.22238757997E+04  0.00000000000E+00 0. -1.
         35    2    1    2    0    0  0.00000000000E+00  0.00000000000E+00 -0.22152526487E+04  0.22324989508E+04  0.27696076928E+03 0.  0.
         25    1    3    3    0    0 -0.52733387609E+02  0.36581516390E+02 -0.13143640574E+04  0.13213901365E+04  0.12000000000E+03 0.  0.
         25    1    3    3    0    0  0.52733387609E+02 -0.36581516390E+02 -0.90088859127E+03  0.91110881424E+03  0.12000000000E+03 0.  0.
<mgrwt>
<rscale>  0 0.27696077E+03</rscale>
<asrwt>0</asrwt>
<pdfrwt beam="1">  1        1 0.34213481E+00 0.27696077E+03</pdfrwt>
<pdfrwt beam="2">  1       -1 0.13266383E-02 0.27696077E+03</pdfrwt>
<totfact> 0.30093596E+03</totfact>
</mgrwt>
</event>
<event>
 5    1  0.1125356E+001  0.2766905E+03  0.7818608E-02  0.1097510E+00
          2   -1    0    0  501    0  0.00000000000E+00  0.00000000000E+00  0.22097270914E+03  0.22097270914E+03  0.00000000000E+00 0. -1.
         -2   -1    0    0    0  501 -0.00000000000E+00 -0.00000000000E+00 -0.86614325609E+02  0.86614325609E+02  0.00000000000E+00 0. -1.
         35    2    1    2    0    0  0.00000000000E+00  0.00000000000E+00  0.13435838353E+03  0.30758703475E+03  0.27669045651E+03 0.  0.
         25    1    3    3    0    0  0.96333504271E+01 -0.50159162224E+02  0.11849259732E+03  0.17620794141E+03  0.12000000000E+03 0.  0.
         25    1    3    3    0    0 -0.96333504271E+01  0.50159162224E+02  0.15865786212E+02  0.13137909334E+03  0.12000000000E+03 0.  0.
<mgrwt>
<rscale>  0 0.27669046E+03</rscale>
<asrwt>0</asrwt>
<pdfrwt beam="1">  1        2 0.33995801E-01 0.27669046E+03</pdfrwt>
<pdfrwt beam="2">  1       -2 0.13325281E-01 0.27669046E+03</pdfrwt>
<totfact> 0.63147172E+03</totfact>
</mgrwt>
</event>
<event>
 5    1  0.1125356E+001  0.2750086E+03  0.7818608E-02  0.1098447E+00
          2   -1    0    0  501    0  0.00000000000E+00  0.00000000000E+00  0.44782123076E+03  0.44782123076E+03  0.00000000000E+00 0.  1.
         -2   -1    0    0    0  501 -0.00000000000E+00 -0.00000000000E+00 -0.42220953078E+02  0.42220953078E+02  0.00000000000E+00 0.  1.
         35    2    1    2    0    0  0.00000000000E+00  0.00000000000E+00  0.40560027769E+03  0.49004218384E+03  0.27500864838E+03 0.  0.
         25    1    3    3    0    0 -0.22265231773E+02  0.60310398761E+02  0.23727707000E+03  0.27355711047E+03  0.12000000000E+03 0.  0.
         25    1    3    3    0    0  0.22265231773E+02 -0.60310398761E+02  0.16832320769E+03  0.21648507337E+03  0.12000000000E+03 0.  0.
<mgrwt>
<rscale>  0 0.27500865E+03</rscale>
<asrwt>0</asrwt>
<pdfrwt beam="1">  1        2 0.68895571E-01 0.27500865E+03</pdfrwt>
<pdfrwt beam="2">  1       -2 0.64955316E-02 0.27500865E+03</pdfrwt>
<totfact> 0.91649581E+03</totfact>
</mgrwt>
</event>
<event>
 5    1  0.1125356E+001  0.2737263E+03  0.7818608E-02  0.1099166E+00
          1   -1    0    0  501    0  0.00000000000E+00  0.00000000000E+00  0.59289214775E+03  0.59289214775E+03  0.00000000000E+00 0. -1.
         -1   -1    0    0    0  501 -0.00000000000E+00 -0.00000000000E+00 -0.31593466520E+02  0.31593466520E+02  0.00000000000E+00 0. -1.
         35    2    1    2    0    0  0.00000000000E+00  0.00000000000E+00  0.56129868123E+03  0.62448561427E+03  0.27372627364E+03 0.  0.
         25    1    3    3    0    0 -0.20733368551E+01 -0.21556007321E+02  0.13886003930E+03  0.18480008304E+03  0.12000000000E+03 0.  0.
         25    1    3    3    0    0  0.20733368551E+01  0.21556007321E+02  0.42243864193E+03  0.43968553123E+03  0.12000000000E+03 0.  0.
<mgrwt>
<rscale>  0 0.27372627E+03</rscale>
<asrwt>0</asrwt>
<pdfrwt beam="1">  1        1 0.91214168E-01 0.27372627E+03</pdfrwt>
<pdfrwt beam="2">  1       -1 0.48605338E-02 0.27372627E+03</pdfrwt>
<totfact> 0.65418623E+03</totfact>
</mgrwt>
</event>
<event>
 5    1  0.1125356E+001  0.2748899E+03  0.7818608E-02  0.1098513E+00
         -1   -1    0    0    0  501 -0.00000000000E+00  0.00000000000E+00  0.13690573705E+02  0.13690573705E+02  0.00000000000E+00 0.  1.
          1   -1    0    0  501    0  0.00000000000E+00 -0.00000000000E+00 -0.13798625700E+04  0.13798625700E+04  0.00000000000E+00 0.  1.
         35    2    1    2    0    0  0.00000000000E+00  0.00000000000E+00 -0.13661719963E+04  0.13935531437E+04  0.27488987044E+03 0.  0.
         25    1    3    3    0    0  0.49267596405E+02 -0.40047576395E+02 -0.57435673456E+03  0.59018366884E+03  0.12000000000E+03 0.  0.
         25    1    3    3    0    0 -0.49267596405E+02  0.40047576395E+02 -0.79181526178E+03  0.80336947491E+03  0.12000000000E+03 0.  0.
<mgrwt>
<rscale>  0 0.27488987E+03</rscale>
<asrwt>0</asrwt>
<pdfrwt beam="1">  1        1 0.21228664E+00 0.27488987E+03</pdfrwt>
<pdfrwt beam="2">  1       -1 0.21062413E-02 0.27488987E+03</pdfrwt>
<totfact> 0.54729629E+03</totfact>
</mgrwt>
</event>
<event>
 5    1  0.1125356E+001  0.2753713E+03  0.7818608E-02  0.1098244E+00
          1   -1    0    0  501    0  0.00000000000E+00  0.00000000000E+00  0.21475889447E+04  0.21475889447E+04  0.00000000000E+00 0.  1.
         -1   -1    0    0    0  501 -0.00000000000E+00 -0.00000000000E+00 -0.88272658285E+01  0.88272658285E+01  0.00000000000E+00 0.  1.
         35    2    1    2    0    0  0.00000000000E+00  0.00000000000E+00  0.21387616789E+04  0.21564162106E+04  0.27537130210E+03 0.  0.
         25    1    3    3    0    0  0.66141562594E+02  0.97531121626E+01  0.11426363478E+04  0.11508638724E+04  0.12000000000E+03 0.  0.
         25    1    3    3    0    0 -0.66141562594E+02 -0.97531121626E+01  0.99612533115E+03  0.10055523382E+04  0.12000000000E+03 0.  0.
<mgrwt>
<rscale>  0 0.27537130E+03</rscale>
<asrwt>0</asrwt>
<pdfrwt beam="1">  1        1 0.33039788E+00 0.27537130E+03</pdfrwt>
<pdfrwt beam="2">  1       -1 0.13580426E-02 0.27537130E+03</pdfrwt>
<totfact> 0.32623629E+03</totfact>
</mgrwt>
</event>
<event>
 5    1  0.1125356E+001  0.2757361E+03  0.7818608E-02  0.1098041E+00
         -1   -1    0    0    0  501 -0.00000000000E+00  0.00000000000E+00  0.12688588478E+02  0.12688588478E+02  0.00000000000E+00 0.  1.
          1   -1    0    0  501    0  0.00000000000E+00 -0.00000000000E+00 -0.14980077987E+04  0.14980077987E+04  0.00000000000E+00 0.  1.
         35    2    1    2    0    0  0.00000000000E+00  0.00000000000E+00 -0.14853192102E+04  0.15106963871E+04  0.27573613832E+03 0.  0.
         25    1    3    3    0    0 -0.56267786363E+02  0.36786720498E+02 -0.69118304530E+03  0.70473635403E+03  0.12000000000E+03 0.  0.
         25    1    3    3    0    0  0.56267786363E+02 -0.36786720498E+02 -0.79413616489E+03  0.80596003311E+03  0.12000000000E+03 0.  0.
<mgrwt>
<rscale>  0 0.27573614E+03</rscale>
<asrwt>0</asrwt>
<pdfrwt beam="1">  1        1 0.23046263E+00 0.27573614E+03</pdfrwt>
<pdfrwt beam="2">  1       -1 0.19520915E-02 0.27573614E+03</pdfrwt>
<totfact> 0.51000819E+03</totfact>
</mgrwt>
</event>
<event>
 5    1  0.1125356E+001  0.2752939E+03  0.7818608E-02  0.1098287E+00
          1   -1    0    0  501    0  0.00000000000E+00  0.00000000000E+00  0.83171976357E+02  0.83171976357E+02  0.00000000000E+00 0.  1.
         -1   -1    0    0    0  501 -0.00000000000E+00 -0.00000000000E+00 -0.22780120985E+03  0.22780120985E+03  0.00000000000E+00 0.  1.
         35    2    1    2    0    0  0.00000000000E+00  0.00000000000E+00 -0.14462923350E+03  0.31097318621E+03  0.27529385638E+03 0.  0.
         25    1    3    3    0    0  0.56506325152E+02 -0.12737442279E+02 -0.33323299176E+02  0.13735228242E+03  0.12000000000E+03 0.  0.
         25    1    3    3    0    0 -0.56506325152E+02  0.12737442279E+02 -0.11130593432E+03  0.17362090379E+03  0.12000000000E+03 0.  0.
<mgrwt>
<rscale>  0 0.27529386E+03</rscale>
<asrwt>0</asrwt>
<pdfrwt beam="1">  1        1 0.12795689E-01 0.27529386E+03</pdfrwt>
<pdfrwt beam="2">  1       -1 0.35046339E-01 0.27529386E+03</pdfrwt>
<totfact> 0.35747158E+03</totfact>
</mgrwt>
</event>
<event>
 5    1  0.1125356E+001  0.2758332E+03  0.7818608E-02  0.1097987E+00
          2   -1    0    0  501    0  0.00000000000E+00  0.00000000000E+00  0.10280970027E+03  0.10280970027E+03  0.00000000000E+00 0. -1.
         -2   -1    0    0    0  501 -0.00000000000E+00 -0.00000000000E+00 -0.18501156064E+03  0.18501156064E+03  0.00000000000E+00 0. -1.
         35    2    1    2    0    0  0.00000000000E+00  0.00000000000E+00 -0.82201860375E+02  0.28782126091E+03  0.27583316041E+03 0.  0.
         25    1    3    3    0    0 -0.44114548406E+02 -0.27684998419E+02 -0.86685155555E+02  0.15692950236E+03  0.12000000000E+03 0.  0.
         25    1    3    3    0    0  0.44114548406E+02  0.27684998419E+02  0.44832951803E+01  0.13089175854E+03  0.12000000000E+03 0.  0.
<mgrwt>
<rscale>  0 0.27583316E+03</rscale>
<asrwt>0</asrwt>
<pdfrwt beam="1">  1        2 0.15816877E-01 0.27583316E+03</pdfrwt>
<pdfrwt beam="2">  1       -2 0.28463317E-01 0.27583316E+03</pdfrwt>
<totfact> 0.40945031E+03</totfact>
</mgrwt>
</event>
<event>
 5    1  0.1125356E+001  0.2754959E+03  0.7818608E-02  0.1098175E+00
          2   -1    0    0  501    0  0.00000000000E+00  0.00000000000E+00  0.63153041515E+02  0.63153041515E+02  0.00000000000E+00 0. -1.
         -2   -1    0    0    0  501 -0.00000000000E+00 -0.00000000000E+00 -0.30045264854E+03  0.30045264854E+03  0.00000000000E+00 0. -1.
         35    2    1    2    0    0  0.00000000000E+00  0.00000000000E+00 -0.23729960703E+03  0.36360569006E+03  0.27549590623E+03 0.  0.
         25    1    3    3    0    0 -0.33521424429E+02 -0.58725865945E+02 -0.11674387742E+03  0.18055898245E+03  0.12000000000E+03 0.  0.
         25    1    3    3    0    0  0.33521424429E+02  0.58725865945E+02 -0.12055572961E+03  0.18304670761E+03  0.12000000000E+03 0.  0.
<mgrwt>
<rscale>  0 0.27549591E+03</rscale>
<asrwt>0</asrwt>
<pdfrwt beam="1">  1        2 0.97158525E-02 0.27549591E+03</pdfrwt>
<pdfrwt beam="2">  1       -2 0.46223485E-01 0.27549591E+03</pdfrwt>
<totfact> 0.29735428E+03</totfact>
</mgrwt>
</event>
<event>
 5    1  0.1125356E+001  0.2766116E+03  0.7818608E-02  0.1097554E+00
          1   -1    0    0  501    0  0.00000000000E+00  0.00000000000E+00  0.13022475412E+04  0.13022475412E+04  0.00000000000E+00 0. -1.
         -1   -1    0    0    0  501 -0.00000000000E+00 -0.00000000000E+00 -0.14688832345E+02  0.14688832345E+02  0.00000000000E+00 0. -1.
         35    2    1    2    0    0  0.00000000000E+00  0.00000000000E+00  0.12875587089E+04  0.13169363736E+04  0.27661161078E+03 0.  0.
         25    1    3    3    0    0 -0.40295842939E+02 -0.55654155725E+02  0.65669182255E+03  0.67109260897E+03  0.12000000000E+03 0.  0.
         25    1    3    3    0    0  0.40295842939E+02  0.55654155725E+02  0.63086688634E+03  0.64584376461E+03  0.12000000000E+03 0.  0.
<mgrwt>
<rscale>  0 0.27661161E+03</rscale>
<asrwt>0</asrwt>
<pdfrwt beam="1">  1        1 0.20034568E+00 0.27661161E+03</pdfrwt>
<pdfrwt beam="2">  1       -1 0.22598214E-02 0.27661161E+03</pdfrwt>
<totfact> 0.55736881E+03</totfact>
</mgrwt>
</event>
<event>
 5    1  0.1125356E+001  0.2744175E+03  0.7818608E-02  0.1098778E+00
         -1   -1    0    0    0  501 -0.00000000000E+00  0.00000000000E+00  0.10102235445E+02  0.10102235445E+02  0.00000000000E+00 0.  1.
          1   -1    0    0  501    0  0.00000000000E+00 -0.00000000000E+00 -0.18635714083E+04  0.18635714083E+04  0.00000000000E+00 0.  1.
         35    2    1    2    0    0  0.00000000000E+00  0.00000000000E+00 -0.18534691728E+04  0.18736736437E+04  0.27441747127E+03 0.  0.
         25    1    3    3    0    0  0.49596638575E+02  0.44342756711E+02 -0.92426801186E+03  0.93439684523E+03  0.12000000000E+03 0.  0.
         25    1    3    3    0    0 -0.49596638575E+02 -0.44342756711E+02 -0.92920116096E+03  0.93927679848E+03  0.12000000000E+03 0.  0.
<mgrwt>
<rscale>  0 0.27441747E+03</rscale>
<asrwt>0</asrwt>
<pdfrwt beam="1">  1        1 0.28670298E+00 0.27441747E+03</pdfrwt>
<pdfrwt beam="2">  1       -1 0.15541918E-02 0.27441747E+03</pdfrwt>
<totfact> 0.41005313E+03</totfact>
</mgrwt>
</event>
<event>
 5    1  0.1125356E+001  0.2747194E+03  0.7818608E-02  0.1098609E+00
         -2   -1    0    0    0  501 -0.00000000000E+00  0.00000000000E+00  0.19003142994E+02  0.19003142994E+02  0.00000000000E+00 0.  1.
          2   -1    0    0  501    0  0.00000000000E+00 -0.00000000000E+00 -0.99287164703E+03  0.99287164703E+03  0.00000000000E+00 0.  1.
         35    2    1    2    0    0  0.00000000000E+00  0.00000000000E+00 -0.97386850404E+03  0.10118747900E+04  0.27471936141E+03 0.  0.
         25    1    3    3    0    0  0.65658579457E+01  0.81098059278E+01 -0.73011047034E+03  0.73997984995E+03  0.12000000000E+03 0.  0.
         25    1    3    3    0    0 -0.65658579457E+01 -0.81098059278E+01 -0.24375803370E+03  0.27189494007E+03  0.12000000000E+03 0.  0.
<mgrwt>
<rscale>  0 0.27471936E+03</rscale>
<asrwt>0</asrwt>
<pdfrwt beam="1">  1        2 0.15274946E+00 0.27471936E+03</pdfrwt>
<pdfrwt beam="2">  1       -2 0.29235609E-02 0.27471936E+03</pdfrwt>
<totfact> 0.11646338E+04</totfact>
</mgrwt>
</event>
<event>
 5    1  0.1125356E+001  0.2764935E+03  0.7818608E-02  0.1097620E+00
          1   -1    0    0  501    0  0.00000000000E+00  0.00000000000E+00  0.35417927310E+02  0.35417927310E+02  0.00000000000E+00 0. -1.
         -1   -1    0    0    0  501 -0.00000000000E+00 -0.00000000000E+00 -0.53961844767E+03  0.53961844767E+03  0.00000000000E+00 0. -1.
         35    2    1    2    0    0  0.00000000000E+00  0.00000000000E+00 -0.50420052036E+03  0.57503637498E+03  0.27649352220E+03 0.  0.
         25    1    3    3    0    0 -0.58067748650E+02 -0.34362638079E+02 -0.27836710378E+03  0.31054935002E+03  0.12000000000E+03 0.  0.
         25    1    3    3    0    0  0.58067748650E+02  0.34362638079E+02 -0.22583341658E+03  0.26448702496E+03  0.12000000000E+03 0.  0.
<mgrwt>
<rscale>  0 0.27649352E+03</rscale>
<asrwt>0</asrwt>
<pdfrwt beam="1">  1        1 0.54489121E-02 0.27649352E+03</pdfrwt>
<pdfrwt beam="2">  1       -1 0.83018219E-01 0.27649352E+03</pdfrwt>
<totfact> 0.22258951E+03</totfact>
</mgrwt>
</event>
<event>
 5    1  0.1125356E+001  0.2755999E+03  0.7818608E-02  0.1098117E+00
         -1   -1    0    0    0  501 -0.00000000000E+00  0.00000000000E+00  0.13269060942E+04  0.13269060942E+04  0.00000000000E+00 0.  1.
          1   -1    0    0  501    0  0.00000000000E+00 -0.00000000000E+00 -0.14310604612E+02  0.14310604612E+02  0.00000000000E+00 0.  1.
         35    2    1    2    0    0  0.00000000000E+00  0.00000000000E+00  0.13125954896E+04  0.13412166989E+04  0.27559991635E+03 0.  0.
         25    1    3    3    0    0  0.14610801359E+02 -0.22296265885E+02  0.95936332990E+03  0.96720659517E+03  0.12000000000E+03 0.  0.
         25    1    3    3    0    0 -0.14610801359E+02  0.22296265885E+02  0.35323215973E+03  0.37401010369E+03  0.12000000000E+03 0.  0.
<mgrwt>
<rscale>  0 0.27559992E+03</rscale>
<asrwt>0</asrwt>
<pdfrwt beam="1">  1        1 0.22016325E-02 0.27559992E+03</pdfrwt>
<pdfrwt beam="2">  1       -1 0.20413930E+00 0.27559992E+03</pdfrwt>
<totfact> 0.82725604E+02</totfact>
</mgrwt>
</event>
<event>
 5    1  0.1125356E+001  0.2746728E+03  0.7818608E-02  0.1098635E+00
         -1   -1    0    0    0  501 -0.00000000000E+00  0.00000000000E+00  0.71328361290E+02  0.71328361290E+02  0.00000000000E+00 0. -1.
          1   -1    0    0  501    0  0.00000000000E+00 -0.00000000000E+00 -0.26442902304E+03  0.26442902304E+03  0.00000000000E+00 0. -1.
         35    2    1    2    0    0  0.00000000000E+00  0.00000000000E+00 -0.19310066175E+03  0.33575738433E+03  0.27467281548E+03 0.  0.
         25    1    3    3    0    0 -0.14549969213E+02  0.43733297052E+01 -0.17605703593E+03  0.21360455874E+03  0.12000000000E+03 0.  0.
         25    1    3    3    0    0  0.14549969213E+02 -0.43733297052E+01 -0.17043625819E+02  0.12215282558E+03  0.12000000000E+03 0.  0.
<mgrwt>
<rscale>  0 0.27467282E+03</rscale>
<asrwt>0</asrwt>
<pdfrwt beam="1">  1        1 0.40681389E-01 0.27467282E+03</pdfrwt>
<pdfrwt beam="2">  1       -1 0.10973594E-01 0.27467282E+03</pdfrwt>
<totfact> 0.53848445E+03</totfact>
</mgrwt>
</event>
<event>
 5    1  0.1125356E+001  0.2748173E+03  0.7818608E-02  0.1098554E+00
         -2   -1    0    0    0  501 -0.00000000000E+00  0.00000000000E+00  0.11835518890E+03  0.11835518890E+03  0.00000000000E+00 0.  1.
          2   -1    0    0  501    0  0.00000000000E+00 -0.00000000000E+00 -0.15952939531E+03  0.15952939531E+03  0.00000000000E+00 0.  1.
         35    2    1    2    0    0  0.00000000000E+00  0.00000000000E+00 -0.41174206409E+02  0.27788458422E+03  0.27481726087E+03 0.  0.
         25    1    3    3    0    0  0.21648354320E+02  0.57997377655E+02  0.51684411836E+01  0.13512608869E+03  0.12000000000E+03 0.  0.
         25    1    3    3    0    0 -0.21648354320E+02 -0.57997377655E+02 -0.46342647593E+02  0.14275849553E+03  0.12000000000E+03 0.  0.
<mgrwt>
<rscale>  0 0.27481726E+03</rscale>
<asrwt>0</asrwt>
<pdfrwt beam="1">  1        2 0.24542984E-01 0.27481726E+03</pdfrwt>
<pdfrwt beam="2">  1       -2 0.18208491E-01 0.27481726E+03</pdfrwt>
<totfact> 0.53847453E+03</totfact>
</mgrwt>
</event>
<event>
 5    1  0.1125356E+001  0.2750485E+03  0.7818608E-02  0.1098424E+00
         -3   -1    0    0    0  501 -0.00000000000E+00  0.00000000000E+00  0.20363034920E+03  0.20363034920E+03  0.00000000000E+00 0. -1.
          3   -1    0    0  501    0  0.00000000000E+00 -0.00000000000E+00 -0.92878712827E+02  0.92878712827E+02  0.00000000000E+00 0. -1.
         35    2    1    2    0    0  0.00000000000E+00  0.00000000000E+00  0.11075163637E+03  0.29650906203E+03  0.27504853918E+03 0.  0.
         25    1    3    3    0    0 -0.57195640790E+01  0.20564130599E+02 -0.13291277502E+02  0.12260609666E+03  0.12000000000E+03 0.  0.
         25    1    3    3    0    0  0.57195640790E+01 -0.20564130599E+02  0.12404291387E+03  0.17390296537E+03  0.12000000000E+03 0.  0.
<mgrwt>
<rscale>  0 0.27504854E+03</rscale>
<asrwt>0</asrwt>
<pdfrwt beam="1">  1        3 0.14289033E-01 0.27504854E+03</pdfrwt>
<pdfrwt beam="2">  1       -3 0.31327746E-01 0.27504854E+03</pdfrwt>
<totfact> 0.10160503E+03</totfact>
</mgrwt>
</event>
<event>
 5    1  0.1125356E+001  0.2749306E+03  0.7818608E-02  0.1098490E+00
          2   -1    0    0  501    0  0.00000000000E+00  0.00000000000E+00  0.19431453149E+03  0.19431453149E+03  0.00000000000E+00 0.  1.
         -2   -1    0    0    0  501 -0.00000000000E+00 -0.00000000000E+00 -0.97248014554E+02  0.97248014554E+02  0.00000000000E+00 0.  1.
         35    2    1    2    0    0  0.00000000000E+00  0.00000000000E+00  0.97066516940E+02  0.29156254605E+03  0.27493055405E+03 0.  0.
         25    1    3    3    0    0  0.76144751489E+01 -0.45784895240E+01 -0.21953861456E+02  0.12231481853E+03  0.12000000000E+03 0.  0.
         25    1    3    3    0    0 -0.76144751489E+01  0.45784895240E+01  0.11902037840E+03  0.16924772752E+03  0.12000000000E+03 0.  0.
<mgrwt>
<rscale>  0 0.27493055E+03</rscale>
<asrwt>0</asrwt>
<pdfrwt beam="1">  1        2 0.29894543E-01 0.27493055E+03</pdfrwt>
<pdfrwt beam="2">  1       -2 0.14961233E-01 0.27493055E+03</pdfrwt>
<totfact> 0.60075097E+03</totfact>
</mgrwt>
</event>
<event>
 5    1  0.1125356E+001  0.2751827E+03  0.7818608E-02  0.1098350E+00
         -2   -1    0    0    0  501 -0.00000000000E+00  0.00000000000E+00  0.12479701047E+03  0.12479701047E+03  0.00000000000E+00 0. -1.
          2   -1    0    0  501    0  0.00000000000E+00 -0.00000000000E+00 -0.15169738418E+03  0.15169738418E+03  0.00000000000E+00 0. -1.
         35    2    1    2    0    0  0.00000000000E+00  0.00000000000E+00 -0.26900373707E+02  0.27649439466E+03  0.27518270326E+03 0.  0.
         25    1    3    3    0    0 -0.56693037151E+02 -0.45480046993E+01 -0.49630090775E+02  0.14176717081E+03  0.12000000000E+03 0.  0.
         25    1    3    3    0    0  0.56693037151E+02  0.45480046993E+01  0.22729717068E+02  0.13472722385E+03  0.12000000000E+03 0.  0.
<mgrwt>
<rscale>  0 0.27518270E+03</rscale>
<asrwt>0</asrwt>
<pdfrwt beam="1">  1        2 0.23338059E-01 0.27518270E+03</pdfrwt>
<pdfrwt beam="2">  1       -2 0.19199540E-01 0.27518270E+03</pdfrwt>
<totfact> 0.52083931E+03</totfact>
</mgrwt>
</event>
<event>
 5    1  0.1125356E+001  0.2744232E+03  0.7818608E-02  0.1098774E+00
         -1   -1    0    0    0  501 -0.00000000000E+00  0.00000000000E+00  0.15222911065E+02  0.15222911065E+02  0.00000000000E+00 0. -1.
          1   -1    0    0  501    0  0.00000000000E+00 -0.00000000000E+00 -0.12367556757E+04  0.12367556757E+04  0.00000000000E+00 0. -1.
         35    2    1    2    0    0  0.00000000000E+00  0.00000000000E+00 -0.12215327646E+04  0.12519785868E+04  0.27442318897E+03 0.  0.
         25    1    3    3    0    0  0.52314939023E+02  0.40984214226E+02 -0.59600917384E+03  0.61159095314E+03  0.12000000000E+03 0.  0.
         25    1    3    3    0    0 -0.52314939023E+02 -0.40984214226E+02 -0.62552359081E+03  0.64038763364E+03  0.12000000000E+03 0.  0.
<mgrwt>
<rscale>  0 0.27442319E+03</rscale>
<asrwt>0</asrwt>
<pdfrwt beam="1">  1        1 0.19027011E+00 0.27442319E+03</pdfrwt>
<pdfrwt beam="2">  1       -1 0.23419862E-02 0.27442319E+03</pdfrwt>
<totfact> 0.58670940E+03</totfact>
</mgrwt>
</event>
<event>
 5    1  0.1125356E+001  0.2742902E+03  0.7818608E-02  0.1098849E+00
         -2   -1    0    0    0  501 -0.00000000000E+00  0.00000000000E+00  0.23949669994E+02  0.23949669994E+02  0.00000000000E+00 0. -1.
          2   -1    0    0  501    0  0.00000000000E+00 -0.00000000000E+00 -0.78534619611E+03  0.78534619611E+03  0.00000000000E+00 0. -1.
         35    2    1    2    0    0  0.00000000000E+00  0.00000000000E+00 -0.76139652612E+03  0.80929586611E+03  0.27429022752E+03 0.  0.
         25    1    3    3    0    0  0.38456458389E+02 -0.53957511609E+02 -0.39337858156E+03  0.41657774866E+03  0.12000000000E+03 0.  0.
         25    1    3    3    0    0 -0.38456458389E+02  0.53957511609E+02 -0.36801794456E+03  0.39271811745E+03  0.12000000000E+03 0.  0.
<mgrwt>
<rscale>  0 0.27429023E+03</rscale>
<asrwt>0</asrwt>
<pdfrwt beam="1">  1        2 0.12082249E+00 0.27429023E+03</pdfrwt>
<pdfrwt beam="2">  1       -2 0.36845648E-02 0.27429023E+03</pdfrwt>
<totfact> 0.11260331E+04</totfact>
</mgrwt>
</event>
<event>
 5    1  0.1125356E+001  0.2740965E+03  0.7818608E-02  0.1098958E+00
          1   -1    0    0  501    0  0.00000000000E+00  0.00000000000E+00  0.27613971523E+02  0.27613971523E+02  0.00000000000E+00 0. -1.
         -1   -1    0    0    0  501 -0.00000000000E+00 -0.00000000000E+00 -0.68017081899E+03  0.68017081899E+03  0.00000000000E+00 0. -1.
         35    2    1    2    0    0  0.00000000000E+00  0.00000000000E+00 -0.65255684747E+03  0.70778479051E+03  0.27409646205E+03 0.  0.
         25    1    3    3    0    0  0.26360607113E+02  0.24757517015E+02 -0.18309983461E+03  0.22188592945E+03  0.12000000000E+03 0.  0.
         25    1    3    3    0    0 -0.26360607113E+02 -0.24757517015E+02 -0.46945701286E+03  0.48589886106E+03  0.12000000000E+03 0.  0.
<mgrwt>
<rscale>  0 0.27409646E+03</rscale>
<asrwt>0</asrwt>
<pdfrwt beam="1">  1        1 0.42483037E-02 0.27409646E+03</pdfrwt>
<pdfrwt beam="2">  1       -1 0.10464165E+00 0.27409646E+03</pdfrwt>
<totfact> 0.18993507E+03</totfact>
</mgrwt>
</event>
<event>
 5    1  0.1125356E+001  0.2732399E+03  0.7818608E-02  0.1099440E+00
         -2   -1    0    0    0  501 -0.00000000000E+00  0.00000000000E+00  0.59775534678E+02  0.59775534678E+02  0.00000000000E+00 0. -1.
          2   -1    0    0  501    0  0.00000000000E+00 -0.00000000000E+00 -0.31225161779E+03  0.31225161779E+03  0.00000000000E+00 0. -1.
         35    2    1    2    0    0  0.00000000000E+00  0.00000000000E+00 -0.25247608312E+03  0.37202715247E+03  0.27323987562E+03 0.  0.
         25    1    3    3    0    0 -0.59199442913E+02 -0.26998429479E+02 -0.11859421064E+03  0.18082609334E+03  0.12000000000E+03 0.  0.
         25    1    3    3    0    0  0.59199442913E+02  0.26998429479E+02 -0.13388187248E+03  0.19120105913E+03  0.12000000000E+03 0.  0.
<mgrwt>
<rscale>  0 0.27323988E+03</rscale>
<asrwt>0</asrwt>
<pdfrwt beam="1">  1        2 0.48038711E-01 0.27323988E+03</pdfrwt>
<pdfrwt beam="2">  1       -2 0.91962361E-02 0.27323988E+03</pdfrwt>
<totfact> 0.78776945E+03</totfact>
</mgrwt>
</event>
<event>
 5    1  0.1125356E+001  0.2752814E+03  0.7818608E-02  0.1098294E+00
         -2   -1    0    0    0  501 -0.00000000000E+00  0.00000000000E+00  0.11175637627E+04  0.11175637627E+04  0.00000000000E+00 0.  1.
          2   -1    0    0  501    0  0.00000000000E+00 -0.00000000000E+00 -0.16952021431E+02  0.16952021431E+02  0.00000000000E+00 0.  1.
         35    2    1    2    0    0  0.00000000000E+00  0.00000000000E+00  0.11006117412E+04  0.11345157841E+04  0.27528141859E+03 0.  0.
         25    1    3    3    0    0 -0.26357245044E+02 -0.62003161277E+02  0.56028968492E+03  0.57694334852E+03  0.12000000000E+03 0.  0.
         25    1    3    3    0    0  0.26357245044E+02  0.62003161277E+02  0.54032205633E+03  0.55757243559E+03  0.12000000000E+03 0.  0.
<mgrwt>
<rscale>  0 0.27528142E+03</rscale>
<asrwt>0</asrwt>
<pdfrwt beam="1">  1        2 0.26080042E-02 0.27528142E+03</pdfrwt>
<pdfrwt beam="2">  1       -2 0.17193283E+00 0.27528142E+03</pdfrwt>
<totfact> 0.83813010E+02</totfact>
</mgrwt>
</event>
<event>
 5    1  0.1125356E+001  0.2746600E+03  0.7818608E-02  0.1098642E+00
          2   -1    0    0  501    0  0.00000000000E+00  0.00000000000E+00  0.28268089322E+03  0.28268089322E+03  0.00000000000E+00 0.  1.
         -2   -1    0    0    0  501 -0.00000000000E+00 -0.00000000000E+00 -0.66716678334E+02  0.66716678334E+02  0.00000000000E+00 0.  1.
         35    2    1    2    0    0  0.00000000000E+00  0.00000000000E+00  0.21596421489E+03  0.34939757155E+03  0.27466000964E+03 0.  0.
         25    1    3    3    0    0  0.23371312109E+02 -0.34691172566E+02  0.17420312323E+03  0.21563029431E+03  0.12000000000E+03 0.  0.
         25    1    3    3    0    0 -0.23371312109E+02  0.34691172566E+02  0.41761091659E+02  0.13376727724E+03  0.12000000000E+03 0.  0.
<mgrwt>
<rscale>  0 0.27466001E+03</rscale>
<asrwt>0</asrwt>
<pdfrwt beam="1">  1        2 0.43489368E-01 0.27466001E+03</pdfrwt>
<pdfrwt beam="2">  1       -2 0.10264104E-01 0.27466001E+03</pdfrwt>
<totfact> 0.73671258E+03</totfact>
</mgrwt>
</event>
<event>
 5    1  0.1125356E+001  0.2759214E+03  0.7818608E-02  0.1097938E+00
          1   -1    0    0  501    0  0.00000000000E+00  0.00000000000E+00  0.11865985295E+03  0.11865985295E+03  0.00000000000E+00 0. -1.
         -1   -1    0    0    0  501 -0.00000000000E+00 -0.00000000000E+00 -0.16040098197E+03  0.16040098197E+03  0.00000000000E+00 0. -1.
         35    2    1    2    0    0  0.00000000000E+00  0.00000000000E+00 -0.41741129014E+02  0.27906083492E+03  0.27592141587E+03 0.  0.
         25    1    3    3    0    0 -0.41534106230E+02  0.44810884002E+01 -0.75222083092E+02  0.14766016361E+03  0.12000000000E+03 0.  0.
         25    1    3    3    0    0  0.41534106230E+02 -0.44810884002E+01  0.33480954078E+02  0.13140067131E+03  0.12000000000E+03 0.  0.
<mgrwt>
<rscale>  0 0.27592142E+03</rscale>
<asrwt>0</asrwt>
<pdfrwt beam="1">  1        1 0.18255362E-01 0.27592142E+03</pdfrwt>
<pdfrwt beam="2">  1       -1 0.24677074E-01 0.27592142E+03</pdfrwt>
<totfact> 0.40704218E+03</totfact>
</mgrwt>
</event>
<event>
 5    1  0.1125356E+001  0.2755705E+03  0.7818608E-02  0.1098133E+00
         -2   -1    0    0    0  501 -0.00000000000E+00  0.00000000000E+00  0.17304933198E+02  0.17304933198E+02  0.00000000000E+00 0. -1.
          2   -1    0    0  501    0  0.00000000000E+00 -0.00000000000E+00 -0.10970729027E+04  0.10970729027E+04  0.00000000000E+00 0. -1.
         35    2    1    2    0    0  0.00000000000E+00  0.00000000000E+00 -0.10797679695E+04  0.11143778359E+04  0.27557048677E+03 0.  0.
         25    1    3    3    0    0  0.13062731373E+01  0.49647094571E+02 -0.35376673702E+03  0.37685201946E+03  0.12000000000E+03 0.  0.
         25    1    3    3    0    0 -0.13062731373E+01 -0.49647094571E+02 -0.72600123248E+03  0.73752581643E+03  0.12000000000E+03 0.  0.
<mgrwt>
<rscale>  0 0.27557049E+03</rscale>
<asrwt>0</asrwt>
<pdfrwt beam="1">  1        2 0.16878047E+00 0.27557049E+03</pdfrwt>
<pdfrwt beam="2">  1       -2 0.26622970E-02 0.27557049E+03</pdfrwt>
<totfact> 0.11587729E+04</totfact>
</mgrwt>
</event>
<event>
 5    1  0.1125356E+001  0.2735045E+03  0.7818608E-02  0.1099291E+00
          2   -1    0    0  501    0  0.00000000000E+00  0.00000000000E+00  0.71489519399E+03  0.71489519399E+03  0.00000000000E+00 0. -1.
         -2   -1    0    0    0  501 -0.00000000000E+00 -0.00000000000E+00 -0.26159320498E+02  0.26159320498E+02  0.00000000000E+00 0. -1.
         35    2    1    2    0    0  0.00000000000E+00  0.00000000000E+00  0.68873587349E+03  0.74105451449E+03  0.27350446067E+03 0.  0.
         25    1    3    3    0    0 -0.40180396903E+02 -0.27945164009E+02  0.22608511621E+03  0.26059523453E+03  0.12000000000E+03 0.  0.
         25    1    3    3    0    0  0.40180396903E+02  0.27945164009E+02  0.46265075728E+03  0.48045927996E+03  0.12000000000E+03 0.  0.
<mgrwt>
<rscale>  0 0.27350446E+03</rscale>
<asrwt>0</asrwt>
<pdfrwt beam="1">  1        2 0.10998386E+00 0.27350446E+03</pdfrwt>
<pdfrwt beam="2">  1       -2 0.40245114E-02 0.27350446E+03</pdfrwt>
<totfact> 0.11082672E+04</totfact>
</mgrwt>
</event>
<event>
 5    1  0.1125356E+001  0.2752863E+03  0.7818608E-02  0.1098292E+00
         -2   -1    0    0    0  501 -0.00000000000E+00  0.00000000000E+00  0.11729348041E+02  0.11729348041E+02  0.00000000000E+00 0.  1.
          2   -1    0    0  501    0  0.00000000000E+00 -0.00000000000E+00 -0.16152333369E+04  0.16152333369E+04  0.00000000000E+00 0.  1.
         35    2    1    2    0    0  0.00000000000E+00  0.00000000000E+00 -0.16035039888E+04  0.16269626849E+04  0.27528627991E+03 0.  0.
         25    1    3    3    0    0 -0.50652078508E+02  0.39539341358E+02 -0.68111674165E+03  0.69458549390E+03  0.12000000000E+03 0.  0.
         25    1    3    3    0    0  0.50652078508E+02 -0.39539341358E+02 -0.92238724720E+03  0.93237719104E+03  0.12000000000E+03 0.  0.
<mgrwt>
<rscale>  0 0.27528628E+03</rscale>
<asrwt>0</asrwt>
<pdfrwt beam="1">  1        2 0.24849736E+00 0.27528628E+03</pdfrwt>
<pdfrwt beam="2">  1       -2 0.18045157E-02 0.27528628E+03</pdfrwt>
<totfact> 0.10654268E+04</totfact>
</mgrwt>
</event>
<event>
 5    1  0.1125356E+001  0.2800771E+03  0.7818608E-02  0.1095647E+00
          2   -1    0    0  501    0  0.00000000000E+00  0.00000000000E+00  0.31818787173E+03  0.31818787173E+03  0.00000000000E+00 0. -1.
         -2   -1    0    0    0  501 -0.00000000000E+00 -0.00000000000E+00 -0.61632735989E+02  0.61632735989E+02  0.00000000000E+00 0. -1.
         35    2    1    2    0    0  0.00000000000E+00  0.00000000000E+00  0.25655513575E+03  0.37982060772E+03  0.28007705435E+03 0.  0.
         25    1    3    3    0    0  0.41391154181E+02  0.21241296729E+02  0.20312764133E+03  0.24046883166E+03  0.12000000000E+03 0.  0.
         25    1    3    3    0    0 -0.41391154181E+02 -0.21241296729E+02  0.53427494419E+02  0.13935177606E+03  0.12000000000E+03 0.  0.
<mgrwt>
<rscale>  0 0.28007705E+03</rscale>
<asrwt>0</asrwt>
<pdfrwt beam="1">  1        2 0.48951979E-01 0.28007705E+03</pdfrwt>
<pdfrwt beam="2">  1       -2 0.94819595E-02 0.28007705E+03</pdfrwt>
<totfact> 0.73620383E+03</totfact>
</mgrwt>
</event>
<event>
 5    1  0.1125356E+001  0.2754517E+03  0.7818608E-02  0.1098199E+00
         -1   -1    0    0    0  501 -0.00000000000E+00  0.00000000000E+00  0.21355214799E+03  0.21355214799E+03  0.00000000000E+00 0. -1.
          1   -1    0    0  501    0  0.00000000000E+00 -0.00000000000E+00 -0.88823319446E+02  0.88823319446E+02  0.00000000000E+00 0. -1.
         35    2    1    2    0    0  0.00000000000E+00  0.00000000000E+00  0.12472882854E+03  0.30237546743E+03  0.27545170654E+03 0.  0.
         25    1    3    3    0    0 -0.24175521621E+02 -0.61957154362E+02  0.49133714017E+02  0.14573011588E+03  0.12000000000E+03 0.  0.
         25    1    3    3    0    0  0.24175521621E+02  0.61957154362E+02  0.75595114527E+02  0.15664535155E+03  0.12000000000E+03 0.  0.
<mgrwt>
<rscale>  0 0.27545171E+03</rscale>
<asrwt>0</asrwt>
<pdfrwt beam="1">  1        1 0.13665126E-01 0.27545171E+03</pdfrwt>
<pdfrwt beam="2">  1       -1 0.32854177E-01 0.27545171E+03</pdfrwt>
<totfact> 0.36646095E+03</totfact>
</mgrwt>
</event>
<event>
 5    1  0.1125356E+001  0.2733789E+03  0.7818608E-02  0.1099361E+00
          1   -1    0    0  501    0  0.00000000000E+00  0.00000000000E+00  0.25893340618E+03  0.25893340618E+03  0.00000000000E+00 0.  1.
         -1   -1    0    0    0  501 -0.00000000000E+00 -0.00000000000E+00 -0.72157565954E+02  0.72157565954E+02  0.00000000000E+00 0.  1.
         35    2    1    2    0    0  0.00000000000E+00  0.00000000000E+00  0.18677584022E+03  0.33109097213E+03  0.27337888970E+03 0.  0.
         25    1    3    3    0    0  0.57153090838E+01  0.53185045398E+02  0.47706711814E+02  0.13977569232E+03  0.12000000000E+03 0.  0.
         25    1    3    3    0    0 -0.57153090838E+01 -0.53185045398E+02  0.13906912841E+03  0.19131527981E+03  0.12000000000E+03 0.  0.
<mgrwt>
<rscale>  0 0.27337889E+03</rscale>
<asrwt>0</asrwt>
<pdfrwt beam="1">  1        1 0.39835908E-01 0.27337889E+03</pdfrwt>
<pdfrwt beam="2">  1       -1 0.11101164E-01 0.27337889E+03</pdfrwt>
<totfact> 0.54293035E+03</totfact>
</mgrwt>
</event>
<event>
 5    1  0.1125356E+001  0.2740353E+03  0.7818608E-02  0.1098992E+00
         -3   -1    0    0    0  501 -0.00000000000E+00  0.00000000000E+00  0.40467316340E+02  0.40467316340E+02  0.00000000000E+00 0.  1.
          3   -1    0    0  501    0  0.00000000000E+00 -0.00000000000E+00 -0.46392590813E+03  0.46392590813E+03  0.00000000000E+00 0.  1.
         35    2    1    2    0    0  0.00000000000E+00  0.00000000000E+00 -0.42345859179E+03  0.50439322447E+03  0.27403530052E+03 0.  0.
         25    1    3    3    0    0  0.94906417096E+01 -0.55686565746E+02 -0.14842794286E+03  0.19905255614E+03  0.12000000000E+03 0.  0.
         25    1    3    3    0    0 -0.94906417096E+01  0.55686565746E+02 -0.27503064894E+03  0.30534066834E+03  0.12000000000E+03 0.  0.
<mgrwt>
<rscale>  0 0.27403530E+03</rscale>
<asrwt>0</asrwt>
<pdfrwt beam="1">  1        3 0.71373217E-01 0.27403530E+03</pdfrwt>
<pdfrwt beam="2">  1       -3 0.62257409E-02 0.27403530E+03</pdfrwt>
<totfact> 0.77838312E+02</totfact>
</mgrwt>
</event>
<event>
 5    1  0.1125356E+001  0.2748805E+03  0.7818608E-02  0.1098518E+00
         -1   -1    0    0    0  501 -0.00000000000E+00  0.00000000000E+00  0.19455365402E+02  0.19455365402E+02  0.00000000000E+00 0. -1.
          1   -1    0    0  501    0  0.00000000000E+00 -0.00000000000E+00 -0.97093102037E+03  0.97093102037E+03  0.00000000000E+00 0. -1.
         35    2    1    2    0    0  0.00000000000E+00  0.00000000000E+00 -0.95147565497E+03  0.99038638577E+03  0.27488046698E+03 0.  0.
         25    1    3    3    0    0 -0.33361707450E+02 -0.46467945400E+02 -0.35001817578E+03  0.37441286950E+03  0.12000000000E+03 0.  0.
         25    1    3    3    0    0  0.33361707450E+02  0.46467945400E+02 -0.60145747919E+03  0.61597351627E+03  0.12000000000E+03 0.  0.
<mgrwt>
<rscale>  0 0.27488047E+03</rscale>
<asrwt>0</asrwt>
<pdfrwt beam="1">  1        1 0.14937401E+00 0.27488047E+03</pdfrwt>
<pdfrwt beam="2">  1       -1 0.29931330E-02 0.27488047E+03</pdfrwt>
<totfact> 0.63619027E+03</totfact>
</mgrwt>
</event>
<event>
 5    1  0.1125356E+001  0.2754620E+03  0.7818608E-02  0.1098194E+00
         -1   -1    0    0    0  501 -0.00000000000E+00  0.00000000000E+00  0.77846937343E+02  0.77846937343E+02  0.00000000000E+00 0.  1.
          1   -1    0    0  501    0  0.00000000000E+00 -0.00000000000E+00 -0.24368103000E+03  0.24368103000E+03  0.00000000000E+00 0.  1.
         35    2    1    2    0    0  0.00000000000E+00  0.00000000000E+00 -0.16583409266E+03  0.32152796735E+03  0.27546195290E+03 0.  0.
         25    1    3    3    0    0 -0.32568620069E+02  0.59129403277E+02 -0.87096409480E+02  0.16291956877E+03  0.12000000000E+03 0.  0.
         25    1    3    3    0    0  0.32568620069E+02 -0.59129403277E+02 -0.78737683181E+02  0.15860839857E+03  0.12000000000E+03 0.  0.
<mgrwt>
<rscale>  0 0.27546195E+03</rscale>
<asrwt>0</asrwt>
<pdfrwt beam="1">  1        1 0.37489389E-01 0.27546195E+03</pdfrwt>
<pdfrwt beam="2">  1       -1 0.11976452E-01 0.27546195E+03</pdfrwt>
<totfact> 0.52070469E+03</totfact>
</mgrwt>
</event>
<event>
 5    1  0.1125356E+001  0.2770900E+03  0.7818608E-02  0.1097289E+00
          2   -1    0    0  501    0  0.00000000000E+00  0.00000000000E+00  0.37625741835E+03  0.37625741835E+03  0.00000000000E+00 0. -1.
         -2   -1    0    0    0  501 -0.00000000000E+00 -0.00000000000E+00 -0.51014851078E+02  0.51014851078E+02  0.00000000000E+00 0. -1.
         35    2    1    2    0    0  0.00000000000E+00  0.00000000000E+00  0.32524256727E+03  0.42727226943E+03  0.27708999379E+03 0.  0.
         25    1    3    3    0    0 -0.18596336371E+02  0.51575107888E+02  0.97401856537E+02  0.16399066174E+03  0.12000000000E+03 0.  0.
         25    1    3    3    0    0  0.18596336371E+02 -0.51575107888E+02  0.22784071073E+03  0.26328160769E+03  0.12000000000E+03 0.  0.
<mgrwt>
<rscale>  0 0.27708999E+03</rscale>
<asrwt>0</asrwt>
<pdfrwt beam="1">  1        2 0.57885755E-01 0.27708999E+03</pdfrwt>
<pdfrwt beam="2">  1       -2 0.78484389E-02 0.27708999E+03</pdfrwt>
<totfact> 0.82656094E+03</totfact>
</mgrwt>
</event>
<event>
 5    1  0.1125356E+001  0.2762664E+03  0.7818608E-02  0.1097746E+00
         -2   -1    0    0    0  501 -0.00000000000E+00  0.00000000000E+00  0.15193445630E+03  0.15193445630E+03  0.00000000000E+00 0. -1.
          2   -1    0    0  501    0  0.00000000000E+00 -0.00000000000E+00 -0.12558559616E+03  0.12558559616E+03  0.00000000000E+00 0. -1.
         35    2    1    2    0    0  0.00000000000E+00  0.00000000000E+00  0.26348860133E+02  0.27752005246E+03  0.27626638791E+03 0.  0.
         25    1    3    3    0    0  0.34113054379E+02  0.50550094407E+02  0.44327524991E+02  0.14171782526E+03  0.12000000000E+03 0.  0.
         25    1    3    3    0    0 -0.34113054379E+02 -0.50550094407E+02 -0.17978664858E+02  0.13580222720E+03  0.12000000000E+03 0.  0.
<mgrwt>
<rscale>  0 0.27626639E+03</rscale>
<asrwt>0</asrwt>
<pdfrwt beam="1">  1        2 0.19320861E-01 0.27626639E+03</pdfrwt>
<pdfrwt beam="2">  1       -2 0.23374532E-01 0.27626639E+03</pdfrwt>
<totfact> 0.45999423E+03</totfact>
</mgrwt>
</event>
<event>
 5    1  0.1125356E+001  0.2751128E+03  0.7818608E-02  0.1098389E+00
         -2   -1    0    0    0  501 -0.00000000000E+00  0.00000000000E+00  0.14408963440E+03  0.14408963440E+03  0.00000000000E+00 0. -1.
          2   -1    0    0  501    0  0.00000000000E+00 -0.00000000000E+00 -0.13131940011E+03  0.13131940011E+03  0.00000000000E+00 0. -1.
         35    2    1    2    0    0  0.00000000000E+00  0.00000000000E+00  0.12770234282E+02  0.27540903451E+03  0.27511280851E+03 0.  0.
         25    1    3    3    0    0 -0.56682716689E+02  0.37072340144E+01 -0.29640996427E+02  0.13603404950E+03  0.12000000000E+03 0.  0.
         25    1    3    3    0    0  0.56682716689E+02 -0.37072340144E+01  0.42411230708E+02  0.13937498501E+03  0.12000000000E+03 0.  0.
<mgrwt>
<rscale>  0 0.27511281E+03</rscale>
<asrwt>0</asrwt>
<pdfrwt beam="1">  1        2 0.20202985E-01 0.27511281E+03</pdfrwt>
<pdfrwt beam="2">  1       -2 0.22167636E-01 0.27511281E+03</pdfrwt>
<totfact> 0.47922357E+03</totfact>
</mgrwt>
</event>
<event>
 5    1  0.1125356E+001  0.2751185E+03  0.7818608E-02  0.1098385E+00
         -2   -1    0    0    0  501 -0.00000000000E+00  0.00000000000E+00  0.23674960491E+02  0.23674960491E+02  0.00000000000E+00 0.  1.
          2   -1    0    0  501    0  0.00000000000E+00 -0.00000000000E+00 -0.79926417953E+03  0.79926417953E+03  0.00000000000E+00 0.  1.
         35    2    1    2    0    0  0.00000000000E+00  0.00000000000E+00 -0.77558921904E+03  0.82293914002E+03  0.27511850445E+03 0.  0.
         25    1    3    3    0    0 -0.79986086751E+01  0.28788496037E+01 -0.18824921919E+03  0.22340553717E+03  0.12000000000E+03 0.  0.
         25    1    3    3    0    0  0.79986086751E+01 -0.28788496037E+01 -0.58733999985E+03  0.59953360285E+03  0.12000000000E+03 0.  0.
<mgrwt>
<rscale>  0 0.27511850E+03</rscale>
<asrwt>0</asrwt>
<pdfrwt beam="1">  1        2 0.12296371E+00 0.27511850E+03</pdfrwt>
<pdfrwt beam="2">  1       -2 0.36423018E-02 0.27511850E+03</pdfrwt>
<totfact> 0.11205537E+04</totfact>
</mgrwt>
</event>
<event>
 5    1  0.1125356E+001  0.2780023E+03  0.7818608E-02  0.1096785E+00
         -2   -1    0    0    0  501 -0.00000000000E+00  0.00000000000E+00  0.54516960101E+03  0.54516960101E+03  0.00000000000E+00 0. -1.
          2   -1    0    0  501    0  0.00000000000E+00 -0.00000000000E+00 -0.35440931856E+02  0.35440931856E+02  0.00000000000E+00 0. -1.
         35    2    1    2    0    0  0.00000000000E+00  0.00000000000E+00  0.50972866915E+03  0.58061053287E+03  0.27800229265E+03 0.  0.
         25    1    3    3    0    0 -0.60122717505E+01  0.38500297474E+02  0.37669623578E+03  0.39726373402E+03  0.12000000000E+03 0.  0.
         25    1    3    3    0    0  0.60122717505E+01 -0.38500297474E+02  0.13303243337E+03  0.18334679884E+03  0.12000000000E+03 0.  0.
<mgrwt>
<rscale>  0 0.27800229E+03</rscale>
<asrwt>0</asrwt>
<pdfrwt beam="1">  1        2 0.54524515E-02 0.27800229E+03</pdfrwt>
<pdfrwt beam="2">  1       -2 0.83872240E-01 0.27800229E+03</pdfrwt>
<totfact> 0.17944493E+03</totfact>
</mgrwt>
</event>
<event>
 5    1  0.1125356E+001  0.2753468E+03  0.7818608E-02  0.1098258E+00
          2   -1    0    0  501    0  0.00000000000E+00  0.00000000000E+00  0.38856557946E+03  0.38856557946E+03  0.00000000000E+00 0. -1.
         -2   -1    0    0    0  501 -0.00000000000E+00 -0.00000000000E+00 -0.48779313190E+02  0.48779313190E+02  0.00000000000E+00 0. -1.
         35    2    1    2    0    0  0.00000000000E+00  0.00000000000E+00  0.33978626627E+03  0.43734489265E+03  0.27534677841E+03 0.  0.
         25    1    3    3    0    0  0.64136688940E+01 -0.62779707926E+02  0.20786531555E+03  0.24817416522E+03  0.12000000000E+03 0.  0.
         25    1    3    3    0    0 -0.64136688940E+01  0.62779707926E+02  0.13192095072E+03  0.18917072743E+03  0.12000000000E+03 0.  0.
<mgrwt>
<rscale>  0 0.27534678E+03</rscale>
<asrwt>0</asrwt>
<pdfrwt beam="1">  1        2 0.59779318E-01 0.27534678E+03</pdfrwt>
<pdfrwt beam="2">  1       -2 0.75045100E-02 0.27534678E+03</pdfrwt>
<totfact> 0.85575126E+03</totfact>
</mgrwt>
</event>
<event>
 5    1  0.1125356E+001  0.2752885E+03  0.7818608E-02  0.1098290E+00
         -3   -1    0    0    0  501 -0.00000000000E+00  0.00000000000E+00  0.10521704861E+04  0.10521704861E+04  0.00000000000E+00 0.  1.
          3   -1    0    0  501    0  0.00000000000E+00 -0.00000000000E+00 -0.18006534204E+02  0.18006534204E+02  0.00000000000E+00 0.  1.
         35    2    1    2    0    0  0.00000000000E+00  0.00000000000E+00  0.10341639519E+04  0.10701770203E+04  0.27528853116E+03 0.  0.
         25    1    3    3    0    0  0.47091414965E+02  0.95036044865E+00  0.32953646035E+03  0.35385418360E+03  0.12000000000E+03 0.  0.
         25    1    3    3    0    0 -0.47091414965E+02 -0.95036044865E+00  0.70462749158E+03  0.71632283674E+03  0.12000000000E+03 0.  0.
<mgrwt>
<rscale>  0 0.27528853E+03</rscale>
<asrwt>0</asrwt>
<pdfrwt beam="1">  1        3 0.27702369E-02 0.27528853E+03</pdfrwt>
<pdfrwt beam="2">  1       -3 0.16187233E+00 0.27528853E+03</pdfrwt>
<totfact> 0.41143661E+02</totfact>
</mgrwt>
</event>
<event>
 5    1  0.1125356E+001  0.2747870E+03  0.7818608E-02  0.1098571E+00
         -1   -1    0    0    0  501 -0.00000000000E+00  0.00000000000E+00  0.20539236916E+03  0.20539236916E+03  0.00000000000E+00 0.  1.
          1   -1    0    0  501    0  0.00000000000E+00 -0.00000000000E+00 -0.91906894143E+02  0.91906894143E+02  0.00000000000E+00 0.  1.
         35    2    1    2    0    0  0.00000000000E+00  0.00000000000E+00  0.11348547502E+03  0.29729926331E+03  0.27478700646E+03 0.  0.
         25    1    3    3    0    0 -0.48658733424E+02 -0.83084662753E+01  0.78728148754E+01  0.12999493899E+03  0.12000000000E+03 0.  0.
         25    1    3    3    0    0  0.48658733424E+02  0.83084662753E+01  0.10561266015E+03  0.16730432431E+03  0.12000000000E+03 0.  0.
<mgrwt>
<rscale>  0 0.27478701E+03</rscale>
<asrwt>0</asrwt>
<pdfrwt beam="1">  1        1 0.14139522E-01 0.27478701E+03</pdfrwt>
<pdfrwt beam="2">  1       -1 0.31598826E-01 0.27478701E+03</pdfrwt>
<totfact> 0.37455727E+03</totfact>
</mgrwt>
</event>
<event>
 5    1  0.1125356E+001  0.2758802E+03  0.7818608E-02  0.1097961E+00
         -2   -1    0    0    0  501 -0.00000000000E+00  0.00000000000E+00  0.87009842485E+01  0.87009842485E+01  0.00000000000E+00 0. -1.
          2   -1    0    0  501    0  0.00000000000E+00 -0.00000000000E+00 -0.21868183312E+04  0.21868183312E+04  0.00000000000E+00 0. -1.
         35    2    1    2    0    0  0.00000000000E+00  0.00000000000E+00 -0.21781173469E+04  0.21955193154E+04  0.27588020483E+03 0.  0.
         25    1    3    3    0    0 -0.52213630586E+02  0.26459828923E+02 -0.13648647250E+04  0.13713796350E+04  0.12000000000E+03 0.  0.
         25    1    3    3    0    0  0.52213630586E+02 -0.26459828923E+02 -0.81325262197E+03  0.82413968045E+03  0.12000000000E+03 0.  0.
<mgrwt>
<rscale>  0 0.27588020E+03</rscale>
<asrwt>0</asrwt>
<pdfrwt beam="1">  1        2 0.33643388E+00 0.27588020E+03</pdfrwt>
<pdfrwt beam="2">  1       -2 0.13386118E-02 0.27588020E+03</pdfrwt>
<totfact> 0.82471352E+03</totfact>
</mgrwt>
</event>
<event>
 5    1  0.1125356E+001  0.2740519E+03  0.7818608E-02  0.1098983E+00
          2   -1    0    0  501    0  0.00000000000E+00  0.00000000000E+00  0.64436569217E+03  0.64436569217E+03  0.00000000000E+00 0. -1.
         -2   -1    0    0    0  501 -0.00000000000E+00 -0.00000000000E+00 -0.29138914106E+02  0.29138914106E+02  0.00000000000E+00 0. -1.
         35    2    1    2    0    0  0.00000000000E+00  0.00000000000E+00  0.61522677807E+03  0.67350460628E+03  0.27405194075E+03 0.  0.
         25    1    3    3    0    0  0.27390793832E+02 -0.36984522718E+02  0.19083291362E+03  0.23007675117E+03  0.12000000000E+03 0.  0.
         25    1    3    3    0    0 -0.27390793832E+02  0.36984522718E+02  0.42439386444E+03  0.44342785511E+03  0.12000000000E+03 0.  0.
<mgrwt>
<rscale>  0 0.27405194E+03</rscale>
<asrwt>0</asrwt>
<pdfrwt beam="1">  1        2 0.99133173E-01 0.27405194E+03</pdfrwt>
<pdfrwt beam="2">  1       -2 0.44829104E-02 0.27405194E+03</pdfrwt>
<totfact> 0.10672157E+04</totfact>
</mgrwt>
</event>
<event>
 5    1  0.1125356E+001  0.2752508E+03  0.7818608E-02  0.1098311E+00
         -2   -1    0    0    0  501 -0.00000000000E+00  0.00000000000E+00  0.12611374572E+03  0.12611374572E+03  0.00000000000E+00 0.  1.
          2   -1    0    0  501    0  0.00000000000E+00 -0.00000000000E+00 -0.15018788252E+03  0.15018788252E+03  0.00000000000E+00 0.  1.
         35    2    1    2    0    0  0.00000000000E+00  0.00000000000E+00 -0.24074136799E+02  0.27630162824E+03  0.27525084143E+03 0.  0.
         25    1    3    3    0    0  0.41109405966E+01 -0.31486034268E+02 -0.71698686577E+02  0.14334912572E+03  0.12000000000E+03 0.  0.
         25    1    3    3    0    0 -0.41109405966E+01  0.31486034268E+02  0.47624549778E+02  0.13295250253E+03  0.12000000000E+03 0.  0.
<mgrwt>
<rscale>  0 0.27525084E+03</rscale>
<asrwt>0</asrwt>
<pdfrwt beam="1">  1        2 0.23105828E-01 0.27525084E+03</pdfrwt>
<pdfrwt beam="2">  1       -2 0.19402115E-01 0.27525084E+03</pdfrwt>
<totfact> 0.51741259E+03</totfact>
</mgrwt>
</event>
<event>
 5    1  0.1125356E+001  0.2746740E+03  0.7818608E-02  0.1098634E+00
         -2   -1    0    0    0  501 -0.00000000000E+00  0.00000000000E+00  0.13602265275E+04  0.13602265275E+04  0.00000000000E+00 0. -1.
          2   -1    0    0  501    0  0.00000000000E+00 -0.00000000000E+00 -0.13866399805E+02  0.13866399805E+02  0.00000000000E+00 0. -1.
         35    2    1    2    0    0  0.00000000000E+00  0.00000000000E+00  0.13463601277E+04  0.13740929273E+04  0.27467395112E+03 0.  0.
         25    1    3    3    0    0  0.34848779877E+02  0.56979274586E+02  0.67013846163E+03  0.68406624894E+03  0.12000000000E+03 0.  0.
         25    1    3    3    0    0 -0.34848779877E+02 -0.56979274586E+02  0.67622166607E+03  0.69002667836E+03  0.12000000000E+03 0.  0.
<mgrwt>
<rscale>  0 0.27467395E+03</rscale>
<asrwt>0</asrwt>
<pdfrwt beam="1">  1        2 0.21332933E-02 0.27467395E+03</pdfrwt>
<pdfrwt beam="2">  1       -2 0.20926551E+00 0.27467395E+03</pdfrwt>
<totfact> 0.63186130E+02</totfact>
</mgrwt>
</event>
<event>
 5    1  0.1125356E+001  0.2744379E+03  0.7818608E-02  0.1098766E+00
         -1   -1    0    0    0  501 -0.00000000000E+00  0.00000000000E+00  0.32697451717E+02  0.32697451717E+02  0.00000000000E+00 0. -1.
          1   -1    0    0  501    0  0.00000000000E+00 -0.00000000000E+00 -0.57585634456E+03  0.57585634456E+03  0.00000000000E+00 0. -1.
         35    2    1    2    0    0  0.00000000000E+00  0.00000000000E+00 -0.54315889285E+03  0.60855379628E+03  0.27443786198E+03 0.  0.
         25    1    3    3    0    0  0.56688595066E+02 -0.30192859896E+02 -0.23292763400E+03  0.26977859122E+03  0.12000000000E+03 0.  0.
         25    1    3    3    0    0 -0.56688595066E+02  0.30192859896E+02 -0.31023125885E+03  0.33877520506E+03  0.12000000000E+03 0.  0.
<mgrwt>
<rscale>  0 0.27443786E+03</rscale>
<asrwt>0</asrwt>
<pdfrwt beam="1">  1        1 0.88593286E-01 0.27443786E+03</pdfrwt>
<pdfrwt beam="2">  1       -1 0.50303770E-02 0.27443786E+03</pdfrwt>
<totfact> 0.64692276E+03</totfact>
</mgrwt>
</event>
<event>
 5    1  0.1125356E+001  0.2734012E+03  0.7818608E-02  0.1099349E+00
          2   -1    0    0  501    0  0.00000000000E+00  0.00000000000E+00  0.15060555605E+04  0.15060555605E+04  0.00000000000E+00 0.  1.
         -2   -1    0    0    0  501 -0.00000000000E+00 -0.00000000000E+00 -0.12407946065E+02  0.12407946065E+02  0.00000000000E+00 0.  1.
         35    2    1    2    0    0  0.00000000000E+00  0.00000000000E+00  0.14936476144E+04  0.15184635066E+04  0.27340121555E+03 0.  0.
         25    1    3    3    0    0  0.54669619770E+02  0.23325565272E+02  0.59429595583E+03  0.60919662871E+03  0.12000000000E+03 0.  0.
         25    1    3    3    0    0 -0.54669619770E+02 -0.23325565272E+02  0.89935165860E+03  0.90926687784E+03  0.12000000000E+03 0.  0.
<mgrwt>
<rscale>  0 0.27340122E+03</rscale>
<asrwt>0</asrwt>
<pdfrwt beam="1">  1        2 0.23170071E+00 0.27340122E+03</pdfrwt>
<pdfrwt beam="2">  1       -2 0.19089160E-02 0.27340122E+03</pdfrwt>
<totfact> 0.11211339E+04</totfact>
</mgrwt>
</event>
<event>
 5    1  0.1125356E+001  0.2751515E+03  0.7818608E-02  0.1098367E+00
         -2   -1    0    0    0  501 -0.00000000000E+00  0.00000000000E+00  0.14594759231E+02  0.14594759231E+02  0.00000000000E+00 0.  1.
          2   -1    0    0  501    0  0.00000000000E+00 -0.00000000000E+00 -0.12968411366E+04  0.12968411366E+04  0.00000000000E+00 0.  1.
         35    2    1    2    0    0  0.00000000000E+00  0.00000000000E+00 -0.12822463774E+04  0.13114358959E+04  0.27515147937E+03 0.  0.
         25    1    3    3    0    0  0.18496942803E+02  0.45030779807E+02 -0.41975356987E+03  0.43927550290E+03  0.12000000000E+03 0.  0.
         25    1    3    3    0    0 -0.18496942803E+02 -0.45030779807E+02 -0.86249280752E+03  0.87216039296E+03  0.12000000000E+03 0.  0.
<mgrwt>
<rscale>  0 0.27515148E+03</rscale>
<asrwt>0</asrwt>
<pdfrwt beam="1">  1        2 0.19951403E+00 0.27515148E+03</pdfrwt>
<pdfrwt beam="2">  1       -2 0.22453475E-02 0.27515148E+03</pdfrwt>
<totfact> 0.11471165E+04</totfact>
</mgrwt>
</event>
<event>
 5    1  0.1125356E+001  0.2750656E+03  0.7818608E-02  0.1098415E+00
          2   -1    0    0  501    0  0.00000000000E+00  0.00000000000E+00  0.57288835304E+03  0.57288835304E+03  0.00000000000E+00 0. -1.
         -2   -1    0    0    0  501 -0.00000000000E+00 -0.00000000000E+00 -0.33017384822E+02  0.33017384822E+02  0.00000000000E+00 0. -1.
         35    2    1    2    0    0  0.00000000000E+00  0.00000000000E+00  0.53987096822E+03  0.60590573786E+03  0.27506563008E+03 0.  0.
         25    1    3    3    0    0 -0.42868143771E+02  0.47235846270E+02  0.31647451656E+03  0.34441983473E+03  0.12000000000E+03 0.  0.
         25    1    3    3    0    0  0.42868143771E+02 -0.47235846270E+02  0.22339645166E+03  0.26148590313E+03  0.12000000000E+03 0.  0.
<mgrwt>
<rscale>  0 0.27506563E+03</rscale>
<asrwt>0</asrwt>
<pdfrwt beam="1">  1        2 0.88136662E-01 0.27506563E+03</pdfrwt>
<pdfrwt beam="2">  1       -2 0.50795981E-02 0.27506563E+03</pdfrwt>
<totfact> 0.10128392E+04</totfact>
</mgrwt>
</event>
<event>
 5    1  0.1125356E+001  0.2717644E+03  0.7818608E-02  0.1100274E+00
          1   -1    0    0  501    0  0.00000000000E+00  0.00000000000E+00  0.42647218440E+03  0.42647218440E+03  0.00000000000E+00 0.  1.
         -1   -1    0    0    0  501 -0.00000000000E+00 -0.00000000000E+00 -0.43294659092E+02  0.43294659092E+02  0.00000000000E+00 0.  1.
         35    2    1    2    0    0  0.00000000000E+00  0.00000000000E+00  0.38317752531E+03  0.46976684349E+03  0.27176436732E+03 0.  0.
         25    1    3    3    0    0  0.10884214913E+02  0.10171110858E+02  0.29873362849E+03  0.32227891402E+03  0.12000000000E+03 0.  0.
         25    1    3    3    0    0 -0.10884214913E+02 -0.10171110858E+02  0.84443896818E+02  0.14748792947E+03  0.12000000000E+03 0.  0.
<mgrwt>
<rscale>  0 0.27176437E+03</rscale>
<asrwt>0</asrwt>
<pdfrwt beam="1">  1        1 0.65611102E-01 0.27176437E+03</pdfrwt>
<pdfrwt beam="2">  1       -1 0.66607171E-02 0.27176437E+03</pdfrwt>
<totfact> 0.63145551E+03</totfact>
</mgrwt>
</event>
<event>
 5    1  0.1125356E+001  0.2747465E+03  0.7818608E-02  0.1098593E+00
          1   -1    0    0  501    0  0.00000000000E+00  0.00000000000E+00  0.62375554407E+02  0.62375554407E+02  0.00000000000E+00 0.  1.
         -1   -1    0    0    0  501 -0.00000000000E+00 -0.00000000000E+00 -0.30254486722E+03  0.30254486722E+03  0.00000000000E+00 0.  1.
         35    2    1    2    0    0  0.00000000000E+00  0.00000000000E+00 -0.24016931282E+03  0.36492042163E+03  0.27474645640E+03 0.  0.
         25    1    3    3    0    0 -0.47743036355E+02 -0.11483225506E+02 -0.18037040099E+03  0.22213676765E+03  0.12000000000E+03 0.  0.
         25    1    3    3    0    0  0.47743036355E+02  0.11483225506E+02 -0.59798911827E+02  0.14278365398E+03  0.12000000000E+03 0.  0.
<mgrwt>
<rscale>  0 0.27474646E+03</rscale>
<asrwt>0</asrwt>
<pdfrwt beam="1">  1        1 0.95962391E-02 0.27474646E+03</pdfrwt>
<pdfrwt beam="2">  1       -1 0.46545364E-01 0.27474646E+03</pdfrwt>
<totfact> 0.31693255E+03</totfact>
</mgrwt>
</event>
<event>
 5    1  0.1125356E+001  0.2752238E+03  0.7818608E-02  0.1098327E+00
         -2   -1    0    0    0  501 -0.00000000000E+00  0.00000000000E+00  0.13722010738E+03  0.13722010738E+03  0.00000000000E+00 0. -1.
          2   -1    0    0  501    0  0.00000000000E+00 -0.00000000000E+00 -0.13800481827E+03  0.13800481827E+03  0.00000000000E+00 0. -1.
         35    2    1    2    0    0  0.00000000000E+00  0.00000000000E+00 -0.78471089071E+00  0.27522492565E+03  0.27522380698E+03 0.  0.
         25    1    3    3    0    0 -0.65504124523E+02 -0.14463731450E+02  0.56942221385E+01  0.13759510901E+03  0.12000000000E+03 0.  0.
         25    1    3    3    0    0  0.65504124523E+02  0.14463731450E+02 -0.64789330292E+01  0.13762981665E+03  0.12000000000E+03 0.  0.
<mgrwt>
<rscale>  0 0.27522381E+03</rscale>
<asrwt>0</asrwt>
<pdfrwt beam="1">  1        2 0.21231510E-01 0.27522381E+03</pdfrwt>
<pdfrwt beam="2">  1       -2 0.21110786E-01 0.27522381E+03</pdfrwt>
<totfact> 0.49274495E+03</totfact>
</mgrwt>
</event>
<event>
 5    1  0.1125356E+001  0.2751193E+03  0.7818608E-02  0.1098385E+00
         -1   -1    0    0    0  501 -0.00000000000E+00  0.00000000000E+00  0.32607854956E+03  0.32607854956E+03  0.00000000000E+00 0.  1.
          1   -1    0    0  501    0  0.00000000000E+00 -0.00000000000E+00 -0.58030974690E+02  0.58030974690E+02  0.00000000000E+00 0.  1.
         35    2    1    2    0    0  0.00000000000E+00  0.00000000000E+00  0.26804757487E+03  0.38410952425E+03  0.27511929090E+03 0.  0.
         25    1    3    3    0    0  0.46416300688E+01 -0.48027880493E+02  0.19942643004E+03  0.23769544176E+03  0.12000000000E+03 0.  0.
         25    1    3    3    0    0 -0.46416300688E+01  0.48027880493E+02  0.68621144834E+02  0.14641408249E+03  0.12000000000E+03 0.  0.
<mgrwt>
<rscale>  0 0.27511929E+03</rscale>
<asrwt>0</asrwt>
<pdfrwt beam="1">  1        1 0.89278424E-02 0.27511929E+03</pdfrwt>
<pdfrwt beam="2">  1       -1 0.50165930E-01 0.27511929E+03</pdfrwt>
<totfact> 0.30447140E+03</totfact>
</mgrwt>
</event>
<event>
 5    1  0.1125356E+001  0.2747744E+03  0.7818608E-02  0.1098578E+00
         -2   -1    0    0    0  501 -0.00000000000E+00  0.00000000000E+00  0.15922373269E+02  0.15922373269E+02  0.00000000000E+00 0.  1.
          2   -1    0    0  501    0  0.00000000000E+00 -0.00000000000E+00 -0.11854539874E+04  0.11854539874E+04  0.00000000000E+00 0.  1.
         35    2    1    2    0    0  0.00000000000E+00  0.00000000000E+00 -0.11695316142E+04  0.12013763607E+04  0.27477438659E+03 0.  0.
         25    1    3    3    0    0  0.26842708020E+02  0.20412751301E+02 -0.83737428371E+03  0.84660079283E+03  0.12000000000E+03 0.  0.
         25    1    3    3    0    0 -0.26842708020E+02 -0.20412751301E+02 -0.33215733046E+03  0.35477556788E+03  0.12000000000E+03 0.  0.
<mgrwt>
<rscale>  0 0.27477439E+03</rscale>
<asrwt>0</asrwt>
<pdfrwt beam="1">  1        2 0.18237751E+00 0.27477439E+03</pdfrwt>
<pdfrwt beam="2">  1       -2 0.24495963E-02 0.27477439E+03</pdfrwt>
<totfact> 0.11650284E+04</totfact>
</mgrwt>
</event>
<event>
 5    1  0.1125356E+001  0.2754649E+03  0.7818608E-02  0.1098192E+00
          2   -1    0    0  501    0  0.00000000000E+00  0.00000000000E+00  0.85157922318E+03  0.85157922318E+03  0.00000000000E+00 0. -1.
         -2   -1    0    0    0  501 -0.00000000000E+00 -0.00000000000E+00 -0.22276528366E+02  0.22276528366E+02  0.00000000000E+00 0. -1.
         35    2    1    2    0    0  0.00000000000E+00  0.00000000000E+00  0.82930269481E+03  0.87385575154E+03  0.27546490681E+03 0.  0.
         25    1    3    3    0    0 -0.64353478540E+02  0.17933933079E+02  0.38180123818E+03  0.40575261137E+03  0.12000000000E+03 0.  0.
         25    1    3    3    0    0  0.64353478540E+02 -0.17933933079E+02  0.44750145663E+03  0.46810314017E+03  0.12000000000E+03 0.  0.
<mgrwt>
<rscale>  0 0.27546491E+03</rscale>
<asrwt>0</asrwt>
<pdfrwt beam="1">  1        2 0.13101216E+00 0.27546491E+03</pdfrwt>
<pdfrwt beam="2">  1       -2 0.34271589E-02 0.27546491E+03</pdfrwt>
<totfact> 0.11312025E+04</totfact>
</mgrwt>
</event>
<event>
 5    1  0.1125356E+001  0.2711738E+03  0.7818608E-02  0.1100610E+00
         -2   -1    0    0    0  501 -0.00000000000E+00  0.00000000000E+00  0.25377529343E+02  0.25377529343E+02  0.00000000000E+00 0. -1.
          2   -1    0    0  501    0  0.00000000000E+00 -0.00000000000E+00 -0.72441269198E+03  0.72441269198E+03  0.00000000000E+00 0. -1.
         35    2    1    2    0    0  0.00000000000E+00  0.00000000000E+00 -0.69903516264E+03  0.74979022132E+03  0.27117377710E+03 0.  0.
         25    1    3    3    0    0 -0.23408425964E+02  0.49730914721E+02 -0.43530713803E+03  0.45487737106E+03  0.12000000000E+03 0.  0.
         25    1    3    3    0    0  0.23408425964E+02 -0.49730914721E+02 -0.26372802461E+03  0.29491285026E+03  0.12000000000E+03 0.  0.
<mgrwt>
<rscale>  0 0.27117378E+03</rscale>
<asrwt>0</asrwt>
<pdfrwt beam="1">  1        2 0.11144809E+00 0.27117378E+03</pdfrwt>
<pdfrwt beam="2">  1       -2 0.39042359E-02 0.27117378E+03</pdfrwt>
<totfact> 0.11409976E+04</totfact>
</mgrwt>
</event>
<event>
 5    1  0.1125356E+001  0.2753770E+03  0.7818608E-02  0.1098241E+00
          1   -1    0    0  501    0  0.00000000000E+00  0.00000000000E+00  0.10806491498E+03  0.10806491498E+03  0.00000000000E+00 0.  1.
         -1   -1    0    0    0  501 -0.00000000000E+00 -0.00000000000E+00 -0.17543279330E+03  0.17543279330E+03  0.00000000000E+00 0.  1.
         35    2    1    2    0    0  0.00000000000E+00  0.00000000000E+00 -0.67367878321E+02  0.28349770829E+03  0.27537704983E+03 0.  0.
         25    1    3    3    0    0 -0.60900725517E+02 -0.29107803934E+02 -0.35127896470E+02  0.14209198334E+03  0.12000000000E+03 0.  0.
         25    1    3    3    0    0  0.60900725517E+02  0.29107803934E+02 -0.32239981851E+02  0.14140572495E+03  0.12000000000E+03 0.  0.
<mgrwt>
<rscale>  0 0.27537705E+03</rscale>
<asrwt>0</asrwt>
<pdfrwt beam="1">  1        1 0.16625372E-01 0.27537705E+03</pdfrwt>
<pdfrwt beam="2">  1       -1 0.26989660E-01 0.27537705E+03</pdfrwt>
<totfact> 0.39579738E+03</totfact>
</mgrwt>
</event>
<event>
 5    1  0.1125356E+001  0.2745845E+03  0.7818608E-02  0.1098684E+00
          2   -1    0    0  501    0  0.00000000000E+00  0.00000000000E+00  0.17757907894E+03  0.17757907894E+03  0.00000000000E+00 0.  1.
         -2   -1    0    0    0  501 -0.00000000000E+00 -0.00000000000E+00 -0.10614516973E+03  0.10614516973E+03  0.00000000000E+00 0.  1.
         35    2    1    2    0    0  0.00000000000E+00  0.00000000000E+00  0.71433909210E+02  0.28372424868E+03  0.27458449684E+03 0.  0.
         25    1    3    3    0    0 -0.43766584769E+02  0.91625994729E+01 -0.15424889933E+02  0.12898602405E+03  0.12000000000E+03 0.  0.
         25    1    3    3    0    0  0.43766584769E+02 -0.91625994729E+01  0.86858799143E+02  0.15473822462E+03  0.12000000000E+03 0.  0.
<mgrwt>
<rscale>  0 0.27458450E+03</rscale>
<asrwt>0</asrwt>
<pdfrwt beam="1">  1        2 0.27319858E-01 0.27458450E+03</pdfrwt>
<pdfrwt beam="2">  1       -2 0.16330026E-01 0.27458450E+03</pdfrwt>
<totfact> 0.57369823E+03</totfact>
</mgrwt>
</event>
<event>
 5    1  0.1125356E+001  0.2747546E+03  0.7818608E-02  0.1098589E+00
          2   -1    0    0  501    0  0.00000000000E+00  0.00000000000E+00  0.22993565802E+04  0.22993565802E+04  0.00000000000E+00 0.  1.
         -2   -1    0    0    0  501 -0.00000000000E+00 -0.00000000000E+00 -0.82077415352E+01  0.82077415352E+01  0.00000000000E+00 0.  1.
         35    2    1    2    0    0  0.00000000000E+00  0.00000000000E+00  0.22911488387E+04  0.23075643217E+04  0.27475461421E+03 0.  0.
         25    1    3    3    0    0 -0.61990395100E+02 -0.16467244540E+02  0.13046050663E+04  0.13116815004E+04  0.12000000000E+03 0.  0.
         25    1    3    3    0    0  0.61990395100E+02  0.16467244540E+02  0.98654377233E+03  0.99588282140E+03  0.12000000000E+03 0.  0.
<mgrwt>
<rscale>  0 0.27475461E+03</rscale>
<asrwt>0</asrwt>
<pdfrwt beam="1">  1        2 0.35374665E+00 0.27475461E+03</pdfrwt>
<pdfrwt beam="2">  1       -2 0.12627313E-02 0.27475461E+03</pdfrwt>
<totfact> 0.78199309E+03</totfact>
</mgrwt>
</event>
<event>
 5    1  0.1125356E+001  0.2742907E+03  0.7818608E-02  0.1098849E+00
         -2   -1    0    0    0  501 -0.00000000000E+00  0.00000000000E+00  0.37997001418E+02  0.37997001418E+02  0.00000000000E+00 0.  1.
          2   -1    0    0  501    0  0.00000000000E+00 -0.00000000000E+00 -0.49500871064E+03  0.49500871064E+03  0.00000000000E+00 0.  1.
         35    2    1    2    0    0  0.00000000000E+00  0.00000000000E+00 -0.45701170923E+03  0.53300571206E+03  0.27429069748E+03 0.  0.
         25    1    3    3    0    0  0.22359612653E+02  0.54297066228E+02 -0.16827488165E+03  0.21485939466E+03  0.12000000000E+03 0.  0.
         25    1    3    3    0    0 -0.22359612653E+02 -0.54297066228E+02 -0.28873682758E+03  0.31814631740E+03  0.12000000000E+03 0.  0.
<mgrwt>
<rscale>  0 0.27429070E+03</rscale>
<asrwt>0</asrwt>
<pdfrwt beam="1">  1        2 0.76155182E-01 0.27429070E+03</pdfrwt>
<pdfrwt beam="2">  1       -2 0.58456929E-02 0.27429070E+03</pdfrwt>
<totfact> 0.96430141E+03</totfact>
</mgrwt>
</event>
<event>
 5    1  0.1125356E+001  0.2752152E+03  0.7818608E-02  0.1098331E+00
          4   -1    0    0  501    0  0.00000000000E+00  0.00000000000E+00  0.40704058233E+03  0.40704058233E+03  0.00000000000E+00 0.  1.
         -4   -1    0    0    0  501 -0.00000000000E+00 -0.00000000000E+00 -0.46520797625E+02  0.46520797625E+02  0.00000000000E+00 0.  1.
         35    2    1    2    0    0  0.00000000000E+00  0.00000000000E+00  0.36051978470E+03  0.45356137996E+03  0.27521520711E+03 0.  0.
         25    1    3    3    0    0  0.63098382128E+02  0.18224177873E+02  0.20483292942E+03  0.24631292183E+03  0.12000000000E+03 0.  0.
         25    1    3    3    0    0 -0.63098382128E+02 -0.18224177873E+02  0.15568685529E+03  0.20724845813E+03  0.12000000000E+03 0.  0.
<mgrwt>
<rscale>  0 0.27521521E+03</rscale>
<asrwt>0</asrwt>
<pdfrwt beam="1">  1        4 0.62621626E-01 0.27521521E+03</pdfrwt>
<pdfrwt beam="2">  1       -4 0.71570460E-02 0.27521521E+03</pdfrwt>
<totfact> 0.60314497E+02</totfact>
</mgrwt>
</event>
<event>
 5    1  0.1125356E+001  0.2769240E+03  0.7818608E-02  0.1097381E+00
         -2   -1    0    0    0  501 -0.00000000000E+00  0.00000000000E+00  0.82465512198E+02  0.82465512198E+02  0.00000000000E+00 0.  1.
          2   -1    0    0  501    0  0.00000000000E+00 -0.00000000000E+00 -0.23248166344E+03  0.23248166344E+03  0.00000000000E+00 0.  1.
         35    2    1    2    0    0  0.00000000000E+00  0.00000000000E+00 -0.15001615125E+03  0.31494717564E+03  0.27692395673E+03 0.  0.
         25    1    3    3    0    0  0.47365523575E+02  0.42607728339E+02 -0.44643759273E+02  0.14301040724E+03  0.12000000000E+03 0.  0.
         25    1    3    3    0    0 -0.47365523575E+02 -0.42607728339E+02 -0.10537239197E+03  0.17193676840E+03  0.12000000000E+03 0.  0.
<mgrwt>
<rscale>  0 0.27692396E+03</rscale>
<asrwt>0</asrwt>
<pdfrwt beam="1">  1        2 0.35766410E-01 0.27692396E+03</pdfrwt>
<pdfrwt beam="2">  1       -2 0.12687002E-01 0.27692396E+03</pdfrwt>
<totfact> 0.64731492E+03</totfact>
</mgrwt>
</event>
<event>
 5    1  0.1125356E+001  0.2749884E+03  0.7818608E-02  0.1098458E+00
         -1   -1    0    0    0  501 -0.00000000000E+00  0.00000000000E+00  0.32477090847E+03  0.32477090847E+03  0.00000000000E+00 0.  1.
          1   -1    0    0  501    0  0.00000000000E+00 -0.00000000000E+00 -0.58209209534E+02  0.58209209534E+02  0.00000000000E+00 0.  1.
         35    2    1    2    0    0  0.00000000000E+00  0.00000000000E+00  0.26656169894E+03  0.38298011801E+03  0.27498842057E+03 0.  0.
         25    1    3    3    0    0 -0.42135862628E+02  0.47749321157E+02  0.10376224339E+03  0.17094452827E+03  0.12000000000E+03 0.  0.
         25    1    3    3    0    0  0.42135862628E+02 -0.47749321157E+02  0.16279945555E+03  0.21203558974E+03  0.12000000000E+03 0.  0.
<mgrwt>
<rscale>  0 0.27498842E+03</rscale>
<asrwt>0</asrwt>
<pdfrwt beam="1">  1        1 0.89552632E-02 0.27498842E+03</pdfrwt>
<pdfrwt beam="2">  1       -1 0.49964754E-01 0.27498842E+03</pdfrwt>
<totfact> 0.30546941E+03</totfact>
</mgrwt>
</event>
<event>
 5    1  0.1125356E+001  0.2754826E+03  0.7818608E-02  0.1098182E+00
          1   -1    0    0  501    0  0.00000000000E+00  0.00000000000E+00  0.17918689476E+04  0.17918689476E+04  0.00000000000E+00 0. -1.
         -1   -1    0    0    0  501 -0.00000000000E+00 -0.00000000000E+00 -0.10588198214E+02  0.10588198214E+02  0.00000000000E+00 0. -1.
         35    2    1    2    0    0  0.00000000000E+00  0.00000000000E+00  0.17812807494E+04  0.18024571458E+04  0.27548258451E+03 0.  0.
         25    1    3    3    0    0 -0.17383380524E+01 -0.43558789595E+02  0.12288697018E+04  0.12354841698E+04  0.12000000000E+03 0.  0.
         25    1    3    3    0    0  0.17383380524E+01  0.43558789595E+02  0.55241104762E+03  0.56697297599E+03  0.12000000000E+03 0.  0.
<mgrwt>
<rscale>  0 0.27548258E+03</rscale>
<asrwt>0</asrwt>
<pdfrwt beam="1">  1        1 0.27567190E+00 0.27548258E+03</pdfrwt>
<pdfrwt beam="2">  1       -1 0.16289550E-02 0.27548258E+03</pdfrwt>
<totfact> 0.42628548E+03</totfact>
</mgrwt>
</event>
<event>
 5    1  0.1125356E+001  0.2756702E+03  0.7818608E-02  0.1098078E+00
         -2   -1    0    0    0  501 -0.00000000000E+00  0.00000000000E+00  0.30415444607E+02  0.30415444607E+02  0.00000000000E+00 0. -1.
          2   -1    0    0  501    0  0.00000000000E+00 -0.00000000000E+00 -0.62463387441E+03  0.62463387441E+03  0.00000000000E+00 0. -1.
         35    2    1    2    0    0  0.00000000000E+00  0.00000000000E+00 -0.59421842980E+03  0.65504931901E+03  0.27567021607E+03 0.  0.
         25    1    3    3    0    0  0.57672694529E+02  0.35568672578E+02 -0.29071247653E+03  0.32172195165E+03  0.12000000000E+03 0.  0.
         25    1    3    3    0    0 -0.57672694529E+02 -0.35568672578E+02 -0.30350595327E+03  0.33332736737E+03  0.12000000000E+03 0.  0.
<mgrwt>
<rscale>  0 0.27567022E+03</rscale>
<asrwt>0</asrwt>
<pdfrwt beam="1">  1        2 0.96097518E-01 0.27567022E+03</pdfrwt>
<pdfrwt beam="2">  1       -2 0.46792992E-02 0.27567022E+03</pdfrwt>
<totfact> 0.10377370E+04</totfact>
</mgrwt>
</event>
<event>
 5    1  0.1125356E+001  0.2751488E+03  0.7818608E-02  0.1098368E+00
          1   -1    0    0  501    0  0.00000000000E+00  0.00000000000E+00  0.26890551363E+02  0.26890551363E+02  0.00000000000E+00 0. -1.
         -1   -1    0    0    0  501 -0.00000000000E+00 -0.00000000000E+00 -0.70384244006E+03  0.70384244006E+03  0.00000000000E+00 0. -1.
         35    2    1    2    0    0  0.00000000000E+00  0.00000000000E+00 -0.67695188869E+03  0.73073299142E+03  0.27514876911E+03 0.  0.
         25    1    3    3    0    0 -0.33601807509E+02  0.58201727661E+02 -0.34695311348E+03  0.37321975501E+03  0.12000000000E+03 0.  0.
         25    1    3    3    0    0  0.33601807509E+02 -0.58201727661E+02 -0.32999877521E+03  0.35751323641E+03  0.12000000000E+03 0.  0.
<mgrwt>
<rscale>  0 0.27514877E+03</rscale>
<asrwt>0</asrwt>
<pdfrwt beam="1">  1        1 0.41370083E-02 0.27514877E+03</pdfrwt>
<pdfrwt beam="2">  1       -1 0.10828344E+00 0.27514877E+03</pdfrwt>
<totfact> 0.18232532E+03</totfact>
</mgrwt>
</event>
<event>
 5    1  0.1125356E+001  0.2748159E+03  0.7818608E-02  0.1098555E+00
         -2   -1    0    0    0  501 -0.00000000000E+00  0.00000000000E+00  0.13215787007E+02  0.13215787007E+02  0.00000000000E+00 0. -1.
          2   -1    0    0  501    0  0.00000000000E+00 -0.00000000000E+00 -0.14286656587E+04  0.14286656587E+04  0.00000000000E+00 0. -1.
         35    2    1    2    0    0  0.00000000000E+00  0.00000000000E+00 -0.14154498717E+04  0.14418814457E+04  0.27481587326E+03 0.  0.
         25    1    3    3    0    0 -0.21480387617E+02 -0.41446320832E+02 -0.95944367086E+03  0.96804512401E+03  0.12000000000E+03 0.  0.
         25    1    3    3    0    0  0.21480387617E+02  0.41446320832E+02 -0.45600620083E+03  0.47383632169E+03  0.12000000000E+03 0.  0.
<mgrwt>
<rscale>  0 0.27481587E+03</rscale>
<asrwt>0</asrwt>
<pdfrwt beam="1">  1        2 0.21979481E+00 0.27481587E+03</pdfrwt>
<pdfrwt beam="2">  1       -2 0.20331971E-02 0.27481587E+03</pdfrwt>
<totfact> 0.11246629E+04</totfact>
</mgrwt>
</event>
<event>
 5    1  0.1125356E+001  0.2749887E+03  0.7818608E-02  0.1098458E+00
          2   -1    0    0  501    0  0.00000000000E+00  0.00000000000E+00  0.21101132115E+04  0.21101132115E+04  0.00000000000E+00 0.  1.
         -2   -1    0    0    0  501 -0.00000000000E+00 -0.00000000000E+00 -0.89590933978E+01  0.89590933978E+01  0.00000000000E+00 0.  1.
         35    2    1    2    0    0  0.00000000000E+00  0.00000000000E+00  0.21011541181E+04  0.21190723049E+04  0.27498873680E+03 0.  0.
         25    1    3    3    0    0  0.20802378159E+02 -0.34519009327E+02  0.14641549373E+04  0.14696169505E+04  0.12000000000E+03 0.  0.
         25    1    3    3    0    0 -0.20802378159E+02  0.34519009327E+02  0.63699918087E+03  0.64945535441E+03  0.12000000000E+03 0.  0.
<mgrwt>
<rscale>  0 0.27498874E+03</rscale>
<asrwt>0</asrwt>
<pdfrwt beam="1">  1        2 0.32463241E+00 0.27498874E+03</pdfrwt>
<pdfrwt beam="2">  1       -2 0.13783237E-02 0.27498874E+03</pdfrwt>
<totfact> 0.86780400E+03</totfact>
</mgrwt>
</event>
<event>
 5    1  0.1125356E+001  0.2743541E+03  0.7818608E-02  0.1098813E+00
          4   -1    0    0  501    0  0.00000000000E+00  0.00000000000E+00  0.95259947784E+02  0.95259947784E+02  0.00000000000E+00 0. -1.
         -4   -1    0    0    0  501 -0.00000000000E+00 -0.00000000000E+00 -0.19753885079E+03  0.19753885079E+03  0.00000000000E+00 0. -1.
         35    2    1    2    0    0  0.00000000000E+00  0.00000000000E+00 -0.10227890301E+03  0.29279879858E+03  0.27435408225E+03 0.  0.
         25    1    3    3    0    0  0.30119988150E+02  0.20642028963E+02  0.81300798633E+01  0.12569568507E+03  0.12000000000E+03 0.  0.
         25    1    3    3    0    0 -0.30119988150E+02 -0.20642028963E+02 -0.11040898287E+03  0.16710311351E+03  0.12000000000E+03 0.  0.
<mgrwt>
<rscale>  0 0.27435408E+03</rscale>
<asrwt>0</asrwt>
<pdfrwt beam="1">  1        4 0.14655377E-01 0.27435408E+03</pdfrwt>
<pdfrwt beam="2">  1       -4 0.30390592E-01 0.27435408E+03</pdfrwt>
<totfact> 0.76356540E+02</totfact>
</mgrwt>
</event>
<event>
 5    1  0.1125356E+001  0.2899642E+03  0.7818608E-02  0.1090368E+00
          2   -1    0    0  501    0  0.00000000000E+00  0.00000000000E+00  0.42900894617E+03  0.42900894617E+03  0.00000000000E+00 0. -1.
         -2   -1    0    0    0  501 -0.00000000000E+00 -0.00000000000E+00 -0.48996216674E+02  0.48996216674E+02  0.00000000000E+00 0. -1.
         35    2    1    2    0    0  0.00000000000E+00  0.00000000000E+00  0.38001272950E+03  0.47800516285E+03  0.28996424112E+03 0.  0.
         25    1    3    3    0    0  0.71564590819E+01 -0.70059461342E+02  0.25717674377E+03  0.29240283953E+03  0.12000000000E+03 0.  0.
         25    1    3    3    0    0 -0.71564590819E+01  0.70059461342E+02  0.12283598573E+03  0.18560232332E+03  0.12000000000E+03 0.  0.
<mgrwt>
<rscale>  0 0.28996424E+03</rscale>
<asrwt>0</asrwt>
<pdfrwt beam="1">  1        2 0.66001374E-01 0.28996424E+03</pdfrwt>
<pdfrwt beam="2">  1       -2 0.75378798E-02 0.28996424E+03</pdfrwt>
<totfact> 0.76429087E+03</totfact>
</mgrwt>
</event>
<event>
 5    1  0.1125356E+001  0.2793698E+03  0.7818608E-02  0.1096034E+00
          1   -1    0    0  501    0  0.00000000000E+00  0.00000000000E+00  0.24978357197E+04  0.24978357197E+04  0.00000000000E+00 0. -1.
         -1   -1    0    0    0  501 -0.00000000000E+00 -0.00000000000E+00 -0.78115115343E+01  0.78115115343E+01  0.00000000000E+00 0. -1.
         35    2    1    2    0    0  0.00000000000E+00  0.00000000000E+00  0.24900242082E+04  0.25056472312E+04  0.27936980893E+03 0.  0.
         25    1    3    3    0    0  0.52710637611E+01  0.68750017280E+02  0.14145991912E+04  0.14213533061E+04  0.12000000000E+03 0.  0.
         25    1    3    3    0    0 -0.52710637611E+01 -0.68750017280E+02  0.10754250170E+04  0.10842939252E+04  0.12000000000E+03 0.  0.
<mgrwt>
<rscale>  0 0.27936981E+03</rscale>
<asrwt>0</asrwt>
<pdfrwt beam="1">  1        1 0.38428178E+00 0.27936981E+03</pdfrwt>
<pdfrwt beam="2">  1       -1 0.12017730E-02 0.27936981E+03</pdfrwt>
<totfact> 0.22918870E+03</totfact>
</mgrwt>
</event>
<event>
 5    1  0.1125356E+001  0.2753469E+03  0.7818608E-02  0.1098258E+00
         -2   -1    0    0    0  501 -0.00000000000E+00  0.00000000000E+00  0.13654901715E+03  0.13654901715E+03  0.00000000000E+00 0. -1.
          2   -1    0    0  501    0  0.00000000000E+00 -0.00000000000E+00 -0.13880714753E+03  0.13880714753E+03  0.00000000000E+00 0. -1.
         35    2    1    2    0    0  0.00000000000E+00  0.00000000000E+00 -0.22581303832E+01  0.27535616468E+03  0.27534690533E+03 0.  0.
         25    1    3    3    0    0  0.26976134967E+02 -0.30102307871E+02 -0.55169005701E+02  0.13812125103E+03  0.12000000000E+03 0.  0.
         25    1    3    3    0    0 -0.26976134967E+02  0.30102307871E+02  0.52910875318E+02  0.13723491365E+03  0.12000000000E+03 0.  0.
<mgrwt>
<rscale>  0 0.27534691E+03</rscale>
<asrwt>0</asrwt>
<pdfrwt beam="1">  1        2 0.21354946E-01 0.27534691E+03</pdfrwt>
<pdfrwt beam="2">  1       -2 0.21007541E-01 0.27534691E+03</pdfrwt>
<totfact> 0.49366670E+03</totfact>
</mgrwt>
</event>
<event>
 5    1  0.1125356E+001  0.2849586E+03  0.7818608E-02  0.1093011E+00
          2   -1    0    0  501    0  0.00000000000E+00  0.00000000000E+00  0.87396852760E+03  0.87396852760E+03  0.00000000000E+00 0.  1.
         -2   -1    0    0    0  501 -0.00000000000E+00 -0.00000000000E+00 -0.23227788658E+02  0.23227788658E+02  0.00000000000E+00 0.  1.
         35    2    1    2    0    0  0.00000000000E+00  0.00000000000E+00  0.85074073894E+03  0.89719631626E+03  0.28495863737E+03 0.  0.
         25    1    3    3    0    0  0.69059110886E+02 -0.24233275711E+02  0.49880191580E+03  0.51822752112E+03  0.12000000000E+03 0.  0.
         25    1    3    3    0    0 -0.69059110886E+02  0.24233275711E+02  0.35193882314E+03  0.37896879513E+03  0.12000000000E+03 0.  0.
<mgrwt>
<rscale>  0 0.28495864E+03</rscale>
<asrwt>0</asrwt>
<pdfrwt beam="1">  1        2 0.13445667E+00 0.28495864E+03</pdfrwt>
<pdfrwt beam="2">  1       -2 0.35735066E-02 0.28495864E+03</pdfrwt>
<totfact> 0.10280359E+04</totfact>
</mgrwt>
</event>
<event>
 5    1  0.1125356E+001  0.2772160E+03  0.7818608E-02  0.1097219E+00
         -1   -1    0    0    0  501 -0.00000000000E+00  0.00000000000E+00  0.27184896287E+02  0.27184896287E+02  0.00000000000E+00 0.  1.
          1   -1    0    0  501    0  0.00000000000E+00 -0.00000000000E+00 -0.70672239963E+03  0.70672239963E+03  0.00000000000E+00 0.  1.
         35    2    1    2    0    0  0.00000000000E+00  0.00000000000E+00 -0.67953750334E+03  0.73390729592E+03  0.27721598177E+03 0.  0.
         25    1    3    3    0    0  0.25992134502E+02  0.28592509208E+02 -0.49228987734E+03  0.50817560545E+03  0.12000000000E+03 0.  0.
         25    1    3    3    0    0 -0.25992134502E+02 -0.28592509208E+02 -0.18724762600E+03  0.22573169047E+03  0.12000000000E+03 0.  0.
<mgrwt>
<rscale>  0 0.27721598E+03</rscale>
<asrwt>0</asrwt>
<pdfrwt beam="1">  1        1 0.10872651E+00 0.27721598E+03</pdfrwt>
<pdfrwt beam="2">  1       -1 0.41822924E-02 0.27721598E+03</pdfrwt>
<totfact> 0.63799713E+03</totfact>
</mgrwt>
</event>
<event>
 5    1  0.1125356E+001  0.2739493E+03  0.7818608E-02  0.1099040E+00
          1   -1    0    0  501    0  0.00000000000E+00  0.00000000000E+00  0.20488670447E+04  0.20488670447E+04  0.00000000000E+00 0.  1.
         -1   -1    0    0    0  501 -0.00000000000E+00 -0.00000000000E+00 -0.91572830476E+01  0.91572830476E+01  0.00000000000E+00 0.  1.
         35    2    1    2    0    0  0.00000000000E+00  0.00000000000E+00  0.20397097616E+04  0.20580243277E+04  0.27394930520E+03 0.  0.
         25    1    3    3    0    0  0.18209113378E+02  0.55281617101E+02  0.12543613534E+04  0.12614317397E+04  0.12000000000E+03 0.  0.
         25    1    3    3    0    0 -0.18209113378E+02 -0.55281617101E+02  0.78534840820E+03  0.79659258800E+03  0.12000000000E+03 0.  0.
<mgrwt>
<rscale>  0 0.27394931E+03</rscale>
<asrwt>0</asrwt>
<pdfrwt beam="1">  1        1 0.31520995E+00 0.27394931E+03</pdfrwt>
<pdfrwt beam="2">  1       -1 0.14088144E-02 0.27394931E+03</pdfrwt>
<totfact> 0.35860153E+03</totfact>
</mgrwt>
</event>
<event>
 5    1  0.1125356E+001  0.2755246E+03  0.7818608E-02  0.1098159E+00
         -1   -1    0    0    0  501 -0.00000000000E+00  0.00000000000E+00  0.16420200618E+02  0.16420200618E+02  0.00000000000E+00 0. -1.
          1   -1    0    0  501    0  0.00000000000E+00 -0.00000000000E+00 -0.11557990935E+04  0.11557990935E+04  0.00000000000E+00 0. -1.
         35    2    1    2    0    0  0.00000000000E+00  0.00000000000E+00 -0.11393788929E+04  0.11722192941E+04  0.27552461225E+03 0.  0.
         25    1    3    3    0    0 -0.14179129810E+02 -0.52127092792E+01 -0.28907842721E+03  0.31336010776E+03  0.12000000000E+03 0.  0.
         25    1    3    3    0    0  0.14179129810E+02  0.52127092792E+01 -0.85030046569E+03  0.85885918637E+03  0.12000000000E+03 0.  0.
<mgrwt>
<rscale>  0 0.27552461E+03</rscale>
<asrwt>0</asrwt>
<pdfrwt beam="1">  1        1 0.17781528E+00 0.27552461E+03</pdfrwt>
<pdfrwt beam="2">  1       -1 0.25261842E-02 0.27552461E+03</pdfrwt>
<totfact> 0.59825875E+03</totfact>
</mgrwt>
</event>
<event>
 5    1  0.1125356E+001  0.2825070E+03  0.7818608E-02  0.1094328E+00
         -2   -1    0    0    0  501 -0.00000000000E+00  0.00000000000E+00  0.35039166229E+02  0.35039166229E+02  0.00000000000E+00 0.  1.
          2   -1    0    0  501    0  0.00000000000E+00 -0.00000000000E+00 -0.56943560318E+03  0.56943560318E+03  0.00000000000E+00 0.  1.
         35    2    1    2    0    0  0.00000000000E+00  0.00000000000E+00 -0.53439643695E+03  0.60447476941E+03  0.28250698226E+03 0.  0.
         25    1    3    3    0    0 -0.33332341883E+02  0.60655926414E+02 -0.20811968487E+03  0.25000797918E+03  0.12000000000E+03 0.  0.
         25    1    3    3    0    0  0.33332341883E+02 -0.60655926414E+02 -0.32627675208E+03  0.35446679023E+03  0.12000000000E+03 0.  0.
<mgrwt>
<rscale>  0 0.28250698E+03</rscale>
<asrwt>0</asrwt>
<pdfrwt beam="1">  1        2 0.87605477E-01 0.28250698E+03</pdfrwt>
<pdfrwt beam="2">  1       -2 0.53906410E-02 0.28250698E+03</pdfrwt>
<totfact> 0.93251584E+03</totfact>
</mgrwt>
</event>
<event>
 5    1  0.1125356E+001  0.2749589E+03  0.7818608E-02  0.1098475E+00
         -1   -1    0    0    0  501 -0.00000000000E+00  0.00000000000E+00  0.88209186394E+02  0.88209186394E+02  0.00000000000E+00 0. -1.
          1   -1    0    0  501    0  0.00000000000E+00 -0.00000000000E+00 -0.21427023502E+03  0.21427023502E+03  0.00000000000E+00 0. -1.
         35    2    1    2    0    0  0.00000000000E+00  0.00000000000E+00 -0.12606104862E+03  0.30247942141E+03  0.27495892856E+03 0.  0.
         25    1    3    3    0    0 -0.31028071722E+02  0.45536590096E+02 -0.10512646266E+03  0.16878357569E+03  0.12000000000E+03 0.  0.
         25    1    3    3    0    0  0.31028071722E+02 -0.45536590096E+02 -0.20934585962E+02  0.13369584572E+03  0.12000000000E+03 0.  0.
<mgrwt>
<rscale>  0 0.27495893E+03</rscale>
<asrwt>0</asrwt>
<pdfrwt beam="1">  1        1 0.32964651E-01 0.27495893E+03</pdfrwt>
<pdfrwt beam="2">  1       -1 0.13570644E-01 0.27495893E+03</pdfrwt>
<totfact> 0.50308716E+03</totfact>
</mgrwt>
</event>
<event>
 5    1  0.1125356E+001  0.2765292E+03  0.7818608E-02  0.1097600E+00
         -2   -1    0    0    0  501 -0.00000000000E+00  0.00000000000E+00  0.63852676566E+02  0.63852676566E+02  0.00000000000E+00 0. -1.
          2   -1    0    0  501    0  0.00000000000E+00 -0.00000000000E+00 -0.29939388349E+03  0.29939388349E+03  0.00000000000E+00 0. -1.
         35    2    1    2    0    0  0.00000000000E+00  0.00000000000E+00 -0.23554120693E+03  0.36324656006E+03  0.27652920865E+03 0.  0.
         25    1    3    3    0    0 -0.96252470875E+01 -0.13569396607E+02 -0.30238377717E+02  0.12486446009E+03  0.12000000000E+03 0.  0.
         25    1    3    3    0    0  0.96252470875E+01  0.13569396607E+02 -0.20530282921E+03  0.23838209997E+03  0.12000000000E+03 0.  0.
<mgrwt>
<rscale>  0 0.27652921E+03</rscale>
<asrwt>0</asrwt>
<pdfrwt beam="1">  1        2 0.46060597E-01 0.27652921E+03</pdfrwt>
<pdfrwt beam="2">  1       -2 0.98234888E-02 0.27652921E+03</pdfrwt>
<totfact> 0.74281237E+03</totfact>
</mgrwt>
</event>
<event>
 5    1  0.1125356E+001  0.2751929E+03  0.7818608E-02  0.1098344E+00
         -2   -1    0    0    0  501 -0.00000000000E+00  0.00000000000E+00  0.45694956586E+02  0.45694956586E+02  0.00000000000E+00 0. -1.
          2   -1    0    0  501    0  0.00000000000E+00 -0.00000000000E+00 -0.41432976587E+03  0.41432976587E+03  0.00000000000E+00 0. -1.
         35    2    1    2    0    0  0.00000000000E+00  0.00000000000E+00 -0.36863480928E+03  0.46002472245E+03  0.27519288264E+03 0.  0.
         25    1    3    3    0    0  0.48225442555E+02 -0.28614873534E+02 -0.12203262393E+03  0.18010126485E+03  0.12000000000E+03 0.  0.
         25    1    3    3    0    0 -0.48225442555E+02  0.28614873534E+02 -0.24660218536E+03  0.27992345761E+03  0.12000000000E+03 0.  0.
<mgrwt>
<rscale>  0 0.27519288E+03</rscale>
<asrwt>0</asrwt>
<pdfrwt beam="1">  1        2 0.63743040E-01 0.27519288E+03</pdfrwt>
<pdfrwt beam="2">  1       -2 0.70299934E-02 0.27519288E+03</pdfrwt>
<totfact> 0.88318984E+03</totfact>
</mgrwt>
</event>
<event>
 5    1  0.1125356E+001  0.2754150E+03  0.7818608E-02  0.1098220E+00
         -2   -1    0    0    0  501 -0.00000000000E+00  0.00000000000E+00  0.40724632335E+02  0.40724632335E+02  0.00000000000E+00 0.  1.
          2   -1    0    0  501    0  0.00000000000E+00 -0.00000000000E+00 -0.46564818331E+03  0.46564818331E+03  0.00000000000E+00 0.  1.
         35    2    1    2    0    0  0.00000000000E+00  0.00000000000E+00 -0.42492355098E+03  0.50637281565E+03  0.27541496737E+03 0.  0.
         25    1    3    3    0    0  0.49019139229E+02  0.46439871693E+02 -0.21605212949E+03  0.25619925908E+03  0.12000000000E+03 0.  0.
         25    1    3    3    0    0 -0.49019139229E+02 -0.46439871693E+02 -0.20887142148E+03  0.25017355657E+03  0.12000000000E+03 0.  0.
<mgrwt>
<rscale>  0 0.27541497E+03</rscale>
<asrwt>0</asrwt>
<pdfrwt beam="1">  1        2 0.71638179E-01 0.27541497E+03</pdfrwt>
<pdfrwt beam="2">  1       -2 0.62653283E-02 0.27541497E+03</pdfrwt>
<totfact> 0.92807242E+03</totfact>
</mgrwt>
</event>
<event>
 5    1  0.1125356E+001  0.2754186E+03  0.7818608E-02  0.1098218E+00
         -2   -1    0    0    0  501 -0.00000000000E+00  0.00000000000E+00  0.98580228734E+01  0.98580228734E+01  0.00000000000E+00 0. -1.
          2   -1    0    0  501    0  0.00000000000E+00 -0.00000000000E+00 -0.19236974009E+04  0.19236974009E+04  0.00000000000E+00 0. -1.
         35    2    1    2    0    0  0.00000000000E+00  0.00000000000E+00 -0.19138393780E+04  0.19335554238E+04  0.27541861215E+03 0.  0.
         25    1    3    3    0    0  0.24379174763E+02  0.62265909508E+02 -0.88941206813E+03  0.89995845159E+03  0.12000000000E+03 0.  0.
         25    1    3    3    0    0 -0.24379174763E+02 -0.62265909508E+02 -0.10244273099E+04  0.10335969722E+04  0.12000000000E+03 0.  0.
<mgrwt>
<rscale>  0 0.27541861E+03</rscale>
<asrwt>0</asrwt>
<pdfrwt beam="1">  1        2 0.29595317E+00 0.27541861E+03</pdfrwt>
<pdfrwt beam="2">  1       -2 0.15166203E-02 0.27541861E+03</pdfrwt>
<totfact> 0.94600799E+03</totfact>
</mgrwt>
</event>
<event>
 5    1  0.1125356E+001  0.2725295E+03  0.7818608E-02  0.1099841E+00
         -1   -1    0    0    0  501 -0.00000000000E+00  0.00000000000E+00  0.84228481741E+02  0.84228481741E+02  0.00000000000E+00 0. -1.
          1   -1    0    0  501    0  0.00000000000E+00 -0.00000000000E+00 -0.22044892668E+03  0.22044892668E+03  0.00000000000E+00 0. -1.
         35    2    1    2    0    0  0.00000000000E+00  0.00000000000E+00 -0.13622044494E+03  0.30467740842E+03  0.27252947287E+03 0.  0.
         25    1    3    3    0    0  0.52158822089E+02  0.36796638858E+01 -0.25775110924E+02  0.13341079038E+03  0.12000000000E+03 0.  0.
         25    1    3    3    0    0 -0.52158822089E+02 -0.36796638858E+01 -0.11044533402E+03  0.17126661804E+03  0.12000000000E+03 0.  0.
<mgrwt>
<rscale>  0 0.27252947E+03</rscale>
<asrwt>0</asrwt>
<pdfrwt beam="1">  1        1 0.33915218E-01 0.27252947E+03</pdfrwt>
<pdfrwt beam="2">  1       -1 0.12958228E-01 0.27252947E+03</pdfrwt>
<totfact> 0.52182984E+03</totfact>
</mgrwt>
</event>
<event>
 5    1  0.1125356E+001  0.2751534E+03  0.7818608E-02  0.1098366E+00
          1   -1    0    0  501    0  0.00000000000E+00  0.00000000000E+00  0.44454232336E+02  0.44454232336E+02  0.00000000000E+00 0.  1.
         -1   -1    0    0    0  501 -0.00000000000E+00 -0.00000000000E+00 -0.42577148372E+03  0.42577148372E+03  0.00000000000E+00 0.  1.
         35    2    1    2    0    0  0.00000000000E+00  0.00000000000E+00 -0.38131725138E+03  0.47022571605E+03  0.27515337148E+03 0.  0.
         25    1    3    3    0    0 -0.48067288414E+01  0.22148128750E+02 -0.82389656135E+02  0.14731496763E+03  0.12000000000E+03 0.  0.
         25    1    3    3    0    0  0.48067288414E+01 -0.22148128750E+02 -0.29892759525E+03  0.32291074843E+03  0.12000000000E+03 0.  0.
<mgrwt>
<rscale>  0 0.27515337E+03</rscale>
<asrwt>0</asrwt>
<pdfrwt beam="1">  1        1 0.68391128E-02 0.27515337E+03</pdfrwt>
<pdfrwt beam="2">  1       -1 0.65503304E-01 0.27515337E+03</pdfrwt>
<totfact> 0.26325391E+03</totfact>
</mgrwt>
</event>
<event>
 5    1  0.1125356E+001  0.2742572E+03  0.7818608E-02  0.1098868E+00
         -2   -1    0    0    0  501 -0.00000000000E+00  0.00000000000E+00  0.43348709314E+02  0.43348709314E+02  0.00000000000E+00 0.  1.
          2   -1    0    0  501    0  0.00000000000E+00 -0.00000000000E+00 -0.43379051856E+03  0.43379051856E+03  0.00000000000E+00 0.  1.
         35    2    1    2    0    0  0.00000000000E+00  0.00000000000E+00 -0.39044180924E+03  0.47713922787E+03  0.27425724488E+03 0.  0.
         25    1    3    3    0    0 -0.47479521854E+02  0.33000616620E+02 -0.25188748193E+03  0.28493972915E+03  0.12000000000E+03 0.  0.
         25    1    3    3    0    0  0.47479521854E+02 -0.33000616620E+02 -0.13855432731E+03  0.19219949872E+03  0.12000000000E+03 0.  0.
<mgrwt>
<rscale>  0 0.27425724E+03</rscale>
<asrwt>0</asrwt>
<pdfrwt beam="1">  1        2 0.66737003E-01 0.27425724E+03</pdfrwt>
<pdfrwt beam="2">  1       -2 0.66690322E-02 0.27425724E+03</pdfrwt>
<totfact> 0.91118230E+03</totfact>
</mgrwt>
</event>
<event>
 5    1  0.1125356E+001  0.2755138E+03  0.7818608E-02  0.1098165E+00
          2   -1    0    0  501    0  0.00000000000E+00  0.00000000000E+00  0.56381451648E+03  0.56381451648E+03  0.00000000000E+00 0.  1.
         -2   -1    0    0    0  501 -0.00000000000E+00 -0.00000000000E+00 -0.33658156180E+02  0.33658156180E+02  0.00000000000E+00 0.  1.
         35    2    1    2    0    0  0.00000000000E+00  0.00000000000E+00  0.53015636030E+03  0.59747267266E+03  0.27551375321E+03 0.  0.
         25    1    3    3    0    0 -0.23292368285E+02 -0.26170920116E+01  0.40270291601E+03  0.42085510826E+03  0.12000000000E+03 0.  0.
         25    1    3    3    0    0  0.23292368285E+02  0.26170920116E+01  0.12745344429E+03  0.17661756439E+03  0.12000000000E+03 0.  0.
<mgrwt>
<rscale>  0 0.27551375E+03</rscale>
<asrwt>0</asrwt>
<pdfrwt beam="1">  1        2 0.86740688E-01 0.27551375E+03</pdfrwt>
<pdfrwt beam="2">  1       -2 0.51781783E-02 0.27551375E+03</pdfrwt>
<totfact> 0.10018832E+04</totfact>
</mgrwt>
</event>
<event>
 5    1  0.1125356E+001  0.2758775E+03  0.7818608E-02  0.1097962E+00
         -2   -1    0    0    0  501 -0.00000000000E+00  0.00000000000E+00  0.56936408799E+02  0.56936408799E+02  0.00000000000E+00 0. -1.
          2   -1    0    0  501    0  0.00000000000E+00 -0.00000000000E+00 -0.33418162712E+03  0.33418162712E+03  0.00000000000E+00 0. -1.
         35    2    1    2    0    0  0.00000000000E+00  0.00000000000E+00 -0.27724521832E+03  0.39111803592E+03  0.27587752163E+03 0.  0.
         25    1    3    3    0    0 -0.12766379691E+02  0.64027071781E+01 -0.23291056358E+03  0.26239532339E+03  0.12000000000E+03 0.  0.
         25    1    3    3    0    0  0.12766379691E+02 -0.64027071781E+01 -0.44334654740E+02  0.12872271253E+03  0.12000000000E+03 0.  0.
<mgrwt>
<rscale>  0 0.27587752E+03</rscale>
<asrwt>0</asrwt>
<pdfrwt beam="1">  1        2 0.51412558E-01 0.27587752E+03</pdfrwt>
<pdfrwt beam="2">  1       -2 0.87594475E-02 0.27587752E+03</pdfrwt>
<totfact> 0.79091237E+03</totfact>
</mgrwt>
</event>
<event>
 5    1  0.1125356E+001  0.2762415E+03  0.7818608E-02  0.1097760E+00
         -2   -1    0    0    0  501 -0.00000000000E+00  0.00000000000E+00  0.21041508905E+02  0.21041508905E+02  0.00000000000E+00 0.  1.
          2   -1    0    0  501    0  0.00000000000E+00 -0.00000000000E+00 -0.90665271333E+03  0.90665271333E+03  0.00000000000E+00 0.  1.
         35    2    1    2    0    0  0.00000000000E+00  0.00000000000E+00 -0.88561120442E+03  0.92769422223E+03  0.27624149682E+03 0.  0.
         25    1    3    3    0    0  0.48698567966E+01  0.66207161139E+02 -0.38759929465E+03  0.41114512876E+03  0.12000000000E+03 0.  0.
         25    1    3    3    0    0 -0.48698567966E+01 -0.66207161139E+02 -0.49801190977E+03  0.51654909347E+03  0.12000000000E+03 0.  0.
<mgrwt>
<rscale>  0 0.27624150E+03</rscale>
<asrwt>0</asrwt>
<pdfrwt beam="1">  1        2 0.13948502E+00 0.27624150E+03</pdfrwt>
<pdfrwt beam="2">  1       -2 0.32371555E-02 0.27624150E+03</pdfrwt>
<totfact> 0.11337981E+04</totfact>
</mgrwt>
</event>
<event>
 5    1  0.1125356E+001  0.2742643E+03  0.7818608E-02  0.1098864E+00
         -4   -1    0    0    0  501 -0.00000000000E+00  0.00000000000E+00  0.16913022263E+03  0.16913022263E+03  0.00000000000E+00 0.  1.
          4   -1    0    0  501    0  0.00000000000E+00 -0.00000000000E+00 -0.11118783380E+03  0.11118783380E+03  0.00000000000E+00 0.  1.
         35    2    1    2    0    0  0.00000000000E+00  0.00000000000E+00  0.57942388825E+02  0.28031805643E+03  0.27426427463E+03 0.  0.
         25    1    3    3    0    0 -0.87860561855E+01  0.61180307519E+02  0.42505877351E+01  0.13504922180E+03  0.12000000000E+03 0.  0.
         25    1    3    3    0    0  0.87860561855E+01 -0.61180307519E+02  0.53691801090E+02  0.14526883463E+03  0.12000000000E+03 0.  0.
<mgrwt>
<rscale>  0 0.27426427E+03</rscale>
<asrwt>0</asrwt>
<pdfrwt beam="1">  1        4 0.17105821E-01 0.27426427E+03</pdfrwt>
<pdfrwt beam="2">  1       -4 0.26020034E-01 0.27426427E+03</pdfrwt>
<totfact> 0.77882843E+02</totfact>
</mgrwt>
</event>
<event>
 5    1  0.1125356E+001  0.2747169E+03  0.7818608E-02  0.1098610E+00
         -1   -1    0    0    0  501 -0.00000000000E+00  0.00000000000E+00  0.35149510874E+02  0.35149510874E+02  0.00000000000E+00 0. -1.
          1   -1    0    0  501    0  0.00000000000E+00 -0.00000000000E+00 -0.53677412664E+03  0.53677412664E+03  0.00000000000E+00 0. -1.
         35    2    1    2    0    0  0.00000000000E+00  0.00000000000E+00 -0.50162461577E+03  0.57192363752E+03  0.27471693068E+03 0.  0.
         25    1    3    3    0    0  0.92602698377E+01  0.41459042171E+02 -0.35824025208E+03  0.38018506412E+03  0.12000000000E+03 0.  0.
         25    1    3    3    0    0 -0.92602698377E+01 -0.41459042171E+02 -0.14338436369E+03  0.19173857339E+03  0.12000000000E+03 0.  0.
<mgrwt>
<rscale>  0 0.27471693E+03</rscale>
<asrwt>0</asrwt>
<pdfrwt beam="1">  1        1 0.82580630E-01 0.27471693E+03</pdfrwt>
<pdfrwt beam="2">  1       -1 0.54076174E-02 0.27471693E+03</pdfrwt>
<totfact> 0.63869479E+03</totfact>
</mgrwt>
</event>
<event>
 5    1  0.1125356E+001  0.2775287E+03  0.7818608E-02  0.1097046E+00
         -2   -1    0    0    0  501 -0.00000000000E+00  0.00000000000E+00  0.36546535119E+03  0.36546535119E+03  0.00000000000E+00 0. -1.
          2   -1    0    0  501    0  0.00000000000E+00 -0.00000000000E+00 -0.52687755846E+02  0.52687755846E+02  0.00000000000E+00 0. -1.
         35    2    1    2    0    0  0.00000000000E+00  0.00000000000E+00  0.31277759534E+03  0.41815310703E+03  0.27752873144E+03 0.  0.
         25    1    3    3    0    0 -0.37754233664E+02 -0.18415673922E+02  0.72620635615E+02  0.14641815435E+03  0.12000000000E+03 0.  0.
         25    1    3    3    0    0  0.37754233664E+02  0.18415673922E+02  0.24015695973E+03  0.27173495269E+03  0.12000000000E+03 0.  0.
<mgrwt>
<rscale>  0 0.27752873E+03</rscale>
<asrwt>0</asrwt>
<pdfrwt beam="1">  1        2 0.81058088E-02 0.27752873E+03</pdfrwt>
<pdfrwt beam="2">  1       -2 0.56225437E-01 0.27752873E+03</pdfrwt>
<totfact> 0.25231028E+03</totfact>
</mgrwt>
</event>
<event>
 5    1  0.1125356E+001  0.2750659E+03  0.7818608E-02  0.1098415E+00
         -2   -1    0    0    0  501 -0.00000000000E+00  0.00000000000E+00  0.50682934476E+02  0.50682934476E+02  0.00000000000E+00 0. -1.
          2   -1    0    0  501    0  0.00000000000E+00 -0.00000000000E+00 -0.37320874103E+03  0.37320874103E+03  0.00000000000E+00 0. -1.
         35    2    1    2    0    0  0.00000000000E+00  0.00000000000E+00 -0.32252580656E+03  0.42389167551E+03  0.27506591332E+03 0.  0.
         25    1    3    3    0    0  0.60175988086E+02 -0.29401137723E+02 -0.16966663136E+03  0.21833996940E+03  0.12000000000E+03 0.  0.
         25    1    3    3    0    0 -0.60175988086E+02  0.29401137723E+02 -0.15285917520E+03  0.20555170611E+03  0.12000000000E+03 0.  0.
<mgrwt>
<rscale>  0 0.27506591E+03</rscale>
<asrwt>0</asrwt>
<pdfrwt beam="1">  1        2 0.57416728E-01 0.27506591E+03</pdfrwt>
<pdfrwt beam="2">  1       -2 0.77973747E-02 0.27506591E+03</pdfrwt>
<totfact> 0.84216469E+03</totfact>
</mgrwt>
</event>
<event>
 5    1  0.1125356E+001  0.2691289E+03  0.7818608E-02  0.1101779E+00
          2   -1    0    0  501    0  0.00000000000E+00  0.00000000000E+00  0.20742346326E+03  0.20742346326E+03  0.00000000000E+00 0. -1.
         -2   -1    0    0    0  501 -0.00000000000E+00 -0.00000000000E+00 -0.87297670776E+02  0.87297670776E+02  0.00000000000E+00 0. -1.
         35    2    1    2    0    0  0.00000000000E+00  0.00000000000E+00  0.12012579248E+03  0.29472113403E+03  0.26912885543E+03 0.  0.
         25    1    3    3    0    0 -0.29181711535E+02  0.30219364231E+02  0.11794219654E+02  0.12768667072E+03  0.12000000000E+03 0.  0.
         25    1    3    3    0    0  0.29181711535E+02 -0.30219364231E+02  0.10833157283E+03  0.16703446331E+03  0.12000000000E+03 0.  0.
<mgrwt>
<rscale>  0 0.26912886E+03</rscale>
<asrwt>0</asrwt>
<pdfrwt beam="1">  1        2 0.31911302E-01 0.26912886E+03</pdfrwt>
<pdfrwt beam="2">  1       -2 0.13430411E-01 0.26912886E+03</pdfrwt>
<totfact> 0.66723741E+03</totfact>
</mgrwt>
</event>
<event>
 5    1  0.1125356E+001  0.2747642E+03  0.7818608E-02  0.1098583E+00
         -2   -1    0    0    0  501 -0.00000000000E+00  0.00000000000E+00  0.41850373324E+02  0.41850373324E+02  0.00000000000E+00 0.  1.
          2   -1    0    0  501    0  0.00000000000E+00 -0.00000000000E+00 -0.45098374418E+03  0.45098374418E+03  0.00000000000E+00 0.  1.
         35    2    1    2    0    0  0.00000000000E+00  0.00000000000E+00 -0.40913337086E+03  0.49283411750E+03  0.27476417566E+03 0.  0.
         25    1    3    3    0    0  0.19968408929E+02  0.59818645445E+02 -0.16458650772E+03  0.21322693597E+03  0.12000000000E+03 0.  0.
         25    1    3    3    0    0 -0.19968408929E+02 -0.59818645445E+02 -0.24454686313E+03  0.27960718154E+03  0.12000000000E+03 0.  0.
<mgrwt>
<rscale>  0 0.27476418E+03</rscale>
<asrwt>0</asrwt>
<pdfrwt beam="1">  1        2 0.69382111E-01 0.27476418E+03</pdfrwt>
<pdfrwt beam="2">  1       -2 0.64385193E-02 0.27476418E+03</pdfrwt>
<totfact> 0.92183117E+03</totfact>
</mgrwt>
</event>
<event>
 5    1  0.1125356E+001  0.2752264E+03  0.7818608E-02  0.1098325E+00
         -3   -1    0    0    0  501 -0.00000000000E+00  0.00000000000E+00  0.79015553904E+02  0.79015553904E+02  0.00000000000E+00 0. -1.
          3   -1    0    0  501    0  0.00000000000E+00 -0.00000000000E+00 -0.23966661383E+03  0.23966661383E+03  0.00000000000E+00 0. -1.
         35    2    1    2    0    0  0.00000000000E+00  0.00000000000E+00 -0.16065105992E+03  0.31868216773E+03  0.27522638132E+03 0.  0.
         25    1    3    3    0    0 -0.37007589995E+02 -0.20296523033E+01 -0.15197795626E+02  0.12650950240E+03  0.12000000000E+03 0.  0.
         25    1    3    3    0    0  0.37007589995E+02  0.20296523033E+01 -0.14545326430E+03  0.19217266533E+03  0.12000000000E+03 0.  0.
<mgrwt>
<rscale>  0 0.27522638E+03</rscale>
<asrwt>0</asrwt>
<pdfrwt beam="1">  1        3 0.36871787E-01 0.27522638E+03</pdfrwt>
<pdfrwt beam="2">  1       -3 0.12156239E-01 0.27522638E+03</pdfrwt>
<totfact> 0.98270678E+02</totfact>
</mgrwt>
</event>
<event>
 5    1  0.1125356E+001  0.2770171E+03  0.7818608E-02  0.1097329E+00
         -3   -1    0    0    0  501 -0.00000000000E+00  0.00000000000E+00  0.10481478540E+02  0.10481478540E+02  0.00000000000E+00 0. -1.
          3   -1    0    0  501    0  0.00000000000E+00 -0.00000000000E+00 -0.18303351805E+04  0.18303351805E+04  0.00000000000E+00 0. -1.
         35    2    1    2    0    0  0.00000000000E+00  0.00000000000E+00 -0.18198537019E+04  0.18408166590E+04  0.27701710355E+03 0.  0.
         25    1    3    3    0    0 -0.22368903379E+02  0.14577803440E+02 -0.48589946845E+03  0.50120971023E+03  0.12000000000E+03 0.  0.
         25    1    3    3    0    0  0.22368903379E+02 -0.14577803440E+02 -0.13339542335E+04  0.13396069488E+04  0.12000000000E+03 0.  0.
<mgrwt>
<rscale>  0 0.27701710E+03</rscale>
<asrwt>0</asrwt>
<pdfrwt beam="1">  1        3 0.28159022E+00 0.27701710E+03</pdfrwt>
<pdfrwt beam="2">  1       -3 0.16125341E-02 0.27701710E+03</pdfrwt>
<totfact> 0.18723604E+02</totfact>
</mgrwt>
</event>
<event>
 5    1  0.1125356E+001  0.2754869E+03  0.7818608E-02  0.1098180E+00
          2   -1    0    0  501    0  0.00000000000E+00  0.00000000000E+00  0.68333779398E+02  0.68333779398E+02  0.00000000000E+00 0.  1.
         -2   -1    0    0    0  501 -0.00000000000E+00 -0.00000000000E+00 -0.27765563263E+03  0.27765563263E+03  0.00000000000E+00 0.  1.
         35    2    1    2    0    0  0.00000000000E+00  0.00000000000E+00 -0.20932185323E+03  0.34598941202E+03  0.27548690530E+03 0.  0.
         25    1    3    3    0    0 -0.59237106464E+02  0.25911399899E+02 -0.12955296604E+03  0.18805426460E+03  0.12000000000E+03 0.  0.
         25    1    3    3    0    0  0.59237106464E+02 -0.25911399899E+02 -0.79768887192E+02  0.15793514742E+03  0.12000000000E+03 0.  0.
<mgrwt>
<rscale>  0 0.27548691E+03</rscale>
<asrwt>0</asrwt>
<pdfrwt beam="1">  1        2 0.10512889E-01 0.27548691E+03</pdfrwt>
<pdfrwt beam="2">  1       -2 0.42716252E-01 0.27548691E+03</pdfrwt>
<totfact> 0.31446307E+03</totfact>
</mgrwt>
</event>
<event>
 5    1  0.1125356E+001  0.2748931E+03  0.7818608E-02  0.1098511E+00
         -1   -1    0    0    0  501 -0.00000000000E+00  0.00000000000E+00  0.22927343328E+02  0.22927343328E+02  0.00000000000E+00 0. -1.
          1   -1    0    0  501    0  0.00000000000E+00 -0.00000000000E+00 -0.82397456580E+03  0.82397456580E+03  0.00000000000E+00 0. -1.
         35    2    1    2    0    0  0.00000000000E+00  0.00000000000E+00 -0.80104722247E+03  0.84690190913E+03  0.27489305385E+03 0.  0.
         25    1    3    3    0    0  0.12405120720E+02 -0.17552624247E+02 -0.20495529829E+03  0.23847149921E+03  0.12000000000E+03 0.  0.
         25    1    3    3    0    0 -0.12405120720E+02  0.17552624247E+02 -0.59609192419E+03  0.60843040992E+03  0.12000000000E+03 0.  0.
<mgrwt>
<rscale>  0 0.27489305E+03</rscale>
<asrwt>0</asrwt>
<pdfrwt beam="1">  1        1 0.12676529E+00 0.27489305E+03</pdfrwt>
<pdfrwt beam="2">  1       -1 0.35272842E-02 0.27489305E+03</pdfrwt>
<totfact> 0.65153008E+03</totfact>
</mgrwt>
</event>
<event>
 5    1  0.1125356E+001  0.2753767E+03  0.7818608E-02  0.1098241E+00
         -2   -1    0    0    0  501 -0.00000000000E+00  0.00000000000E+00  0.71930454181E+02  0.71930454181E+02  0.00000000000E+00 0.  1.
          2   -1    0    0  501    0  0.00000000000E+00 -0.00000000000E+00 -0.26356122092E+03  0.26356122092E+03  0.00000000000E+00 0.  1.
         35    2    1    2    0    0  0.00000000000E+00  0.00000000000E+00 -0.19163076674E+03  0.33549167510E+03  0.27537667530E+03 0.  0.
         25    1    3    3    0    0  0.59576080917E+02  0.28618515693E+02 -0.79033338473E+02  0.15816003746E+03  0.12000000000E+03 0.  0.
         25    1    3    3    0    0 -0.59576080917E+02 -0.28618515693E+02 -0.11259742827E+03  0.17733163765E+03  0.12000000000E+03 0.  0.
<mgrwt>
<rscale>  0 0.27537668E+03</rscale>
<asrwt>0</asrwt>
<pdfrwt beam="1">  1        2 0.40547881E-01 0.27537668E+03</pdfrwt>
<pdfrwt beam="2">  1       -2 0.11066224E-01 0.27537668E+03</pdfrwt>
<totfact> 0.70446560E+03</totfact>
</mgrwt>
</event>
<event>
 5    1  0.1125356E+001  0.2746908E+03  0.7818608E-02  0.1098625E+00
         -1   -1    0    0    0  501 -0.00000000000E+00  0.00000000000E+00  0.49346471490E+03  0.49346471490E+03  0.00000000000E+00 0. -1.
          1   -1    0    0  501    0  0.00000000000E+00 -0.00000000000E+00 -0.38227169357E+02  0.38227169357E+02  0.00000000000E+00 0. -1.
         35    2    1    2    0    0  0.00000000000E+00  0.00000000000E+00  0.45523754555E+03  0.53169188426E+03  0.27469080238E+03 0.  0.
         25    1    3    3    0    0 -0.34386847217E+02  0.47809677225E+02  0.16654637186E+03  0.21355541314E+03  0.12000000000E+03 0.  0.
         25    1    3    3    0    0  0.34386847217E+02 -0.47809677225E+02  0.28869117368E+03  0.31813647113E+03  0.12000000000E+03 0.  0.
<mgrwt>
<rscale>  0 0.27469080E+03</rscale>
<asrwt>0</asrwt>
<pdfrwt beam="1">  1        1 0.58811033E-02 0.27469080E+03</pdfrwt>
<pdfrwt beam="2">  1       -1 0.75917644E-01 0.27469080E+03</pdfrwt>
<totfact> 0.24101364E+03</totfact>
</mgrwt>
</event>
<event>
 5    1  0.1125356E+001  0.2742082E+03  0.7818608E-02  0.1098895E+00
          3   -1    0    0  501    0  0.00000000000E+00  0.00000000000E+00  0.61090982316E+03  0.61090982316E+03  0.00000000000E+00 0.  1.
         -3   -1    0    0    0  501 -0.00000000000E+00 -0.00000000000E+00 -0.30769737248E+02  0.30769737248E+02  0.00000000000E+00 0.  1.
         35    2    1    2    0    0  0.00000000000E+00  0.00000000000E+00  0.58014008591E+03  0.64167956041E+03  0.27420820367E+03 0.  0.
         25    1    3    3    0    0 -0.76607724980E+01  0.21242231815E+02  0.14416195018E+03  0.18892482030E+03  0.12000000000E+03 0.  0.
         25    1    3    3    0    0  0.76607724980E+01 -0.21242231815E+02  0.43597813574E+03  0.45275474010E+03  0.12000000000E+03 0.  0.
<mgrwt>
<rscale>  0 0.27420820E+03</rscale>
<asrwt>0</asrwt>
<pdfrwt beam="1">  1        3 0.93986117E-01 0.27420820E+03</pdfrwt>
<pdfrwt beam="2">  1       -3 0.47338062E-02 0.27420820E+03</pdfrwt>
<totfact> 0.65890622E+02</totfact>
</mgrwt>
</event>
<event>
 5    1  0.1125356E+001  0.2750941E+03  0.7818608E-02  0.1098399E+00
          1   -1    0    0  501    0  0.00000000000E+00  0.00000000000E+00  0.24381525015E+02  0.24381525015E+02  0.00000000000E+00 0. -1.
         -1   -1    0    0    0  501 -0.00000000000E+00 -0.00000000000E+00 -0.77596434617E+03  0.77596434617E+03  0.00000000000E+00 0. -1.
         35    2    1    2    0    0  0.00000000000E+00  0.00000000000E+00 -0.75158282116E+03  0.80034587119E+03  0.27509412292E+03 0.  0.
         25    1    3    3    0    0 -0.23980016205E+02 -0.55350462108E+02 -0.28946255817E+03  0.31910388186E+03  0.12000000000E+03 0.  0.
         25    1    3    3    0    0  0.23980016205E+02  0.55350462108E+02 -0.46212026299E+03  0.48124198933E+03  0.12000000000E+03 0.  0.
<mgrwt>
<rscale>  0 0.27509412E+03</rscale>
<asrwt>0</asrwt>
<pdfrwt beam="1">  1        1 0.37510048E-02 0.27509412E+03</pdfrwt>
<pdfrwt beam="2">  1       -1 0.11937910E+00 0.27509412E+03</pdfrwt>
<totfact> 0.16652768E+03</totfact>
</mgrwt>
</event>
<event>
 5    1  0.1125356E+001  0.2774621E+03  0.7818608E-02  0.1097083E+00
          2   -1    0    0  501    0  0.00000000000E+00  0.00000000000E+00  0.25795158930E+03  0.25795158930E+03  0.00000000000E+00 0. -1.
         -2   -1    0    0    0  501 -0.00000000000E+00 -0.00000000000E+00 -0.74612093800E+02  0.74612093800E+02  0.00000000000E+00 0. -1.
         35    2    1    2    0    0  0.00000000000E+00  0.00000000000E+00  0.18333949550E+03  0.33256368310E+03  0.27746212842E+03 0.  0.
         25    1    3    3    0    0  0.51112845537E+02  0.46925018856E+02  0.84907759073E+02  0.16255401541E+03  0.12000000000E+03 0.  0.
         25    1    3    3    0    0 -0.51112845537E+02 -0.46925018856E+02  0.98431736428E+02  0.17000966770E+03  0.12000000000E+03 0.  0.
<mgrwt>
<rscale>  0 0.27746213E+03</rscale>
<asrwt>0</asrwt>
<pdfrwt beam="1">  1        2 0.39684859E-01 0.27746213E+03</pdfrwt>
<pdfrwt beam="2">  1       -2 0.11478784E-01 0.27746213E+03</pdfrwt>
<totfact> 0.68002494E+03</totfact>
</mgrwt>
</event>
<event>
 5    1  0.1125356E+001  0.2747163E+03  0.7818608E-02  0.1098610E+00
          2   -1    0    0  501    0  0.00000000000E+00  0.00000000000E+00  0.21284834458E+04  0.21284834458E+04  0.00000000000E+00 0. -1.
         -2   -1    0    0    0  501 -0.00000000000E+00 -0.00000000000E+00 -0.88641805267E+01  0.88641805267E+01  0.00000000000E+00 0. -1.
         35    2    1    2    0    0  0.00000000000E+00  0.00000000000E+00  0.21196192653E+04  0.21373476263E+04  0.27471630102E+03 0.  0.
         25    1    3    3    0    0  0.59524031276E+02  0.32844158677E+01  0.12949421191E+04  0.13018559788E+04  0.12000000000E+03 0.  0.
         25    1    3    3    0    0 -0.59524031276E+02 -0.32844158677E+01  0.82467714621E+03  0.83549164757E+03  0.12000000000E+03 0.  0.
<mgrwt>
<rscale>  0 0.27471630E+03</rscale>
<asrwt>0</asrwt>
<pdfrwt beam="1">  1        2 0.32745858E+00 0.27471630E+03</pdfrwt>
<pdfrwt beam="2">  1       -2 0.13637218E-02 0.27471630E+03</pdfrwt>
<totfact> 0.86189505E+03</totfact>
</mgrwt>
</event>
<event>
 5    1  0.1125356E+001  0.2759799E+03  0.7818608E-02  0.1097905E+00
         -2   -1    0    0    0  501 -0.00000000000E+00  0.00000000000E+00  0.42269013361E+02  0.42269013361E+02  0.00000000000E+00 0. -1.
          2   -1    0    0  501    0  0.00000000000E+00 -0.00000000000E+00 -0.45047725733E+03  0.45047725733E+03  0.00000000000E+00 0. -1.
         35    2    1    2    0    0  0.00000000000E+00  0.00000000000E+00 -0.40820824397E+03  0.49274627069E+03  0.27597992107E+03 0.  0.
         25    1    3    3    0    0 -0.58558819224E+02  0.14238990484E+02 -0.14738027345E+03  0.19938111536E+03  0.12000000000E+03 0.  0.
         25    1    3    3    0    0  0.58558819224E+02 -0.14238990484E+02 -0.26082797052E+03  0.29336515533E+03  0.12000000000E+03 0.  0.
<mgrwt>
<rscale>  0 0.27597992E+03</rscale>
<asrwt>0</asrwt>
<pdfrwt beam="1">  1        2 0.69304188E-01 0.27597992E+03</pdfrwt>
<pdfrwt beam="2">  1       -2 0.65029256E-02 0.27597992E+03</pdfrwt>
<totfact> 0.90907642E+03</totfact>
</mgrwt>
</event>
<event>
 5    1  0.1125356E+001  0.2708422E+03  0.7818608E-02  0.1100799E+00
         -1   -1    0    0    0  501 -0.00000000000E+00  0.00000000000E+00  0.73361869228E+02  0.73361869228E+02  0.00000000000E+00 0. -1.
          1   -1    0    0  501    0  0.00000000000E+00 -0.00000000000E+00 -0.24997836416E+03  0.24997836416E+03  0.00000000000E+00 0. -1.
         35    2    1    2    0    0  0.00000000000E+00  0.00000000000E+00 -0.17661649493E+03  0.32334023339E+03  0.27084224236E+03 0.  0.
         25    1    3    3    0    0  0.33750780688E+02 -0.52049942883E+02 -0.76946857186E+02  0.15546424213E+03  0.12000000000E+03 0.  0.
         25    1    3    3    0    0 -0.33750780688E+02  0.52049942883E+02 -0.99669637745E+02  0.16787599125E+03  0.12000000000E+03 0.  0.
<mgrwt>
<rscale>  0 0.27084224E+03</rscale>
<asrwt>0</asrwt>
<pdfrwt beam="1">  1        1 0.38458209E-01 0.27084224E+03</pdfrwt>
<pdfrwt beam="2">  1       -1 0.11286442E-01 0.27084224E+03</pdfrwt>
<totfact> 0.55285464E+03</totfact>
</mgrwt>
</event>
<event>
 5    1  0.1125356E+001  0.2742126E+03  0.7818608E-02  0.1098893E+00
          2   -1    0    0  501    0  0.00000000000E+00  0.00000000000E+00  0.20188731381E+04  0.20188731381E+04  0.00000000000E+00 0.  1.
         -2   -1    0    0    0  501 -0.00000000000E+00 -0.00000000000E+00 -0.93112061523E+01  0.93112061523E+01  0.00000000000E+00 0.  1.
         35    2    1    2    0    0  0.00000000000E+00  0.00000000000E+00  0.20095619319E+04  0.20281843442E+04  0.27421264729E+03 0.  0.
         25    1    3    3    0    0  0.28016297129E+02  0.28345915355E+02  0.13968414070E+04  0.14025527869E+04  0.12000000000E+03 0.  0.
         25    1    3    3    0    0 -0.28016297129E+02 -0.28345915355E+02  0.61272052494E+03  0.62563155731E+03  0.12000000000E+03 0.  0.
<mgrwt>
<rscale>  0 0.27421265E+03</rscale>
<asrwt>0</asrwt>
<pdfrwt beam="1">  1        2 0.31059552E+00 0.27421265E+03</pdfrwt>
<pdfrwt beam="2">  1       -2 0.14324949E-02 0.27421265E+03</pdfrwt>
<totfact> 0.91639964E+03</totfact>
</mgrwt>
</event>
<event>
 5    1  0.1125356E+001  0.2753267E+03  0.7818608E-02  0.1098269E+00
          2   -1    0    0  501    0  0.00000000000E+00  0.00000000000E+00  0.79357970983E+03  0.79357970983E+03  0.00000000000E+00 0.  1.
         -2   -1    0    0    0  501 -0.00000000000E+00 -0.00000000000E+00 -0.23880648338E+02  0.23880648338E+02  0.00000000000E+00 0.  1.
         35    2    1    2    0    0  0.00000000000E+00  0.00000000000E+00  0.76969906149E+03  0.81746035816E+03  0.27532670033E+03 0.  0.
         25    1    3    3    0    0  0.17131528937E+02 -0.11844994190E+02  0.19433410093E+03  0.22934588716E+03  0.12000000000E+03 0.  0.
         25    1    3    3    0    0 -0.17131528937E+02  0.11844994190E+02  0.57536496056E+03  0.58811447101E+03  0.12000000000E+03 0.  0.
<mgrwt>
<rscale>  0 0.27532670E+03</rscale>
<asrwt>0</asrwt>
<pdfrwt beam="1">  1        2 0.12208917E+00 0.27532670E+03</pdfrwt>
<pdfrwt beam="2">  1       -2 0.36739465E-02 0.27532670E+03</pdfrwt>
<totfact> 0.11162261E+04</totfact>
</mgrwt>
</event>
<event>
 5    1  0.1125356E+001  0.2750880E+03  0.7818608E-02  0.1098402E+00
         -3   -1    0    0    0  501 -0.00000000000E+00  0.00000000000E+00  0.31659824363E+03  0.31659824363E+03  0.00000000000E+00 0. -1.
          3   -1    0    0  501    0  0.00000000000E+00 -0.00000000000E+00 -0.59755056452E+02  0.59755056452E+02  0.00000000000E+00 0. -1.
         35    2    1    2    0    0  0.00000000000E+00  0.00000000000E+00  0.25684318717E+03  0.37635330008E+03  0.27508795626E+03 0.  0.
         25    1    3    3    0    0 -0.17157826156E+02  0.62278439953E+02  0.10299697717E+03  0.17082556128E+03  0.12000000000E+03 0.  0.
         25    1    3    3    0    0  0.17157826156E+02 -0.62278439953E+02  0.15384621001E+03  0.20552773880E+03  0.12000000000E+03 0.  0.
<mgrwt>
<rscale>  0 0.27508796E+03</rscale>
<asrwt>0</asrwt>
<pdfrwt beam="1">  1        3 0.91930858E-02 0.27508796E+03</pdfrwt>
<pdfrwt beam="2">  1       -3 0.48707421E-01 0.27508796E+03</pdfrwt>
<totfact> 0.90828485E+02</totfact>
</mgrwt>
</event>
<event>
 5    1  0.1125356E+001  0.2746479E+03  0.7818608E-02  0.1098649E+00
          1   -1    0    0  501    0  0.00000000000E+00  0.00000000000E+00  0.13964378281E+03  0.13964378281E+03  0.00000000000E+00 0. -1.
         -1   -1    0    0    0  501 -0.00000000000E+00 -0.00000000000E+00 -0.13504266881E+03  0.13504266881E+03  0.00000000000E+00 0. -1.
         35    2    1    2    0    0  0.00000000000E+00  0.00000000000E+00  0.46011139963E+01  0.27468645162E+03  0.27464791362E+03 0.  0.
         25    1    3    3    0    0 -0.49276051146E+02 -0.40603462862E+02 -0.17223931688E+02  0.13701618239E+03  0.12000000000E+03 0.  0.
         25    1    3    3    0    0  0.49276051146E+02  0.40603462862E+02  0.21825045685E+02  0.13767026924E+03  0.12000000000E+03 0.  0.
<mgrwt>
<rscale>  0 0.27464791E+03</rscale>
<asrwt>0</asrwt>
<pdfrwt beam="1">  1        1 0.21483659E-01 0.27464791E+03</pdfrwt>
<pdfrwt beam="2">  1       -1 0.20775795E-01 0.27464791E+03</pdfrwt>
<totfact> 0.43792535E+03</totfact>
</mgrwt>
</event>
<event>
 5    1  0.1125356E+001  0.2740374E+03  0.7818608E-02  0.1098991E+00
          1   -1    0    0  501    0  0.00000000000E+00  0.00000000000E+00  0.66007043675E+03  0.66007043675E+03  0.00000000000E+00 0. -1.
         -1   -1    0    0    0  501 -0.00000000000E+00 -0.00000000000E+00 -0.28442604171E+02  0.28442604171E+02  0.00000000000E+00 0. -1.
         35    2    1    2    0    0  0.00000000000E+00  0.00000000000E+00  0.63162783257E+03  0.68851304092E+03  0.27403738546E+03 0.  0.
         25    1    3    3    0    0  0.10585936519E+02 -0.58191492650E+02  0.24145939592E+03  0.27604519874E+03  0.12000000000E+03 0.  0.
         25    1    3    3    0    0 -0.10585936519E+02  0.58191492650E+02  0.39016843665E+03  0.41246784217E+03  0.12000000000E+03 0.  0.
<mgrwt>
<rscale>  0 0.27403739E+03</rscale>
<asrwt>0</asrwt>
<pdfrwt beam="1">  1        1 0.10154929E+00 0.27403739E+03</pdfrwt>
<pdfrwt beam="2">  1       -1 0.43757858E-02 0.27403739E+03</pdfrwt>
<totfact> 0.65816271E+03</totfact>
</mgrwt>
</event>
<event>
 5    1  0.1125356E+001  0.2755303E+03  0.7818608E-02  0.1098156E+00
          2   -1    0    0  501    0  0.00000000000E+00  0.00000000000E+00  0.31261570630E+03  0.31261570630E+03  0.00000000000E+00 0.  1.
         -2   -1    0    0    0  501 -0.00000000000E+00 -0.00000000000E+00 -0.60711068427E+02  0.60711068427E+02  0.00000000000E+00 0.  1.
         35    2    1    2    0    0  0.00000000000E+00  0.00000000000E+00  0.25190463787E+03  0.37332677472E+03  0.27553027809E+03 0.  0.
         25    1    3    3    0    0 -0.33211712661E+00  0.19726594843E+02  0.21365765678E+03  0.24584312711E+03  0.12000000000E+03 0.  0.
         25    1    3    3    0    0  0.33211712661E+00 -0.19726594843E+02  0.38246981085E+02  0.12748364761E+03  0.12000000000E+03 0.  0.
<mgrwt>
<rscale>  0 0.27553028E+03</rscale>
<asrwt>0</asrwt>
<pdfrwt beam="1">  1        2 0.48094723E-01 0.27553028E+03</pdfrwt>
<pdfrwt beam="2">  1       -2 0.93401646E-02 0.27553028E+03</pdfrwt>
<totfact> 0.76796281E+03</totfact>
</mgrwt>
</event>
<event>
 5    1  0.1125356E+001  0.2755182E+03  0.7818608E-02  0.1098162E+00
          2   -1    0    0  501    0  0.00000000000E+00  0.00000000000E+00  0.82049773661E+03  0.82049773661E+03  0.00000000000E+00 0.  1.
         -2   -1    0    0    0  501 -0.00000000000E+00 -0.00000000000E+00 -0.23129336524E+02  0.23129336524E+02  0.00000000000E+00 0.  1.
         35    2    1    2    0    0  0.00000000000E+00  0.00000000000E+00  0.79736840009E+03  0.84362707313E+03  0.27551819008E+03 0.  0.
         25    1    3    3    0    0 -0.33673183080E+02  0.10677389502E+02  0.22199851144E+03  0.25481606893E+03  0.12000000000E+03 0.  0.
         25    1    3    3    0    0  0.33673183080E+02 -0.10677389502E+02  0.57536988865E+03  0.58881100420E+03  0.12000000000E+03 0.  0.
<mgrwt>
<rscale>  0 0.27551819E+03</rscale>
<asrwt>0</asrwt>
<pdfrwt beam="1">  1        2 0.12623040E+00 0.27551819E+03</pdfrwt>
<pdfrwt beam="2">  1       -2 0.35583601E-02 0.27551819E+03</pdfrwt>
<totfact> 0.11221657E+04</totfact>
</mgrwt>
</event>
<event>
 5    1  0.1125356E+001  0.2768048E+03  0.7818608E-02  0.1097447E+00
          1   -1    0    0  501    0  0.00000000000E+00  0.00000000000E+00  0.67157375707E+03  0.67157375707E+03  0.00000000000E+00 0.  1.
         -1   -1    0    0    0  501 -0.00000000000E+00 -0.00000000000E+00 -0.28522885851E+02  0.28522885851E+02  0.00000000000E+00 0.  1.
         35    2    1    2    0    0  0.00000000000E+00  0.00000000000E+00  0.64305087121E+03  0.70009664292E+03  0.27680478040E+03 0.  0.
         25    1    3    3    0    0 -0.30124681044E+02 -0.38384287449E+02  0.19828342892E+03  0.23684840746E+03  0.12000000000E+03 0.  0.
         25    1    3    3    0    0  0.30124681044E+02  0.38384287449E+02  0.44476744230E+03  0.46324823546E+03  0.12000000000E+03 0.  0.
<mgrwt>
<rscale>  0 0.27680478E+03</rscale>
<asrwt>0</asrwt>
<pdfrwt beam="1">  1        1 0.10331903E+00 0.27680478E+03</pdfrwt>
<pdfrwt beam="2">  1       -1 0.43881368E-02 0.27680478E+03</pdfrwt>
<totfact> 0.63953202E+03</totfact>
</mgrwt>
</event>
<event>
 5    1  0.1125356E+001  0.2759924E+03  0.7818608E-02  0.1097898E+00
         -1   -1    0    0    0  501 -0.00000000000E+00  0.00000000000E+00  0.34252596218E+02  0.34252596218E+02  0.00000000000E+00 0.  1.
          1   -1    0    0  501    0  0.00000000000E+00 -0.00000000000E+00 -0.55595641265E+03  0.55595641265E+03  0.00000000000E+00 0.  1.
         35    2    1    2    0    0  0.00000000000E+00  0.00000000000E+00 -0.52170381643E+03  0.59020900887E+03  0.27599239495E+03 0.  0.
         25    1    3    3    0    0 -0.28038391225E+02  0.59558574926E+02 -0.22322557808E+03  0.26184543903E+03  0.12000000000E+03 0.  0.
         25    1    3    3    0    0  0.28038391225E+02 -0.59558574926E+02 -0.29847823836E+03  0.32836356985E+03  0.12000000000E+03 0.  0.
<mgrwt>
<rscale>  0 0.27599239E+03</rscale>
<asrwt>0</asrwt>
<pdfrwt beam="1">  1        1 0.85531746E-01 0.27599239E+03</pdfrwt>
<pdfrwt beam="2">  1       -1 0.52696308E-02 0.27599239E+03</pdfrwt>
<totfact> 0.63320303E+03</totfact>
</mgrwt>
</event>
<event>
 5    1  0.1125356E+001  0.2733868E+03  0.7818608E-02  0.1099357E+00
          2   -1    0    0  501    0  0.00000000000E+00  0.00000000000E+00  0.25492675972E+03  0.25492675972E+03  0.00000000000E+00 0. -1.
         -2   -1    0    0    0  501 -0.00000000000E+00 -0.00000000000E+00 -0.73295916982E+02  0.73295916982E+02  0.00000000000E+00 0. -1.
         35    2    1    2    0    0  0.00000000000E+00  0.00000000000E+00  0.18163084274E+03  0.32822267671E+03  0.27338683668E+03 0.  0.
         25    1    3    3    0    0 -0.50732680445E+02 -0.11358616734E+02  0.43059091037E+02  0.13768408899E+03  0.12000000000E+03 0.  0.
         25    1    3    3    0    0  0.50732680445E+02  0.11358616734E+02  0.13857175170E+03  0.19053858772E+03  0.12000000000E+03 0.  0.
<mgrwt>
<rscale>  0 0.27338684E+03</rscale>
<asrwt>0</asrwt>
<pdfrwt beam="1">  1        2 0.39219501E-01 0.27338684E+03</pdfrwt>
<pdfrwt beam="2">  1       -2 0.11276295E-01 0.27338684E+03</pdfrwt>
<totfact> 0.70832415E+03</totfact>
</mgrwt>
</event>
<event>
 5    1  0.1125356E+001  0.2744997E+03  0.7818608E-02  0.1098732E+00
          2   -1    0    0  501    0  0.00000000000E+00  0.00000000000E+00  0.12503699803E+04  0.12503699803E+04  0.00000000000E+00 0.  1.
         -2   -1    0    0    0  501 -0.00000000000E+00 -0.00000000000E+00 -0.15065555294E+02  0.15065555294E+02  0.00000000000E+00 0.  1.
         35    2    1    2    0    0  0.00000000000E+00  0.00000000000E+00  0.12353044250E+04  0.12654355355E+04  0.27449967632E+03 0.  0.
         25    1    3    3    0    0  0.59063981604E+02 -0.26562708380E+02  0.54573272421E+03  0.56251074449E+03  0.12000000000E+03 0.  0.
         25    1    3    3    0    0 -0.59063981604E+02  0.26562708380E+02  0.68957170075E+03  0.70292479105E+03  0.12000000000E+03 0.  0.
<mgrwt>
<rscale>  0 0.27449968E+03</rscale>
<asrwt>0</asrwt>
<pdfrwt beam="1">  1        2 0.19236453E+00 0.27449968E+03</pdfrwt>
<pdfrwt beam="2">  1       -2 0.23177787E-02 0.27449968E+03</pdfrwt>
<totfact> 0.11617758E+04</totfact>
</mgrwt>
</event>
<event>
 5    1  0.1125356E+001  0.2749338E+03  0.7818608E-02  0.1098489E+00
          1   -1    0    0  501    0  0.00000000000E+00  0.00000000000E+00  0.26540877137E+03  0.26540877137E+03  0.00000000000E+00 0. -1.
         -1   -1    0    0    0  501 -0.00000000000E+00 -0.00000000000E+00 -0.71200143039E+02  0.71200143039E+02  0.00000000000E+00 0. -1.
         35    2    1    2    0    0  0.00000000000E+00  0.00000000000E+00  0.19420862834E+03  0.33660891441E+03  0.27493375555E+03 0.  0.
         25    1    3    3    0    0  0.35419749365E+02  0.49931369799E+02  0.63587200950E+02  0.14896654812E+03  0.12000000000E+03 0.  0.
         25    1    3    3    0    0 -0.35419749365E+02 -0.49931369799E+02  0.13062142739E+03  0.18764236629E+03  0.12000000000E+03 0.  0.
<mgrwt>
<rscale>  0 0.27493376E+03</rscale>
<asrwt>0</asrwt>
<pdfrwt beam="1">  1        1 0.40832118E-01 0.27493376E+03</pdfrwt>
<pdfrwt beam="2">  1       -1 0.10953868E-01 0.27493376E+03</pdfrwt>
<totfact> 0.53750918E+03</totfact>
</mgrwt>
</event>
<event>
 4    1  0.1125356E+001  0.2502070E+03  0.7818608E-02  0.1113174E+00
         -2   -1    0    0    0  501 -0.00000000000E+00  0.00000000000E+00  0.50636888091E+03  0.50636888091E+03  0.00000000000E+00 0.  1.
          2   -1    0    0  501    0  0.00000000000E+00 -0.00000000000E+00 -0.30908079767E+02  0.30908079767E+02  0.00000000000E+00 0.  1.
         25    1    1    2    0    0  0.27203610362E+02  0.12293418256E+02  0.19700323883E+03  0.23259716391E+03  0.12000000000E+03 0.  0.
         25    1    1    2    0    0 -0.27203610362E+02 -0.12293418256E+02  0.27845756231E+03  0.30467979677E+03  0.12000000000E+03 0.  0.
<mgrwt>
<rscale>  0 0.25020703E+03</rscale>
<asrwt>0</asrwt>
<pdfrwt beam="1">  1        2 0.47550896E-02 0.25020703E+03</pdfrwt>
<pdfrwt beam="2">  1       -2 0.77902899E-01 0.25020703E+03</pdfrwt>
<totfact> 0.25220623E+03</totfact>
</mgrwt>
</event>
<event>
 5    1  0.1125356E+001  0.2753064E+03  0.7818608E-02  0.1098280E+00
         -1   -1    0    0    0  501 -0.00000000000E+00  0.00000000000E+00  0.11117625759E+03  0.11117625759E+03  0.00000000000E+00 0.  1.
          1   -1    0    0  501    0  0.00000000000E+00 -0.00000000000E+00 -0.17043566977E+03  0.17043566977E+03  0.00000000000E+00 0.  1.
         35    2    1    2    0    0  0.00000000000E+00  0.00000000000E+00 -0.59259412174E+02  0.28161192736E+03  0.27530637425E+03 0.  0.
         25    1    3    3    0    0  0.36362322000E+02  0.50320404681E+02 -0.56577704198E+02  0.14647661315E+03  0.12000000000E+03 0.  0.
         25    1    3    3    0    0 -0.36362322000E+02 -0.50320404681E+02 -0.26817079751E+01  0.13513531421E+03  0.12000000000E+03 0.  0.
<mgrwt>
<rscale>  0 0.27530637E+03</rscale>
<asrwt>0</asrwt>
<pdfrwt beam="1">  1        1 0.26220872E-01 0.27530637E+03</pdfrwt>
<pdfrwt beam="2">  1       -1 0.17104040E-01 0.27530637E+03</pdfrwt>
<totfact> 0.46510589E+03</totfact>
</mgrwt>
</event>
<event>
 5    1  0.1125356E+001  0.2742710E+03  0.7818608E-02  0.1098860E+00
          2   -1    0    0  501    0  0.00000000000E+00  0.00000000000E+00  0.13024211145E+04  0.13024211145E+04  0.00000000000E+00 0.  1.
         -2   -1    0    0    0  501 -0.00000000000E+00 -0.00000000000E+00 -0.14439376568E+02  0.14439376568E+02  0.00000000000E+00 0.  1.
         35    2    1    2    0    0  0.00000000000E+00  0.00000000000E+00  0.12879817380E+04  0.13168604911E+04  0.27427102598E+03 0.  0.
         25    1    3    3    0    0 -0.32941697984E+01  0.77478999766E+01  0.96012237670E+03  0.96762898869E+03  0.12000000000E+03 0.  0.
         25    1    3    3    0    0  0.32941697984E+01 -0.77478999766E+01  0.32785936127E+03  0.34923150241E+03  0.12000000000E+03 0.  0.
<mgrwt>
<rscale>  0 0.27427103E+03</rscale>
<asrwt>0</asrwt>
<pdfrwt beam="1">  1        2 0.20037239E+00 0.27427103E+03</pdfrwt>
<pdfrwt beam="2">  1       -2 0.22214436E-02 0.27427103E+03</pdfrwt>
<totfact> 0.11570174E+04</totfact>
</mgrwt>
</event>
<event>
 5    1  0.1125356E+001  0.2750931E+03  0.7818608E-02  0.1098400E+00
          2   -1    0    0  501    0  0.00000000000E+00  0.00000000000E+00  0.73047641504E+03  0.73047641504E+03  0.00000000000E+00 0. -1.
         -2   -1    0    0    0  501 -0.00000000000E+00 -0.00000000000E+00 -0.25899610127E+02  0.25899610127E+02  0.00000000000E+00 0. -1.
         35    2    1    2    0    0  0.00000000000E+00  0.00000000000E+00  0.70457680491E+03  0.75637602517E+03  0.27509310683E+03 0.  0.
         25    1    3    3    0    0  0.42306308387E+02 -0.49134151271E+02  0.30348403567E+03  0.33272593596E+03  0.12000000000E+03 0.  0.
         25    1    3    3    0    0 -0.42306308387E+02  0.49134151271E+02  0.40109276924E+03  0.42365008921E+03  0.12000000000E+03 0.  0.
<mgrwt>
<rscale>  0 0.27509311E+03</rscale>
<asrwt>0</asrwt>
<pdfrwt beam="1">  1        2 0.11238097E+00 0.27509311E+03</pdfrwt>
<pdfrwt beam="2">  1       -2 0.39845560E-02 0.27509311E+03</pdfrwt>
<totfact> 0.10959033E+04</totfact>
</mgrwt>
</event>
<event>
 5    1  0.1125356E+001  0.2717971E+03  0.7818608E-02  0.1100255E+00
          2   -1    0    0  501    0  0.00000000000E+00  0.00000000000E+00  0.25677676043E+03  0.25677676043E+03  0.00000000000E+00 0.  1.
         -2   -1    0    0    0  501 -0.00000000000E+00 -0.00000000000E+00 -0.71924011137E+02  0.71924011137E+02  0.00000000000E+00 0.  1.
         35    2    1    2    0    0  0.00000000000E+00  0.00000000000E+00  0.18485274930E+03  0.32870077157E+03  0.27179709032E+03 0.  0.
         25    1    3    3    0    0 -0.21593268170E+02 -0.54957500072E+02  0.12159726573E+03  0.18075533485E+03  0.12000000000E+03 0.  0.
         25    1    3    3    0    0  0.21593268170E+02  0.54957500072E+02  0.63255483568E+02  0.14794543672E+03  0.12000000000E+03 0.  0.
<mgrwt>
<rscale>  0 0.27179709E+03</rscale>
<asrwt>0</asrwt>
<pdfrwt beam="1">  1        2 0.39504116E-01 0.27179709E+03</pdfrwt>
<pdfrwt beam="2">  1       -2 0.11065233E-01 0.27179709E+03</pdfrwt>
<totfact> 0.72428293E+03</totfact>
</mgrwt>
</event>
<event>
 5    1  0.1125356E+001  0.2744047E+03  0.7818608E-02  0.1098785E+00
          1   -1    0    0  501    0  0.00000000000E+00  0.00000000000E+00  0.18878859562E+03  0.18878859562E+03  0.00000000000E+00 0. -1.
         -1   -1    0    0    0  501 -0.00000000000E+00 -0.00000000000E+00 -0.99711955396E+02  0.99711955396E+02  0.00000000000E+00 0. -1.
         35    2    1    2    0    0  0.00000000000E+00  0.00000000000E+00  0.89076640222E+02  0.28850055102E+03  0.27440466487E+03 0.  0.
         25    1    3    3    0    0 -0.11165971741E+00 -0.38529350286E+02 -0.12468343714E+02  0.12664905407E+03  0.12000000000E+03 0.  0.
         25    1    3    3    0    0  0.11165971741E+00  0.38529350286E+02  0.10154498394E+03  0.16185149695E+03  0.12000000000E+03 0.  0.
<mgrwt>
<rscale>  0 0.27440466E+03</rscale>
<asrwt>0</asrwt>
<pdfrwt beam="1">  1        1 0.29044399E-01 0.27440466E+03</pdfrwt>
<pdfrwt beam="2">  1       -1 0.15340301E-01 0.27440466E+03</pdfrwt>
<totfact> 0.48607356E+03</totfact>
</mgrwt>
</event>
<event>
 5    1  0.1125356E+001  0.2744400E+03  0.7818608E-02  0.1098765E+00
          2   -1    0    0  501    0  0.00000000000E+00  0.00000000000E+00  0.43053145968E+03  0.43053145968E+03  0.00000000000E+00 0.  1.
         -2   -1    0    0    0  501 -0.00000000000E+00 -0.00000000000E+00 -0.43735073304E+02  0.43735073304E+02  0.00000000000E+00 0.  1.
         35    2    1    2    0    0  0.00000000000E+00  0.00000000000E+00  0.38679638637E+03  0.47426653298E+03  0.27443997485E+03 0.  0.
         25    1    3    3    0    0 -0.35982780311E+02  0.55860059447E+02  0.18688194145E+03  0.23181882314E+03  0.12000000000E+03 0.  0.
         25    1    3    3    0    0  0.35982780311E+02 -0.55860059447E+02  0.19991444492E+03  0.24244770985E+03  0.12000000000E+03 0.  0.
<mgrwt>
<rscale>  0 0.27443997E+03</rscale>
<asrwt>0</asrwt>
<pdfrwt beam="1">  1        2 0.66235606E-01 0.27443997E+03</pdfrwt>
<pdfrwt beam="2">  1       -2 0.67284731E-02 0.27443997E+03</pdfrwt>
<totfact> 0.90626097E+03</totfact>
</mgrwt>
</event>
<event>
 5    1  0.1125356E+001  0.2752665E+03  0.7818608E-02  0.1098303E+00
          1   -1    0    0  501    0  0.00000000000E+00  0.00000000000E+00  0.48566853923E+03  0.48566853923E+03  0.00000000000E+00 0. -1.
         -1   -1    0    0    0  501 -0.00000000000E+00 -0.00000000000E+00 -0.39003790027E+02  0.39003790027E+02  0.00000000000E+00 0. -1.
         35    2    1    2    0    0  0.00000000000E+00  0.00000000000E+00  0.44666474920E+03  0.52467232925E+03  0.27526651614E+03 0.  0.
         25    1    3    3    0    0  0.67171454820E+02  0.52139198203E+01  0.21965392902E+03  0.25920462541E+03  0.12000000000E+03 0.  0.
         25    1    3    3    0    0 -0.67171454820E+02 -0.52139198203E+01  0.22701082018E+03  0.26546770384E+03  0.12000000000E+03 0.  0.
<mgrwt>
<rscale>  0 0.27526652E+03</rscale>
<asrwt>0</asrwt>
<pdfrwt beam="1">  1        1 0.74718232E-01 0.27526652E+03</pdfrwt>
<pdfrwt beam="2">  1       -1 0.60005834E-02 0.27526652E+03</pdfrwt>
<totfact> 0.62415743E+03</totfact>
</mgrwt>
</event>
<event>
 5    1  0.1125356E+001  0.2752175E+03  0.7818608E-02  0.1098330E+00
         -2   -1    0    0    0  501 -0.00000000000E+00  0.00000000000E+00  0.94954126305E+01  0.94954126305E+01  0.00000000000E+00 0.  1.
          2   -1    0    0  501    0  0.00000000000E+00 -0.00000000000E+00 -0.19942441655E+04  0.19942441655E+04  0.00000000000E+00 0.  1.
         35    2    1    2    0    0  0.00000000000E+00  0.00000000000E+00 -0.19847487529E+04  0.20037395782E+04  0.27521752297E+03 0.  0.
         25    1    3    3    0    0 -0.34951795572E+02 -0.26776398168E+02 -0.13634382163E+04  0.13694168004E+04  0.12000000000E+03 0.  0.
         25    1    3    3    0    0  0.34951795572E+02  0.26776398168E+02 -0.62131053655E+03  0.63432277772E+03  0.12000000000E+03 0.  0.
<mgrwt>
<rscale>  0 0.27521752E+03</rscale>
<asrwt>0</asrwt>
<pdfrwt beam="1">  1        2 0.30680687E+00 0.27521752E+03</pdfrwt>
<pdfrwt beam="2">  1       -2 0.14608324E-02 0.27521752E+03</pdfrwt>
<totfact> 0.91753383E+03</totfact>
</mgrwt>
</event>
<event>
 5    1  0.1125356E+001  0.2767889E+03  0.7818608E-02  0.1097456E+00
         -2   -1    0    0    0  501 -0.00000000000E+00  0.00000000000E+00  0.13894918769E+03  0.13894918769E+03  0.00000000000E+00 0. -1.
          2   -1    0    0  501    0  0.00000000000E+00 -0.00000000000E+00 -0.13784190480E+03  0.13784190480E+03  0.00000000000E+00 0. -1.
         35    2    1    2    0    0  0.00000000000E+00  0.00000000000E+00  0.11072828947E+01  0.27679109249E+03  0.27678887768E+03 0.  0.
         25    1    3    3    0    0  0.35153700700E+02  0.45751018465E+02  0.38290958905E+02  0.13854651168E+03  0.12000000000E+03 0.  0.
         25    1    3    3    0    0 -0.35153700700E+02 -0.45751018465E+02 -0.37183676010E+02  0.13824458082E+03  0.12000000000E+03 0.  0.
<mgrwt>
<rscale>  0 0.27678888E+03</rscale>
<asrwt>0</asrwt>
<pdfrwt beam="1">  1        2 0.21206447E-01 0.27678888E+03</pdfrwt>
<pdfrwt beam="2">  1       -2 0.21376798E-01 0.27678888E+03</pdfrwt>
<totfact> 0.48296124E+03</totfact>
</mgrwt>
</event>
<event>
 5    1  0.1125356E+001  0.2763966E+03  0.7818608E-02  0.1097673E+00
          2   -1    0    0  501    0  0.00000000000E+00  0.00000000000E+00  0.81635580212E+03  0.81635580212E+03  0.00000000000E+00 0.  1.
         -2   -1    0    0    0  501 -0.00000000000E+00 -0.00000000000E+00 -0.23395155876E+02  0.23395155876E+02  0.00000000000E+00 0.  1.
         35    2    1    2    0    0  0.00000000000E+00  0.00000000000E+00  0.79296064624E+03  0.83975095800E+03  0.27639660809E+03 0.  0.
         25    1    3    3    0    0 -0.46493281064E+01  0.17194661193E+02  0.19537241980E+03  0.22997316157E+03  0.12000000000E+03 0.  0.
         25    1    3    3    0    0  0.46493281064E+01 -0.17194661193E+02  0.59758822645E+03  0.60977779643E+03  0.12000000000E+03 0.  0.
<mgrwt>
<rscale>  0 0.27639661E+03</rscale>
<asrwt>0</asrwt>
<pdfrwt beam="1">  1        2 0.12559318E+00 0.27639661E+03</pdfrwt>
<pdfrwt beam="2">  1       -2 0.35992554E-02 0.27639661E+03</pdfrwt>
<totfact> 0.11104411E+04</totfact>
</mgrwt>
</event>
<event>
 5    1  0.1125356E+001  0.2755660E+03  0.7818608E-02  0.1098136E+00
          2   -1    0    0  501    0  0.00000000000E+00  0.00000000000E+00  0.97773533372E+01  0.97773533372E+01  0.00000000000E+00 0. -1.
         -2   -1    0    0    0  501 -0.00000000000E+00 -0.00000000000E+00 -0.19416455802E+04  0.19416455802E+04  0.00000000000E+00 0. -1.
         35    2    1    2    0    0  0.00000000000E+00  0.00000000000E+00 -0.19318682269E+04  0.19514229336E+04  0.27556599858E+03 0.  0.
         25    1    3    3    0    0 -0.37485255411E+02 -0.25142934764E+02 -0.13233113543E+04  0.13295075223E+04  0.12000000000E+03 0.  0.
         25    1    3    3    0    0  0.37485255411E+02  0.25142934764E+02 -0.60855687264E+03  0.62191541127E+03  0.12000000000E+03 0.  0.
<mgrwt>
<rscale>  0 0.27556600E+03</rscale>
<asrwt>0</asrwt>
<pdfrwt beam="1">  1        2 0.15042101E-02 0.27556600E+03</pdfrwt>
<pdfrwt beam="2">  1       -2 0.29871434E+00 0.27556600E+03</pdfrwt>
<totfact> 0.30316564E+02</totfact>
</mgrwt>
</event>
<event>
 5    1  0.1125356E+001  0.2749685E+03  0.7818608E-02  0.1098469E+00
          2   -1    0    0  501    0  0.00000000000E+00  0.00000000000E+00  0.63359392768E+03  0.63359392768E+03  0.00000000000E+00 0.  1.
         -2   -1    0    0    0  501 -0.00000000000E+00 -0.00000000000E+00 -0.29832862870E+02  0.29832862870E+02  0.00000000000E+00 0.  1.
         35    2    1    2    0    0  0.00000000000E+00  0.00000000000E+00  0.60376106481E+03  0.66342679055E+03  0.27496851281E+03 0.  0.
         25    1    3    3    0    0 -0.39215936117E+02  0.48199214282E+02  0.36295981768E+03  0.38729947477E+03  0.12000000000E+03 0.  0.
         25    1    3    3    0    0  0.39215936117E+02 -0.48199214282E+02  0.24080124712E+03  0.27612731578E+03  0.12000000000E+03 0.  0.
<mgrwt>
<rscale>  0 0.27496851E+03</rscale>
<asrwt>0</asrwt>
<pdfrwt beam="1">  1        2 0.97475979E-01 0.27496851E+03</pdfrwt>
<pdfrwt beam="2">  1       -2 0.45896717E-02 0.27496851E+03</pdfrwt>
<totfact> 0.10507284E+04</totfact>
</mgrwt>
</event>
<event>
 5    1  0.1125356E+001  0.2767062E+03  0.7818608E-02  0.1097502E+00
         -4   -1    0    0    0  501 -0.00000000000E+00  0.00000000000E+00  0.17655983542E+04  0.17655983542E+04  0.00000000000E+00 0.  1.
          4   -1    0    0  501    0  0.00000000000E+00 -0.00000000000E+00 -0.10841408925E+02  0.10841408925E+02  0.00000000000E+00 0.  1.
         35    2    1    2    0    0  0.00000000000E+00  0.00000000000E+00  0.17547569453E+04  0.17764397631E+04  0.27670615285E+03 0.  0.
         25    1    3    3    0    0 -0.11589278064E+00 -0.17363771707E+02  0.13051639896E+04  0.13107839462E+04  0.12000000000E+03 0.  0.
         25    1    3    3    0    0  0.11589278064E+00  0.17363771707E+02  0.44959295573E+03  0.46565581693E+03  0.12000000000E+03 0.  0.
<mgrwt>
<rscale>  0 0.27670615E+03</rscale>
<asrwt>0</asrwt>
<pdfrwt beam="1">  1        4 0.16679105E-02 0.27670615E+03</pdfrwt>
<pdfrwt beam="2">  1       -4 0.27163029E+00 0.27670615E+03</pdfrwt>
<totfact> 0.13413787E+02</totfact>
</mgrwt>
</event>
<event>
 5    1  0.1125356E+001  0.2747177E+03  0.7818608E-02  0.1098609E+00
          1   -1    0    0  501    0  0.00000000000E+00  0.00000000000E+00  0.12067591109E+03  0.12067591109E+03  0.00000000000E+00 0. -1.
         -1   -1    0    0    0  501 -0.00000000000E+00 -0.00000000000E+00 -0.15634815918E+03  0.15634815918E+03  0.00000000000E+00 0. -1.
         35    2    1    2    0    0  0.00000000000E+00  0.00000000000E+00 -0.35672248093E+02  0.27702407027E+03  0.27471772099E+03 0.  0.
         25    1    3    3    0    0  0.13861872844E+02  0.46370048399E+02  0.28649956795E+02  0.13252604624E+03  0.12000000000E+03 0.  0.
         25    1    3    3    0    0 -0.13861872844E+02 -0.46370048399E+02 -0.64322204888E+02  0.14449802403E+03  0.12000000000E+03 0.  0.
<mgrwt>
<rscale>  0 0.27471772E+03</rscale>
<asrwt>0</asrwt>
<pdfrwt beam="1">  1        1 0.18565525E-01 0.27471772E+03</pdfrwt>
<pdfrwt beam="2">  1       -1 0.24053563E-01 0.27471772E+03</pdfrwt>
<totfact> 0.41546751E+03</totfact>
</mgrwt>
</event>
<event>
 5    1  0.1125356E+001  0.2725091E+03  0.7818608E-02  0.1099852E+00
         -2   -1    0    0    0  501 -0.00000000000E+00  0.00000000000E+00  0.28056881185E+02  0.28056881185E+02  0.00000000000E+00 0.  1.
          2   -1    0    0  501    0  0.00000000000E+00 -0.00000000000E+00 -0.66170233625E+03  0.66170233625E+03  0.00000000000E+00 0.  1.
         35    2    1    2    0    0  0.00000000000E+00  0.00000000000E+00 -0.63364545507E+03  0.68975921744E+03  0.27250911051E+03 0.  0.
         25    1    3    3    0    0 -0.17295070018E+02  0.62178030672E+02 -0.31752455590E+03  0.34552434147E+03  0.12000000000E+03 0.  0.
         25    1    3    3    0    0  0.17295070018E+02 -0.62178030672E+02 -0.31612089917E+03  0.34423487597E+03  0.12000000000E+03 0.  0.
<mgrwt>
<rscale>  0 0.27250911E+03</rscale>
<asrwt>0</asrwt>
<pdfrwt beam="1">  1        2 0.10180036E+00 0.27250911E+03</pdfrwt>
<pdfrwt beam="2">  1       -2 0.43164433E-02 0.27250911E+03</pdfrwt>
<totfact> 0.10946730E+04</totfact>
</mgrwt>
</event>
<event>
 5    1  0.1125356E+001  0.2754517E+03  0.7818608E-02  0.1098199E+00
          1   -1    0    0  501    0  0.00000000000E+00  0.00000000000E+00  0.19319560941E+02  0.19319560941E+02  0.00000000000E+00 0.  1.
         -1   -1    0    0    0  501 -0.00000000000E+00 -0.00000000000E+00 -0.98182418798E+03  0.98182418798E+03  0.00000000000E+00 0.  1.
         35    2    1    2    0    0  0.00000000000E+00  0.00000000000E+00 -0.96250462704E+03  0.10011437489E+04  0.27545171797E+03 0.  0.
         25    1    3    3    0    0  0.12130069478E+02 -0.16893032457E+02 -0.71499386494E+03  0.72529217563E+03  0.12000000000E+03 0.  0.
         25    1    3    3    0    0 -0.12130069478E+02  0.16893032457E+02 -0.24751076211E+03  0.27585157330E+03  0.12000000000E+03 0.  0.
<mgrwt>
<rscale>  0 0.27545172E+03</rscale>
<asrwt>0</asrwt>
<pdfrwt beam="1">  1        1 0.29722402E-02 0.27545172E+03</pdfrwt>
<pdfrwt beam="2">  1       -1 0.15104987E+00 0.27545172E+03</pdfrwt>
<totfact> 0.12815329E+03</totfact>
</mgrwt>
</event>
<event>
 5    1  0.1125356E+001  0.2750616E+03  0.7818608E-02  0.1098417E+00
          2   -1    0    0  501    0  0.00000000000E+00  0.00000000000E+00  0.81231202741E+03  0.81231202741E+03  0.00000000000E+00 0.  1.
         -2   -1    0    0    0  501 -0.00000000000E+00 -0.00000000000E+00 -0.23285043645E+02  0.23285043645E+02  0.00000000000E+00 0.  1.
         35    2    1    2    0    0  0.00000000000E+00  0.00000000000E+00  0.78902698376E+03  0.83559707105E+03  0.27506160046E+03 0.  0.
         25    1    3    3    0    0  0.37636044490E+02  0.53184512291E+02  0.34462818514E+03  0.37069347200E+03  0.12000000000E+03 0.  0.
         25    1    3    3    0    0 -0.37636044490E+02 -0.53184512291E+02  0.44439879862E+03  0.46490359905E+03  0.12000000000E+03 0.  0.
<mgrwt>
<rscale>  0 0.27506160E+03</rscale>
<asrwt>0</asrwt>
<pdfrwt beam="1">  1        2 0.12497106E+00 0.27506160E+03</pdfrwt>
<pdfrwt beam="2">  1       -2 0.35823150E-02 0.27506160E+03</pdfrwt>
<totfact> 0.11252701E+04</totfact>
</mgrwt>
</event>
<event>
 5    1  0.1125356E+001  0.2782496E+03  0.7818608E-02  0.1096649E+00
          2   -1    0    0  501    0  0.00000000000E+00  0.00000000000E+00  0.41160052830E+03  0.41160052830E+03  0.00000000000E+00 0.  1.
         -2   -1    0    0    0  501 -0.00000000000E+00 -0.00000000000E+00 -0.47025472518E+02  0.47025472518E+02  0.00000000000E+00 0.  1.
         35    2    1    2    0    0  0.00000000000E+00  0.00000000000E+00  0.36457505578E+03  0.45862600082E+03  0.27824959538E+03 0.  0.
         25    1    3    3    0    0  0.37864935344E+02  0.51214949354E+02  0.23170725530E+03  0.26859816925E+03  0.12000000000E+03 0.  0.
         25    1    3    3    0    0 -0.37864935344E+02 -0.51214949354E+02  0.13286780048E+03  0.19002783157E+03  0.12000000000E+03 0.  0.
<mgrwt>
<rscale>  0 0.27824960E+03</rscale>
<asrwt>0</asrwt>
<pdfrwt beam="1">  1        2 0.63323156E-01 0.27824960E+03</pdfrwt>
<pdfrwt beam="2">  1       -2 0.72346884E-02 0.27824960E+03</pdfrwt>
<totfact> 0.85121425E+03</totfact>
</mgrwt>
</event>
<event>
 5    1  0.1125356E+001  0.2744900E+03  0.7818608E-02  0.1098737E+00
         -2   -1    0    0    0  501 -0.00000000000E+00  0.00000000000E+00  0.10183952516E+04  0.10183952516E+04  0.00000000000E+00 0.  1.
          2   -1    0    0  501    0  0.00000000000E+00 -0.00000000000E+00 -0.18495947917E+02  0.18495947917E+02  0.00000000000E+00 0.  1.
         35    2    1    2    0    0  0.00000000000E+00  0.00000000000E+00  0.99989930368E+03  0.10368911995E+04  0.27448996727E+03 0.  0.
         25    1    3    3    0    0  0.32564026257E+02 -0.54805994787E+02  0.57281492442E+03  0.58871134736E+03  0.12000000000E+03 0.  0.
         25    1    3    3    0    0 -0.32564026257E+02  0.54805994787E+02  0.42708437926E+03  0.44817985215E+03  0.12000000000E+03 0.  0.
<mgrwt>
<rscale>  0 0.27448997E+03</rscale>
<asrwt>0</asrwt>
<pdfrwt beam="1">  1        2 0.28455312E-02 0.27448997E+03</pdfrwt>
<pdfrwt beam="2">  1       -2 0.15667615E+00 0.27448997E+03</pdfrwt>
<totfact> 0.95347490E+02</totfact>
</mgrwt>
</event>
<event>
 5    1  0.1125356E+001  0.2679139E+03  0.7818608E-02  0.1102480E+00
          3   -1    0    0  501    0  0.00000000000E+00  0.00000000000E+00  0.56838554535E+03  0.56838554535E+03  0.00000000000E+00 0. -1.
         -3   -1    0    0    0  501 -0.00000000000E+00 -0.00000000000E+00 -0.31570932008E+02  0.31570932008E+02  0.00000000000E+00 0. -1.
         35    2    1    2    0    0  0.00000000000E+00  0.00000000000E+00  0.53681461334E+03  0.59995647736E+03  0.26791387725E+03 0.  0.
         25    1    3    3    0    0  0.38514151203E+02  0.27445434567E+02  0.34939271452E+03  0.37244041225E+03  0.12000000000E+03 0.  0.
         25    1    3    3    0    0 -0.38514151203E+02 -0.27445434567E+02  0.18742189882E+03  0.22751606510E+03  0.12000000000E+03 0.  0.
<mgrwt>
<rscale>  0 0.26791388E+03</rscale>
<asrwt>0</asrwt>
<pdfrwt beam="1">  1        3 0.87443922E-01 0.26791388E+03</pdfrwt>
<pdfrwt beam="2">  1       -3 0.48570669E-02 0.26791388E+03</pdfrwt>
<totfact> 0.74195211E+02</totfact>
</mgrwt>
</event>
<event>
 5    1  0.1125356E+001  0.2749305E+03  0.7818608E-02  0.1098490E+00
          1   -1    0    0  501    0  0.00000000000E+00  0.00000000000E+00  0.62677955114E+02  0.62677955114E+02  0.00000000000E+00 0. -1.
         -1   -1    0    0    0  501 -0.00000000000E+00 -0.00000000000E+00 -0.30148874271E+03  0.30148874271E+03  0.00000000000E+00 0. -1.
         35    2    1    2    0    0  0.00000000000E+00  0.00000000000E+00 -0.23881078760E+03  0.36416669782E+03  0.27493052128E+03 0.  0.
         25    1    3    3    0    0  0.47072692415E+02 -0.16127217774E+02 -0.59861673091E+02  0.14303616826E+03  0.12000000000E+03 0.  0.
         25    1    3    3    0    0 -0.47072692415E+02  0.16127217774E+02 -0.17894911450E+03  0.22113052957E+03  0.12000000000E+03 0.  0.
<mgrwt>
<rscale>  0 0.27493052E+03</rscale>
<asrwt>0</asrwt>
<pdfrwt beam="1">  1        1 0.96427626E-02 0.27493052E+03</pdfrwt>
<pdfrwt beam="2">  1       -1 0.46382882E-01 0.27493052E+03</pdfrwt>
<totfact> 0.31689423E+03</totfact>
</mgrwt>
</event>
<event>
 5    1  0.1125356E+001  0.2760339E+03  0.7818608E-02  0.1097875E+00
          2   -1    0    0  501    0  0.00000000000E+00  0.00000000000E+00  0.27701671546E+02  0.27701671546E+02  0.00000000000E+00 0.  1.
         -2   -1    0    0    0  501 -0.00000000000E+00 -0.00000000000E+00 -0.68763647697E+03  0.68763647697E+03  0.00000000000E+00 0.  1.
         35    2    1    2    0    0  0.00000000000E+00  0.00000000000E+00 -0.65993480543E+03  0.71533814852E+03  0.27603390972E+03 0.  0.
         25    1    3    3    0    0  0.24930513686E+02 -0.19539730952E+02 -0.48643285517E+03  0.50201618917E+03  0.12000000000E+03 0.  0.
         25    1    3    3    0    0 -0.24930513686E+02  0.19539730952E+02 -0.17350195025E+03  0.21332195935E+03  0.12000000000E+03 0.  0.
<mgrwt>
<rscale>  0 0.27603391E+03</rscale>
<asrwt>0</asrwt>
<pdfrwt beam="1">  1        2 0.42617956E-02 0.27603391E+03</pdfrwt>
<pdfrwt beam="2">  1       -2 0.10579023E+00 0.27603391E+03</pdfrwt>
<totfact> 0.14613786E+03</totfact>
</mgrwt>
</event>
<event>
 4    1  0.1125356E+001  0.2557631E+03  0.7818608E-02  0.1109716E+00
         -2   -1    0    0    0  501 -0.00000000000E+00  0.00000000000E+00  0.11431175297E+03  0.11431175297E+03  0.00000000000E+00 0. -1.
          2   -1    0    0  501    0  0.00000000000E+00 -0.00000000000E+00 -0.14306225457E+03  0.14306225457E+03  0.00000000000E+00 0. -1.
         25    1    1    2    0    0  0.21773554339E+01 -0.43864702268E+02 -0.93594700068E+01  0.12812670549E+03  0.12000000000E+03 0.  0.
         25    1    1    2    0    0 -0.21773554339E+01  0.43864702268E+02 -0.19391031590E+02  0.12924730205E+03  0.12000000000E+03 0.  0.
<mgrwt>
<rscale>  0 0.25576315E+03</rscale>
<asrwt>0</asrwt>
<pdfrwt beam="1">  1        2 0.22009577E-01 0.25576315E+03</pdfrwt>
<pdfrwt beam="2">  1       -2 0.17586424E-01 0.25576315E+03</pdfrwt>
<totfact> 0.64364784E+03</totfact>
</mgrwt>
</event>
<event>
 5    1  0.1125356E+001  0.2726061E+03  0.7818608E-02  0.1099797E+00
         -2   -1    0    0    0  501 -0.00000000000E+00  0.00000000000E+00  0.48160399070E+01  0.48160399070E+01  0.00000000000E+00 0. -1.
          2   -1    0    0  501    0  0.00000000000E+00 -0.00000000000E+00 -0.38576348166E+04  0.38576348166E+04  0.00000000000E+00 0. -1.
         35    2    1    2    0    0  0.00000000000E+00  0.00000000000E+00 -0.38528187767E+04  0.38624508565E+04  0.27260611309E+03 0.  0.
         25    1    3    3    0    0  0.37860180685E+02 -0.28604223995E+02 -0.13044526819E+04  0.13108197413E+04  0.12000000000E+03 0.  0.
         25    1    3    3    0    0 -0.37860180685E+02  0.28604223995E+02 -0.25483660948E+04  0.25516311152E+04  0.12000000000E+03 0.  0.
<mgrwt>
<rscale>  0 0.27260611E+03</rscale>
<asrwt>0</asrwt>
<pdfrwt beam="1">  1        2 0.59348347E+00 0.27260611E+03</pdfrwt>
<pdfrwt beam="2">  1       -2 0.74092773E-03 0.27260611E+03</pdfrwt>
<totfact> 0.18839826E+03</totfact>
</mgrwt>
</event>
<event>
 5    1  0.1125356E+001  0.2751717E+03  0.7818608E-02  0.1098356E+00
          2   -1    0    0  501    0  0.00000000000E+00  0.00000000000E+00  0.18842867034E+04  0.18842867034E+04  0.00000000000E+00 0. -1.
         -2   -1    0    0    0  501 -0.00000000000E+00 -0.00000000000E+00 -0.10046173097E+02  0.10046173097E+02  0.00000000000E+00 0. -1.
         35    2    1    2    0    0  0.00000000000E+00  0.00000000000E+00  0.18742405303E+04  0.18943328765E+04  0.27517173101E+03 0.  0.
         25    1    3    3    0    0 -0.62025107279E+02 -0.24021137907E+02  0.10079107659E+04  0.10172060956E+04  0.12000000000E+03 0.  0.
         25    1    3    3    0    0  0.62025107279E+02  0.24021137907E+02  0.86632976447E+03  0.87712678092E+03  0.12000000000E+03 0.  0.
<mgrwt>
<rscale>  0 0.27517173E+03</rscale>
<asrwt>0</asrwt>
<pdfrwt beam="1">  1        2 0.28988998E+00 0.27517173E+03</pdfrwt>
<pdfrwt beam="2">  1       -2 0.15455666E-02 0.27517173E+03</pdfrwt>
<totfact> 0.96508330E+03</totfact>
</mgrwt>
</event>
<event>
 5    1  0.1125356E+001  0.2749207E+03  0.7818608E-02  0.1098496E+00
          2   -1    0    0  501    0  0.00000000000E+00  0.00000000000E+00  0.79863045200E+03  0.79863045200E+03  0.00000000000E+00 0. -1.
         -2   -1    0    0    0  501 -0.00000000000E+00 -0.00000000000E+00 -0.23659682133E+02  0.23659682133E+02  0.00000000000E+00 0. -1.
         35    2    1    2    0    0  0.00000000000E+00  0.00000000000E+00  0.77497076987E+03  0.82229013413E+03  0.27492066227E+03 0.  0.
         25    1    3    3    0    0  0.60050182142E+02  0.23815617907E+02  0.44116833680E+03  0.46173878917E+03  0.12000000000E+03 0.  0.
         25    1    3    3    0    0 -0.60050182142E+02 -0.23815617907E+02  0.33380243307E+03  0.36055134496E+03  0.12000000000E+03 0.  0.
<mgrwt>
<rscale>  0 0.27492066E+03</rscale>
<asrwt>0</asrwt>
<pdfrwt beam="1">  1        2 0.12286620E+00 0.27492066E+03</pdfrwt>
<pdfrwt beam="2">  1       -2 0.36399517E-02 0.27492066E+03</pdfrwt>
<totfact> 0.11227424E+04</totfact>
</mgrwt>
</event>
<event>
 5    1  0.1125356E+001  0.2753019E+03  0.7818608E-02  0.1098283E+00
          3   -1    0    0  501    0  0.00000000000E+00  0.00000000000E+00  0.98619136774E+01  0.98619136774E+01  0.00000000000E+00 0. -1.
         -3   -1    0    0    0  501 -0.00000000000E+00 -0.00000000000E+00 -0.19213091897E+04  0.19213091897E+04  0.00000000000E+00 0. -1.
         35    2    1    2    0    0  0.00000000000E+00  0.00000000000E+00 -0.19114472760E+04  0.19311711033E+04  0.27530190974E+03 0.  0.
         25    1    3    3    0    0 -0.41060968812E+02 -0.25743779547E+02 -0.62677499594E+03  0.63999659443E+03  0.12000000000E+03 0.  0.
         25    1    3    3    0    0  0.41060968812E+02  0.25743779547E+02 -0.12846722800E+04  0.12911745089E+04  0.12000000000E+03 0.  0.
<mgrwt>
<rscale>  0 0.27530191E+03</rscale>
<asrwt>0</asrwt>
<pdfrwt beam="1">  1        3 0.15172206E-02 0.27530191E+03</pdfrwt>
<pdfrwt beam="2">  1       -3 0.29558543E+00 0.27530191E+03</pdfrwt>
<totfact> 0.17031887E+02</totfact>
</mgrwt>
</event>
<event>
 5    1  0.1125356E+001  0.2743838E+03  0.7818608E-02  0.1098797E+00
         -1   -1    0    0    0  501 -0.00000000000E+00  0.00000000000E+00  0.54462592943E+02  0.54462592943E+02  0.00000000000E+00 0. -1.
          1   -1    0    0  501    0  0.00000000000E+00 -0.00000000000E+00 -0.34558801408E+03  0.34558801408E+03  0.00000000000E+00 0. -1.
         35    2    1    2    0    0  0.00000000000E+00  0.00000000000E+00 -0.29112542114E+03  0.40005060703E+03  0.27438381393E+03 0.  0.
         25    1    3    3    0    0 -0.22732980689E+02  0.50465475592E+02 -0.91832691424E+02  0.16092481428E+03  0.12000000000E+03 0.  0.
         25    1    3    3    0    0  0.22732980689E+02 -0.50465475592E+02 -0.19929272972E+03  0.23912579274E+03  0.12000000000E+03 0.  0.
<mgrwt>
<rscale>  0 0.27438381E+03</rscale>
<asrwt>0</asrwt>
<pdfrwt beam="1">  1        1 0.53167386E-01 0.27438381E+03</pdfrwt>
<pdfrwt beam="2">  1       -1 0.83788606E-02 0.27438381E+03</pdfrwt>
<totfact> 0.58274484E+03</totfact>
</mgrwt>
</event>
<event>
 5    1  0.1125356E+001  0.2742864E+03  0.7818608E-02  0.1098851E+00
         -1   -1    0    0    0  501 -0.00000000000E+00  0.00000000000E+00  0.58801702808E+02  0.58801702808E+02  0.00000000000E+00 0. -1.
          1   -1    0    0  501    0  0.00000000000E+00 -0.00000000000E+00 -0.31985905236E+03  0.31985905236E+03  0.00000000000E+00 0. -1.
         35    2    1    2    0    0  0.00000000000E+00  0.00000000000E+00 -0.26105734955E+03  0.37866075517E+03  0.27428639731E+03 0.  0.
         25    1    3    3    0    0 -0.55138560607E+01  0.64928254463E+01 -0.22143110957E+03  0.25200058666E+03  0.12000000000E+03 0.  0.
         25    1    3    3    0    0  0.55138560607E+01 -0.64928254463E+01 -0.39626239977E+02  0.12666016850E+03  0.12000000000E+03 0.  0.
<mgrwt>
<rscale>  0 0.27428640E+03</rscale>
<asrwt>0</asrwt>
<pdfrwt beam="1">  1        1 0.49209085E-01 0.27428640E+03</pdfrwt>
<pdfrwt beam="2">  1       -1 0.90464159E-02 0.27428640E+03</pdfrwt>
<totfact> 0.57131351E+03</totfact>
</mgrwt>
</event>
<event>
 5    1  0.1125356E+001  0.2783288E+03  0.7818608E-02  0.1096605E+00
         -2   -1    0    0    0  501 -0.00000000000E+00  0.00000000000E+00  0.13727804708E+02  0.13727804708E+02  0.00000000000E+00 0.  1.
          2   -1    0    0  501    0  0.00000000000E+00 -0.00000000000E+00 -0.14107665970E+04  0.14107665970E+04  0.00000000000E+00 0.  1.
         35    2    1    2    0    0  0.00000000000E+00  0.00000000000E+00 -0.13970387923E+04  0.14244944017E+04  0.27832878638E+03 0.  0.
         25    1    3    3    0    0  0.19959314091E+02  0.57440555414E+02 -0.88083447979E+03  0.89104835582E+03  0.12000000000E+03 0.  0.
         25    1    3    3    0    0 -0.19959314091E+02 -0.57440555414E+02 -0.51620431248E+03  0.53344604586E+03  0.12000000000E+03 0.  0.
<mgrwt>
<rscale>  0 0.27832879E+03</rscale>
<asrwt>0</asrwt>
<pdfrwt beam="1">  1        2 0.21704092E+00 0.27832879E+03</pdfrwt>
<pdfrwt beam="2">  1       -2 0.21119708E-02 0.27832879E+03</pdfrwt>
<totfact> 0.10877326E+04</totfact>
</mgrwt>
</event>
<event>
 5    1  0.1125356E+001  0.2749941E+03  0.7818608E-02  0.1098455E+00
         -2   -1    0    0    0  501 -0.00000000000E+00  0.00000000000E+00  0.20076478047E+02  0.20076478047E+02  0.00000000000E+00 0.  1.
          2   -1    0    0  501    0  0.00000000000E+00 -0.00000000000E+00 -0.94167132312E+03  0.94167132312E+03  0.00000000000E+00 0.  1.
         35    2    1    2    0    0  0.00000000000E+00  0.00000000000E+00 -0.92159484507E+03  0.96174780117E+03  0.27499413554E+03 0.  0.
         25    1    3    3    0    0  0.21316967918E+01 -0.33323733386E+02 -0.66443834352E+03  0.67601281621E+03  0.12000000000E+03 0.  0.
         25    1    3    3    0    0 -0.21316967918E+01  0.33323733386E+02 -0.25715650155E+03  0.28573498496E+03  0.12000000000E+03 0.  0.
<mgrwt>
<rscale>  0 0.27499414E+03</rscale>
<asrwt>0</asrwt>
<pdfrwt beam="1">  1        2 0.14487256E+00 0.27499414E+03</pdfrwt>
<pdfrwt beam="2">  1       -2 0.30886878E-02 0.27499414E+03</pdfrwt>
<totfact> 0.11549462E+04</totfact>
</mgrwt>
</event>
<event>
 5    1  0.1125356E+001  0.2756018E+03  0.7818608E-02  0.1098116E+00
          2   -1    0    0  501    0  0.00000000000E+00  0.00000000000E+00  0.24241683948E+03  0.24241683948E+03  0.00000000000E+00 0.  1.
         -2   -1    0    0    0  501 -0.00000000000E+00 -0.00000000000E+00 -0.78332362752E+02  0.78332362752E+02  0.00000000000E+00 0.  1.
         35    2    1    2    0    0  0.00000000000E+00  0.00000000000E+00  0.16408447673E+03  0.32074920223E+03  0.27560176928E+03 0.  0.
         25    1    3    3    0    0  0.58554631773E+01 -0.66946997588E+02  0.91978843493E+02  0.16545783325E+03  0.12000000000E+03 0.  0.
         25    1    3    3    0    0 -0.58554631773E+01  0.66946997588E+02  0.72105633237E+02  0.15529136898E+03  0.12000000000E+03 0.  0.
<mgrwt>
<rscale>  0 0.27560177E+03</rscale>
<asrwt>0</asrwt>
<pdfrwt beam="1">  1        2 0.37294898E-01 0.27560177E+03</pdfrwt>
<pdfrwt beam="2">  1       -2 0.12051133E-01 0.27560177E+03</pdfrwt>
<totfact> 0.67221813E+03</totfact>
</mgrwt>
</event>
<event>
 5    1  0.1125356E+001  0.2751369E+03  0.7818608E-02  0.1098375E+00
         -1   -1    0    0    0  501 -0.00000000000E+00  0.00000000000E+00  0.19100911897E+03  0.19100911897E+03  0.00000000000E+00 0.  1.
          1   -1    0    0  501    0  0.00000000000E+00 -0.00000000000E+00 -0.99079436331E+02  0.99079436331E+02  0.00000000000E+00 0.  1.
         35    2    1    2    0    0  0.00000000000E+00  0.00000000000E+00  0.91929682637E+02  0.29008855530E+03  0.27513688114E+03 0.  0.
         25    1    3    3    0    0 -0.42121300943E+02  0.18334696015E+02  0.97774931092E+02  0.16146300574E+03  0.12000000000E+03 0.  0.
         25    1    3    3    0    0  0.42121300943E+02 -0.18334696015E+02 -0.58452484555E+01  0.12862554956E+03  0.12000000000E+03 0.  0.
<mgrwt>
<rscale>  0 0.27513688E+03</rscale>
<asrwt>0</asrwt>
<pdfrwt beam="1">  1        1 0.15242990E-01 0.27513688E+03</pdfrwt>
<pdfrwt beam="2">  1       -1 0.29386018E-01 0.27513688E+03</pdfrwt>
<totfact> 0.38406480E+03</totfact>
</mgrwt>
</event>
<event>
 5    1  0.1125356E+001  0.2750235E+03  0.7818608E-02  0.1098438E+00
          2   -1    0    0  501    0  0.00000000000E+00  0.00000000000E+00  0.13589285099E+04  0.13589285099E+04  0.00000000000E+00 0.  1.
         -2   -1    0    0    0  501 -0.00000000000E+00 -0.00000000000E+00 -0.13914988964E+02  0.13914988964E+02  0.00000000000E+00 0.  1.
         35    2    1    2    0    0  0.00000000000E+00  0.00000000000E+00  0.13450135210E+04  0.13728434989E+04  0.27502345513E+03 0.  0.
         25    1    3    3    0    0 -0.24818630883E+02 -0.26031794932E+02  0.95558052701E+03  0.96375710757E+03  0.12000000000E+03 0.  0.
         25    1    3    3    0    0  0.24818630883E+02  0.26031794932E+02  0.38943299394E+03  0.40908639131E+03  0.12000000000E+03 0.  0.
<mgrwt>
<rscale>  0 0.27502346E+03</rscale>
<asrwt>0</asrwt>
<pdfrwt beam="1">  1        2 0.20906582E+00 0.27502346E+03</pdfrwt>
<pdfrwt beam="2">  1       -2 0.21407686E-02 0.27502346E+03</pdfrwt>
<totfact> 0.11375420E+04</totfact>
</mgrwt>
</event>
<event>
 5    1  0.1125356E+001  0.2757609E+03  0.7818608E-02  0.1098027E+00
         -1   -1    0    0    0  501 -0.00000000000E+00  0.00000000000E+00  0.31558731344E+02  0.31558731344E+02  0.00000000000E+00 0. -1.
          1   -1    0    0  501    0  0.00000000000E+00 -0.00000000000E+00 -0.60240109057E+03  0.60240109057E+03  0.00000000000E+00 0. -1.
         35    2    1    2    0    0  0.00000000000E+00  0.00000000000E+00 -0.57084235922E+03  0.63395982191E+03  0.27576086871E+03 0.  0.
         25    1    3    3    0    0 -0.30677565532E+02  0.16070416293E+02 -0.41970103900E+03  0.43789077799E+03  0.12000000000E+03 0.  0.
         25    1    3    3    0    0  0.30677565532E+02 -0.16070416293E+02 -0.15114132022E+03  0.19606904392E+03  0.12000000000E+03 0.  0.
<mgrwt>
<rscale>  0 0.27576087E+03</rscale>
<asrwt>0</asrwt>
<pdfrwt beam="1">  1        1 0.92677084E-01 0.27576087E+03</pdfrwt>
<pdfrwt beam="2">  1       -1 0.48551898E-02 0.27576087E+03</pdfrwt>
<totfact> 0.64109787E+03</totfact>
</mgrwt>
</event>
<event>
 5    1  0.1125356E+001  0.2752300E+03  0.7818608E-02  0.1098323E+00
         -2   -1    0    0    0  501 -0.00000000000E+00  0.00000000000E+00  0.88088881543E+03  0.88088881543E+03  0.00000000000E+00 0.  1.
          2   -1    0    0  501    0  0.00000000000E+00 -0.00000000000E+00 -0.21498618738E+02  0.21498618738E+02  0.00000000000E+00 0.  1.
         35    2    1    2    0    0  0.00000000000E+00  0.00000000000E+00  0.85939019669E+03  0.90238743417E+03  0.27523003320E+03 0.  0.
         25    1    3    3    0    0 -0.39412932137E+02 -0.34097240155E+01  0.25092847231E+03  0.28094501892E+03  0.12000000000E+03 0.  0.
         25    1    3    3    0    0  0.39412932137E+02  0.34097240155E+01  0.60846172438E+03  0.62144241525E+03  0.12000000000E+03 0.  0.
<mgrwt>
<rscale>  0 0.27523003E+03</rscale>
<asrwt>0</asrwt>
<pdfrwt beam="1">  1        2 0.33074805E-02 0.27523003E+03</pdfrwt>
<pdfrwt beam="2">  1       -2 0.13552133E+00 0.27523003E+03</pdfrwt>
<totfact> 0.11271928E+03</totfact>
</mgrwt>
</event>
<event>
 5    1  0.1125356E+001  0.2742462E+03  0.7818608E-02  0.1098874E+00
         -4   -1    0    0    0  501 -0.00000000000E+00  0.00000000000E+00  0.99380601947E+02  0.99380601947E+02  0.00000000000E+00 0. -1.
          4   -1    0    0  501    0  0.00000000000E+00 -0.00000000000E+00 -0.18919937680E+03  0.18919937680E+03  0.00000000000E+00 0. -1.
         35    2    1    2    0    0  0.00000000000E+00  0.00000000000E+00 -0.89818774857E+02  0.28857997875E+03  0.27424622480E+03 0.  0.
         25    1    3    3    0    0 -0.36308855741E+02  0.25108844215E+02 -0.97035982524E+02  0.16051407716E+03  0.12000000000E+03 0.  0.
         25    1    3    3    0    0  0.36308855741E+02 -0.25108844215E+02  0.72172076666E+01  0.12806590159E+03  0.12000000000E+03 0.  0.
<mgrwt>
<rscale>  0 0.27424622E+03</rscale>
<asrwt>0</asrwt>
<pdfrwt beam="1">  1        4 0.29107596E-01 0.27424622E+03</pdfrwt>
<pdfrwt beam="2">  1       -4 0.15289324E-01 0.27424622E+03</pdfrwt>
<totfact> 0.76934511E+02</totfact>
</mgrwt>
</event>
<event>
 5    1  0.1125356E+001  0.2757479E+03  0.7818608E-02  0.1098034E+00
          2   -1    0    0  501    0  0.00000000000E+00  0.00000000000E+00  0.54149234028E+03  0.54149234028E+03  0.00000000000E+00 0. -1.
         -2   -1    0    0    0  501 -0.00000000000E+00 -0.00000000000E+00 -0.35105254609E+02  0.35105254609E+02  0.00000000000E+00 0. -1.
         35    2    1    2    0    0  0.00000000000E+00  0.00000000000E+00  0.50638708567E+03  0.57659759489E+03  0.27574790280E+03 0.  0.
         25    1    3    3    0    0 -0.38807169973E+02 -0.52108373378E+02  0.29437930081E+03  0.32446949280E+03  0.12000000000E+03 0.  0.
         25    1    3    3    0    0  0.38807169973E+02  0.52108373378E+02  0.21200778486E+03  0.25212810208E+03  0.12000000000E+03 0.  0.
<mgrwt>
<rscale>  0 0.27574790E+03</rscale>
<asrwt>0</asrwt>
<pdfrwt beam="1">  1        2 0.83306508E-01 0.27574790E+03</pdfrwt>
<pdfrwt beam="2">  1       -2 0.54008088E-02 0.27574790E+03</pdfrwt>
<totfact> 0.98393574E+03</totfact>
</mgrwt>
</event>
<event>
 5    1  0.1125356E+001  0.2743087E+03  0.7818608E-02  0.1098839E+00
         -2   -1    0    0    0  501 -0.00000000000E+00  0.00000000000E+00  0.64794516928E+02  0.64794516928E+02  0.00000000000E+00 0. -1.
          2   -1    0    0  501    0  0.00000000000E+00 -0.00000000000E+00 -0.29032254245E+03  0.29032254245E+03  0.00000000000E+00 0. -1.
         35    2    1    2    0    0  0.00000000000E+00  0.00000000000E+00 -0.22552802552E+03  0.35511705938E+03  0.27430865018E+03 0.  0.
         25    1    3    3    0    0 -0.38962040182E+01  0.65891300892E+02 -0.10320989485E+03  0.17149089286E+03  0.12000000000E+03 0.  0.
         25    1    3    3    0    0  0.38962040182E+01 -0.65891300892E+02 -0.12231813067E+03  0.18362616652E+03  0.12000000000E+03 0.  0.
<mgrwt>
<rscale>  0 0.27430865E+03</rscale>
<asrwt>0</asrwt>
<pdfrwt beam="1">  1        2 0.44665006E-01 0.27430865E+03</pdfrwt>
<pdfrwt beam="2">  1       -2 0.99683872E-02 0.27430865E+03</pdfrwt>
<totfact> 0.74992221E+03</totfact>
</mgrwt>
</event>
<event>
 5    1  0.1125356E+001  0.2763998E+03  0.7818608E-02  0.1097672E+00
         -2   -1    0    0    0  501 -0.00000000000E+00  0.00000000000E+00  0.88965337411E+02  0.88965337411E+02  0.00000000000E+00 0. -1.
          2   -1    0    0  501    0  0.00000000000E+00 -0.00000000000E+00 -0.21468154823E+03  0.21468154823E+03  0.00000000000E+00 0. -1.
         35    2    1    2    0    0  0.00000000000E+00  0.00000000000E+00 -0.12571621082E+03  0.30364688564E+03  0.27639982905E+03 0.  0.
         25    1    3    3    0    0 -0.54623119208E+02 -0.41330606238E+02 -0.65828782191E+02  0.15305336562E+03  0.12000000000E+03 0.  0.
         25    1    3    3    0    0  0.54623119208E+02  0.41330606238E+02 -0.59887428632E+02  0.15059352002E+03  0.12000000000E+03 0.  0.
<mgrwt>
<rscale>  0 0.27639983E+03</rscale>
<asrwt>0</asrwt>
<pdfrwt beam="1">  1        2 0.33027930E-01 0.27639983E+03</pdfrwt>
<pdfrwt beam="2">  1       -2 0.13686975E-01 0.27639983E+03</pdfrwt>
<totfact> 0.62371775E+03</totfact>
</mgrwt>
</event>
<event>
 5    1  0.1125356E+001  0.2770335E+03  0.7818608E-02  0.1097320E+00
          1   -1    0    0  501    0  0.00000000000E+00  0.00000000000E+00  0.10500134498E+03  0.10500134498E+03  0.00000000000E+00 0.  1.
         -1   -1    0    0    0  501 -0.00000000000E+00 -0.00000000000E+00 -0.18272997199E+03  0.18272997199E+03  0.00000000000E+00 0.  1.
         35    2    1    2    0    0  0.00000000000E+00  0.00000000000E+00 -0.77728627004E+02  0.28773131697E+03  0.27703352019E+03 0.  0.
         25    1    3    3    0    0  0.31144154956E+02 -0.59838647100E+02 -0.54828977987E+02  0.14817840228E+03  0.12000000000E+03 0.  0.
         25    1    3    3    0    0 -0.31144154956E+02  0.59838647100E+02 -0.22899649017E+02  0.13955291469E+03  0.12000000000E+03 0.  0.
<mgrwt>
<rscale>  0 0.27703352E+03</rscale>
<asrwt>0</asrwt>
<pdfrwt beam="1">  1        1 0.16154053E-01 0.27703352E+03</pdfrwt>
<pdfrwt beam="2">  1       -1 0.28112303E-01 0.27703352E+03</pdfrwt>
<totfact> 0.38376198E+03</totfact>
</mgrwt>
</event>
<event>
 5    1  0.1125356E+001  0.2752754E+03  0.7818608E-02  0.1098298E+00
          2   -1    0    0  501    0  0.00000000000E+00  0.00000000000E+00  0.77075412016E+01  0.77075412016E+01  0.00000000000E+00 0. -1.
         -2   -1    0    0    0  501 -0.00000000000E+00 -0.00000000000E+00 -0.24578704925E+04  0.24578704925E+04  0.00000000000E+00 0. -1.
         35    2    1    2    0    0  0.00000000000E+00  0.00000000000E+00 -0.24501629513E+04  0.24655780337E+04  0.27527541182E+03 0.  0.
         25    1    3    3    0    0 -0.27712885297E+02 -0.18675026556E+02 -0.17494447893E+04  0.17538739497E+04  0.12000000000E+03 0.  0.
         25    1    3    3    0    0  0.27712885297E+02  0.18675026556E+02 -0.70071816193E+03  0.71170408394E+03  0.12000000000E+03 0.  0.
<mgrwt>
<rscale>  0 0.27527541E+03</rscale>
<asrwt>0</asrwt>
<pdfrwt beam="1">  1        2 0.11857761E-02 0.27527541E+03</pdfrwt>
<pdfrwt beam="2">  1       -2 0.37813375E+00 0.27527541E+03</pdfrwt>
<totfact> 0.14077973E+02</totfact>
</mgrwt>
</event>
<event>
 5    1  0.1125356E+001  0.2752199E+03  0.7818608E-02  0.1098329E+00
          2   -1    0    0  501    0  0.00000000000E+00  0.00000000000E+00  0.38465350069E+03  0.38465350069E+03  0.00000000000E+00 0. -1.
         -2   -1    0    0    0  501 -0.00000000000E+00 -0.00000000000E+00 -0.49230024956E+02  0.49230024956E+02  0.00000000000E+00 0. -1.
         35    2    1    2    0    0  0.00000000000E+00  0.00000000000E+00  0.33542347573E+03  0.43388352564E+03  0.27521992252E+03 0.  0.
         25    1    3    3    0    0  0.20410535899E+02  0.47688456404E+02  0.23544102520E+03  0.26930142071E+03  0.12000000000E+03 0.  0.
         25    1    3    3    0    0 -0.20410535899E+02 -0.47688456404E+02  0.99982450534E+02  0.16458210493E+03  0.12000000000E+03 0.  0.
<mgrwt>
<rscale>  0 0.27521992E+03</rscale>
<asrwt>0</asrwt>
<pdfrwt beam="1">  1        2 0.59177460E-01 0.27521992E+03</pdfrwt>
<pdfrwt beam="2">  1       -2 0.75738502E-02 0.27521992E+03</pdfrwt>
<totfact> 0.85288032E+03</totfact>
</mgrwt>
</event>
<event>
 5    1  0.1125356E+001  0.2737108E+03  0.7818608E-02  0.1099174E+00
          2   -1    0    0  501    0  0.00000000000E+00  0.00000000000E+00  0.11568050433E+04  0.11568050433E+04  0.00000000000E+00 0.  1.
         -2   -1    0    0    0  501 -0.00000000000E+00 -0.00000000000E+00 -0.16190630129E+02  0.16190630129E+02  0.00000000000E+00 0.  1.
         35    2    1    2    0    0  0.00000000000E+00  0.00000000000E+00  0.11406144132E+04  0.11729956735E+04  0.27371081519E+03 0.  0.
         25    1    3    3    0    0 -0.75909142338E+01 -0.40086520306E+02  0.79153564740E+03  0.80161913163E+03  0.12000000000E+03 0.  0.
         25    1    3    3    0    0  0.75909142338E+01  0.40086520306E+02  0.34907876582E+03  0.37137654185E+03  0.12000000000E+03 0.  0.
<mgrwt>
<rscale>  0 0.27371082E+03</rscale>
<asrwt>0</asrwt>
<pdfrwt beam="1">  1        2 0.17796994E+00 0.27371082E+03</pdfrwt>
<pdfrwt beam="2">  1       -2 0.24908671E-02 0.27371082E+03</pdfrwt>
<totfact> 0.11802563E+04</totfact>
</mgrwt>
</event>
<event>
 5    1  0.1125356E+001  0.2751346E+03  0.7818608E-02  0.1098376E+00
          2   -1    0    0  501    0  0.00000000000E+00  0.00000000000E+00  0.16971901131E+04  0.16971901131E+04  0.00000000000E+00 0. -1.
         -2   -1    0    0    0  501 -0.00000000000E+00 -0.00000000000E+00 -0.11150645033E+02  0.11150645033E+02  0.00000000000E+00 0. -1.
         35    2    1    2    0    0  0.00000000000E+00  0.00000000000E+00  0.16860394680E+04  0.17083407581E+04  0.27513461799E+03 0.  0.
         25    1    3    3    0    0  0.30955563325E+02 -0.42173075669E+00  0.12138204993E+04  0.12201305788E+04  0.12000000000E+03 0.  0.
         25    1    3    3    0    0 -0.30955563325E+02  0.42173075669E+00  0.47221896874E+03  0.48821017933E+03  0.12000000000E+03 0.  0.
<mgrwt>
<rscale>  0 0.27513462E+03</rscale>
<asrwt>0</asrwt>
<pdfrwt beam="1">  1        2 0.26110597E+00 0.27513462E+03</pdfrwt>
<pdfrwt beam="2">  1       -2 0.17154852E-02 0.27513462E+03</pdfrwt>
<totfact> 0.10387047E+04</totfact>
</mgrwt>
</event>
<event>
 5    1  0.1125356E+001  0.2761801E+03  0.7818608E-02  0.1097794E+00
         -1   -1    0    0    0  501 -0.00000000000E+00  0.00000000000E+00  0.69086600590E+02  0.69086600590E+02  0.00000000000E+00 0. -1.
          1   -1    0    0  501    0  0.00000000000E+00 -0.00000000000E+00 -0.27601399175E+03  0.27601399175E+03  0.00000000000E+00 0. -1.
         35    2    1    2    0    0  0.00000000000E+00  0.00000000000E+00 -0.20692739116E+03  0.34510059234E+03  0.27618014704E+03 0.  0.
         25    1    3    3    0    0 -0.20460113471E+02  0.27546281496E+02 -0.29629687634E+02  0.12827833900E+03  0.12000000000E+03 0.  0.
         25    1    3    3    0    0  0.20460113471E+02 -0.27546281496E+02 -0.17729770353E+03  0.21682225334E+03  0.12000000000E+03 0.  0.
<mgrwt>
<rscale>  0 0.27618015E+03</rscale>
<asrwt>0</asrwt>
<pdfrwt beam="1">  1        1 0.42463691E-01 0.27618015E+03</pdfrwt>
<pdfrwt beam="2">  1       -1 0.10628708E-01 0.27618015E+03</pdfrwt>
<totfact> 0.53630675E+03</totfact>
</mgrwt>
</event>
<event>
 5    1  0.1125356E+001  0.2743977E+03  0.7818608E-02  0.1098789E+00
         -2   -1    0    0    0  501 -0.00000000000E+00  0.00000000000E+00  0.87664954495E+01  0.87664954495E+01  0.00000000000E+00 0. -1.
          2   -1    0    0  501    0  0.00000000000E+00 -0.00000000000E+00 -0.21472120430E+04  0.21472120430E+04  0.00000000000E+00 0. -1.
         35    2    1    2    0    0  0.00000000000E+00  0.00000000000E+00 -0.21384455475E+04  0.21559785384E+04  0.27439770118E+03 0.  0.
         25    1    3    3    0    0  0.59095423559E+02  0.30306536545E+02 -0.10972996343E+04  0.11058378013E+04  0.12000000000E+03 0.  0.
         25    1    3    3    0    0 -0.59095423559E+02 -0.30306536545E+02 -0.10411459132E+04  0.10501407371E+04  0.12000000000E+03 0.  0.
<mgrwt>
<rscale>  0 0.27439770E+03</rscale>
<asrwt>0</asrwt>
<pdfrwt beam="1">  1        2 0.33034095E+00 0.27439770E+03</pdfrwt>
<pdfrwt beam="2">  1       -2 0.13486890E-02 0.27439770E+03</pdfrwt>
<totfact> 0.85616290E+03</totfact>
</mgrwt>
</event>
<event>
 5    1  0.1125356E+001  0.2759079E+03  0.7818608E-02  0.1097945E+00
          2   -1    0    0  501    0  0.00000000000E+00  0.00000000000E+00  0.69470628689E+03  0.69470628689E+03  0.00000000000E+00 0. -1.
         -2   -1    0    0    0  501 -0.00000000000E+00 -0.00000000000E+00 -0.27394726649E+02  0.27394726649E+02  0.00000000000E+00 0. -1.
         35    2    1    2    0    0  0.00000000000E+00  0.00000000000E+00  0.66731156025E+03  0.72210101354E+03  0.27590787470E+03 0.  0.
         25    1    3    3    0    0  0.13162502705E+02  0.53709716186E+02  0.22984555178E+03  0.26511688510E+03  0.12000000000E+03 0.  0.
         25    1    3    3    0    0 -0.13162502705E+02 -0.53709716186E+02  0.43746600846E+03  0.45698412845E+03  0.12000000000E+03 0.  0.
<mgrwt>
<rscale>  0 0.27590787E+03</rscale>
<asrwt>0</asrwt>
<pdfrwt beam="1">  1        2 0.10687788E+00 0.27590787E+03</pdfrwt>
<pdfrwt beam="2">  1       -2 0.42145739E-02 0.27590787E+03</pdfrwt>
<totfact> 0.10708613E+04</totfact>
</mgrwt>
</event>
<event>
 5    1  0.1125356E+001  0.2833251E+03  0.7818608E-02  0.1093887E+00
         -2   -1    0    0    0  501 -0.00000000000E+00  0.00000000000E+00  0.17941807575E+03  0.17941807575E+03  0.00000000000E+00 0. -1.
          2   -1    0    0  501    0  0.00000000000E+00 -0.00000000000E+00 -0.11185200288E+03  0.11185200288E+03  0.00000000000E+00 0. -1.
         35    2    1    2    0    0  0.00000000000E+00  0.00000000000E+00  0.67566072877E+02  0.29127007863E+03  0.28332505096E+03 0.  0.
         25    1    3    3    0    0 -0.69806948185E+02  0.11702075819E+02  0.60160331496E+02  0.15175379428E+03  0.12000000000E+03 0.  0.
         25    1    3    3    0    0  0.69806948185E+02 -0.11702075819E+02  0.74057413812E+01  0.13951628435E+03  0.12000000000E+03 0.  0.
<mgrwt>
<rscale>  0 0.28332505E+03</rscale>
<asrwt>0</asrwt>
<pdfrwt beam="1">  1        2 0.17208000E-01 0.28332505E+03</pdfrwt>
<pdfrwt beam="2">  1       -2 0.27602781E-01 0.28332505E+03</pdfrwt>
<totfact> 0.39227818E+03</totfact>
</mgrwt>
</event>
<event>
 5    1  0.1125356E+001  0.2743602E+03  0.7818608E-02  0.1098810E+00
          2   -1    0    0  501    0  0.00000000000E+00  0.00000000000E+00  0.22945533906E+04  0.22945533906E+04  0.00000000000E+00 0. -1.
         -2   -1    0    0    0  501 -0.00000000000E+00 -0.00000000000E+00 -0.82013231658E+01  0.82013231658E+01  0.00000000000E+00 0. -1.
         35    2    1    2    0    0  0.00000000000E+00  0.00000000000E+00  0.22863520674E+04  0.23027547138E+04  0.27436015656E+03 0.  0.
         25    1    3    3    0    0 -0.63841840852E+02  0.14647637906E+01  0.98831154574E+03  0.99761597703E+03  0.12000000000E+03 0.  0.
         25    1    3    3    0    0  0.63841840852E+02 -0.14647637906E+01  0.12980405217E+04  0.13051387367E+04  0.12000000000E+03 0.  0.
<mgrwt>
<rscale>  0 0.27436016E+03</rscale>
<asrwt>0</asrwt>
<pdfrwt beam="1">  1        2 0.35300770E+00 0.27436016E+03</pdfrwt>
<pdfrwt beam="2">  1       -2 0.12617439E-02 0.27436016E+03</pdfrwt>
<totfact> 0.78754110E+03</totfact>
</mgrwt>
</event>
<event>
 5    1  0.1125356E+001  0.2747670E+03  0.7818608E-02  0.1098582E+00
          1   -1    0    0  501    0  0.00000000000E+00  0.00000000000E+00  0.25838832896E+02  0.25838832896E+02  0.00000000000E+00 0. -1.
         -1   -1    0    0    0  501 -0.00000000000E+00 -0.00000000000E+00 -0.73045992794E+03  0.73045992794E+03  0.00000000000E+00 0. -1.
         35    2    1    2    0    0  0.00000000000E+00  0.00000000000E+00 -0.70462109504E+03  0.75629876084E+03  0.27476704326E+03 0.  0.
         25    1    3    3    0    0 -0.54027914229E+02  0.24512886358E+02 -0.43734191275E+03  0.45737057816E+03  0.12000000000E+03 0.  0.
         25    1    3    3    0    0  0.54027914229E+02 -0.24512886358E+02 -0.26727918229E+03  0.29892818268E+03  0.12000000000E+03 0.  0.
<mgrwt>
<rscale>  0 0.27476704E+03</rscale>
<asrwt>0</asrwt>
<pdfrwt beam="1">  1        1 0.39752045E-02 0.27476704E+03</pdfrwt>
<pdfrwt beam="2">  1       -1 0.11237847E+00 0.27476704E+03</pdfrwt>
<totfact> 0.17694285E+03</totfact>
</mgrwt>
</event>
<event>
 5    1  0.1125356E+001  0.2746466E+03  0.7818608E-02  0.1098649E+00
         -1   -1    0    0    0  501 -0.00000000000E+00  0.00000000000E+00  0.80792799394E+03  0.80792799394E+03  0.00000000000E+00 0.  1.
          1   -1    0    0  501    0  0.00000000000E+00 -0.00000000000E+00 -0.23340805396E+02  0.23340805396E+02  0.00000000000E+00 0.  1.
         35    2    1    2    0    0  0.00000000000E+00  0.00000000000E+00  0.78458718854E+03  0.83126879933E+03  0.27464660989E+03 0.  0.
         25    1    3    3    0    0  0.58865464029E+02 -0.27512337741E+02  0.34583437274E+03  0.37178419137E+03  0.12000000000E+03 0.  0.
         25    1    3    3    0    0 -0.58865464029E+02  0.27512337741E+02  0.43875281580E+03  0.45948460797E+03  0.12000000000E+03 0.  0.
<mgrwt>
<rscale>  0 0.27464661E+03</rscale>
<asrwt>0</asrwt>
<pdfrwt beam="1">  1        1 0.35908938E-02 0.27464661E+03</pdfrwt>
<pdfrwt beam="2">  1       -1 0.12429659E+00 0.27464661E+03</pdfrwt>
<totfact> 0.16065650E+03</totfact>
</mgrwt>
</event>
<event>
 5    1  0.1125356E+001  0.2747883E+03  0.7818608E-02  0.1098570E+00
         -1   -1    0    0    0  501 -0.00000000000E+00  0.00000000000E+00  0.24692310263E+03  0.24692310263E+03  0.00000000000E+00 0. -1.
          1   -1    0    0  501    0  0.00000000000E+00 -0.00000000000E+00 -0.76449544790E+02  0.76449544790E+02  0.00000000000E+00 0. -1.
         35    2    1    2    0    0  0.00000000000E+00  0.00000000000E+00  0.17047355784E+03  0.32337264742E+03  0.27478834614E+03 0.  0.
         25    1    3    3    0    0  0.15463387343E+02  0.23636043916E+02  0.13854191447E+02  0.12405530033E+03  0.12000000000E+03 0.  0.
         25    1    3    3    0    0 -0.15463387343E+02 -0.23636043916E+02  0.15661936639E+03  0.19931734709E+03  0.12000000000E+03 0.  0.
<mgrwt>
<rscale>  0 0.27478835E+03</rscale>
<asrwt>0</asrwt>
<pdfrwt beam="1">  1        1 0.11761469E-01 0.27478835E+03</pdfrwt>
<pdfrwt beam="2">  1       -1 0.37988169E-01 0.27478835E+03</pdfrwt>
<totfact> 0.34723702E+03</totfact>
</mgrwt>
</event>
<event>
 5    1  0.1125356E+001  0.2774462E+03  0.7818608E-02  0.1097092E+00
         -2   -1    0    0    0  501 -0.00000000000E+00  0.00000000000E+00  0.18158310997E+03  0.18158310997E+03  0.00000000000E+00 0.  1.
          2   -1    0    0  501    0  0.00000000000E+00 -0.00000000000E+00 -0.10597956738E+03  0.10597956738E+03  0.00000000000E+00 0.  1.
         35    2    1    2    0    0  0.00000000000E+00  0.00000000000E+00  0.75603542585E+02  0.28756267735E+03  0.27744620695E+03 0.  0.
         25    1    3    3    0    0 -0.52332897762E+01 -0.52057214868E+02  0.85374833110E+02  0.15628884500E+03  0.12000000000E+03 0.  0.
         25    1    3    3    0    0  0.52332897762E+01  0.52057214868E+02 -0.97712905244E+01  0.13127383235E+03  0.12000000000E+03 0.  0.
<mgrwt>
<rscale>  0 0.27744621E+03</rscale>
<asrwt>0</asrwt>
<pdfrwt beam="1">  1        2 0.16304549E-01 0.27744621E+03</pdfrwt>
<pdfrwt beam="2">  1       -2 0.27935863E-01 0.27744621E+03</pdfrwt>
<totfact> 0.40867950E+03</totfact>
</mgrwt>
</event>
<event>
 5    1  0.1125356E+001  0.2753315E+03  0.7818608E-02  0.1098266E+00
          1   -1    0    0  501    0  0.00000000000E+00  0.00000000000E+00  0.11884639136E+03  0.11884639136E+03  0.00000000000E+00 0. -1.
         -1   -1    0    0    0  501 -0.00000000000E+00 -0.00000000000E+00 -0.15946521412E+03  0.15946521412E+03  0.00000000000E+00 0. -1.
         35    2    1    2    0    0  0.00000000000E+00  0.00000000000E+00 -0.40618822755E+02  0.27831160548E+03  0.27533154738E+03 0.  0.
         25    1    3    3    0    0 -0.96671674528E+01 -0.61614245924E+02  0.57003138209E+01  0.13535975401E+03  0.12000000000E+03 0.  0.
         25    1    3    3    0    0  0.96671674528E+01  0.61614245924E+02 -0.46319136576E+02  0.14295185148E+03  0.12000000000E+03 0.  0.
<mgrwt>
<rscale>  0 0.27533155E+03</rscale>
<asrwt>0</asrwt>
<pdfrwt beam="1">  1        1 0.18284060E-01 0.27533155E+03</pdfrwt>
<pdfrwt beam="2">  1       -1 0.24533110E-01 0.27533155E+03</pdfrwt>
<totfact> 0.41015370E+03</totfact>
</mgrwt>
</event>
<event>
 5    1  0.1125356E+001  0.2704439E+03  0.7818608E-02  0.1101026E+00
          1   -1    0    0  501    0  0.00000000000E+00  0.00000000000E+00  0.26350284463E+03  0.26350284463E+03  0.00000000000E+00 0. -1.
         -1   -1    0    0    0  501 -0.00000000000E+00 -0.00000000000E+00 -0.69391946148E+02  0.69391946148E+02  0.00000000000E+00 0. -1.
         35    2    1    2    0    0  0.00000000000E+00  0.00000000000E+00  0.19411089848E+03  0.33289479078E+03  0.27044389588E+03 0.  0.
         25    1    3    3    0    0  0.72947393433E+01 -0.61890366459E+02  0.95628154219E+02  0.16561513989E+03  0.12000000000E+03 0.  0.
         25    1    3    3    0    0 -0.72947393433E+01  0.61890366459E+02  0.98482744260E+02  0.16727965088E+03  0.12000000000E+03 0.  0.
<mgrwt>
<rscale>  0 0.27044390E+03</rscale>
<asrwt>0</asrwt>
<pdfrwt beam="1">  1        1 0.40538899E-01 0.27044390E+03</pdfrwt>
<pdfrwt beam="2">  1       -1 0.10675684E-01 0.27044390E+03</pdfrwt>
<totfact> 0.56417271E+03</totfact>
</mgrwt>
</event>
<event>
 5    1  0.1125356E+001  0.2753572E+03  0.7818608E-02  0.1098252E+00
          2   -1    0    0  501    0  0.00000000000E+00  0.00000000000E+00  0.28174225892E+04  0.28174225892E+04  0.00000000000E+00 0.  1.
         -2   -1    0    0    0  501 -0.00000000000E+00 -0.00000000000E+00 -0.67279234491E+01  0.67279234491E+01  0.00000000000E+00 0.  1.
         35    2    1    2    0    0  0.00000000000E+00  0.00000000000E+00  0.28106946657E+04  0.28241505126E+04  0.27535724798E+03 0.  0.
         25    1    3    3    0    0  0.49955064698E+02 -0.38523570193E+02  0.11592322092E+04  0.11671327640E+04  0.12000000000E+03 0.  0.
         25    1    3    3    0    0 -0.49955064698E+02  0.38523570193E+02  0.16514624566E+04  0.16570177487E+04  0.12000000000E+03 0.  0.
<mgrwt>
<rscale>  0 0.27535725E+03</rscale>
<asrwt>0</asrwt>
<pdfrwt beam="1">  1        2 0.43344869E+00 0.27535725E+03</pdfrwt>
<pdfrwt beam="2">  1       -2 0.10350674E-02 0.27535725E+03</pdfrwt>
<totfact> 0.53992947E+03</totfact>
</mgrwt>
</event>
<event>
 5    1  0.1125356E+001  0.2751223E+03  0.7818608E-02  0.1098383E+00
          2   -1    0    0  501    0  0.00000000000E+00  0.00000000000E+00  0.17896335967E+04  0.17896335967E+04  0.00000000000E+00 0. -1.
         -2   -1    0    0    0  501 -0.00000000000E+00 -0.00000000000E+00 -0.10573713314E+02  0.10573713314E+02  0.00000000000E+00 0. -1.
         35    2    1    2    0    0  0.00000000000E+00  0.00000000000E+00  0.17790598834E+04  0.18002073100E+04  0.27512231890E+03 0.  0.
         25    1    3    3    0    0 -0.14728513702E+01  0.52127936810E+02  0.11674146084E+04  0.11747239502E+04  0.12000000000E+03 0.  0.
         25    1    3    3    0    0  0.14728513702E+01 -0.52127936810E+02  0.61164527496E+03  0.62548335987E+03  0.12000000000E+03 0.  0.
<mgrwt>
<rscale>  0 0.27512232E+03</rscale>
<asrwt>0</asrwt>
<pdfrwt beam="1">  1        2 0.27532800E+00 0.27512232E+03</pdfrwt>
<pdfrwt beam="2">  1       -2 0.16267265E-02 0.27512232E+03</pdfrwt>
<totfact> 0.10039243E+04</totfact>
</mgrwt>
</event>
<event>
 5    1  0.1125356E+001  0.2741083E+03  0.7818608E-02  0.1098951E+00
          2   -1    0    0  501    0  0.00000000000E+00  0.00000000000E+00  0.19820848496E+04  0.19820848496E+04  0.00000000000E+00 0.  1.
         -2   -1    0    0    0  501 -0.00000000000E+00 -0.00000000000E+00 -0.94768098668E+01  0.94768098668E+01  0.00000000000E+00 0.  1.
         35    2    1    2    0    0  0.00000000000E+00  0.00000000000E+00  0.19726080397E+04  0.19915616594E+04  0.27410830895E+03 0.  0.
         25    1    3    3    0    0 -0.64558676483E+02  0.78552440773E+01  0.10765595425E+04  0.10851773938E+04  0.12000000000E+03 0.  0.
         25    1    3    3    0    0  0.64558676483E+02 -0.78552440773E+01  0.89604849722E+03  0.90638426561E+03  0.12000000000E+03 0.  0.
<mgrwt>
<rscale>  0 0.27410831E+03</rscale>
<asrwt>0</asrwt>
<pdfrwt beam="1">  1        2 0.30493580E+00 0.27410831E+03</pdfrwt>
<pdfrwt beam="2">  1       -2 0.14579723E-02 0.27410831E+03</pdfrwt>
<totfact> 0.93378171E+03</totfact>
</mgrwt>
</event>
<event>
 5    1  0.1125356E+001  0.2731780E+03  0.7818608E-02  0.1099474E+00
          1   -1    0    0  501    0  0.00000000000E+00  0.00000000000E+00  0.10126308365E+04  0.10126308365E+04  0.00000000000E+00 0.  1.
         -1   -1    0    0    0  501 -0.00000000000E+00 -0.00000000000E+00 -0.18423841114E+02  0.18423841114E+02  0.00000000000E+00 0.  1.
         35    2    1    2    0    0  0.00000000000E+00  0.00000000000E+00  0.99420699534E+03  0.10310546776E+04  0.27317796132E+03 0.  0.
         25    1    3    3    0    0  0.18152808743E+02 -0.61542085552E+02  0.45250975839E+03  0.47252728408E+03  0.12000000000E+03 0.  0.
         25    1    3    3    0    0 -0.18152808743E+02  0.61542085552E+02  0.54169723695E+03  0.55852739349E+03  0.12000000000E+03 0.  0.
<mgrwt>
<rscale>  0 0.27317796E+03</rscale>
<asrwt>0</asrwt>
<pdfrwt beam="1">  1        1 0.15578932E+00 0.27317796E+03</pdfrwt>
<pdfrwt beam="2">  1       -1 0.28344379E-02 0.27317796E+03</pdfrwt>
<totfact> 0.64133480E+03</totfact>
</mgrwt>
</event>
<event>
 5    1  0.1125356E+001  0.2737532E+03  0.7818608E-02  0.1099151E+00
         -2   -1    0    0    0  501 -0.00000000000E+00  0.00000000000E+00  0.22645498676E+02  0.22645498676E+02  0.00000000000E+00 0.  1.
          2   -1    0    0  501    0  0.00000000000E+00 -0.00000000000E+00 -0.82732594998E+03  0.82732594998E+03  0.00000000000E+00 0.  1.
         35    2    1    2    0    0  0.00000000000E+00  0.00000000000E+00 -0.80468045131E+03  0.84997144866E+03  0.27375323710E+03 0.  0.
         25    1    3    3    0    0  0.20503703918E+02 -0.56568482674E+02 -0.48535234031E+03  0.50357451221E+03  0.12000000000E+03 0.  0.
         25    1    3    3    0    0 -0.20503703918E+02  0.56568482674E+02 -0.31932811100E+03  0.34639693645E+03  0.12000000000E+03 0.  0.
<mgrwt>
<rscale>  0 0.27375324E+03</rscale>
<asrwt>0</asrwt>
<pdfrwt beam="1">  1        2 0.12728092E+00 0.27375324E+03</pdfrwt>
<pdfrwt beam="2">  1       -2 0.34839228E-02 0.27375324E+03</pdfrwt>
<totfact> 0.11456849E+04</totfact>
</mgrwt>
</event>
<event>
 5    1  0.1125356E+001  0.2746764E+03  0.7818608E-02  0.1098633E+00
          1   -1    0    0  501    0  0.00000000000E+00  0.00000000000E+00  0.25930839217E+03  0.25930839217E+03  0.00000000000E+00 0. -1.
         -1   -1    0    0    0  501 -0.00000000000E+00 -0.00000000000E+00 -0.72738823543E+02  0.72738823543E+02  0.00000000000E+00 0. -1.
         35    2    1    2    0    0  0.00000000000E+00  0.00000000000E+00  0.18656956863E+03  0.33204721571E+03  0.27467644516E+03 0.  0.
         25    1    3    3    0    0 -0.48080932233E+02 -0.42429044732E+02  0.70675825245E+02  0.15332016226E+03  0.12000000000E+03 0.  0.
         25    1    3    3    0    0  0.48080932233E+02  0.42429044732E+02  0.11589374338E+03  0.17872705345E+03  0.12000000000E+03 0.  0.
<mgrwt>
<rscale>  0 0.27467645E+03</rscale>
<asrwt>0</asrwt>
<pdfrwt beam="1">  1        1 0.39893598E-01 0.27467645E+03</pdfrwt>
<pdfrwt beam="2">  1       -1 0.11190588E-01 0.27467645E+03</pdfrwt>
<totfact> 0.53531008E+03</totfact>
</mgrwt>
</event>
<event>
 5    1  0.1125356E+001  0.2750804E+03  0.7818608E-02  0.1098407E+00
         -1   -1    0    0    0  501 -0.00000000000E+00  0.00000000000E+00  0.46169942471E+03  0.46169942471E+03  0.00000000000E+00 0.  1.
          1   -1    0    0  501    0  0.00000000000E+00 -0.00000000000E+00 -0.40973208224E+02  0.40973208224E+02  0.00000000000E+00 0.  1.
         35    2    1    2    0    0  0.00000000000E+00  0.00000000000E+00  0.42072621648E+03  0.50267263293E+03  0.27508040036E+03 0.  0.
         25    1    3    3    0    0  0.11772529251E+02  0.19261521701E+02  0.32604719690E+03  0.34816141841E+03  0.12000000000E+03 0.  0.
         25    1    3    3    0    0 -0.11772529251E+02 -0.19261521701E+02  0.94679019578E+02  0.15451121452E+03  0.12000000000E+03 0.  0.
<mgrwt>
<rscale>  0 0.27508040E+03</rscale>
<asrwt>0</asrwt>
<pdfrwt beam="1">  1        1 0.63035708E-02 0.27508040E+03</pdfrwt>
<pdfrwt beam="2">  1       -1 0.71030677E-01 0.27508040E+03</pdfrwt>
<totfact> 0.25066668E+03</totfact>
</mgrwt>
</event>
<event>
 5    1  0.1125356E+001  0.2746821E+03  0.7818608E-02  0.1098629E+00
          2   -1    0    0  501    0  0.00000000000E+00  0.00000000000E+00  0.10142168781E+03  0.10142168781E+03  0.00000000000E+00 0.  1.
         -2   -1    0    0    0  501 -0.00000000000E+00 -0.00000000000E+00 -0.18598154981E+03  0.18598154981E+03  0.00000000000E+00 0.  1.
         35    2    1    2    0    0  0.00000000000E+00  0.00000000000E+00 -0.84559861997E+02  0.28740323761E+03  0.27468209030E+03 0.  0.
         25    1    3    3    0    0 -0.38866144639E+02 -0.53926194851E+02 -0.49216515088E+02  0.14574250254E+03  0.12000000000E+03 0.  0.
         25    1    3    3    0    0  0.38866144639E+02  0.53926194851E+02 -0.35343346909E+02  0.14166073507E+03  0.12000000000E+03 0.  0.
<mgrwt>
<rscale>  0 0.27468209E+03</rscale>
<asrwt>0</asrwt>
<pdfrwt beam="1">  1        2 0.15603337E-01 0.27468209E+03</pdfrwt>
<pdfrwt beam="2">  1       -2 0.28612546E-01 0.27468209E+03</pdfrwt>
<totfact> 0.41210712E+03</totfact>
</mgrwt>
</event>
<event>
 5    1  0.1125356E+001  0.2754591E+03  0.7818608E-02  0.1098195E+00
          4   -1    0    0  501    0  0.00000000000E+00  0.00000000000E+00  0.34209026162E+03  0.34209026162E+03  0.00000000000E+00 0.  1.
         -4   -1    0    0    0  501 -0.00000000000E+00 -0.00000000000E+00 -0.55451526884E+02  0.55451526884E+02  0.00000000000E+00 0.  1.
         35    2    1    2    0    0  0.00000000000E+00  0.00000000000E+00  0.28663873473E+03  0.39754178850E+03  0.27545908835E+03 0.  0.
         25    1    3    3    0    0  0.41110033288E+02 -0.46681538937E+02  0.10512978322E+03  0.17123513727E+03  0.12000000000E+03 0.  0.
         25    1    3    3    0    0 -0.41110033288E+02  0.46681538937E+02  0.18150895151E+03  0.22630665123E+03  0.12000000000E+03 0.  0.
<mgrwt>
<rscale>  0 0.27545909E+03</rscale>
<asrwt>0</asrwt>
<pdfrwt beam="1">  1        4 0.52629270E-01 0.27545909E+03</pdfrwt>
<pdfrwt beam="2">  1       -4 0.85310043E-02 0.27545909E+03</pdfrwt>
<totfact> 0.64891360E+02</totfact>
</mgrwt>
</event>
<event>
 4    1  0.1125356E+001  0.3285613E+03  0.7818608E-02  0.1071775E+00
         -2   -1    0    0    0  501 -0.00000000000E+00  0.00000000000E+00  0.85903414031E+02  0.85903414031E+02  0.00000000000E+00 0.  1.
          2   -1    0    0  501    0  0.00000000000E+00 -0.00000000000E+00 -0.31416836711E+03  0.31416836711E+03  0.00000000000E+00 0.  1.
         25    1    1    2    0    0  0.32574539189E+02  0.10048150943E+03 -0.68078666673E+02  0.17375942909E+03  0.12000000000E+03 0.  0.
         25    1    1    2    0    0 -0.32574539189E+02 -0.10048150943E+03 -0.16018628641E+03  0.22631235206E+03  0.12000000000E+03 0.  0.
<mgrwt>
<rscale>  0 0.32856132E+03</rscale>
<asrwt>0</asrwt>
<pdfrwt beam="1">  1        2 0.48333596E-01 0.32856132E+03</pdfrwt>
<pdfrwt beam="2">  1       -2 0.13215910E-01 0.32856132E+03</pdfrwt>
<totfact> 0.43953148E+03</totfact>
</mgrwt>
</event>
<event>
 5    1  0.1125356E+001  0.2743824E+03  0.7818608E-02  0.1098797E+00
         -2   -1    0    0    0  501 -0.00000000000E+00  0.00000000000E+00  0.14777276459E+02  0.14777276459E+02  0.00000000000E+00 0.  1.
          2   -1    0    0  501    0  0.00000000000E+00 -0.00000000000E+00 -0.12736738329E+04  0.12736738329E+04  0.00000000000E+00 0.  1.
         35    2    1    2    0    0  0.00000000000E+00  0.00000000000E+00 -0.12588965565E+04  0.12884511094E+04  0.27438243637E+03 0.  0.
         25    1    3    3    0    0  0.16328780997E+02  0.60519810789E+02 -0.73362292578E+03  0.74601063921E+03  0.12000000000E+03 0.  0.
         25    1    3    3    0    0 -0.16328780997E+02 -0.60519810789E+02 -0.52527363070E+03  0.54244047018E+03  0.12000000000E+03 0.  0.
<mgrwt>
<rscale>  0 0.27438244E+03</rscale>
<asrwt>0</asrwt>
<pdfrwt beam="1">  1        2 0.19594990E+00 0.27438244E+03</pdfrwt>
<pdfrwt beam="2">  1       -2 0.22734262E-02 0.27438244E+03</pdfrwt>
<totfact> 0.11600693E+04</totfact>
</mgrwt>
</event>
<event>
 5    1  0.1125356E+001  0.2751007E+03  0.7818608E-02  0.1098395E+00
          2   -1    0    0  501    0  0.00000000000E+00  0.00000000000E+00  0.40135547348E+03  0.40135547348E+03  0.00000000000E+00 0.  1.
         -2   -1    0    0    0  501 -0.00000000000E+00 -0.00000000000E+00 -0.47140496539E+02  0.47140496539E+02  0.00000000000E+00 0.  1.
         35    2    1    2    0    0  0.00000000000E+00  0.00000000000E+00  0.35421497694E+03  0.44849597002E+03  0.27510068200E+03 0.  0.
         25    1    3    3    0    0 -0.16815147768E+02 -0.39549375467E+02  0.26139866544E+03  0.29081981464E+03  0.12000000000E+03 0.  0.
         25    1    3    3    0    0  0.16815147768E+02  0.39549375467E+02  0.92816311501E+02  0.15767615538E+03  0.12000000000E+03 0.  0.
<mgrwt>
<rscale>  0 0.27510068E+03</rscale>
<asrwt>0</asrwt>
<pdfrwt beam="1">  1        2 0.61746994E-01 0.27510068E+03</pdfrwt>
<pdfrwt beam="2">  1       -2 0.72523843E-02 0.27510068E+03</pdfrwt>
<totfact> 0.87120765E+03</totfact>
</mgrwt>
</event>
<event>
 5    1  0.1125356E+001  0.2748722E+03  0.7818608E-02  0.1098523E+00
          3   -1    0    0  501    0  0.00000000000E+00  0.00000000000E+00  0.52104127887E+02  0.52104127887E+02  0.00000000000E+00 0. -1.
         -3   -1    0    0    0  501 -0.00000000000E+00 -0.00000000000E+00 -0.36251800301E+03  0.36251800301E+03  0.00000000000E+00 0. -1.
         35    2    1    2    0    0  0.00000000000E+00  0.00000000000E+00 -0.31041387512E+03  0.41462213090E+03  0.27487222042E+03 0.  0.
         25    1    3    3    0    0  0.59386443077E+02 -0.29617854250E+02 -0.14132314427E+03  0.19691672864E+03  0.12000000000E+03 0.  0.
         25    1    3    3    0    0 -0.59386443077E+02  0.29617854250E+02 -0.16909073086E+03  0.21770540226E+03  0.12000000000E+03 0.  0.
<mgrwt>
<rscale>  0 0.27487222E+03</rscale>
<asrwt>0</asrwt>
<pdfrwt beam="1">  1        3 0.80160197E-02 0.27487222E+03</pdfrwt>
<pdfrwt beam="2">  1       -3 0.55772001E-01 0.27487222E+03</pdfrwt>
<totfact> 0.86485437E+02</totfact>
</mgrwt>
</event>
<event>
 5    1  0.1125356E+001  0.2749453E+03  0.7818608E-02  0.1098482E+00
          2   -1    0    0  501    0  0.00000000000E+00  0.00000000000E+00  0.56778510095E+02  0.56778510095E+02  0.00000000000E+00 0.  1.
         -2   -1    0    0    0  501 -0.00000000000E+00 -0.00000000000E+00 -0.33285014915E+03  0.33285014915E+03  0.00000000000E+00 0.  1.
         35    2    1    2    0    0  0.00000000000E+00  0.00000000000E+00 -0.27607163906E+03  0.38962865925E+03  0.27494534405E+03 0.  0.
         25    1    3    3    0    0  0.43503016718E+02 -0.14735100304E+02 -0.68769568859E+02  0.14573568282E+03  0.12000000000E+03 0.  0.
         25    1    3    3    0    0 -0.43503016718E+02  0.14735100304E+02 -0.20730207020E+03  0.24389297643E+03  0.12000000000E+03 0.  0.
<mgrwt>
<rscale>  0 0.27494534E+03</rscale>
<asrwt>0</asrwt>
<pdfrwt beam="1">  1        2 0.87351555E-02 0.27494534E+03</pdfrwt>
<pdfrwt beam="2">  1       -2 0.51207714E-01 0.27494534E+03</pdfrwt>
<totfact> 0.27727994E+03</totfact>
</mgrwt>
</event>
<event>
 4    1  0.1125356E+001  0.2465598E+03  0.7818608E-02  0.1115498E+00
          1   -1    0    0  501    0  0.00000000000E+00  0.00000000000E+00  0.51279129064E+03  0.51279129064E+03  0.00000000000E+00 0.  1.
         -1   -1    0    0    0  501 -0.00000000000E+00 -0.00000000000E+00 -0.29637653823E+02  0.29637653823E+02  0.00000000000E+00 0.  1.
         25    1    1    2    0    0  0.20907327118E+01  0.27961499388E+02  0.23404714903E+03  0.26450762669E+03  0.12000000000E+03 0.  0.
         25    1    1    2    0    0 -0.20907327118E+01 -0.27961499388E+02  0.24910648779E+03  0.27792131777E+03  0.12000000000E+03 0.  0.
<mgrwt>
<rscale>  0 0.24655978E+03</rscale>
<asrwt>0</asrwt>
<pdfrwt beam="1">  1        1 0.78890961E-01 0.24655978E+03</pdfrwt>
<pdfrwt beam="2">  1       -1 0.45596394E-02 0.24655978E+03</pdfrwt>
<totfact> 0.87314282E+03</totfact>
</mgrwt>
</event>
<event>
 5    1  0.1125356E+001  0.2755631E+03  0.7818608E-02  0.1098137E+00
          1   -1    0    0  501    0  0.00000000000E+00  0.00000000000E+00  0.46790646549E+03  0.46790646549E+03  0.00000000000E+00 0.  1.
         -1   -1    0    0    0  501 -0.00000000000E+00 -0.00000000000E+00 -0.40571679303E+02  0.40571679303E+02  0.00000000000E+00 0.  1.
         35    2    1    2    0    0  0.00000000000E+00  0.00000000000E+00  0.42733478619E+03  0.50847814479E+03  0.27556306764E+03 0.  0.
         25    1    3    3    0    0 -0.40973460165E+01 -0.62551415608E+02  0.16646824366E+03  0.21457200187E+03  0.12000000000E+03 0.  0.
         25    1    3    3    0    0  0.40973460165E+01  0.62551415608E+02  0.26086654253E+03  0.29390614292E+03  0.12000000000E+03 0.  0.
<mgrwt>
<rscale>  0 0.27556307E+03</rscale>
<asrwt>0</asrwt>
<pdfrwt beam="1">  1        1 0.71985607E-01 0.27556307E+03</pdfrwt>
<pdfrwt beam="2">  1       -1 0.62417971E-02 0.27556307E+03</pdfrwt>
<totfact> 0.61769530E+03</totfact>
</mgrwt>
</event>
<event>
 5    1  0.1125356E+001  0.2617316E+03  0.7818608E-02  0.1106107E+00
         -2   -1    0    0    0  501 -0.00000000000E+00  0.00000000000E+00  0.21952305284E+03  0.21952305284E+03  0.00000000000E+00 0.  1.
          2   -1    0    0  501    0  0.00000000000E+00 -0.00000000000E+00 -0.78013948431E+02  0.78013948431E+02  0.00000000000E+00 0.  1.
         35    2    1    2    0    0  0.00000000000E+00  0.00000000000E+00  0.14150910440E+03  0.29753700127E+03  0.26173161921E+03 0.  0.
         25    1    3    3    0    0 -0.18813516459E+02 -0.48353758284E+02  0.77366184775E+02  0.15191300434E+03  0.12000000000E+03 0.  0.
         25    1    3    3    0    0  0.18813516459E+02  0.48353758284E+02  0.64142919630E+02  0.14562399692E+03  0.12000000000E+03 0.  0.
<mgrwt>
<rscale>  0 0.26173162E+03</rscale>
<asrwt>0</asrwt>
<pdfrwt beam="1">  1        2 0.12002146E-01 0.26173162E+03</pdfrwt>
<pdfrwt beam="2">  1       -2 0.33772777E-01 0.26173162E+03</pdfrwt>
<totfact> 0.41619392E+03</totfact>
</mgrwt>
</event>
<event>
 5    1  0.1125356E+001  0.2747125E+03  0.7818608E-02  0.1098612E+00
          1   -1    0    0  501    0  0.00000000000E+00  0.00000000000E+00  0.16199354685E+03  0.16199354685E+03  0.00000000000E+00 0. -1.
         -1   -1    0    0    0  501 -0.00000000000E+00 -0.00000000000E+00 -0.11646600602E+03  0.11646600602E+03  0.00000000000E+00 0. -1.
         35    2    1    2    0    0  0.00000000000E+00  0.00000000000E+00  0.45527540837E+02  0.27845955287E+03  0.27471251447E+03 0.  0.
         25    1    3    3    0    0 -0.54884603467E+02 -0.13266665541E+02 -0.13478883764E+02  0.13330418005E+03  0.12000000000E+03 0.  0.
         25    1    3    3    0    0  0.54884603467E+02  0.13266665541E+02  0.59006424601E+02  0.14515537281E+03  0.12000000000E+03 0.  0.
<mgrwt>
<rscale>  0 0.27471251E+03</rscale>
<asrwt>0</asrwt>
<pdfrwt beam="1">  1        1 0.24922084E-01 0.27471251E+03</pdfrwt>
<pdfrwt beam="2">  1       -1 0.17917847E-01 0.27471251E+03</pdfrwt>
<totfact> 0.46041390E+03</totfact>
</mgrwt>
</event>
<event>
 5    1  0.1125356E+001  0.2737104E+03  0.7818608E-02  0.1099175E+00
         -1   -1    0    0    0  501 -0.00000000000E+00  0.00000000000E+00  0.47482096916E+02  0.47482096916E+02  0.00000000000E+00 0.  1.
          1   -1    0    0  501    0  0.00000000000E+00 -0.00000000000E+00 -0.39445080451E+03  0.39445080451E+03  0.00000000000E+00 0.  1.
         35    2    1    2    0    0  0.00000000000E+00  0.00000000000E+00 -0.34696870759E+03  0.44193290143E+03  0.27371044064E+03 0.  0.
         25    1    3    3    0    0 -0.12123540246E+02 -0.45907882799E+02 -0.24703000628E+03  0.27870833847E+03  0.12000000000E+03 0.  0.
         25    1    3    3    0    0  0.12123540246E+02  0.45907882799E+02 -0.99938701313E+02  0.16322456295E+03  0.12000000000E+03 0.  0.
<mgrwt>
<rscale>  0 0.27371044E+03</rscale>
<asrwt>0</asrwt>
<pdfrwt beam="1">  1        1 0.60684740E-01 0.27371044E+03</pdfrwt>
<pdfrwt beam="2">  1       -1 0.73049379E-02 0.27371044E+03</pdfrwt>
<totfact> 0.60701629E+03</totfact>
</mgrwt>
</event>
<event>
 5    1  0.1125356E+001  0.2753968E+03  0.7818608E-02  0.1098230E+00
         -1   -1    0    0    0  501 -0.00000000000E+00  0.00000000000E+00  0.77358895981E+02  0.77358895981E+02  0.00000000000E+00 0.  1.
          1   -1    0    0  501    0  0.00000000000E+00 -0.00000000000E+00 -0.24510245410E+03  0.24510245410E+03  0.00000000000E+00 0.  1.
         35    2    1    2    0    0  0.00000000000E+00  0.00000000000E+00 -0.16774355812E+03  0.32246135008E+03  0.27539684277E+03 0.  0.
         25    1    3    3    0    0  0.40818664620E+02 -0.38814245163E+02 -0.40246690480E+02  0.13853701709E+03  0.12000000000E+03 0.  0.
         25    1    3    3    0    0 -0.40818664620E+02  0.38814245163E+02 -0.12749686764E+03  0.18392433299E+03  0.12000000000E+03 0.  0.
<mgrwt>
<rscale>  0 0.27539684E+03</rscale>
<asrwt>0</asrwt>
<pdfrwt beam="1">  1        1 0.37708070E-01 0.27539684E+03</pdfrwt>
<pdfrwt beam="2">  1       -1 0.11901369E-01 0.27539684E+03</pdfrwt>
<totfact> 0.52201333E+03</totfact>
</mgrwt>
</event>
<event>
 5    1  0.1125356E+001  0.2746585E+03  0.7818608E-02  0.1098643E+00
         -1   -1    0    0    0  501 -0.00000000000E+00  0.00000000000E+00  0.15972329911E+02  0.15972329911E+02  0.00000000000E+00 0. -1.
          1   -1    0    0  501    0  0.00000000000E+00 -0.00000000000E+00 -0.11807500538E+04  0.11807500538E+04  0.00000000000E+00 0. -1.
         35    2    1    2    0    0  0.00000000000E+00  0.00000000000E+00 -0.11647777239E+04  0.11967223837E+04  0.27465854730E+03 0.  0.
         25    1    3    3    0    0 -0.49122469717E+02  0.39033789106E+02 -0.48277576524E+03  0.50140711326E+03  0.12000000000E+03 0.  0.
         25    1    3    3    0    0  0.49122469717E+02 -0.39033789106E+02 -0.68200195863E+03  0.69531527043E+03  0.12000000000E+03 0.  0.
<mgrwt>
<rscale>  0 0.27465855E+03</rscale>
<asrwt>0</asrwt>
<pdfrwt beam="1">  1        1 0.18165390E+00 0.27465855E+03</pdfrwt>
<pdfrwt beam="2">  1       -1 0.24572809E-02 0.27465855E+03</pdfrwt>
<totfact> 0.59827131E+03</totfact>
</mgrwt>
</event>
<event>
 5    1  0.1125356E+001  0.2751392E+03  0.7818608E-02  0.1098374E+00
          2   -1    0    0  501    0  0.00000000000E+00  0.00000000000E+00  0.50361477547E+03  0.50361477547E+03  0.00000000000E+00 0.  1.
         -2   -1    0    0    0  501 -0.00000000000E+00 -0.00000000000E+00 -0.37579119363E+02  0.37579119363E+02  0.00000000000E+00 0.  1.
         35    2    1    2    0    0  0.00000000000E+00  0.00000000000E+00  0.46603565610E+03  0.54119389483E+03  0.27513923573E+03 0.  0.
         25    1    3    3    0    0 -0.27883843971E+02 -0.26441754415E+02  0.34162523922E+03  0.36412151709E+03  0.12000000000E+03 0.  0.
         25    1    3    3    0    0  0.27883843971E+02  0.26441754415E+02  0.12441041688E+03  0.17707237774E+03  0.12000000000E+03 0.  0.
<mgrwt>
<rscale>  0 0.27513924E+03</rscale>
<asrwt>0</asrwt>
<pdfrwt beam="1">  1        2 0.77479191E-01 0.27513924E+03</pdfrwt>
<pdfrwt beam="2">  1       -2 0.57814033E-02 0.27513924E+03</pdfrwt>
<totfact> 0.96215901E+03</totfact>
</mgrwt>
</event>
<event>
 5    1  0.1125356E+001  0.2751158E+03  0.7818608E-02  0.1098387E+00
         -2   -1    0    0    0  501 -0.00000000000E+00  0.00000000000E+00  0.88962657187E+01  0.88962657187E+01  0.00000000000E+00 0. -1.
          2   -1    0    0  501    0  0.00000000000E+00 -0.00000000000E+00 -0.21269791406E+04  0.21269791406E+04  0.00000000000E+00 0. -1.
         35    2    1    2    0    0  0.00000000000E+00  0.00000000000E+00 -0.21180828749E+04  0.21358754063E+04  0.27511576918E+03 0.  0.
         25    1    3    3    0    0  0.62377857558E+02 -0.21681415683E+02 -0.11575776086E+04  0.11656530362E+04  0.12000000000E+03 0.  0.
         25    1    3    3    0    0 -0.62377857558E+02  0.21681415683E+02 -0.96050526626E+03  0.97022237008E+03  0.12000000000E+03 0.  0.
<mgrwt>
<rscale>  0 0.27511577E+03</rscale>
<asrwt>0</asrwt>
<pdfrwt beam="1">  1        2 0.32722755E+00 0.27511577E+03</pdfrwt>
<pdfrwt beam="2">  1       -2 0.13686563E-02 0.27511577E+03</pdfrwt>
<totfact> 0.85893936E+03</totfact>
</mgrwt>
</event>
<event>
 5    1  0.1125356E+001  0.2760846E+03  0.7818608E-02  0.1097847E+00
         -1   -1    0    0    0  501 -0.00000000000E+00  0.00000000000E+00  0.11408081846E+03  0.11408081846E+03  0.00000000000E+00 0. -1.
          1   -1    0    0  501    0  0.00000000000E+00 -0.00000000000E+00 -0.16703667393E+03  0.16703667393E+03  0.00000000000E+00 0. -1.
         35    2    1    2    0    0  0.00000000000E+00  0.00000000000E+00 -0.52955855474E+02  0.28111749239E+03  0.27608462814E+03 0.  0.
         25    1    3    3    0    0 -0.57536523475E+02  0.36677117605E+02 -0.26614478987E+02  0.14058446920E+03  0.12000000000E+03 0.  0.
         25    1    3    3    0    0  0.57536523475E+02 -0.36677117605E+02 -0.26341376487E+02  0.14053302318E+03  0.12000000000E+03 0.  0.
<mgrwt>
<rscale>  0 0.27608463E+03</rscale>
<asrwt>0</asrwt>
<pdfrwt beam="1">  1        1 0.25697950E-01 0.27608463E+03</pdfrwt>
<pdfrwt beam="2">  1       -1 0.17550895E-01 0.27608463E+03</pdfrwt>
<totfact> 0.45785718E+03</totfact>
</mgrwt>
</event>
<event>
 5    1  0.1125356E+001  0.2755641E+03  0.7818608E-02  0.1098137E+00
          1   -1    0    0  501    0  0.00000000000E+00  0.00000000000E+00  0.54969376816E+03  0.54969376816E+03  0.00000000000E+00 0.  1.
         -1   -1    0    0    0  501 -0.00000000000E+00 -0.00000000000E+00 -0.34535402352E+02  0.34535402352E+02  0.00000000000E+00 0.  1.
         35    2    1    2    0    0  0.00000000000E+00  0.00000000000E+00  0.51515836580E+03  0.58422917051E+03  0.27556411561E+03 0.  0.
         25    1    3    3    0    0  0.18200901657E+02 -0.72007058145E+01  0.12016702667E+03  0.17094805434E+03  0.12000000000E+03 0.  0.
         25    1    3    3    0    0 -0.18200901657E+02  0.72007058145E+01  0.39499133914E+03  0.41328111616E+03  0.12000000000E+03 0.  0.
<mgrwt>
<rscale>  0 0.27556412E+03</rscale>
<asrwt>0</asrwt>
<pdfrwt beam="1">  1        1 0.84568266E-01 0.27556412E+03</pdfrwt>
<pdfrwt beam="2">  1       -1 0.53131392E-02 0.27556412E+03</pdfrwt>
<totfact> 0.63511143E+03</totfact>
</mgrwt>
</event>
<event>
 5    1  0.1125356E+001  0.2755585E+03  0.7818608E-02  0.1098140E+00
          1   -1    0    0  501    0  0.00000000000E+00  0.00000000000E+00  0.25702774970E+03  0.25702774970E+03  0.00000000000E+00 0. -1.
         -1   -1    0    0    0  501 -0.00000000000E+00 -0.00000000000E+00 -0.73856294613E+02  0.73856294613E+02  0.00000000000E+00 0. -1.
         35    2    1    2    0    0  0.00000000000E+00  0.00000000000E+00  0.18317145509E+03  0.33088404431E+03  0.27555846716E+03 0.  0.
         25    1    3    3    0    0 -0.22312274104E+02 -0.36877482549E+02  0.28899564756E+02  0.13074009002E+03  0.12000000000E+03 0.  0.
         25    1    3    3    0    0  0.22312274104E+02  0.36877482549E+02  0.15427189033E+03  0.20014395430E+03  0.12000000000E+03 0.  0.
<mgrwt>
<rscale>  0 0.27555847E+03</rscale>
<asrwt>0</asrwt>
<pdfrwt beam="1">  1        1 0.39542730E-01 0.27555847E+03</pdfrwt>
<pdfrwt beam="2">  1       -1 0.11362507E-01 0.27555847E+03</pdfrwt>
<totfact> 0.52863851E+03</totfact>
</mgrwt>
</event>
<event>
 5    1  0.1125356E+001  0.2760444E+03  0.7818608E-02  0.1097869E+00
          2   -1    0    0  501    0  0.00000000000E+00  0.00000000000E+00  0.14866219902E+03  0.14866219902E+03  0.00000000000E+00 0.  1.
         -2   -1    0    0    0  501 -0.00000000000E+00 -0.00000000000E+00 -0.12814374900E+03  0.12814374900E+03  0.00000000000E+00 0.  1.
         35    2    1    2    0    0  0.00000000000E+00  0.00000000000E+00  0.20518450013E+02  0.27680594802E+03  0.27604442770E+03 0.  0.
         25    1    3    3    0    0 -0.32613499749E+02  0.36959376036E+02 -0.36992905950E+02  0.13490037410E+03  0.12000000000E+03 0.  0.
         25    1    3    3    0    0  0.32613499749E+02 -0.36959376036E+02  0.57511355963E+02  0.14190557391E+03  0.12000000000E+03 0.  0.
<mgrwt>
<rscale>  0 0.27604443E+03</rscale>
<asrwt>0</asrwt>
<pdfrwt beam="1">  1        2 0.22871108E-01 0.27604443E+03</pdfrwt>
<pdfrwt beam="2">  1       -2 0.19714423E-01 0.27604443E+03</pdfrwt>
<totfact> 0.50939050E+03</totfact>
</mgrwt>
</event>
<event>
 5    1  0.1125356E+001  0.2748475E+03  0.7818608E-02  0.1098537E+00
          1   -1    0    0  501    0  0.00000000000E+00  0.00000000000E+00  0.50300904326E+02  0.50300904326E+02  0.00000000000E+00 0. -1.
         -1   -1    0    0    0  501 -0.00000000000E+00 -0.00000000000E+00 -0.37544614513E+03  0.37544614513E+03  0.00000000000E+00 0. -1.
         35    2    1    2    0    0  0.00000000000E+00  0.00000000000E+00 -0.32514524081E+03  0.42574704946E+03  0.27484745315E+03 0.  0.
         25    1    3    3    0    0  0.91805343662E+01  0.67467864657E+00 -0.59815227886E+02  0.13439716846E+03  0.12000000000E+03 0.  0.
         25    1    3    3    0    0 -0.91805343662E+01 -0.67467864657E+00 -0.26533001292E+03  0.29134988100E+03  0.12000000000E+03 0.  0.
<mgrwt>
<rscale>  0 0.27484745E+03</rscale>
<asrwt>0</asrwt>
<pdfrwt beam="1">  1        1 0.77386006E-02 0.27484745E+03</pdfrwt>
<pdfrwt beam="2">  1       -1 0.57760946E-01 0.27484745E+03</pdfrwt>
<totfact> 0.28368521E+03</totfact>
</mgrwt>
</event>
<event>
 5    1  0.1125356E+001  0.2747981E+03  0.7818608E-02  0.1098564E+00
          1   -1    0    0  501    0  0.00000000000E+00  0.00000000000E+00  0.17135547697E+03  0.17135547697E+03  0.00000000000E+00 0. -1.
         -1   -1    0    0    0  501 -0.00000000000E+00 -0.00000000000E+00 -0.11017159044E+03  0.11017159044E+03  0.00000000000E+00 0. -1.
         35    2    1    2    0    0  0.00000000000E+00  0.00000000000E+00  0.61183886528E+02  0.28152706741E+03  0.27479814721E+03 0.  0.
         25    1    3    3    0    0  0.43812988176E+02 -0.24078064851E+02  0.76169220423E+02  0.15066878004E+03  0.12000000000E+03 0.  0.
         25    1    3    3    0    0 -0.43812988176E+02  0.24078064851E+02 -0.14985333895E+02  0.13085828736E+03  0.12000000000E+03 0.  0.
<mgrwt>
<rscale>  0 0.27479815E+03</rscale>
<asrwt>0</asrwt>
<pdfrwt beam="1">  1        1 0.26362381E-01 0.27479815E+03</pdfrwt>
<pdfrwt beam="2">  1       -1 0.16949475E-01 0.27479815E+03</pdfrwt>
<totfact> 0.46867990E+03</totfact>
</mgrwt>
</event>
<event>
 5    1  0.1125356E+001  0.2748640E+03  0.7818608E-02  0.1098528E+00
         -1   -1    0    0    0  501 -0.00000000000E+00  0.00000000000E+00  0.20447114201E+02  0.20447114201E+02  0.00000000000E+00 0. -1.
          1   -1    0    0  501    0  0.00000000000E+00 -0.00000000000E+00 -0.92372738645E+03  0.92372738645E+03  0.00000000000E+00 0. -1.
         35    2    1    2    0    0  0.00000000000E+00  0.00000000000E+00 -0.90328027225E+03  0.94417450065E+03  0.27486403447E+03 0.  0.
         25    1    3    3    0    0  0.40956109938E+02 -0.70749413601E+01 -0.27117351513E+03  0.29943702685E+03  0.12000000000E+03 0.  0.
         25    1    3    3    0    0 -0.40956109938E+02  0.70749413601E+01 -0.63210675711E+03  0.64473747380E+03  0.12000000000E+03 0.  0.
<mgrwt>
<rscale>  0 0.27486403E+03</rscale>
<asrwt>0</asrwt>
<pdfrwt beam="1">  1        1 0.14211185E+00 0.27486403E+03</pdfrwt>
<pdfrwt beam="2">  1       -1 0.31457111E-02 0.27486403E+03</pdfrwt>
<totfact> 0.64254893E+03</totfact>
</mgrwt>
</event>
<event>
 5    1  0.1125356E+001  0.2761850E+03  0.7818608E-02  0.1097791E+00
          1   -1    0    0  501    0  0.00000000000E+00  0.00000000000E+00  0.62327425421E+03  0.62327425421E+03  0.00000000000E+00 0.  1.
         -1   -1    0    0    0  501 -0.00000000000E+00 -0.00000000000E+00 -0.30595748908E+02  0.30595748908E+02  0.00000000000E+00 0.  1.
         35    2    1    2    0    0  0.00000000000E+00  0.00000000000E+00  0.59267850531E+03  0.65387000312E+03  0.27618502916E+03 0.  0.
         25    1    3    3    0    0 -0.64301529286E+02 -0.73830444135E+01  0.24445105004E+03  0.27990268287E+03  0.12000000000E+03 0.  0.
         25    1    3    3    0    0  0.64301529286E+02  0.73830444135E+01  0.34822745527E+03  0.37396732025E+03  0.12000000000E+03 0.  0.
<mgrwt>
<rscale>  0 0.27618503E+03</rscale>
<asrwt>0</asrwt>
<pdfrwt beam="1">  1        1 0.95888337E-01 0.27618503E+03</pdfrwt>
<pdfrwt beam="2">  1       -1 0.47070388E-02 0.27618503E+03</pdfrwt>
<totfact> 0.64033101E+03</totfact>
</mgrwt>
</event>
<event>
 5    1  0.1125356E+001  0.2747779E+03  0.7818608E-02  0.1098576E+00
         -2   -1    0    0    0  501 -0.00000000000E+00  0.00000000000E+00  0.73306174982E+01  0.73306174982E+01  0.00000000000E+00 0. -1.
          2   -1    0    0  501    0  0.00000000000E+00 -0.00000000000E+00 -0.25749150620E+04  0.25749150620E+04  0.00000000000E+00 0. -1.
         35    2    1    2    0    0  0.00000000000E+00  0.00000000000E+00 -0.25675844445E+04  0.25822456795E+04  0.27477785508E+03 0.  0.
         25    1    3    3    0    0 -0.38036761877E+02 -0.52263699360E+02 -0.11217207147E+04  0.11299715268E+04  0.12000000000E+03 0.  0.
         25    1    3    3    0    0  0.38036761877E+02  0.52263699360E+02 -0.14458637298E+04  0.14522741527E+04  0.12000000000E+03 0.  0.
<mgrwt>
<rscale>  0 0.27477786E+03</rscale>
<asrwt>0</asrwt>
<pdfrwt beam="1">  1        2 0.39614090E+00 0.27477786E+03</pdfrwt>
<pdfrwt beam="2">  1       -2 0.11277870E-02 0.27477786E+03</pdfrwt>
<totfact> 0.65272126E+03</totfact>
</mgrwt>
</event>
<event>
 5    1  0.1125356E+001  0.2749948E+03  0.7818608E-02  0.1098454E+00
          2   -1    0    0  501    0  0.00000000000E+00  0.00000000000E+00  0.75173856521E+03  0.75173856521E+03  0.00000000000E+00 0. -1.
         -2   -1    0    0    0  501 -0.00000000000E+00 -0.00000000000E+00 -0.25149085612E+02  0.25149085612E+02  0.00000000000E+00 0. -1.
         35    2    1    2    0    0  0.00000000000E+00  0.00000000000E+00  0.72658947960E+03  0.77688765082E+03  0.27499481838E+03 0.  0.
         25    1    3    3    0    0  0.48260425603E+02 -0.18745867984E+02  0.48398505849E+03  0.50132026997E+03  0.12000000000E+03 0.  0.
         25    1    3    3    0    0 -0.48260425603E+02  0.18745867984E+02  0.24260442111E+03  0.27556738085E+03  0.12000000000E+03 0.  0.
<mgrwt>
<rscale>  0 0.27499482E+03</rscale>
<asrwt>0</asrwt>
<pdfrwt beam="1">  1        2 0.11565207E+00 0.27499482E+03</pdfrwt>
<pdfrwt beam="2">  1       -2 0.38690907E-02 0.27499482E+03</pdfrwt>
<totfact> 0.11054750E+04</totfact>
</mgrwt>
</event>
<event>
 5    1  0.1125356E+001  0.2752244E+03  0.7818608E-02  0.1098326E+00
          4   -1    0    0  501    0  0.00000000000E+00  0.00000000000E+00  0.33609648471E+03  0.33609648471E+03  0.00000000000E+00 0.  1.
         -4   -1    0    0    0  501 -0.00000000000E+00 -0.00000000000E+00 -0.56344293294E+02  0.56344293294E+02  0.00000000000E+00 0.  1.
         35    2    1    2    0    0  0.00000000000E+00  0.00000000000E+00  0.27975219141E+03  0.39244077800E+03  0.27522440960E+03 0.  0.
         25    1    3    3    0    0 -0.62127988258E+02 -0.21230577547E+02  0.16133542126E+03  0.21151771203E+03  0.12000000000E+03 0.  0.
         25    1    3    3    0    0  0.62127988258E+02  0.21230577547E+02  0.11841677016E+03  0.18092306598E+03  0.12000000000E+03 0.  0.
<mgrwt>
<rscale>  0 0.27522441E+03</rscale>
<asrwt>0</asrwt>
<pdfrwt beam="1">  1        4 0.51707150E-01 0.27522441E+03</pdfrwt>
<pdfrwt beam="2">  1       -4 0.86683530E-02 0.27522441E+03</pdfrwt>
<totfact> 0.65521878E+02</totfact>
</mgrwt>
</event>
<event>
 5    1  0.1125356E+001  0.2690612E+03  0.7818608E-02  0.1101818E+00
          1   -1    0    0  501    0  0.00000000000E+00  0.00000000000E+00  0.80927654592E+02  0.80927654592E+02  0.00000000000E+00 0.  1.
         -1   -1    0    0    0  501 -0.00000000000E+00 -0.00000000000E+00 -0.22363771935E+03  0.22363771935E+03  0.00000000000E+00 0.  1.
         35    2    1    2    0    0  0.00000000000E+00  0.00000000000E+00 -0.14271006476E+03  0.30456537395E+03  0.26906115369E+03 0.  0.
         25    1    3    3    0    0  0.48279342406E+02  0.33484297327E+02 -0.53587180419E+02  0.14395721231E+03  0.12000000000E+03 0.  0.
         25    1    3    3    0    0 -0.48279342406E+02 -0.33484297327E+02 -0.89122884342E+02  0.16060816164E+03  0.12000000000E+03 0.  0.
<mgrwt>
<rscale>  0 0.26906115E+03</rscale>
<asrwt>0</asrwt>
<pdfrwt beam="1">  1        1 0.12450408E-01 0.26906115E+03</pdfrwt>
<pdfrwt beam="2">  1       -1 0.34405803E-01 0.26906115E+03</pdfrwt>
<totfact> 0.38247608E+03</totfact>
</mgrwt>
</event>
<event>
 5    1  0.1125356E+001  0.2748850E+03  0.7818608E-02  0.1098516E+00
         -2   -1    0    0    0  501 -0.00000000000E+00  0.00000000000E+00  0.10834130947E+02  0.10834130947E+02  0.00000000000E+00 0. -1.
          2   -1    0    0  501    0  0.00000000000E+00 -0.00000000000E+00 -0.17436048965E+04  0.17436048965E+04  0.00000000000E+00 0. -1.
         35    2    1    2    0    0  0.00000000000E+00  0.00000000000E+00 -0.17327707655E+04  0.17544390274E+04  0.27488502156E+03 0.  0.
         25    1    3    3    0    0 -0.19879078063E+02 -0.95647654712E+01 -0.12702375115E+04  0.12760838523E+04  0.12000000000E+03 0.  0.
         25    1    3    3    0    0  0.19879078063E+02  0.95647654712E+01 -0.46253325402E+03  0.47835517511E+03  0.12000000000E+03 0.  0.
<mgrwt>
<rscale>  0 0.27488502E+03</rscale>
<asrwt>0</asrwt>
<pdfrwt beam="1">  1        2 0.26824685E+00 0.27488502E+03</pdfrwt>
<pdfrwt beam="2">  1       -2 0.16667897E-02 0.27488502E+03</pdfrwt>
<totfact> 0.10242263E+04</totfact>
</mgrwt>
</event>
<event>
 5    1  0.1125356E+001  0.2734997E+03  0.7818608E-02  0.1099293E+00
          1   -1    0    0  501    0  0.00000000000E+00  0.00000000000E+00  0.10253216372E+04  0.10253216372E+04  0.00000000000E+00 0.  1.
         -1   -1    0    0    0  501 -0.00000000000E+00 -0.00000000000E+00 -0.18238682734E+02  0.18238682734E+02  0.00000000000E+00 0.  1.
         35    2    1    2    0    0  0.00000000000E+00  0.00000000000E+00  0.10070829545E+04  0.10435603199E+04  0.27349966026E+03 0.  0.
         25    1    3    3    0    0 -0.61563355424E+02 -0.14628544143E+02  0.56923987973E+03  0.58518209278E+03  0.12000000000E+03 0.  0.
         25    1    3    3    0    0  0.61563355424E+02  0.14628544143E+02  0.43784307473E+03  0.45837822715E+03  0.12000000000E+03 0.  0.
<mgrwt>
<rscale>  0 0.27349966E+03</rscale>
<asrwt>0</asrwt>
<pdfrwt beam="1">  1        1 0.15774175E+00 0.27349966E+03</pdfrwt>
<pdfrwt beam="2">  1       -1 0.28059520E-02 0.27349966E+03</pdfrwt>
<totfact> 0.63698952E+03</totfact>
</mgrwt>
</event>
<event>
 5    1  0.1125356E+001  0.2748295E+03  0.7818608E-02  0.1098547E+00
         -4   -1    0    0    0  501 -0.00000000000E+00  0.00000000000E+00  0.17455156421E+02  0.17455156421E+02  0.00000000000E+00 0.  1.
          4   -1    0    0  501    0  0.00000000000E+00 -0.00000000000E+00 -0.10817897667E+04  0.10817897667E+04  0.00000000000E+00 0.  1.
         35    2    1    2    0    0  0.00000000000E+00  0.00000000000E+00 -0.10643346103E+04  0.10992449231E+04  0.27482947144E+03 0.  0.
         25    1    3    3    0    0 -0.29326276302E+02  0.38203466272E+02 -0.71819900691E+03  0.72974608518E+03  0.12000000000E+03 0.  0.
         25    1    3    3    0    0  0.29326276302E+02 -0.38203466272E+02 -0.34613560337E+03  0.36949883794E+03  0.12000000000E+03 0.  0.
<mgrwt>
<rscale>  0 0.27482947E+03</rscale>
<asrwt>0</asrwt>
<pdfrwt beam="1">  1        4 0.16642923E+00 0.27482947E+03</pdfrwt>
<pdfrwt beam="2">  1       -4 0.26854082E-02 0.27482947E+03</pdfrwt>
<totfact> 0.28890854E+02</totfact>
</mgrwt>
</event>
<event>
 5    1  0.1125356E+001  0.2758239E+03  0.7818608E-02  0.1097992E+00
          1   -1    0    0  501    0  0.00000000000E+00  0.00000000000E+00  0.10171356348E+03  0.10171356348E+03  0.00000000000E+00 0.  1.
         -1   -1    0    0    0  501 -0.00000000000E+00 -0.00000000000E+00 -0.18699283231E+03  0.18699283231E+03  0.00000000000E+00 0.  1.
         35    2    1    2    0    0  0.00000000000E+00  0.00000000000E+00 -0.85279268831E+02  0.28870639579E+03  0.27582390991E+03 0.  0.
         25    1    3    3    0    0  0.57174445765E+02 -0.24225064551E+02 -0.71569943477E+02  0.15289875019E+03  0.12000000000E+03 0.  0.
         25    1    3    3    0    0 -0.57174445765E+02  0.24225064551E+02 -0.13709325353E+02  0.13580764560E+03  0.12000000000E+03 0.  0.
<mgrwt>
<rscale>  0 0.27582391E+03</rscale>
<asrwt>0</asrwt>
<pdfrwt beam="1">  1        1 0.15648241E-01 0.27582391E+03</pdfrwt>
<pdfrwt beam="2">  1       -1 0.28768128E-01 0.27582391E+03</pdfrwt>
<totfact> 0.38472309E+03</totfact>
</mgrwt>
</event>
<event>
 5    1  0.1125356E+001  0.2773940E+03  0.7818608E-02  0.1097121E+00
         -1   -1    0    0    0  501 -0.00000000000E+00  0.00000000000E+00  0.24872033370E+03  0.24872033370E+03  0.00000000000E+00 0. -1.
          1   -1    0    0  501    0  0.00000000000E+00 -0.00000000000E+00 -0.77343340224E+02  0.77343340224E+02  0.00000000000E+00 0. -1.
         35    2    1    2    0    0  0.00000000000E+00  0.00000000000E+00  0.17137699348E+03  0.32606367393E+03  0.27739402582E+03 0.  0.
         25    1    3    3    0    0 -0.62627370361E+01 -0.36097620313E+02  0.15517558803E+03  0.19955381025E+03  0.12000000000E+03 0.  0.
         25    1    3    3    0    0  0.62627370361E+01  0.36097620313E+02  0.16201405449E+02  0.12650986367E+03  0.12000000000E+03 0.  0.
<mgrwt>
<rscale>  0 0.27739403E+03</rscale>
<asrwt>0</asrwt>
<pdfrwt beam="1">  1        1 0.11898976E-01 0.27739403E+03</pdfrwt>
<pdfrwt beam="2">  1       -1 0.38264666E-01 0.27739403E+03</pdfrwt>
<totfact> 0.33765457E+03</totfact>
</mgrwt>
</event>
<event>
 5    1  0.1125356E+001  0.2717215E+03  0.7818608E-02  0.1100298E+00
          2   -1    0    0  501    0  0.00000000000E+00  0.00000000000E+00  0.19826225429E+03  0.19826225429E+03  0.00000000000E+00 0.  1.
         -2   -1    0    0    0  501 -0.00000000000E+00 -0.00000000000E+00 -0.93099652933E+02  0.93099652933E+02  0.00000000000E+00 0.  1.
         35    2    1    2    0    0  0.00000000000E+00  0.00000000000E+00  0.10516260135E+03  0.29136190722E+03  0.27172152704E+03 0.  0.
         25    1    3    3    0    0 -0.31661234796E+02  0.42730111942E+02  0.14977223082E+02  0.13210833988E+03  0.12000000000E+03 0.  0.
         25    1    3    3    0    0  0.31661234796E+02 -0.42730111942E+02  0.90185378271E+02  0.15925356734E+03  0.12000000000E+03 0.  0.
<mgrwt>
<rscale>  0 0.27172153E+03</rscale>
<asrwt>0</asrwt>
<pdfrwt beam="1">  1        2 0.30501885E-01 0.27172153E+03</pdfrwt>
<pdfrwt beam="2">  1       -2 0.14323024E-01 0.27172153E+03</pdfrwt>
<totfact> 0.63113158E+03</totfact>
</mgrwt>
</event>
<event>
 5    1  0.1125356E+001  0.2750687E+03  0.7818608E-02  0.1098413E+00
          3   -1    0    0  501    0  0.00000000000E+00  0.00000000000E+00  0.16540334973E+03  0.16540334973E+03  0.00000000000E+00 0. -1.
         -3   -1    0    0    0  501 -0.00000000000E+00 -0.00000000000E+00 -0.11436102783E+03  0.11436102783E+03  0.00000000000E+00 0. -1.
         35    2    1    2    0    0  0.00000000000E+00  0.00000000000E+00  0.51042321902E+02  0.27976437755E+03  0.27506869746E+03 0.  0.
         25    1    3    3    0    0 -0.28657381448E+02 -0.12053445676E+02 -0.35070715355E+02  0.12882735012E+03  0.12000000000E+03 0.  0.
         25    1    3    3    0    0  0.28657381448E+02  0.12053445676E+02  0.86113037257E+02  0.15093702743E+03  0.12000000000E+03 0.  0.
<mgrwt>
<rscale>  0 0.27506870E+03</rscale>
<asrwt>0</asrwt>
<pdfrwt beam="1">  1        3 0.25446669E-01 0.27506870E+03</pdfrwt>
<pdfrwt beam="2">  1       -3 0.17594004E-01 0.27506870E+03</pdfrwt>
<totfact> 0.10408860E+03</totfact>
</mgrwt>
</event>
<event>
 5    1  0.1125356E+001  0.2749917E+03  0.7818608E-02  0.1098456E+00
          1   -1    0    0  501    0  0.00000000000E+00  0.00000000000E+00  0.23078716617E+04  0.23078716617E+04  0.00000000000E+00 0. -1.
         -1   -1    0    0    0  501 -0.00000000000E+00 -0.00000000000E+00 -0.81915801061E+01  0.81915801061E+01  0.00000000000E+00 0. -1.
         35    2    1    2    0    0  0.00000000000E+00  0.00000000000E+00  0.22996800815E+04  0.23160632418E+04  0.27499174963E+03 0.  0.
         25    1    3    3    0    0  0.15940323361E+01 -0.91502931392E+01  0.58997258728E+03  0.60212450752E+03  0.12000000000E+03 0.  0.
         25    1    3    3    0    0 -0.15940323361E+01  0.91502931392E+01  0.17097074943E+04  0.17139387342E+04  0.12000000000E+03 0.  0.
<mgrwt>
<rscale>  0 0.27499175E+03</rscale>
<asrwt>0</asrwt>
<pdfrwt beam="1">  1        1 0.35505666E+00 0.27499175E+03</pdfrwt>
<pdfrwt beam="2">  1       -1 0.12602449E-02 0.27499175E+03</pdfrwt>
<totfact> 0.28566939E+03</totfact>
</mgrwt>
</event>
<event>
 5    1  0.1125356E+001  0.2722375E+03  0.7818608E-02  0.1100006E+00
          2   -1    0    0  501    0  0.00000000000E+00  0.00000000000E+00  0.17499196031E+03  0.17499196031E+03  0.00000000000E+00 0. -1.
         -2   -1    0    0    0  501 -0.00000000000E+00 -0.00000000000E+00 -0.10588092369E+03  0.10588092369E+03  0.00000000000E+00 0. -1.
         35    2    1    2    0    0  0.00000000000E+00  0.00000000000E+00  0.69111036617E+02  0.28087288399E+03  0.27223747277E+03 0.  0.
         25    1    3    3    0    0  0.19573957019E+02  0.58352934905E+02  0.53582451534E+02  0.14511817225E+03  0.12000000000E+03 0.  0.
         25    1    3    3    0    0 -0.19573957019E+02 -0.58352934905E+02  0.15528585083E+02  0.13575471174E+03  0.12000000000E+03 0.  0.
<mgrwt>
<rscale>  0 0.27223747E+03</rscale>
<asrwt>0</asrwt>
<pdfrwt beam="1">  1        2 0.26921840E-01 0.27223747E+03</pdfrwt>
<pdfrwt beam="2">  1       -2 0.16289373E-01 0.27223747E+03</pdfrwt>
<totfact> 0.58534919E+03</totfact>
</mgrwt>
</event>
<event>
 5    1  0.1125356E+001  0.2750172E+03  0.7818608E-02  0.1098442E+00
         -2   -1    0    0    0  501 -0.00000000000E+00  0.00000000000E+00  0.97297411057E+01  0.97297411057E+01  0.00000000000E+00 0. -1.
          2   -1    0    0  501    0  0.00000000000E+00 -0.00000000000E+00 -0.19433834504E+04  0.19433834504E+04  0.00000000000E+00 0. -1.
         35    2    1    2    0    0  0.00000000000E+00  0.00000000000E+00 -0.19336537093E+04  0.19531131915E+04  0.27501722012E+03 0.  0.
         25    1    3    3    0    0  0.40654421576E+02  0.21883433660E+02 -0.13130671872E+04  0.13193472268E+04  0.12000000000E+03 0.  0.
         25    1    3    3    0    0 -0.40654421576E+02 -0.21883433660E+02 -0.62058652208E+03  0.63376596473E+03  0.12000000000E+03 0.  0.
<mgrwt>
<rscale>  0 0.27501722E+03</rscale>
<asrwt>0</asrwt>
<pdfrwt beam="1">  1        2 0.29898195E+00 0.27501722E+03</pdfrwt>
<pdfrwt beam="2">  1       -2 0.14968838E-02 0.27501722E+03</pdfrwt>
<totfact> 0.94160804E+03</totfact>
</mgrwt>
</event>
<event>
 5    1  0.1125356E+001  0.2815461E+03  0.7818608E-02  0.1094847E+00
          1   -1    0    0  501    0  0.00000000000E+00  0.00000000000E+00  0.13550659394E+03  0.13550659394E+03  0.00000000000E+00 0.  1.
         -1   -1    0    0    0  501 -0.00000000000E+00 -0.00000000000E+00 -0.14624419542E+03  0.14624419542E+03  0.00000000000E+00 0.  1.
         35    2    1    2    0    0  0.00000000000E+00  0.00000000000E+00 -0.10737601473E+02  0.28175078936E+03  0.28154610852E+03 0.  0.
         25    1    3    3    0    0 -0.51473609584E+02 -0.17170899992E+02  0.44393404235E+02  0.13897894312E+03  0.12000000000E+03 0.  0.
         25    1    3    3    0    0  0.51473609584E+02  0.17170899992E+02 -0.55131005709E+02  0.14277184625E+03  0.12000000000E+03 0.  0.
<mgrwt>
<rscale>  0 0.28154611E+03</rscale>
<asrwt>0</asrwt>
<pdfrwt beam="1">  1        1 0.20847168E-01 0.28154611E+03</pdfrwt>
<pdfrwt beam="2">  1       -1 0.22499107E-01 0.28154611E+03</pdfrwt>
<totfact> 0.39975595E+03</totfact>
</mgrwt>
</event>
<event>
 5    1  0.1125356E+001  0.2741264E+03  0.7818608E-02  0.1098941E+00
          2   -1    0    0  501    0  0.00000000000E+00  0.00000000000E+00  0.37491669709E+04  0.37491669709E+04  0.00000000000E+00 0.  1.
         -2   -1    0    0    0  501 -0.00000000000E+00 -0.00000000000E+00 -0.50107976692E+01  0.50107976692E+01  0.00000000000E+00 0.  1.
         35    2    1    2    0    0  0.00000000000E+00  0.00000000000E+00  0.37441561733E+04  0.37541777686E+04  0.27412637319E+03 0.  0.
         25    1    3    3    0    0  0.30458044501E+01 -0.36019259710E+02  0.11120757725E+04  0.11191153594E+04  0.12000000000E+03 0.  0.
         25    1    3    3    0    0 -0.30458044501E+01  0.36019259710E+02  0.26320804008E+04  0.26350624092E+04  0.12000000000E+03 0.  0.
<mgrwt>
<rscale>  0 0.27412637E+03</rscale>
<asrwt>0</asrwt>
<pdfrwt beam="1">  1        2 0.57679268E+00 0.27412637E+03</pdfrwt>
<pdfrwt beam="2">  1       -2 0.77089495E-03 0.27412637E+03</pdfrwt>
<totfact> 0.21291792E+03</totfact>
</mgrwt>
</event>
<event>
 5    1  0.1125356E+001  0.2753257E+03  0.7818608E-02  0.1098270E+00
         -1   -1    0    0    0  501 -0.00000000000E+00  0.00000000000E+00  0.47811640812E+02  0.47811640812E+02  0.00000000000E+00 0. -1.
          1   -1    0    0  501    0  0.00000000000E+00 -0.00000000000E+00 -0.39636918502E+03  0.39636918502E+03  0.00000000000E+00 0. -1.
         35    2    1    2    0    0  0.00000000000E+00  0.00000000000E+00 -0.34855754421E+03  0.44418082583E+03  0.27532570605E+03 0.  0.
         25    1    3    3    0    0  0.59191610333E+02 -0.10130659000E+02 -0.12469045867E+03  0.18317747533E+03  0.12000000000E+03 0.  0.
         25    1    3    3    0    0 -0.59191610333E+02  0.10130659000E+02 -0.22386708554E+03  0.26100335050E+03  0.12000000000E+03 0.  0.
<mgrwt>
<rscale>  0 0.27532571E+03</rscale>
<asrwt>0</asrwt>
<pdfrwt beam="1">  1        1 0.60979871E-01 0.27532571E+03</pdfrwt>
<pdfrwt beam="2">  1       -1 0.73556375E-02 0.27532571E+03</pdfrwt>
<totfact> 0.59705393E+03</totfact>
</mgrwt>
</event>
<event>
 5    1  0.1125356E+001  0.2752788E+03  0.7818608E-02  0.1098296E+00
          1   -1    0    0  501    0  0.00000000000E+00  0.00000000000E+00  0.47985627203E+03  0.47985627203E+03  0.00000000000E+00 0.  1.
         -1   -1    0    0    0  501 -0.00000000000E+00 -0.00000000000E+00 -0.39479733548E+02  0.39479733548E+02  0.00000000000E+00 0.  1.
         35    2    1    2    0    0  0.00000000000E+00  0.00000000000E+00  0.44037653848E+03  0.51933600558E+03  0.27527875153E+03 0.  0.
         25    1    3    3    0    0  0.66160979608E+02  0.85374787121E+01  0.23852153890E+03  0.27521389552E+03  0.12000000000E+03 0.  0.
         25    1    3    3    0    0 -0.66160979608E+02 -0.85374787121E+01  0.20185499958E+03  0.24412211006E+03  0.12000000000E+03 0.  0.
<mgrwt>
<rscale>  0 0.27527875E+03</rscale>
<asrwt>0</asrwt>
<pdfrwt beam="1">  1        1 0.73824038E-01 0.27527875E+03</pdfrwt>
<pdfrwt beam="2">  1       -1 0.60738055E-02 0.27527875E+03</pdfrwt>
<totfact> 0.62265614E+03</totfact>
</mgrwt>
</event>
<event>
 5    1  0.1125356E+001  0.2756434E+03  0.7818608E-02  0.1098092E+00
          1   -1    0    0  501    0  0.00000000000E+00  0.00000000000E+00  0.11061528099E+03  0.11061528099E+03  0.00000000000E+00 0.  1.
         -1   -1    0    0    0  501 -0.00000000000E+00 -0.00000000000E+00 -0.17171970637E+03  0.17171970637E+03  0.00000000000E+00 0.  1.
         35    2    1    2    0    0  0.00000000000E+00  0.00000000000E+00 -0.61104425386E+02  0.28233498736E+03  0.27564341873E+03 0.  0.
         25    1    3    3    0    0  0.41902270987E+02  0.51510845048E+02 -0.44508557291E+02  0.14418799930E+03  0.12000000000E+03 0.  0.
         25    1    3    3    0    0 -0.41902270987E+02 -0.51510845048E+02 -0.16595868095E+02  0.13814698806E+03  0.12000000000E+03 0.  0.
<mgrwt>
<rscale>  0 0.27564342E+03</rscale>
<asrwt>0</asrwt>
<pdfrwt beam="1">  1        1 0.17017736E-01 0.27564342E+03</pdfrwt>
<pdfrwt beam="2">  1       -1 0.26418416E-01 0.27564342E+03</pdfrwt>
<totfact> 0.39797714E+03</totfact>
</mgrwt>
</event>
<event>
 5    1  0.1125356E+001  0.2749548E+03  0.7818608E-02  0.1098477E+00
          1   -1    0    0  501    0  0.00000000000E+00  0.00000000000E+00  0.33952784709E+03  0.33952784709E+03  0.00000000000E+00 0. -1.
         -1   -1    0    0    0  501 -0.00000000000E+00 -0.00000000000E+00 -0.55665639921E+02  0.55665639921E+02  0.00000000000E+00 0. -1.
         35    2    1    2    0    0  0.00000000000E+00  0.00000000000E+00  0.28386220717E+03  0.39519348701E+03  0.27495479540E+03 0.  0.
         25    1    3    3    0    0  0.53463268721E+02  0.13799980026E+02  0.87176172514E+02  0.15826700732E+03  0.12000000000E+03 0.  0.
         25    1    3    3    0    0 -0.53463268721E+02 -0.13799980026E+02  0.19668603465E+03  0.23692647969E+03  0.12000000000E+03 0.  0.
<mgrwt>
<rscale>  0 0.27495480E+03</rscale>
<asrwt>0</asrwt>
<pdfrwt beam="1">  1        1 0.52235052E-01 0.27495480E+03</pdfrwt>
<pdfrwt beam="2">  1       -1 0.85639448E-02 0.27495480E+03</pdfrwt>
<totfact> 0.57637157E+03</totfact>
</mgrwt>
</event>
<event>
 5    1  0.1125356E+001  0.2744476E+03  0.7818608E-02  0.1098761E+00
          1   -1    0    0  501    0  0.00000000000E+00  0.00000000000E+00  0.40863796945E+03  0.40863796945E+03  0.00000000000E+00 0. -1.
         -1   -1    0    0    0  501 -0.00000000000E+00 -0.00000000000E+00 -0.46080833094E+02  0.46080833094E+02  0.00000000000E+00 0. -1.
         35    2    1    2    0    0  0.00000000000E+00  0.00000000000E+00  0.36255713636E+03  0.45471880254E+03  0.27444764941E+03 0.  0.
         25    1    3    3    0    0  0.43830035325E+02 -0.47504536471E+02  0.15494427703E+03  0.20636250135E+03  0.12000000000E+03 0.  0.
         25    1    3    3    0    0 -0.43830035325E+02  0.47504536471E+02  0.20761285933E+03  0.24835630119E+03  0.12000000000E+03 0.  0.
<mgrwt>
<rscale>  0 0.27444765E+03</rscale>
<asrwt>0</asrwt>
<pdfrwt beam="1">  1        1 0.62867377E-01 0.27444765E+03</pdfrwt>
<pdfrwt beam="2">  1       -1 0.70893592E-02 0.27444765E+03</pdfrwt>
<totfact> 0.60718085E+03</totfact>
</mgrwt>
</event>
<event>
 5    1  0.1125356E+001  0.2756062E+03  0.7818608E-02  0.1098113E+00
         -3   -1    0    0    0  501 -0.00000000000E+00  0.00000000000E+00  0.71368979836E+03  0.71368979836E+03  0.00000000000E+00 0.  1.
          3   -1    0    0  501    0  0.00000000000E+00 -0.00000000000E+00 -0.26607778682E+02  0.26607778682E+02  0.00000000000E+00 0.  1.
         35    2    1    2    0    0  0.00000000000E+00  0.00000000000E+00  0.68708201968E+03  0.74029757704E+03  0.27560624233E+03 0.  0.
         25    1    3    3    0    0  0.30057170547E+02 -0.44853769558E+02  0.23362836173E+03  0.26813710215E+03  0.12000000000E+03 0.  0.
         25    1    3    3    0    0 -0.30057170547E+02  0.44853769558E+02  0.45345365794E+03  0.47216047489E+03  0.12000000000E+03 0.  0.
<mgrwt>
<rscale>  0 0.27560624E+03</rscale>
<asrwt>0</asrwt>
<pdfrwt beam="1">  1        3 0.40935050E-02 0.27560624E+03</pdfrwt>
<pdfrwt beam="2">  1       -3 0.10979842E+00 0.27560624E+03</pdfrwt>
<totfact> 0.57890747E+02</totfact>
</mgrwt>
</event>
<event>
 5    1  0.1125356E+001  0.2748071E+03  0.7818608E-02  0.1098559E+00
          2   -1    0    0  501    0  0.00000000000E+00  0.00000000000E+00  0.93189082171E+02  0.93189082171E+02  0.00000000000E+00 0.  1.
         -2   -1    0    0    0  501 -0.00000000000E+00 -0.00000000000E+00 -0.20259605790E+03  0.20259605790E+03  0.00000000000E+00 0.  1.
         35    2    1    2    0    0  0.00000000000E+00  0.00000000000E+00 -0.10940697573E+03  0.29578514007E+03  0.27480713737E+03 0.  0.
         25    1    3    3    0    0  0.26587119154E+02 -0.60383501199E+02 -0.42588187325E+02  0.14341128206E+03  0.12000000000E+03 0.  0.
         25    1    3    3    0    0 -0.26587119154E+02  0.60383501199E+02 -0.66818788405E+02  0.15237385801E+03  0.12000000000E+03 0.  0.
<mgrwt>
<rscale>  0 0.27480714E+03</rscale>
<asrwt>0</asrwt>
<pdfrwt beam="1">  1        2 0.14336782E-01 0.27480714E+03</pdfrwt>
<pdfrwt beam="2">  1       -2 0.31168624E-01 0.27480714E+03</pdfrwt>
<totfact> 0.39009691E+03</totfact>
</mgrwt>
</event>
<event>
 5    1  0.1125356E+001  0.2737837E+03  0.7818608E-02  0.1099133E+00
          2   -1    0    0  501    0  0.00000000000E+00  0.00000000000E+00  0.44578656712E+03  0.44578656712E+03  0.00000000000E+00 0. -1.
         -2   -1    0    0    0  501 -0.00000000000E+00 -0.00000000000E+00 -0.42036671535E+02  0.42036671535E+02  0.00000000000E+00 0. -1.
         35    2    1    2    0    0  0.00000000000E+00  0.00000000000E+00  0.40374989558E+03  0.48782323865E+03  0.27378373579E+03 0.  0.
         25    1    3    3    0    0 -0.32101500375E+02  0.12060421568E+02  0.30209012563E+03  0.32685532594E+03  0.12000000000E+03 0.  0.
         25    1    3    3    0    0  0.32101500375E+02 -0.12060421568E+02  0.10165976995E+03  0.16096791271E+03  0.12000000000E+03 0.  0.
<mgrwt>
<rscale>  0 0.27378374E+03</rscale>
<asrwt>0</asrwt>
<pdfrwt beam="1">  1        2 0.68582546E-01 0.27378374E+03</pdfrwt>
<pdfrwt beam="2">  1       -2 0.64671805E-02 0.27378374E+03</pdfrwt>
<totfact> 0.92716858E+03</totfact>
</mgrwt>
</event>
<event>
 5    1  0.1125356E+001  0.2758502E+03  0.7818608E-02  0.1097977E+00
          2   -1    0    0  501    0  0.00000000000E+00  0.00000000000E+00  0.10186779301E+03  0.10186779301E+03  0.00000000000E+00 0. -1.
         -2   -1    0    0    0  501 -0.00000000000E+00 -0.00000000000E+00 -0.18674528084E+03  0.18674528084E+03  0.00000000000E+00 0. -1.
         35    2    1    2    0    0  0.00000000000E+00  0.00000000000E+00 -0.84877487827E+02  0.28861307386E+03  0.27585017394E+03 0.  0.
         25    1    3    3    0    0 -0.54953185559E+02  0.65352960423E+01 -0.11043319421E+01  0.13215060441E+03  0.12000000000E+03 0.  0.
         25    1    3    3    0    0  0.54953185559E+02 -0.65352960423E+01 -0.83773155885E+02  0.15646246944E+03  0.12000000000E+03 0.  0.
<mgrwt>
<rscale>  0 0.27585017E+03</rscale>
<asrwt>0</asrwt>
<pdfrwt beam="1">  1        2 0.15671968E-01 0.27585017E+03</pdfrwt>
<pdfrwt beam="2">  1       -2 0.28730043E-01 0.27585017E+03</pdfrwt>
<totfact> 0.40701741E+03</totfact>
</mgrwt>
</event>
<event>
 5    1  0.1125356E+001  0.2747627E+03  0.7818608E-02  0.1098584E+00
         -2   -1    0    0    0  501 -0.00000000000E+00  0.00000000000E+00  0.29704515256E+02  0.29704515256E+02  0.00000000000E+00 0. -1.
          2   -1    0    0  501    0  0.00000000000E+00 -0.00000000000E+00 -0.63537944420E+03  0.63537944420E+03  0.00000000000E+00 0. -1.
         35    2    1    2    0    0  0.00000000000E+00  0.00000000000E+00 -0.60567492894E+03  0.66508395945E+03  0.27476272232E+03 0.  0.
         25    1    3    3    0    0  0.40049440074E+01  0.34908156503E+02 -0.44059819570E+03  0.45799714958E+03  0.12000000000E+03 0.  0.
         25    1    3    3    0    0 -0.40049440074E+01 -0.34908156503E+02 -0.16507673324E+03  0.20708680987E+03  0.12000000000E+03 0.  0.
<mgrwt>
<rscale>  0 0.27476272E+03</rscale>
<asrwt>0</asrwt>
<pdfrwt beam="1">  1        2 0.97750683E-01 0.27476272E+03</pdfrwt>
<pdfrwt beam="2">  1       -2 0.45699255E-02 0.27476272E+03</pdfrwt>
<totfact> 0.10540751E+04</totfact>
</mgrwt>
</event>
<event>
 5    1  0.1125356E+001  0.2772025E+03  0.7818608E-02  0.1097227E+00
          2   -1    0    0  501    0  0.00000000000E+00  0.00000000000E+00  0.12523101948E+04  0.12523101948E+04  0.00000000000E+00 0.  1.
         -2   -1    0    0    0  501 -0.00000000000E+00 -0.00000000000E+00 -0.15339894178E+02  0.15339894178E+02  0.00000000000E+00 0.  1.
         35    2    1    2    0    0  0.00000000000E+00  0.00000000000E+00  0.12369703006E+04  0.12676500890E+04  0.27720249541E+03 0.  0.
         25    1    3    3    0    0  0.27391795261E+02 -0.10577473833E+02  0.33114453764E+03  0.35343867673E+03  0.12000000000E+03 0.  0.
         25    1    3    3    0    0 -0.27391795261E+02  0.10577473833E+02  0.90582576298E+03  0.91421141225E+03  0.12000000000E+03 0.  0.
<mgrwt>
<rscale>  0 0.27720250E+03</rscale>
<asrwt>0</asrwt>
<pdfrwt beam="1">  1        2 0.19266303E+00 0.27720250E+03</pdfrwt>
<pdfrwt beam="2">  1       -2 0.23599847E-02 0.27720250E+03</pdfrwt>
<totfact> 0.11286744E+04</totfact>
</mgrwt>
</event>
<event>
 5    1  0.1125356E+001  0.2772801E+03  0.7818608E-02  0.1097184E+00
          2   -1    0    0  501    0  0.00000000000E+00  0.00000000000E+00  0.18469633120E+04  0.18469633120E+04  0.00000000000E+00 0.  1.
         -2   -1    0    0    0  501 -0.00000000000E+00 -0.00000000000E+00 -0.10406846891E+02  0.10406846891E+02  0.00000000000E+00 0.  1.
         35    2    1    2    0    0  0.00000000000E+00  0.00000000000E+00  0.18365564651E+04  0.18573701589E+04  0.27728010676E+03 0.  0.
         25    1    3    3    0    0 -0.41656702603E+02 -0.43228311620E+02  0.11519693883E+04  0.11597574916E+04  0.12000000000E+03 0.  0.
         25    1    3    3    0    0  0.41656702603E+02  0.43228311620E+02  0.68458707675E+03  0.69761266721E+03  0.12000000000E+03 0.  0.
<mgrwt>
<rscale>  0 0.27728011E+03</rscale>
<asrwt>0</asrwt>
<pdfrwt beam="1">  1        2 0.28414794E+00 0.27728011E+03</pdfrwt>
<pdfrwt beam="2">  1       -2 0.16010548E-02 0.27728011E+03</pdfrwt>
<totfact> 0.95888371E+03</totfact>
</mgrwt>
</event>
<event>
 5    1  0.1125356E+001  0.2749739E+03  0.7818608E-02  0.1098466E+00
         -1   -1    0    0    0  501 -0.00000000000E+00  0.00000000000E+00  0.19105777148E+02  0.19105777148E+02  0.00000000000E+00 0. -1.
          1   -1    0    0  501    0  0.00000000000E+00 -0.00000000000E+00 -0.98936885436E+03  0.98936885436E+03  0.00000000000E+00 0. -1.
         35    2    1    2    0    0  0.00000000000E+00  0.00000000000E+00 -0.97026307721E+03  0.10084746315E+04  0.27497389584E+03 0.  0.
         25    1    3    3    0    0 -0.53206469826E+01  0.60724469607E+02 -0.58801145960E+03  0.60321907058E+03  0.12000000000E+03 0.  0.
         25    1    3    3    0    0  0.53206469826E+01 -0.60724469607E+02 -0.38225161761E+03  0.40525556092E+03  0.12000000000E+03 0.  0.
<mgrwt>
<rscale>  0 0.27497390E+03</rscale>
<asrwt>0</asrwt>
<pdfrwt beam="1">  1        1 0.15221057E+00 0.27497390E+03</pdfrwt>
<pdfrwt beam="2">  1       -1 0.29393507E-02 0.27497390E+03</pdfrwt>
<totfact> 0.63282641E+03</totfact>
</mgrwt>
</event>
<event>
 5    1  0.1125356E+001  0.2750340E+03  0.7818608E-02  0.1098433E+00
          2   -1    0    0  501    0  0.00000000000E+00  0.00000000000E+00  0.13027331376E+04  0.13027331376E+04  0.00000000000E+00 0. -1.
         -2   -1    0    0    0  501 -0.00000000000E+00 -0.00000000000E+00 -0.14516351155E+02  0.14516351155E+02  0.00000000000E+00 0. -1.
         35    2    1    2    0    0  0.00000000000E+00  0.00000000000E+00  0.12882167864E+04  0.13172494888E+04  0.27503404652E+03 0.  0.
         25    1    3    3    0    0  0.49515366014E+02 -0.43359247375E+02  0.70821058412E+03  0.72131409751E+03  0.12000000000E+03 0.  0.
         25    1    3    3    0    0 -0.49515366014E+02  0.43359247375E+02  0.58000620233E+03  0.59593539125E+03  0.12000000000E+03 0.  0.
<mgrwt>
<rscale>  0 0.27503405E+03</rscale>
<asrwt>0</asrwt>
<pdfrwt beam="1">  1        2 0.20042039E+00 0.27503405E+03</pdfrwt>
<pdfrwt beam="2">  1       -2 0.22332858E-02 0.27503405E+03</pdfrwt>
<totfact> 0.11476025E+04</totfact>
</mgrwt>
</event>
<event>
 5    1  0.1125356E+001  0.2758105E+03  0.7818608E-02  0.1097999E+00
         -2   -1    0    0    0  501 -0.00000000000E+00  0.00000000000E+00  0.40404676964E+02  0.40404676964E+02  0.00000000000E+00 0. -1.
          2   -1    0    0  501    0  0.00000000000E+00 -0.00000000000E+00 -0.47068463835E+03  0.47068463835E+03  0.00000000000E+00 0. -1.
         35    2    1    2    0    0  0.00000000000E+00  0.00000000000E+00 -0.43027996139E+03  0.51108931532E+03  0.27581052021E+03 0.  0.
         25    1    3    3    0    0 -0.45663765377E+02 -0.14226863889E+02 -0.30459192988E+03  0.33085318024E+03  0.12000000000E+03 0.  0.
         25    1    3    3    0    0  0.45663765377E+02  0.14226863889E+02 -0.12568803151E+03  0.18023613508E+03  0.12000000000E+03 0.  0.
<mgrwt>
<rscale>  0 0.27581052E+03</rscale>
<asrwt>0</asrwt>
<pdfrwt beam="1">  1        2 0.72413019E-01 0.27581052E+03</pdfrwt>
<pdfrwt beam="2">  1       -2 0.62161044E-02 0.27581052E+03</pdfrwt>
<totfact> 0.92832709E+03</totfact>
</mgrwt>
</event>
<event>
 5    1  0.1125356E+001  0.2739657E+03  0.7818608E-02  0.1099031E+00
         -1   -1    0    0    0  501 -0.00000000000E+00  0.00000000000E+00  0.15235426807E+03  0.15235426807E+03  0.00000000000E+00 0.  1.
          1   -1    0    0  501    0  0.00000000000E+00 -0.00000000000E+00 -0.12316227856E+03  0.12316227856E+03  0.00000000000E+00 0.  1.
         35    2    1    2    0    0  0.00000000000E+00  0.00000000000E+00  0.29191989506E+02  0.27551654663E+03  0.27396568255E+03 0.  0.
         25    1    3    3    0    0 -0.27725548196E+02 -0.59209660841E+02  0.24126393578E+02  0.13876805406E+03  0.12000000000E+03 0.  0.
         25    1    3    3    0    0  0.27725548196E+02  0.59209660841E+02  0.50655959286E+01  0.13674849258E+03  0.12000000000E+03 0.  0.
<mgrwt>
<rscale>  0 0.27396568E+03</rscale>
<asrwt>0</asrwt>
<pdfrwt beam="1">  1        1 0.18948043E-01 0.27396568E+03</pdfrwt>
<pdfrwt beam="2">  1       -1 0.23439118E-01 0.27396568E+03</pdfrwt>
<totfact> 0.42230725E+03</totfact>
</mgrwt>
</event>
<event>
 5    1  0.1125356E+001  0.2758968E+03  0.7818608E-02  0.1097951E+00
         -2   -1    0    0    0  501 -0.00000000000E+00  0.00000000000E+00  0.64165618666E+01  0.64165618666E+01  0.00000000000E+00 0.  1.
          2   -1    0    0  501    0  0.00000000000E+00 -0.00000000000E+00 -0.29657250187E+04  0.29657250187E+04  0.00000000000E+00 0.  1.
         35    2    1    2    0    0  0.00000000000E+00  0.00000000000E+00 -0.29593084568E+04  0.29721415806E+04  0.27589677825E+03 0.  0.
         25    1    3    3    0    0 -0.43310717454E+02 -0.52347506867E+02 -0.15194960850E+04  0.15257406175E+04  0.12000000000E+03 0.  0.
         25    1    3    3    0    0  0.43310717454E+02  0.52347506867E+02 -0.14398123719E+04  0.14464009631E+04  0.12000000000E+03 0.  0.
<mgrwt>
<rscale>  0 0.27589678E+03</rscale>
<asrwt>0</asrwt>
<pdfrwt beam="1">  1        2 0.45626678E+00 0.27589678E+03</pdfrwt>
<pdfrwt beam="2">  1       -2 0.98716035E-03 0.27589678E+03</pdfrwt>
<totfact> 0.47424730E+03</totfact>
</mgrwt>
</event>
<event>
 5    1  0.1125356E+001  0.2745483E+03  0.7818608E-02  0.1098704E+00
          1   -1    0    0  501    0  0.00000000000E+00  0.00000000000E+00  0.29559254569E+03  0.29559254569E+03  0.00000000000E+00 0. -1.
         -1   -1    0    0    0  501 -0.00000000000E+00 -0.00000000000E+00 -0.63750574257E+02  0.63750574257E+02  0.00000000000E+00 0. -1.
         35    2    1    2    0    0  0.00000000000E+00  0.00000000000E+00  0.23184197143E+03  0.35934311995E+03  0.27454831658E+03 0.  0.
         25    1    3    3    0    0  0.11348225066E+02 -0.64785188836E+02  0.10168565519E+03  0.17048717071E+03  0.12000000000E+03 0.  0.
         25    1    3    3    0    0 -0.11348225066E+02  0.64785188836E+02  0.13015631625E+03  0.18885594924E+03  0.12000000000E+03 0.  0.
<mgrwt>
<rscale>  0 0.27454832E+03</rscale>
<asrwt>0</asrwt>
<pdfrwt beam="1">  1        1 0.45475775E-01 0.27454832E+03</pdfrwt>
<pdfrwt beam="2">  1       -1 0.98077808E-02 0.27454832E+03</pdfrwt>
<totfact> 0.55714069E+03</totfact>
</mgrwt>
</event>
<event>
 5    1  0.1125356E+001  0.2744760E+03  0.7818608E-02  0.1098745E+00
          2   -1    0    0  501    0  0.00000000000E+00  0.00000000000E+00  0.34774831076E+03  0.34774831076E+03  0.00000000000E+00 0.  1.
         -2   -1    0    0    0  501 -0.00000000000E+00 -0.00000000000E+00 -0.54160642650E+02  0.54160642650E+02  0.00000000000E+00 0.  1.
         35    2    1    2    0    0  0.00000000000E+00  0.00000000000E+00  0.29358766811E+03  0.40190895341E+03  0.27447602439E+03 0.  0.
         25    1    3    3    0    0 -0.94126949235E+01  0.33312773385E+02  0.63498057826E+02  0.14010832611E+03  0.12000000000E+03 0.  0.
         25    1    3    3    0    0  0.94126949235E+01 -0.33312773385E+02  0.23008961028E+03  0.26180062730E+03  0.12000000000E+03 0.  0.
<mgrwt>
<rscale>  0 0.27447602E+03</rscale>
<asrwt>0</asrwt>
<pdfrwt beam="1">  1        2 0.53499739E-01 0.27447602E+03</pdfrwt>
<pdfrwt beam="2">  1       -2 0.83324068E-02 0.27447602E+03</pdfrwt>
<totfact> 0.81936775E+03</totfact>
</mgrwt>
</event>
<event>
 5    1  0.1125356E+001  0.2746082E+03  0.7818608E-02  0.1098671E+00
          1   -1    0    0  501    0  0.00000000000E+00  0.00000000000E+00  0.66035457018E+03  0.66035457018E+03  0.00000000000E+00 0. -1.
         -1   -1    0    0    0  501 -0.00000000000E+00 -0.00000000000E+00 -0.28548921283E+02  0.28548921283E+02  0.00000000000E+00 0. -1.
         35    2    1    2    0    0  0.00000000000E+00  0.00000000000E+00  0.63180564890E+03  0.68890349146E+03  0.27460816188E+03 0.  0.
         25    1    3    3    0    0  0.38992501826E+02  0.46774886895E+02  0.24747036121E+03  0.28169111615E+03  0.12000000000E+03 0.  0.
         25    1    3    3    0    0 -0.38992501826E+02 -0.46774886895E+02  0.38433528769E+03  0.40721237531E+03  0.12000000000E+03 0.  0.
<mgrwt>
<rscale>  0 0.27460816E+03</rscale>
<asrwt>0</asrwt>
<pdfrwt beam="1">  1        1 0.10159300E+00 0.27460816E+03</pdfrwt>
<pdfrwt beam="2">  1       -1 0.43921422E-02 0.27460816E+03</pdfrwt>
<totfact> 0.65414570E+03</totfact>
</mgrwt>
</event>
<event>
 5    1  0.1125356E+001  0.2747166E+03  0.7818608E-02  0.1098610E+00
         -2   -1    0    0    0  501 -0.00000000000E+00  0.00000000000E+00  0.90094449516E+01  0.90094449516E+01  0.00000000000E+00 0.  1.
          2   -1    0    0  501    0  0.00000000000E+00 -0.00000000000E+00 -0.20941687514E+04  0.20941687514E+04  0.00000000000E+00 0.  1.
         35    2    1    2    0    0  0.00000000000E+00  0.00000000000E+00 -0.20851593064E+04  0.21031781963E+04  0.27471656728E+03 0.  0.
         25    1    3    3    0    0 -0.37877405790E+02  0.17100025036E+02 -0.64182229283E+03  0.65426520946E+03  0.12000000000E+03 0.  0.
         25    1    3    3    0    0  0.37877405790E+02 -0.17100025036E+02 -0.14433370136E+04  0.14489129869E+04  0.12000000000E+03 0.  0.
<mgrwt>
<rscale>  0 0.27471657E+03</rscale>
<asrwt>0</asrwt>
<pdfrwt beam="1">  1        2 0.32217974E+00 0.27471657E+03</pdfrwt>
<pdfrwt beam="2">  1       -2 0.13860688E-02 0.27471657E+03</pdfrwt>
<totfact> 0.87758822E+03</totfact>
</mgrwt>
</event>
<event>
 5    1  0.1125356E+001  0.2752611E+03  0.7818608E-02  0.1098306E+00
          2   -1    0    0  501    0  0.00000000000E+00  0.00000000000E+00  0.18808147123E+02  0.18808147123E+02  0.00000000000E+00 0.  1.
         -2   -1    0    0    0  501 -0.00000000000E+00 -0.00000000000E+00 -0.10071260068E+04  0.10071260068E+04  0.00000000000E+00 0.  1.
         35    2    1    2    0    0  0.00000000000E+00  0.00000000000E+00 -0.98831785966E+03  0.10259341539E+04  0.27526114224E+03 0.  0.
         25    1    3    3    0    0  0.39331813978E+02 -0.40138025346E+02 -0.35549558316E+03  0.37938787845E+03  0.12000000000E+03 0.  0.
         25    1    3    3    0    0 -0.39331813978E+02  0.40138025346E+02 -0.63282227650E+03  0.64654627545E+03  0.12000000000E+03 0.  0.
<mgrwt>
<rscale>  0 0.27526114E+03</rscale>
<asrwt>0</asrwt>
<pdfrwt beam="1">  1        2 0.28935609E-02 0.27526114E+03</pdfrwt>
<pdfrwt beam="2">  1       -2 0.15494247E+00 0.27526114E+03</pdfrwt>
<totfact> 0.95961762E+02</totfact>
</mgrwt>
</event>
<event>
 5    1  0.1125356E+001  0.2749673E+03  0.7818608E-02  0.1098470E+00
         -1   -1    0    0    0  501 -0.00000000000E+00  0.00000000000E+00  0.87509788683E+01  0.87509788683E+01  0.00000000000E+00 0.  1.
          1   -1    0    0  501    0  0.00000000000E+00 -0.00000000000E+00 -0.21599588080E+04  0.21599588080E+04  0.00000000000E+00 0.  1.
         35    2    1    2    0    0  0.00000000000E+00  0.00000000000E+00 -0.21512078291E+04  0.21687097868E+04  0.27496729904E+03 0.  0.
         25    1    3    3    0    0  0.59671681273E+02 -0.22761533713E+02 -0.12378104917E+04  0.12452524283E+04  0.12000000000E+03 0.  0.
         25    1    3    3    0    0 -0.59671681273E+02  0.22761533713E+02 -0.91339733740E+03  0.92345735848E+03  0.12000000000E+03 0.  0.
<mgrwt>
<rscale>  0 0.27496730E+03</rscale>
<asrwt>0</asrwt>
<pdfrwt beam="1">  1        1 0.33230123E+00 0.27496730E+03</pdfrwt>
<pdfrwt beam="2">  1       -1 0.13463050E-02 0.27496730E+03</pdfrwt>
<totfact> 0.32430308E+03</totfact>
</mgrwt>
</event>
<event>
 5    1  0.1125356E+001  0.2753348E+03  0.7818608E-02  0.1098265E+00
          1   -1    0    0  501    0  0.00000000000E+00  0.00000000000E+00  0.32770408956E+02  0.32770408956E+02  0.00000000000E+00 0.  1.
         -1   -1    0    0    0  501 -0.00000000000E+00 -0.00000000000E+00 -0.57833638163E+03  0.57833638163E+03  0.00000000000E+00 0.  1.
         35    2    1    2    0    0  0.00000000000E+00  0.00000000000E+00 -0.54556597267E+03  0.61110679059E+03  0.27533484880E+03 0.  0.
         25    1    3    3    0    0 -0.50806388753E+02 -0.35841215458E+02 -0.21463207221E+03  0.25363913003E+03  0.12000000000E+03 0.  0.
         25    1    3    3    0    0  0.50806388753E+02  0.35841215458E+02 -0.33093390047E+03  0.35746766056E+03  0.12000000000E+03 0.  0.
<mgrwt>
<rscale>  0 0.27533485E+03</rscale>
<asrwt>0</asrwt>
<pdfrwt beam="1">  1        1 0.50416016E-02 0.27533485E+03</pdfrwt>
<pdfrwt beam="2">  1       -1 0.88974825E-01 0.27533485E+03</pdfrwt>
<totfact> 0.21398839E+03</totfact>
</mgrwt>
</event>
<event>
 5    1  0.1125356E+001  0.2745162E+03  0.7818608E-02  0.1098722E+00
          1   -1    0    0  501    0  0.00000000000E+00  0.00000000000E+00  0.18607877036E+04  0.18607877036E+04  0.00000000000E+00 0. -1.
         -1   -1    0    0    0  501 -0.00000000000E+00 -0.00000000000E+00 -0.10124630287E+02  0.10124630287E+02  0.00000000000E+00 0. -1.
         35    2    1    2    0    0  0.00000000000E+00  0.00000000000E+00  0.18506630733E+04  0.18709123339E+04  0.27451621111E+03 0.  0.
         25    1    3    3    0    0  0.10810938084E+02 -0.44231705782E+01  0.47824806847E+03  0.49321157307E+03  0.12000000000E+03 0.  0.
         25    1    3    3    0    0 -0.10810938084E+02  0.44231705782E+01  0.13724150048E+04  0.13777007608E+04  0.12000000000E+03 0.  0.
<mgrwt>
<rscale>  0 0.27451621E+03</rscale>
<asrwt>0</asrwt>
<pdfrwt beam="1">  1        1 0.28627476E+00 0.27451621E+03</pdfrwt>
<pdfrwt beam="2">  1       -1 0.15576369E-02 0.27451621E+03</pdfrwt>
<totfact> 0.41043731E+03</totfact>
</mgrwt>
</event>
<event>
 5    1  0.1125356E+001  0.2747097E+03  0.7818608E-02  0.1098614E+00
         -3   -1    0    0    0  501 -0.00000000000E+00  0.00000000000E+00  0.18693664311E+03  0.18693664311E+03  0.00000000000E+00 0. -1.
          3   -1    0    0  501    0  0.00000000000E+00 -0.00000000000E+00 -0.10092379983E+03  0.10092379983E+03  0.00000000000E+00 0. -1.
         35    2    1    2    0    0  0.00000000000E+00  0.00000000000E+00  0.86012843278E+02  0.28786044294E+03  0.27470971115E+03 0.  0.
         25    1    3    3    0    0 -0.41788208740E+02  0.71337574187E+01 -0.11131236823E+02  0.12775386224E+03  0.12000000000E+03 0.  0.
         25    1    3    3    0    0  0.41788208740E+02 -0.71337574187E+01  0.97144080101E+02  0.16010658070E+03  0.12000000000E+03 0.  0.
<mgrwt>
<rscale>  0 0.27470971E+03</rscale>
<asrwt>0</asrwt>
<pdfrwt beam="1">  1        3 0.15526738E-01 0.27470971E+03</pdfrwt>
<pdfrwt beam="2">  1       -3 0.28759484E-01 0.27470971E+03</pdfrwt>
<totfact> 0.10327354E+03</totfact>
</mgrwt>
</event>
<event>
 5    1  0.1125356E+001  0.2737828E+03  0.7818608E-02  0.1099134E+00
          1   -1    0    0  501    0  0.00000000000E+00  0.00000000000E+00  0.11980732182E+03  0.11980732182E+03  0.00000000000E+00 0. -1.
         -1   -1    0    0    0  501 -0.00000000000E+00 -0.00000000000E+00 -0.15641162149E+03  0.15641162149E+03  0.00000000000E+00 0. -1.
         35    2    1    2    0    0  0.00000000000E+00  0.00000000000E+00 -0.36604299670E+02  0.27621894330E+03  0.27378281517E+03 0.  0.
         25    1    3    3    0    0 -0.37612806607E+02 -0.92944733350E+01  0.35446148455E+02  0.13098679283E+03  0.12000000000E+03 0.  0.
         25    1    3    3    0    0  0.37612806607E+02  0.92944733350E+01 -0.72050448125E+02  0.14523215047E+03  0.12000000000E+03 0.  0.
<mgrwt>
<rscale>  0 0.27378282E+03</rscale>
<asrwt>0</asrwt>
<pdfrwt beam="1">  1        1 0.18431896E-01 0.27378282E+03</pdfrwt>
<pdfrwt beam="2">  1       -1 0.24063326E-01 0.27378282E+03</pdfrwt>
<totfact> 0.41904745E+03</totfact>
</mgrwt>
</event>
<event>
 5    1  0.1125356E+001  0.2751564E+03  0.7818608E-02  0.1098364E+00
         -1   -1    0    0    0  501 -0.00000000000E+00  0.00000000000E+00  0.72207720818E+02  0.72207720818E+02  0.00000000000E+00 0.  1.
          1   -1    0    0  501    0  0.00000000000E+00 -0.00000000000E+00 -0.26212931972E+03  0.26212931972E+03  0.00000000000E+00 0.  1.
         35    2    1    2    0    0  0.00000000000E+00  0.00000000000E+00 -0.18992159890E+03  0.33433704054E+03  0.27515639725E+03 0.  0.
         25    1    3    3    0    0  0.56036284475E+02  0.36955917213E+02 -0.10065429433E+03  0.17040273461E+03  0.12000000000E+03 0.  0.
         25    1    3    3    0    0 -0.56036284475E+02 -0.36955917213E+02 -0.89267304571E+02  0.16393430593E+03  0.12000000000E+03 0.  0.
<mgrwt>
<rscale>  0 0.27515640E+03</rscale>
<asrwt>0</asrwt>
<pdfrwt beam="1">  1        1 0.40327588E-01 0.27515640E+03</pdfrwt>
<pdfrwt beam="2">  1       -1 0.11108880E-01 0.27515640E+03</pdfrwt>
<totfact> 0.53417776E+03</totfact>
</mgrwt>
</event>
<event>
 5    1  0.1125356E+001  0.2741858E+03  0.7818608E-02  0.1098908E+00
         -1   -1    0    0    0  501 -0.00000000000E+00  0.00000000000E+00  0.90141686072E+01  0.90141686072E+01  0.00000000000E+00 0.  1.
          1   -1    0    0  501    0  0.00000000000E+00 -0.00000000000E+00 -0.20849916722E+04  0.20849916722E+04  0.00000000000E+00 0.  1.
         35    2    1    2    0    0  0.00000000000E+00  0.00000000000E+00 -0.20759775036E+04  0.20940058408E+04  0.27418582369E+03 0.  0.
         25    1    3    3    0    0  0.26036381921E+02 -0.37969116205E+02 -0.67372503916E+03  0.68587533515E+03  0.12000000000E+03 0.  0.
         25    1    3    3    0    0 -0.26036381921E+02  0.37969116205E+02 -0.14022524644E+04  0.14081305056E+04  0.12000000000E+03 0.  0.
<mgrwt>
<rscale>  0 0.27418582E+03</rscale>
<asrwt>0</asrwt>
<pdfrwt beam="1">  1        1 0.32076828E+00 0.27418582E+03</pdfrwt>
<pdfrwt beam="2">  1       -1 0.13867937E-02 0.27418582E+03</pdfrwt>
<totfact> 0.34759224E+03</totfact>
</mgrwt>
</event>
<event>
 5    1  0.1125356E+001  0.2735822E+03  0.7818608E-02  0.1099247E+00
         -2   -1    0    0    0  501 -0.00000000000E+00  0.00000000000E+00  0.91915702454E+02  0.91915702454E+02  0.00000000000E+00 0. -1.
          2   -1    0    0  501    0  0.00000000000E+00 -0.00000000000E+00 -0.20357569080E+03  0.20357569080E+03  0.00000000000E+00 0. -1.
         35    2    1    2    0    0  0.00000000000E+00  0.00000000000E+00 -0.11165998835E+03  0.29549139325E+03  0.27358218233E+03 0.  0.
         25    1    3    3    0    0  0.40545027414E+02  0.38076245455E+02 -0.18133668924E+02  0.13350104743E+03  0.12000000000E+03 0.  0.
         25    1    3    3    0    0 -0.40545027414E+02 -0.38076245455E+02 -0.93526319421E+02  0.16199034582E+03  0.12000000000E+03 0.  0.
<mgrwt>
<rscale>  0 0.27358218E+03</rscale>
<asrwt>0</asrwt>
<pdfrwt beam="1">  1        2 0.31319336E-01 0.27358218E+03</pdfrwt>
<pdfrwt beam="2">  1       -2 0.14140878E-01 0.27358218E+03</pdfrwt>
<totfact> 0.62630631E+03</totfact>
</mgrwt>
</event>
<event>
 5    1  0.1125356E+001  0.2758414E+03  0.7818608E-02  0.1097982E+00
          4   -1    0    0  501    0  0.00000000000E+00  0.00000000000E+00  0.75883601365E+02  0.75883601365E+02  0.00000000000E+00 0. -1.
         -4   -1    0    0    0  501 -0.00000000000E+00 -0.00000000000E+00 -0.25067496420E+03  0.25067496420E+03  0.00000000000E+00 0. -1.
         35    2    1    2    0    0  0.00000000000E+00  0.00000000000E+00 -0.17479136284E+03  0.32655856557E+03  0.27584139686E+03 0.  0.
         25    1    3    3    0    0  0.44974786113E+02  0.43971743417E+02 -0.56846647131E+02  0.14692782887E+03  0.12000000000E+03 0.  0.
         25    1    3    3    0    0 -0.44974786113E+02 -0.43971743417E+02 -0.11794471571E+03  0.17963073670E+03  0.12000000000E+03 0.  0.
<mgrwt>
<rscale>  0 0.27584140E+03</rscale>
<asrwt>0</asrwt>
<pdfrwt beam="1">  1        4 0.11674400E-01 0.27584140E+03</pdfrwt>
<pdfrwt beam="2">  1       -4 0.38565379E-01 0.27584140E+03</pdfrwt>
<totfact> 0.71446896E+02</totfact>
</mgrwt>
</event>
<event>
 5    1  0.1125356E+001  0.2757229E+03  0.7818608E-02  0.1098048E+00
          2   -1    0    0  501    0  0.00000000000E+00  0.00000000000E+00  0.29686447719E+04  0.29686447719E+04  0.00000000000E+00 0.  1.
         -2   -1    0    0    0  501 -0.00000000000E+00 -0.00000000000E+00 -0.64021755466E+01  0.64021755466E+01  0.00000000000E+00 0.  1.
         35    2    1    2    0    0  0.00000000000E+00  0.00000000000E+00  0.29622425963E+04  0.29750469474E+04  0.27572294040E+03 0.  0.
         25    1    3    3    0    0 -0.57938252965E+02  0.27147337085E+02  0.17252627028E+04  0.17306141143E+04  0.12000000000E+03 0.  0.
         25    1    3    3    0    0  0.57938252965E+02 -0.27147337085E+02  0.12369798936E+04  0.12444328331E+04  0.12000000000E+03 0.  0.
<mgrwt>
<rscale>  0 0.27572294E+03</rscale>
<asrwt>0</asrwt>
<pdfrwt beam="1">  1        2 0.45671348E+00 0.27572294E+03</pdfrwt>
<pdfrwt beam="2">  1       -2 0.98495246E-03 0.27572294E+03</pdfrwt>
<totfact> 0.47392771E+03</totfact>
</mgrwt>
</event>
<event>
 5    1  0.1125356E+001  0.2757017E+03  0.7818608E-02  0.1098060E+00
         -1   -1    0    0    0  501 -0.00000000000E+00  0.00000000000E+00  0.24902403703E+02  0.24902403703E+02  0.00000000000E+00 0.  1.
          1   -1    0    0  501    0  0.00000000000E+00 -0.00000000000E+00 -0.76309338836E+03  0.76309338836E+03  0.00000000000E+00 0.  1.
         35    2    1    2    0    0  0.00000000000E+00  0.00000000000E+00 -0.73819098466E+03  0.78799579206E+03  0.27570172013E+03 0.  0.
         25    1    3    3    0    0  0.64660764241E+02  0.73480043822E+00 -0.42776100381E+03  0.44895548860E+03  0.12000000000E+03 0.  0.
         25    1    3    3    0    0 -0.64660764241E+02 -0.73480043822E+00 -0.31042998085E+03  0.33904030347E+03  0.12000000000E+03 0.  0.
<mgrwt>
<rscale>  0 0.27570172E+03</rscale>
<asrwt>0</asrwt>
<pdfrwt beam="1">  1        1 0.11739899E+00 0.27570172E+03</pdfrwt>
<pdfrwt beam="2">  1       -1 0.38311389E-02 0.27570172E+03</pdfrwt>
<totfact> 0.64844765E+03</totfact>
</mgrwt>
</event>
<event>
 5    1  0.1125356E+001  0.2751893E+03  0.7818608E-02  0.1098346E+00
          2   -1    0    0  501    0  0.00000000000E+00  0.00000000000E+00  0.86900077257E+03  0.86900077257E+03  0.00000000000E+00 0. -1.
         -2   -1    0    0    0  501 -0.00000000000E+00 -0.00000000000E+00 -0.21786275290E+02  0.21786275290E+02  0.00000000000E+00 0. -1.
         35    2    1    2    0    0  0.00000000000E+00  0.00000000000E+00  0.84721449728E+03  0.89078704786E+03  0.27518931708E+03 0.  0.
         25    1    3    3    0    0  0.40481506069E+02 -0.16259934081E+02  0.25762937638E+03  0.28753440380E+03  0.12000000000E+03 0.  0.
         25    1    3    3    0    0 -0.40481506069E+02  0.16259934081E+02  0.58958512090E+03  0.60325264406E+03  0.12000000000E+03 0.  0.
<mgrwt>
<rscale>  0 0.27518932E+03</rscale>
<asrwt>0</asrwt>
<pdfrwt beam="1">  1        2 0.13369240E+00 0.27518932E+03</pdfrwt>
<pdfrwt beam="2">  1       -2 0.33517353E-02 0.27518932E+03</pdfrwt>
<totfact> 0.11387607E+04</totfact>
</mgrwt>
</event>
<event>
 5    1  0.1125356E+001  0.2750920E+03  0.7818608E-02  0.1098400E+00
         -2   -1    0    0    0  501 -0.00000000000E+00  0.00000000000E+00  0.24412149108E+03  0.24412149108E+03  0.00000000000E+00 0. -1.
          2   -1    0    0  501    0  0.00000000000E+00 -0.00000000000E+00 -0.77497898443E+02  0.77497898443E+02  0.00000000000E+00 0. -1.
         35    2    1    2    0    0  0.00000000000E+00  0.00000000000E+00  0.16662359264E+03  0.32161938952E+03  0.27509200296E+03 0.  0.
         25    1    3    3    0    0  0.41521032902E+02 -0.51277625743E+02  0.68270742084E+02  0.15301727125E+03  0.12000000000E+03 0.  0.
         25    1    3    3    0    0 -0.41521032902E+02  0.51277625743E+02  0.98352850554E+02  0.16860211828E+03  0.12000000000E+03 0.  0.
<mgrwt>
<rscale>  0 0.27509200E+03</rscale>
<asrwt>0</asrwt>
<pdfrwt beam="1">  1        2 0.11922754E-01 0.27509200E+03</pdfrwt>
<pdfrwt beam="2">  1       -2 0.37557152E-01 0.27509200E+03</pdfrwt>
<totfact> 0.34458614E+03</totfact>
</mgrwt>
</event>
<event>
 5    1  0.1125356E+001  0.2725813E+03  0.7818608E-02  0.1099811E+00
          1   -1    0    0  501    0  0.00000000000E+00  0.00000000000E+00  0.40051489997E+03  0.40051489997E+03  0.00000000000E+00 0. -1.
         -1   -1    0    0    0  501 -0.00000000000E+00 -0.00000000000E+00 -0.46378139089E+02  0.46378139089E+02  0.00000000000E+00 0. -1.
         35    2    1    2    0    0  0.00000000000E+00  0.00000000000E+00  0.35413676089E+03  0.44689303906E+03  0.27258125936E+03 0.  0.
         25    1    3    3    0    0 -0.64217854353E+02 -0.70106335463E+01  0.17471874101E+03  0.22158456684E+03  0.12000000000E+03 0.  0.
         25    1    3    3    0    0  0.64217854353E+02  0.70106335463E+01  0.17941801987E+03  0.22530847222E+03  0.12000000000E+03 0.  0.
<mgrwt>
<rscale>  0 0.27258126E+03</rscale>
<asrwt>0</asrwt>
<pdfrwt beam="1">  1        1 0.61617675E-01 0.27258126E+03</pdfrwt>
<pdfrwt beam="2">  1       -1 0.71350986E-02 0.27258126E+03</pdfrwt>
<totfact> 0.61684979E+03</totfact>
</mgrwt>
</event>
<event>
 5    1  0.1125356E+001  0.2741142E+03  0.7818608E-02  0.1098948E+00
         -2   -1    0    0    0  501 -0.00000000000E+00  0.00000000000E+00  0.11956890353E+03  0.11956890353E+03  0.00000000000E+00 0.  1.
          2   -1    0    0  501    0  0.00000000000E+00 -0.00000000000E+00 -0.15710310651E+03  0.15710310651E+03  0.00000000000E+00 0.  1.
         35    2    1    2    0    0  0.00000000000E+00  0.00000000000E+00 -0.37534202978E+02  0.27667201004E+03  0.27411418195E+03 0.  0.
         25    1    3    3    0    0  0.42292522697E+01  0.65681276434E+02 -0.26096371183E+02  0.13933031701E+03  0.12000000000E+03 0.  0.
         25    1    3    3    0    0 -0.42292522697E+01 -0.65681276434E+02 -0.11437831795E+02  0.13734169303E+03  0.12000000000E+03 0.  0.
<mgrwt>
<rscale>  0 0.27411418E+03</rscale>
<asrwt>0</asrwt>
<pdfrwt beam="1">  1        2 0.24169709E-01 0.27411418E+03</pdfrwt>
<pdfrwt beam="2">  1       -2 0.18395216E-01 0.27411418E+03</pdfrwt>
<totfact> 0.53838505E+03</totfact>
</mgrwt>
</event>
<event>
 5    1  0.1125356E+001  0.2730815E+03  0.7818608E-02  0.1099529E+00
         -1   -1    0    0    0  501 -0.00000000000E+00  0.00000000000E+00  0.17825662015E+04  0.17825662015E+04  0.00000000000E+00 0. -1.
          1   -1    0    0  501    0  0.00000000000E+00 -0.00000000000E+00 -0.10458728945E+02  0.10458728945E+02  0.00000000000E+00 0. -1.
         35    2    1    2    0    0  0.00000000000E+00  0.00000000000E+00  0.17721074725E+04  0.17930249304E+04  0.27308150233E+03 0.  0.
         25    1    3    3    0    0 -0.21188174384E+02 -0.56203834009E+02  0.10515829786E+04  0.10601106407E+04  0.12000000000E+03 0.  0.
         25    1    3    3    0    0  0.21188174384E+02  0.56203834009E+02  0.72052449396E+03  0.73291428973E+03  0.12000000000E+03 0.  0.
<mgrwt>
<rscale>  0 0.27308150E+03</rscale>
<asrwt>0</asrwt>
<pdfrwt beam="1">  1        1 0.16090366E-02 0.27308150E+03</pdfrwt>
<pdfrwt beam="2">  1       -1 0.27424071E+00 0.27308150E+03</pdfrwt>
<totfact> 0.46059247E+02</totfact>
</mgrwt>
</event>
<event>
 5    1  0.1125356E+001  0.2744589E+03  0.7818608E-02  0.1098754E+00
         -2   -1    0    0    0  501 -0.00000000000E+00  0.00000000000E+00  0.20173076766E+02  0.20173076766E+02  0.00000000000E+00 0.  1.
          2   -1    0    0  501    0  0.00000000000E+00 -0.00000000000E+00 -0.93351744451E+03  0.93351744451E+03  0.00000000000E+00 0.  1.
         35    2    1    2    0    0  0.00000000000E+00  0.00000000000E+00 -0.91334436775E+03  0.95369052128E+03  0.27445887904E+03 0.  0.
         25    1    3    3    0    0 -0.49051374977E+01 -0.61046948897E+02 -0.54735913050E+03  0.56369566974E+03  0.12000000000E+03 0.  0.
         25    1    3    3    0    0  0.49051374977E+01  0.61046948897E+02 -0.36598523725E+03  0.38999485154E+03  0.12000000000E+03 0.  0.
<mgrwt>
<rscale>  0 0.27445888E+03</rscale>
<asrwt>0</asrwt>
<pdfrwt beam="1">  1        2 0.14361810E+00 0.27445888E+03</pdfrwt>
<pdfrwt beam="2">  1       -2 0.31035496E-02 0.27445888E+03</pdfrwt>
<totfact> 0.11603358E+04</totfact>
</mgrwt>
</event>
<event>
 5    1  0.1125356E+001  0.2749479E+03  0.7818608E-02  0.1098481E+00
         -1   -1    0    0    0  501 -0.00000000000E+00  0.00000000000E+00  0.50828054746E+02  0.50828054746E+02  0.00000000000E+00 0. -1.
          1   -1    0    0  501    0  0.00000000000E+00 -0.00000000000E+00 -0.37182386095E+03  0.37182386095E+03  0.00000000000E+00 0. -1.
         35    2    1    2    0    0  0.00000000000E+00  0.00000000000E+00 -0.32099580620E+03  0.42265191570E+03  0.27494787550E+03 0.  0.
         25    1    3    3    0    0  0.27732841430E+01  0.53389391552E+02 -0.98227428524E+02  0.16403275877E+03  0.12000000000E+03 0.  0.
         25    1    3    3    0    0 -0.27732841430E+01 -0.53389391552E+02 -0.22276837768E+03  0.25861915693E+03  0.12000000000E+03 0.  0.
<mgrwt>
<rscale>  0 0.27494788E+03</rscale>
<asrwt>0</asrwt>
<pdfrwt beam="1">  1        1 0.57203672E-01 0.27494788E+03</pdfrwt>
<pdfrwt beam="2">  1       -1 0.78197006E-02 0.27494788E+03</pdfrwt>
<totfact> 0.59016206E+03</totfact>
</mgrwt>
</event>
<event>
 5    1  0.1125356E+001  0.2728680E+03  0.7818608E-02  0.1099649E+00
          2   -1    0    0  501    0  0.00000000000E+00  0.00000000000E+00  0.19005314502E+03  0.19005314502E+03  0.00000000000E+00 0.  1.
         -2   -1    0    0    0  501 -0.00000000000E+00 -0.00000000000E+00 -0.97942271726E+02  0.97942271726E+02  0.00000000000E+00 0.  1.
         35    2    1    2    0    0  0.00000000000E+00  0.00000000000E+00  0.92110873299E+02  0.28799541675E+03  0.27286800305E+03 0.  0.
         25    1    3    3    0    0  0.48038923763E+02 -0.57783408499E+01  0.91734220207E+02  0.15860735978E+03  0.12000000000E+03 0.  0.
         25    1    3    3    0    0 -0.48038923763E+02  0.57783408499E+01  0.37665309277E+00  0.12938805697E+03  0.12000000000E+03 0.  0.
<mgrwt>
<rscale>  0 0.27286800E+03</rscale>
<asrwt>0</asrwt>
<pdfrwt beam="1">  1        2 0.29238945E-01 0.27286800E+03</pdfrwt>
<pdfrwt beam="2">  1       -2 0.15068042E-01 0.27286800E+03</pdfrwt>
<totfact> 0.60820701E+03</totfact>
</mgrwt>
</event>
<event>
 5    1  0.1125356E+001  0.2750456E+03  0.7818608E-02  0.1098426E+00
          2   -1    0    0  501    0  0.00000000000E+00  0.00000000000E+00  0.44162895644E+02  0.44162895644E+02  0.00000000000E+00 0.  1.
         -2   -1    0    0    0  501 -0.00000000000E+00 -0.00000000000E+00 -0.42824443788E+03  0.42824443788E+03  0.00000000000E+00 0.  1.
         35    2    1    2    0    0  0.00000000000E+00  0.00000000000E+00 -0.38408154224E+03  0.47240733352E+03  0.27504555565E+03 0.  0.
         25    1    3    3    0    0 -0.30593035613E+02  0.48282240519E+02 -0.13142753820E+03  0.18692326333E+03  0.12000000000E+03 0.  0.
         25    1    3    3    0    0  0.30593035613E+02 -0.48282240519E+02 -0.25265400404E+03  0.28548407019E+03  0.12000000000E+03 0.  0.
<mgrwt>
<rscale>  0 0.27504556E+03</rscale>
<asrwt>0</asrwt>
<pdfrwt beam="1">  1        2 0.67942916E-02 0.27504556E+03</pdfrwt>
<pdfrwt beam="2">  1       -2 0.65883760E-01 0.27504556E+03</pdfrwt>
<totfact> 0.22746628E+03</totfact>
</mgrwt>
</event>
<event>
 5    1  0.1125356E+001  0.2748637E+03  0.7818608E-02  0.1098528E+00
          1   -1    0    0  501    0  0.00000000000E+00  0.00000000000E+00  0.21399023473E+03  0.21399023473E+03  0.00000000000E+00 0.  1.
         -1   -1    0    0    0  501 -0.00000000000E+00 -0.00000000000E+00 -0.88263431227E+02  0.88263431227E+02  0.00000000000E+00 0.  1.
         35    2    1    2    0    0  0.00000000000E+00  0.00000000000E+00  0.12572680350E+03  0.30225366595E+03  0.27486369252E+03 0.  0.
         25    1    3    3    0    0 -0.11198975451E+02  0.53605776809E+02  0.10528929112E+03  0.16877449803E+03  0.12000000000E+03 0.  0.
         25    1    3    3    0    0  0.11198975451E+02 -0.53605776809E+02  0.20437512375E+02  0.13347916793E+03  0.12000000000E+03 0.  0.
<mgrwt>
<rscale>  0 0.27486369E+03</rscale>
<asrwt>0</asrwt>
<pdfrwt beam="1">  1        1 0.32921574E-01 0.27486369E+03</pdfrwt>
<pdfrwt beam="2">  1       -1 0.13578990E-01 0.27486369E+03</pdfrwt>
<totfact> 0.50342216E+03</totfact>
</mgrwt>
</event>
<event>
 5    1  0.1125356E+001  0.2758525E+03  0.7818608E-02  0.1097976E+00
          1   -1    0    0  501    0  0.00000000000E+00  0.00000000000E+00  0.17777833448E+03  0.17777833448E+03  0.00000000000E+00 0.  1.
         -1   -1    0    0    0  501 -0.00000000000E+00 -0.00000000000E+00 -0.10700772794E+03  0.10700772794E+03  0.00000000000E+00 0.  1.
         35    2    1    2    0    0  0.00000000000E+00  0.00000000000E+00  0.70770606546E+02  0.28478606242E+03  0.27585253778E+03 0.  0.
         25    1    3    3    0    0  0.57234123477E+02  0.25594038007E+02  0.62559907729E+02  0.14914604161E+03  0.12000000000E+03 0.  0.
         25    1    3    3    0    0 -0.57234123477E+02 -0.25594038007E+02  0.82106988166E+01  0.13564002082E+03  0.12000000000E+03 0.  0.
<mgrwt>
<rscale>  0 0.27585254E+03</rscale>
<asrwt>0</asrwt>
<pdfrwt beam="1">  1        1 0.27350513E-01 0.27585254E+03</pdfrwt>
<pdfrwt beam="2">  1       -1 0.16462727E-01 0.27585254E+03</pdfrwt>
<totfact> 0.46871346E+03</totfact>
</mgrwt>
</event>
<event>
 5    1  0.1125356E+001  0.2701963E+03  0.7818608E-02  0.1101167E+00
          1   -1    0    0  501    0  0.00000000000E+00  0.00000000000E+00  0.18985207319E+03  0.18985207319E+03  0.00000000000E+00 0. -1.
         -1   -1    0    0    0  501 -0.00000000000E+00 -0.00000000000E+00 -0.96135419320E+02  0.96135419320E+02  0.00000000000E+00 0. -1.
         35    2    1    2    0    0  0.00000000000E+00  0.00000000000E+00  0.93716653867E+02  0.28598749251E+03  0.27019628913E+03 0.  0.
         25    1    3    3    0    0  0.56902153896E+02 -0.18455903413E+02  0.29368908433E+02  0.13726255233E+03  0.12000000000E+03 0.  0.
         25    1    3    3    0    0 -0.56902153896E+02  0.18455903413E+02  0.64347745435E+02  0.14872494018E+03  0.12000000000E+03 0.  0.
<mgrwt>
<rscale>  0 0.27019629E+03</rscale>
<asrwt>0</asrwt>
<pdfrwt beam="1">  1        1 0.29208011E-01 0.27019629E+03</pdfrwt>
<pdfrwt beam="2">  1       -1 0.14790065E-01 0.27019629E+03</pdfrwt>
<totfact> 0.51118144E+03</totfact>
</mgrwt>
</event>
<event>
 5    1  0.1125356E+001  0.2756497E+03  0.7818608E-02  0.1098089E+00
          2   -1    0    0  501    0  0.00000000000E+00  0.00000000000E+00  0.79147186821E+03  0.79147186821E+03  0.00000000000E+00 0. -1.
         -2   -1    0    0    0  501 -0.00000000000E+00 -0.00000000000E+00 -0.24000458143E+02  0.24000458143E+02  0.00000000000E+00 0. -1.
         35    2    1    2    0    0  0.00000000000E+00  0.00000000000E+00  0.76747141006E+03  0.81547232635E+03  0.27564968670E+03 0.  0.
         25    1    3    3    0    0  0.50881411244E+02  0.44626226058E+02  0.39529582800E+03  0.41861582590E+03  0.12000000000E+03 0.  0.
         25    1    3    3    0    0 -0.50881411244E+02 -0.44626226058E+02  0.37217558207E+03  0.39685650045E+03  0.12000000000E+03 0.  0.
<mgrwt>
<rscale>  0 0.27564969E+03</rscale>
<asrwt>0</asrwt>
<pdfrwt beam="1">  1        2 0.12176488E+00 0.27564969E+03</pdfrwt>
<pdfrwt beam="2">  1       -2 0.36923788E-02 0.27564969E+03</pdfrwt>
<totfact> 0.11116714E+04</totfact>
</mgrwt>
</event>
<event>
 5    1  0.1125356E+001  0.2817929E+03  0.7818608E-02  0.1094714E+00
          2   -1    0    0  501    0  0.00000000000E+00  0.00000000000E+00  0.79740506591E+03  0.79740506591E+03  0.00000000000E+00 0. -1.
         -2   -1    0    0    0  501 -0.00000000000E+00 -0.00000000000E+00 -0.24895506708E+02  0.24895506708E+02  0.00000000000E+00 0. -1.
         35    2    1    2    0    0  0.00000000000E+00  0.00000000000E+00  0.77250955920E+03  0.82230057262E+03  0.28179285419E+03 0.  0.
         25    1    3    3    0    0  0.73137893945E+02  0.38323463618E+01  0.41362353030E+03  0.43686183540E+03  0.12000000000E+03 0.  0.
         25    1    3    3    0    0 -0.73137893945E+02 -0.38323463618E+01  0.35888602890E+03  0.38543873722E+03  0.12000000000E+03 0.  0.
<mgrwt>
<rscale>  0 0.28179285E+03</rscale>
<asrwt>0</asrwt>
<pdfrwt beam="1">  1        2 0.12267768E+00 0.28179285E+03</pdfrwt>
<pdfrwt beam="2">  1       -2 0.38300786E-02 0.28179285E+03</pdfrwt>
<totfact> 0.10430727E+04</totfact>
</mgrwt>
</event>
<event>
 5    1  0.1125356E+001  0.2742582E+03  0.7818608E-02  0.1098867E+00
         -2   -1    0    0    0  501 -0.00000000000E+00  0.00000000000E+00  0.96596509204E+02  0.96596509204E+02  0.00000000000E+00 0. -1.
          2   -1    0    0  501    0  0.00000000000E+00 -0.00000000000E+00 -0.19466941041E+03  0.19466941041E+03  0.00000000000E+00 0. -1.
         35    2    1    2    0    0  0.00000000000E+00  0.00000000000E+00 -0.98072901201E+02  0.29126591961E+03  0.27425816665E+03 0.  0.
         25    1    3    3    0    0  0.44841859549E+01 -0.54128426815E+02 -0.85349896138E+01  0.13199560811E+03  0.12000000000E+03 0.  0.
         25    1    3    3    0    0 -0.44841859549E+01  0.54128426815E+02 -0.89537911587E+02  0.15927031150E+03  0.12000000000E+03 0.  0.
<mgrwt>
<rscale>  0 0.27425817E+03</rscale>
<asrwt>0</asrwt>
<pdfrwt beam="1">  1        2 0.29949140E-01 0.27425817E+03</pdfrwt>
<pdfrwt beam="2">  1       -2 0.14861001E-01 0.27425817E+03</pdfrwt>
<totfact> 0.60618556E+03</totfact>
</mgrwt>
</event>
<event>
 5    1  0.1125356E+001  0.2768508E+03  0.7818608E-02  0.1097421E+00
         -1   -1    0    0    0  501 -0.00000000000E+00  0.00000000000E+00  0.29032835628E+02  0.29032835628E+02  0.00000000000E+00 0.  1.
          1   -1    0    0  501    0  0.00000000000E+00 -0.00000000000E+00 -0.65999729749E+03  0.65999729749E+03  0.00000000000E+00 0.  1.
         35    2    1    2    0    0  0.00000000000E+00  0.00000000000E+00 -0.63096446186E+03  0.68903013312E+03  0.27685081219E+03 0.  0.
         25    1    3    3    0    0 -0.57072972144E+02  0.36488701166E+02 -0.28276179708E+03  0.31455203600E+03  0.12000000000E+03 0.  0.
         25    1    3    3    0    0  0.57072972144E+02 -0.36488701166E+02 -0.34820266478E+03  0.37447809712E+03  0.12000000000E+03 0.  0.
<mgrwt>
<rscale>  0 0.27685081E+03</rscale>
<asrwt>0</asrwt>
<pdfrwt beam="1">  1        1 0.10153804E+00 0.27685081E+03</pdfrwt>
<pdfrwt beam="2">  1       -1 0.44665904E-02 0.27685081E+03</pdfrwt>
<totfact> 0.63858102E+03</totfact>
</mgrwt>
</event>
<event>
 5    1  0.1125356E+001  0.2742611E+03  0.7818608E-02  0.1098865E+00
         -1   -1    0    0    0  501 -0.00000000000E+00  0.00000000000E+00  0.13448009960E+02  0.13448009960E+02  0.00000000000E+00 0.  1.
          1   -1    0    0  501    0  0.00000000000E+00 -0.00000000000E+00 -0.13983327527E+04  0.13983327527E+04  0.00000000000E+00 0.  1.
         35    2    1    2    0    0  0.00000000000E+00  0.00000000000E+00 -0.13848847428E+04  0.14117807627E+04  0.27426113677E+03 0.  0.
         25    1    3    3    0    0  0.33919316500E+01 -0.51411711793E+02 -0.47709611156E+03  0.49464671128E+03  0.12000000000E+03 0.  0.
         25    1    3    3    0    0 -0.33919316500E+01  0.51411711793E+02 -0.90778863120E+03  0.91713405141E+03  0.12000000000E+03 0.  0.
<mgrwt>
<rscale>  0 0.27426114E+03</rscale>
<asrwt>0</asrwt>
<pdfrwt beam="1">  1        1 0.21512804E+00 0.27426114E+03</pdfrwt>
<pdfrwt beam="2">  1       -1 0.20689253E-02 0.27426114E+03</pdfrwt>
<totfact> 0.54594202E+03</totfact>
</mgrwt>
</event>
<event>
 5    1  0.1125356E+001  0.2743978E+03  0.7818608E-02  0.1098789E+00
         -1   -1    0    0    0  501 -0.00000000000E+00  0.00000000000E+00  0.11295606225E+03  0.11295606225E+03  0.00000000000E+00 0. -1.
          1   -1    0    0  501    0  0.00000000000E+00 -0.00000000000E+00 -0.16664480719E+03  0.16664480719E+03  0.00000000000E+00 0. -1.
         35    2    1    2    0    0  0.00000000000E+00  0.00000000000E+00 -0.53688744941E+02  0.27960086943E+03  0.27439782225E+03 0.  0.
         25    1    3    3    0    0 -0.28777727118E+02 -0.46377856435E+02  0.11882580970E+02  0.13236411476E+03  0.12000000000E+03 0.  0.
         25    1    3    3    0    0  0.28777727118E+02  0.46377856435E+02 -0.65571325910E+02  0.14723675468E+03  0.12000000000E+03 0.  0.
<mgrwt>
<rscale>  0 0.27439782E+03</rscale>
<asrwt>0</asrwt>
<pdfrwt beam="1">  1        1 0.25637662E-01 0.27439782E+03</pdfrwt>
<pdfrwt beam="2">  1       -1 0.17377856E-01 0.27439782E+03</pdfrwt>
<totfact> 0.46650183E+03</totfact>
</mgrwt>
</event>
<event>
 5    1  0.1125356E+001  0.2734402E+03  0.7818608E-02  0.1099327E+00
         -3   -1    0    0    0  501 -0.00000000000E+00  0.00000000000E+00  0.32069832451E+02  0.32069832451E+02  0.00000000000E+00 0. -1.
          3   -1    0    0  501    0  0.00000000000E+00 -0.00000000000E+00 -0.58286487699E+03  0.58286487699E+03  0.00000000000E+00 0. -1.
         35    2    1    2    0    0  0.00000000000E+00  0.00000000000E+00 -0.55079504453E+03  0.61493470944E+03  0.27344015028E+03 0.  0.
         25    1    3    3    0    0  0.53743859930E+02 -0.19408664354E+02 -0.20331811863E+03  0.24290606435E+03  0.12000000000E+03 0.  0.
         25    1    3    3    0    0 -0.53743859930E+02  0.19408664354E+02 -0.34747692590E+03  0.37202864509E+03  0.12000000000E+03 0.  0.
<mgrwt>
<rscale>  0 0.27344015E+03</rscale>
<asrwt>0</asrwt>
<pdfrwt beam="1">  1        3 0.89671518E-01 0.27344015E+03</pdfrwt>
<pdfrwt beam="2">  1       -3 0.49338205E-02 0.27344015E+03</pdfrwt>
<totfact> 0.68548653E+02</totfact>
</mgrwt>
</event>
<event>
 5    1  0.1125356E+001  0.2749185E+03  0.7818608E-02  0.1098497E+00
          4   -1    0    0  501    0  0.00000000000E+00  0.00000000000E+00  0.30189122088E+02  0.30189122088E+02  0.00000000000E+00 0. -1.
         -4   -1    0    0    0  501 -0.00000000000E+00 -0.00000000000E+00 -0.62588941857E+03  0.62588941857E+03  0.00000000000E+00 0. -1.
         35    2    1    2    0    0  0.00000000000E+00  0.00000000000E+00 -0.59570029648E+03  0.65607854066E+03  0.27491854845E+03 0.  0.
         25    1    3    3    0    0 -0.42047724961E+02 -0.29318227309E+02 -0.40097896965E+03  0.42167725067E+03  0.12000000000E+03 0.  0.
         25    1    3    3    0    0  0.42047724961E+02  0.29318227309E+02 -0.19472132683E+03  0.23440128999E+03  0.12000000000E+03 0.  0.
<mgrwt>
<rscale>  0 0.27491855E+03</rscale>
<asrwt>0</asrwt>
<pdfrwt beam="1">  1        4 0.46444802E-02 0.27491855E+03</pdfrwt>
<pdfrwt beam="2">  1       -4 0.96290683E-01 0.27491855E+03</pdfrwt>
<totfact> 0.46972504E+02</totfact>
</mgrwt>
</event>
<event>
 5    1  0.1125356E+001  0.2749707E+03  0.7818608E-02  0.1098468E+00
          2   -1    0    0  501    0  0.00000000000E+00  0.00000000000E+00  0.72924029741E+03  0.72924029741E+03  0.00000000000E+00 0. -1.
         -2   -1    0    0    0  501 -0.00000000000E+00 -0.00000000000E+00 -0.25920428311E+02  0.25920428311E+02  0.00000000000E+00 0. -1.
         35    2    1    2    0    0  0.00000000000E+00  0.00000000000E+00  0.70331986910E+03  0.75516072572E+03  0.27497069553E+03 0.  0.
         25    1    3    3    0    0 -0.13796169014E+02  0.65416381924E+02  0.33598332425E+03  0.36297993261E+03  0.12000000000E+03 0.  0.
         25    1    3    3    0    0  0.13796169014E+02 -0.65416381924E+02  0.36733654484E+03  0.39218079311E+03  0.12000000000E+03 0.  0.
<mgrwt>
<rscale>  0 0.27497070E+03</rscale>
<asrwt>0</asrwt>
<pdfrwt beam="1">  1        2 0.11219080E+00 0.27497070E+03</pdfrwt>
<pdfrwt beam="2">  1       -2 0.39877588E-02 0.27497070E+03</pdfrwt>
<totfact> 0.10968455E+04</totfact>
</mgrwt>
</event>
<event>
 5    1  0.1125356E+001  0.2758021E+03  0.7818608E-02  0.1098004E+00
          3   -1    0    0  501    0  0.00000000000E+00  0.00000000000E+00  0.83944350237E+01  0.83944350237E+01  0.00000000000E+00 0.  1.
         -3   -1    0    0    0  501 -0.00000000000E+00 -0.00000000000E+00 -0.22653928891E+04  0.22653928891E+04  0.00000000000E+00 0.  1.
         35    2    1    2    0    0  0.00000000000E+00  0.00000000000E+00 -0.22569984541E+04  0.22737873241E+04  0.27580205518E+03 0.  0.
         25    1    3    3    0    0 -0.53621772311E+02  0.27087322677E+02 -0.86679377043E+03  0.87712054928E+03  0.12000000000E+03 0.  0.
         25    1    3    3    0    0  0.53621772311E+02 -0.27087322677E+02 -0.13902046836E+04  0.13966667748E+04  0.12000000000E+03 0.  0.
<mgrwt>
<rscale>  0 0.27580206E+03</rscale>
<asrwt>0</asrwt>
<pdfrwt beam="1">  1        3 0.12914531E-02 0.27580206E+03</pdfrwt>
<pdfrwt beam="2">  1       -3 0.34852156E+00 0.27580206E+03</pdfrwt>
<totfact> 0.11355648E+02</totfact>
</mgrwt>
</event>
<event>
 5    1  0.1125356E+001  0.2748091E+03  0.7818608E-02  0.1098558E+00
          2   -1    0    0  501    0  0.00000000000E+00  0.00000000000E+00  0.12388031168E+04  0.12388031168E+04  0.00000000000E+00 0.  1.
         -2   -1    0    0    0  501 -0.00000000000E+00 -0.00000000000E+00 -0.15240521988E+02  0.15240521988E+02  0.00000000000E+00 0.  1.
         35    2    1    2    0    0  0.00000000000E+00  0.00000000000E+00  0.12235625948E+04  0.12540436388E+04  0.27480906929E+03 0.  0.
         25    1    3    3    0    0 -0.59360419874E+02 -0.18803587033E+02  0.72381741586E+03  0.73633476478E+03  0.12000000000E+03 0.  0.
         25    1    3    3    0    0  0.59360419874E+02  0.18803587033E+02  0.49974517898E+03  0.51770887402E+03  0.12000000000E+03 0.  0.
<mgrwt>
<rscale>  0 0.27480907E+03</rscale>
<asrwt>0</asrwt>
<pdfrwt beam="1">  1        2 0.19058502E+00 0.27480907E+03</pdfrwt>
<pdfrwt beam="2">  1       -2 0.23446967E-02 0.27480907E+03</pdfrwt>
<totfact> 0.11593673E+04</totfact>
</mgrwt>
</event>
<event>
 5    1  0.1125356E+001  0.2748064E+03  0.7818608E-02  0.1098560E+00
         -1   -1    0    0    0  501 -0.00000000000E+00  0.00000000000E+00  0.85158214002E+03  0.85158214002E+03  0.00000000000E+00 0. -1.
          1   -1    0    0  501    0  0.00000000000E+00 -0.00000000000E+00 -0.22170078829E+02  0.22170078829E+02  0.00000000000E+00 0. -1.
         35    2    1    2    0    0  0.00000000000E+00  0.00000000000E+00  0.82941206119E+03  0.87375221884E+03  0.27480642768E+03 0.  0.
         25    1    3    3    0    0  0.13386008894E+02  0.23267198971E+02  0.21976508052E+03  0.25182779512E+03  0.12000000000E+03 0.  0.
         25    1    3    3    0    0 -0.13386008894E+02 -0.23267198971E+02  0.60964698067E+03  0.62192442372E+03  0.12000000000E+03 0.  0.
<mgrwt>
<rscale>  0 0.27480643E+03</rscale>
<asrwt>0</asrwt>
<pdfrwt beam="1">  1        1 0.34107820E-02 0.27480643E+03</pdfrwt>
<pdfrwt beam="2">  1       -1 0.13101261E+00 0.27480643E+03</pdfrwt>
<totfact> 0.15183537E+03</totfact>
</mgrwt>
</event>
<event>
 5    1  0.1125356E+001  0.2747407E+03  0.7818608E-02  0.1098597E+00
         -1   -1    0    0    0  501 -0.00000000000E+00  0.00000000000E+00  0.33250492361E+02  0.33250492361E+02  0.00000000000E+00 0.  1.
          1   -1    0    0  501    0  0.00000000000E+00 -0.00000000000E+00 -0.56752894571E+03  0.56752894571E+03  0.00000000000E+00 0.  1.
         35    2    1    2    0    0  0.00000000000E+00  0.00000000000E+00 -0.53427845335E+03  0.60077943807E+03  0.27474072777E+03 0.  0.
         25    1    3    3    0    0  0.24457354561E+02  0.51329258390E+02 -0.19020659767E+03  0.23197285349E+03  0.12000000000E+03 0.  0.
         25    1    3    3    0    0 -0.24457354561E+02 -0.51329258390E+02 -0.34407185568E+03  0.36880658458E+03  0.12000000000E+03 0.  0.
<mgrwt>
<rscale>  0 0.27474073E+03</rscale>
<asrwt>0</asrwt>
<pdfrwt beam="1">  1        1 0.87312141E-01 0.27474073E+03</pdfrwt>
<pdfrwt beam="2">  1       -1 0.51154606E-02 0.27474073E+03</pdfrwt>
<totfact> 0.64360570E+03</totfact>
</mgrwt>
</event>
<event>
 5    1  0.1125356E+001  0.2751326E+03  0.7818608E-02  0.1098377E+00
         -2   -1    0    0    0  501 -0.00000000000E+00  0.00000000000E+00  0.85222378820E+02  0.85222378820E+02  0.00000000000E+00 0. -1.
          2   -1    0    0  501    0  0.00000000000E+00 -0.00000000000E+00 -0.22206008018E+03  0.22206008018E+03  0.00000000000E+00 0. -1.
         35    2    1    2    0    0  0.00000000000E+00  0.00000000000E+00 -0.13683770136E+03  0.30728245900E+03  0.27513261002E+03 0.  0.
         25    1    3    3    0    0  0.19270496637E+02  0.84849125621E+01 -0.13976763548E+03  0.18541396309E+03  0.12000000000E+03 0.  0.
         25    1    3    3    0    0 -0.19270496637E+02 -0.84849125621E+01  0.29299341159E+01  0.12186849591E+03  0.12000000000E+03 0.  0.
<mgrwt>
<rscale>  0 0.27513261E+03</rscale>
<asrwt>0</asrwt>
<pdfrwt beam="1">  1        2 0.34163089E-01 0.27513261E+03</pdfrwt>
<pdfrwt beam="2">  1       -2 0.13111135E-01 0.27513261E+03</pdfrwt>
<totfact> 0.64479005E+03</totfact>
</mgrwt>
</event>
<event>
 5    1  0.1125356E+001  0.2748598E+03  0.7818608E-02  0.1098530E+00
          2   -1    0    0  501    0  0.00000000000E+00  0.00000000000E+00  0.26893698276E+04  0.26893698276E+04  0.00000000000E+00 0. -1.
         -2   -1    0    0    0  501 -0.00000000000E+00 -0.00000000000E+00 -0.70228247640E+01  0.70228247640E+01  0.00000000000E+00 0. -1.
         35    2    1    2    0    0  0.00000000000E+00  0.00000000000E+00  0.26823470029E+04  0.26963926524E+04  0.27485976806E+03 0.  0.
         25    1    3    3    0    0 -0.16268159155E+02 -0.52434979849E+02  0.17176670557E+04  0.17227287060E+04  0.12000000000E+03 0.  0.
         25    1    3    3    0    0  0.16268159155E+02  0.52434979849E+02  0.96467994716E+03  0.97366394642E+03  0.12000000000E+03 0.  0.
<mgrwt>
<rscale>  0 0.27485977E+03</rscale>
<asrwt>0</asrwt>
<pdfrwt beam="1">  1        2 0.41374838E+00 0.27485977E+03</pdfrwt>
<pdfrwt beam="2">  1       -2 0.10804367E-02 0.27485977E+03</pdfrwt>
<totfact> 0.59978277E+03</totfact>
</mgrwt>
</event>
<event>
 5    1  0.1125356E+001  0.2762320E+03  0.7818608E-02  0.1097765E+00
         -2   -1    0    0    0  501 -0.00000000000E+00  0.00000000000E+00  0.83121374580E+01  0.83121374580E+01  0.00000000000E+00 0. -1.
          2   -1    0    0  501    0  0.00000000000E+00 -0.00000000000E+00 -0.22949607435E+04  0.22949607435E+04  0.00000000000E+00 0. -1.
         35    2    1    2    0    0  0.00000000000E+00  0.00000000000E+00 -0.22866486061E+04  0.23032728810E+04  0.27623199786E+03 0.  0.
         25    1    3    3    0    0  0.27654890539E+02 -0.28031569921E+02 -0.67717086900E+03  0.68884755041E+03  0.12000000000E+03 0.  0.
         25    1    3    3    0    0 -0.27654890539E+02  0.28031569921E+02 -0.16094777371E+04  0.16144253306E+04  0.12000000000E+03 0.  0.
<mgrwt>
<rscale>  0 0.27623200E+03</rscale>
<asrwt>0</asrwt>
<pdfrwt beam="1">  1        2 0.35307134E+00 0.27623200E+03</pdfrwt>
<pdfrwt beam="2">  1       -2 0.12787887E-02 0.27623200E+03</pdfrwt>
<totfact> 0.77188954E+03</totfact>
</mgrwt>
</event>
<event>
 5    1  0.1125356E+001  0.2743215E+03  0.7818608E-02  0.1098831E+00
          2   -1    0    0  501    0  0.00000000000E+00  0.00000000000E+00  0.19925388336E+04  0.19925388336E+04  0.00000000000E+00 0. -1.
         -2   -1    0    0    0  501 -0.00000000000E+00 -0.00000000000E+00 -0.94417557915E+01  0.94417557915E+01  0.00000000000E+00 0. -1.
         35    2    1    2    0    0  0.00000000000E+00  0.00000000000E+00  0.19830970778E+04  0.20019805894E+04  0.27432145430E+03 0.  0.
         25    1    3    3    0    0  0.45520108744E+02 -0.21320663985E+02  0.67457821758E+03  0.68700976896E+03  0.12000000000E+03 0.  0.
         25    1    3    3    0    0 -0.45520108744E+02  0.21320663985E+02  0.13085188602E+04  0.13149708204E+04  0.12000000000E+03 0.  0.
<mgrwt>
<rscale>  0 0.27432145E+03</rscale>
<asrwt>0</asrwt>
<pdfrwt beam="1">  1        2 0.30654410E+00 0.27432145E+03</pdfrwt>
<pdfrwt beam="2">  1       -2 0.14525794E-02 0.27432145E+03</pdfrwt>
<totfact> 0.92705262E+03</totfact>
</mgrwt>
</event>
<event>
 5    1  0.1125356E+001  0.2763578E+03  0.7818608E-02  0.1097695E+00
          2   -1    0    0  501    0  0.00000000000E+00  0.00000000000E+00  0.87241632980E+02  0.87241632980E+02  0.00000000000E+00 0.  1.
         -2   -1    0    0    0  501 -0.00000000000E+00 -0.00000000000E+00 -0.21885656400E+03  0.21885656400E+03  0.00000000000E+00 0.  1.
         35    2    1    2    0    0  0.00000000000E+00  0.00000000000E+00 -0.13161493102E+03  0.30609819698E+03  0.27635776835E+03 0.  0.
         25    1    3    3    0    0 -0.63303775764E+02 -0.14803788423E+02 -0.41874664930E+02  0.14275856451E+03  0.12000000000E+03 0.  0.
         25    1    3    3    0    0  0.63303775764E+02  0.14803788423E+02 -0.89740266086E+02  0.16333963247E+03  0.12000000000E+03 0.  0.
<mgrwt>
<rscale>  0 0.27635777E+03</rscale>
<asrwt>0</asrwt>
<pdfrwt beam="1">  1        2 0.13421790E-01 0.27635777E+03</pdfrwt>
<pdfrwt beam="2">  1       -2 0.33670240E-01 0.27635777E+03</pdfrwt>
<totfact> 0.36630281E+03</totfact>
</mgrwt>
</event>
<event>
 5    1  0.1125356E+001  0.2763681E+03  0.7818608E-02  0.1097689E+00
          2   -1    0    0  501    0  0.00000000000E+00  0.00000000000E+00  0.64490602903E+03  0.64490602903E+03  0.00000000000E+00 0. -1.
         -2   -1    0    0    0  501 -0.00000000000E+00 -0.00000000000E+00 -0.29608713514E+02  0.29608713514E+02  0.00000000000E+00 0. -1.
         35    2    1    2    0    0  0.00000000000E+00  0.00000000000E+00  0.61529731552E+03  0.67451474255E+03  0.27636814474E+03 0.  0.
         25    1    3    3    0    0  0.13291913442E+02  0.93252265187E+01  0.14518198425E+03  0.18905407524E+03  0.12000000000E+03 0.  0.
         25    1    3    3    0    0 -0.13291913442E+02 -0.93252265187E+01  0.47011533127E+03  0.48546066731E+03  0.12000000000E+03 0.  0.
<mgrwt>
<rscale>  0 0.27636814E+03</rscale>
<asrwt>0</asrwt>
<pdfrwt beam="1">  1        2 0.99216301E-01 0.27636814E+03</pdfrwt>
<pdfrwt beam="2">  1       -2 0.45551872E-02 0.27636814E+03</pdfrwt>
<totfact> 0.10410014E+04</totfact>
</mgrwt>
</event>
<event>
 5    1  0.1125356E+001  0.2721386E+03  0.7818608E-02  0.1100062E+00
          2   -1    0    0  501    0  0.00000000000E+00  0.00000000000E+00  0.63060501921E+03  0.63060501921E+03  0.00000000000E+00 0.  1.
         -2   -1    0    0    0  501 -0.00000000000E+00 -0.00000000000E+00 -0.29360466952E+02  0.29360466952E+02  0.00000000000E+00 0.  1.
         35    2    1    2    0    0  0.00000000000E+00  0.00000000000E+00  0.60124455226E+03  0.65996548616E+03  0.27213862516E+03 0.  0.
         25    1    3    3    0    0  0.35640022109E+02 -0.41297840892E+02  0.21877228564E+03  0.25541541810E+03  0.12000000000E+03 0.  0.
         25    1    3    3    0    0 -0.35640022109E+02  0.41297840892E+02  0.38247226662E+03  0.40455006806E+03  0.12000000000E+03 0.  0.
<mgrwt>
<rscale>  0 0.27213863E+03</rscale>
<asrwt>0</asrwt>
<pdfrwt beam="1">  1        2 0.97016147E-01 0.27213863E+03</pdfrwt>
<pdfrwt beam="2">  1       -2 0.45169954E-02 0.27213863E+03</pdfrwt>
<totfact> 0.10819935E+04</totfact>
</mgrwt>
</event>
<event>
 5    1  0.1125356E+001  0.2747684E+03  0.7818608E-02  0.1098581E+00
         -2   -1    0    0    0  501 -0.00000000000E+00  0.00000000000E+00  0.69027741659E+02  0.69027741659E+02  0.00000000000E+00 0.  1.
          2   -1    0    0  501    0  0.00000000000E+00 -0.00000000000E+00 -0.27343236325E+03  0.27343236325E+03  0.00000000000E+00 0.  1.
         35    2    1    2    0    0  0.00000000000E+00  0.00000000000E+00 -0.20440462159E+03  0.34246010491E+03  0.27476840089E+03 0.  0.
         25    1    3    3    0    0 -0.22409977078E+02 -0.26739425600E+02 -0.31070087348E+02  0.12877326695E+03  0.12000000000E+03 0.  0.
         25    1    3    3    0    0  0.22409977078E+02  0.26739425600E+02 -0.17333453424E+03  0.21368683796E+03  0.12000000000E+03 0.  0.
<mgrwt>
<rscale>  0 0.27476840E+03</rscale>
<asrwt>0</asrwt>
<pdfrwt beam="1">  1        2 0.42066518E-01 0.27476840E+03</pdfrwt>
<pdfrwt beam="2">  1       -2 0.10619652E-01 0.27476840E+03</pdfrwt>
<totfact> 0.72319808E+03</totfact>
</mgrwt>
</event>
<event>
 5    1  0.1125356E+001  0.2710976E+03  0.7818608E-02  0.1100653E+00
         -1   -1    0    0    0  501 -0.00000000000E+00  0.00000000000E+00  0.34262159769E+02  0.34262159769E+02  0.00000000000E+00 0. -1.
          1   -1    0    0  501    0  0.00000000000E+00 -0.00000000000E+00 -0.53626157055E+03  0.53626157055E+03  0.00000000000E+00 0. -1.
         35    2    1    2    0    0  0.00000000000E+00  0.00000000000E+00 -0.50199941078E+03  0.57052373032E+03  0.27109761790E+03 0.  0.
         25    1    3    3    0    0  0.48544946724E+02 -0.76498106405E+01 -0.16792281030E+03  0.21216314872E+03  0.12000000000E+03 0.  0.
         25    1    3    3    0    0 -0.48544946724E+02  0.76498106405E+01 -0.33407660048E+03  0.35836058160E+03  0.12000000000E+03 0.  0.
<mgrwt>
<rscale>  0 0.27109762E+03</rscale>
<asrwt>0</asrwt>
<pdfrwt beam="1">  1        1 0.82501773E-01 0.27109762E+03</pdfrwt>
<pdfrwt beam="2">  1       -1 0.52711019E-02 0.27109762E+03</pdfrwt>
<totfact> 0.66427564E+03</totfact>
</mgrwt>
</event>
<event>
 5    1  0.1125356E+001  0.2742449E+03  0.7818608E-02  0.1098874E+00
         -1   -1    0    0    0  501 -0.00000000000E+00  0.00000000000E+00  0.33600821673E+03  0.33600821673E+03  0.00000000000E+00 0.  1.
          1   -1    0    0  501    0  0.00000000000E+00 -0.00000000000E+00 -0.55958631038E+02  0.55958631038E+02  0.00000000000E+00 0.  1.
         35    2    1    2    0    0  0.00000000000E+00  0.00000000000E+00  0.28004958570E+03  0.39196684777E+03  0.27424485283E+03 0.  0.
         25    1    3    3    0    0 -0.51875874881E+01 -0.62890711914E+02  0.11071951247E+03  0.17504560306E+03  0.12000000000E+03 0.  0.
         25    1    3    3    0    0  0.51875874881E+01  0.62890711914E+02  0.16933007323E+03  0.21692124471E+03  0.12000000000E+03 0.  0.
<mgrwt>
<rscale>  0 0.27424485E+03</rscale>
<asrwt>0</asrwt>
<pdfrwt beam="1">  1        1 0.86090203E-02 0.27424485E+03</pdfrwt>
<pdfrwt beam="2">  1       -1 0.51693571E-01 0.27424485E+03</pdfrwt>
<totfact> 0.30248855E+03</totfact>
</mgrwt>
</event>
<event>
 5    1  0.1125356E+001  0.2746493E+03  0.7818608E-02  0.1098648E+00
         -2   -1    0    0    0  501 -0.00000000000E+00  0.00000000000E+00  0.31023962974E+02  0.31023962974E+02  0.00000000000E+00 0.  1.
          2   -1    0    0  501    0  0.00000000000E+00 -0.00000000000E+00 -0.60785465409E+03  0.60785465409E+03  0.00000000000E+00 0.  1.
         35    2    1    2    0    0  0.00000000000E+00  0.00000000000E+00 -0.57683069112E+03  0.63887861707E+03  0.27464930571E+03 0.  0.
         25    1    3    3    0    0 -0.24263663221E+02 -0.39193074847E+01 -0.14400635403E+03  0.18905532610E+03  0.12000000000E+03 0.  0.
         25    1    3    3    0    0  0.24263663221E+02  0.39193074847E+01 -0.43282433708E+03  0.44982329097E+03  0.12000000000E+03 0.  0.
<mgrwt>
<rscale>  0 0.27464931E+03</rscale>
<asrwt>0</asrwt>
<pdfrwt beam="1">  1        2 0.93516103E-01 0.27464931E+03</pdfrwt>
<pdfrwt beam="2">  1       -2 0.47729173E-02 0.27464931E+03</pdfrwt>
<totfact> 0.10394848E+04</totfact>
</mgrwt>
</event>
<event>
 5    1  0.1125356E+001  0.2745564E+03  0.7818608E-02  0.1098700E+00
         -1   -1    0    0    0  501 -0.00000000000E+00  0.00000000000E+00  0.16581994627E+03  0.16581994627E+03  0.00000000000E+00 0. -1.
          1   -1    0    0  501    0  0.00000000000E+00 -0.00000000000E+00 -0.11364920663E+03  0.11364920663E+03  0.00000000000E+00 0. -1.
         35    2    1    2    0    0  0.00000000000E+00  0.00000000000E+00  0.52170739636E+02  0.27946915289E+03  0.27455640831E+03 0.  0.
         25    1    3    3    0    0 -0.55384461758E+02  0.17198761215E+02  0.59568792130E+02  0.14598519441E+03  0.12000000000E+03 0.  0.
         25    1    3    3    0    0  0.55384461758E+02 -0.17198761215E+02 -0.73980524936E+01  0.13348395848E+03  0.12000000000E+03 0.  0.
<mgrwt>
<rscale>  0 0.27455641E+03</rscale>
<asrwt>0</asrwt>
<pdfrwt beam="1">  1        1 0.17484493E-01 0.27455641E+03</pdfrwt>
<pdfrwt beam="2">  1       -1 0.25510761E-01 0.27455641E+03</pdfrwt>
<totfact> 0.40727185E+03</totfact>
</mgrwt>
</event>
<event>
 5    1  0.1125356E+001  0.2744252E+03  0.7818608E-02  0.1098773E+00
         -2   -1    0    0    0  501 -0.00000000000E+00  0.00000000000E+00  0.23033538896E+02  0.23033538896E+02  0.00000000000E+00 0.  1.
          2   -1    0    0  501    0  0.00000000000E+00 -0.00000000000E+00 -0.81738620391E+03  0.81738620391E+03  0.00000000000E+00 0.  1.
         35    2    1    2    0    0  0.00000000000E+00  0.00000000000E+00 -0.79435266501E+03  0.84041974281E+03  0.27442519506E+03 0.  0.
         25    1    3    3    0    0 -0.26380562686E+02 -0.60635406777E+02 -0.41982834150E+03  0.44162022482E+03  0.12000000000E+03 0.  0.
         25    1    3    3    0    0  0.26380562686E+02  0.60635406777E+02 -0.37452432351E+03  0.39879951798E+03  0.12000000000E+03 0.  0.
<mgrwt>
<rscale>  0 0.27442520E+03</rscale>
<asrwt>0</asrwt>
<pdfrwt beam="1">  1        2 0.12575173E+00 0.27442520E+03</pdfrwt>
<pdfrwt beam="2">  1       -2 0.35436212E-02 0.27442520E+03</pdfrwt>
<totfact> 0.11345298E+04</totfact>
</mgrwt>
</event>
<event>
 5    1  0.1125356E+001  0.2748238E+03  0.7818608E-02  0.1098550E+00
         -1   -1    0    0    0  501 -0.00000000000E+00  0.00000000000E+00  0.37738649646E+02  0.37738649646E+02  0.00000000000E+00 0.  1.
          1   -1    0    0  501    0  0.00000000000E+00 -0.00000000000E+00 -0.50033680932E+03  0.50033680932E+03  0.00000000000E+00 0.  1.
         35    2    1    2    0    0  0.00000000000E+00  0.00000000000E+00 -0.46259815967E+03  0.53807545897E+03  0.27482383850E+03 0.  0.
         25    1    3    3    0    0  0.40096932764E+02  0.53079758513E+02 -0.21654187430E+03  0.25635055706E+03  0.12000000000E+03 0.  0.
         25    1    3    3    0    0 -0.40096932764E+02 -0.53079758513E+02 -0.24605628537E+03  0.28172490190E+03  0.12000000000E+03 0.  0.
<mgrwt>
<rscale>  0 0.27482384E+03</rscale>
<asrwt>0</asrwt>
<pdfrwt beam="1">  1        1 0.76974898E-01 0.27482384E+03</pdfrwt>
<pdfrwt beam="2">  1       -1 0.58059458E-02 0.27482384E+03</pdfrwt>
<totfact> 0.63057458E+03</totfact>
</mgrwt>
</event>
<event>
 5    1  0.1125356E+001  0.2745537E+03  0.7818608E-02  0.1098701E+00
          1   -1    0    0  501    0  0.00000000000E+00  0.00000000000E+00  0.88970829779E+03  0.88970829779E+03  0.00000000000E+00 0.  1.
         -1   -1    0    0    0  501 -0.00000000000E+00 -0.00000000000E+00 -0.21181025403E+02  0.21181025403E+02  0.00000000000E+00 0.  1.
         35    2    1    2    0    0  0.00000000000E+00  0.00000000000E+00  0.86852727239E+03  0.91088932319E+03  0.27455370372E+03 0.  0.
         25    1    3    3    0    0 -0.54477931836E+02 -0.12294848340E+02  0.31345502275E+03  0.34025440430E+03  0.12000000000E+03 0.  0.
         25    1    3    3    0    0  0.54477931836E+02  0.12294848340E+02  0.55507224963E+03  0.57063491890E+03  0.12000000000E+03 0.  0.
<mgrwt>
<rscale>  0 0.27455370E+03</rscale>
<asrwt>0</asrwt>
<pdfrwt beam="1">  1        1 0.13687817E+00 0.27455370E+03</pdfrwt>
<pdfrwt beam="2">  1       -1 0.32586200E-02 0.27455370E+03</pdfrwt>
<totfact> 0.64847807E+03</totfact>
</mgrwt>
</event>
<event>
 5    1  0.1125356E+001  0.2728243E+03  0.7818608E-02  0.1099674E+00
         -1   -1    0    0    0  501 -0.00000000000E+00  0.00000000000E+00  0.78381967938E+03  0.78381967938E+03  0.00000000000E+00 0.  1.
          1   -1    0    0  501    0  0.00000000000E+00 -0.00000000000E+00 -0.23740506629E+02  0.23740506629E+02  0.00000000000E+00 0.  1.
         35    2    1    2    0    0  0.00000000000E+00  0.00000000000E+00  0.76007917275E+03  0.80756018601E+03  0.27282431192E+03 0.  0.
         25    1    3    3    0    0 -0.13324079609E+02 -0.25326177069E+02  0.55236477224E+03  0.56597331029E+03  0.12000000000E+03 0.  0.
         25    1    3    3    0    0  0.13324079609E+02  0.25326177069E+02  0.20771440051E+03  0.24158687572E+03  0.12000000000E+03 0.  0.
<mgrwt>
<rscale>  0 0.27282431E+03</rscale>
<asrwt>0</asrwt>
<pdfrwt beam="1">  1        1 0.36523862E-02 0.27282431E+03</pdfrwt>
<pdfrwt beam="2">  1       -1 0.12058762E+00 0.27282431E+03</pdfrwt>
<totfact> 0.16871854E+03</totfact>
</mgrwt>
</event>
<event>
 5    1  0.1125356E+001  0.2748526E+03  0.7818608E-02  0.1098534E+00
         -2   -1    0    0    0  501 -0.00000000000E+00  0.00000000000E+00  0.14677778632E+02  0.14677778632E+02  0.00000000000E+00 0.  1.
          2   -1    0    0  501    0  0.00000000000E+00 -0.00000000000E+00 -0.12867063517E+04  0.12867063517E+04  0.00000000000E+00 0.  1.
         35    2    1    2    0    0  0.00000000000E+00  0.00000000000E+00 -0.12720285731E+04  0.13013841304E+04  0.27485262229E+03 0.  0.
         25    1    3    3    0    0  0.63101228845E+02  0.14760357875E+02 -0.55589075355E+03  0.57237589322E+03  0.12000000000E+03 0.  0.
         25    1    3    3    0    0 -0.63101228845E+02 -0.14760357875E+02 -0.71613781953E+03  0.72900823714E+03  0.12000000000E+03 0.  0.
<mgrwt>
<rscale>  0 0.27485262E+03</rscale>
<asrwt>0</asrwt>
<pdfrwt beam="1">  1        2 0.19795482E+00 0.27485262E+03</pdfrwt>
<pdfrwt beam="2">  1       -2 0.22581198E-02 0.27485262E+03</pdfrwt>
<totfact> 0.11523475E+04</totfact>
</mgrwt>
</event>
<event>
 5    1  0.1125356E+001  0.2753960E+03  0.7818608E-02  0.1098230E+00
         -2   -1    0    0    0  501 -0.00000000000E+00  0.00000000000E+00  0.65059571172E+03  0.65059571172E+03  0.00000000000E+00 0. -1.
          2   -1    0    0  501    0  0.00000000000E+00 -0.00000000000E+00 -0.29143653372E+02  0.29143653372E+02  0.00000000000E+00 0. -1.
         35    2    1    2    0    0  0.00000000000E+00  0.00000000000E+00  0.62145205835E+03  0.67973936509E+03  0.27539597606E+03 0.  0.
         25    1    3    3    0    0 -0.45347488987E+02  0.47971530748E+01  0.43367558404E+03  0.45227637527E+03  0.12000000000E+03 0.  0.
         25    1    3    3    0    0  0.45347488987E+02 -0.47971530748E+01  0.18777647431E+03  0.22746298982E+03  0.12000000000E+03 0.  0.
<mgrwt>
<rscale>  0 0.27539598E+03</rscale>
<asrwt>0</asrwt>
<pdfrwt beam="1">  1        2 0.44836395E-02 0.27539598E+03</pdfrwt>
<pdfrwt beam="2">  1       -2 0.10009164E+00 0.27539598E+03</pdfrwt>
<totfact> 0.15548389E+03</totfact>
</mgrwt>
</event>
<event>
 5    1  0.1125356E+001  0.2754420E+03  0.7818608E-02  0.1098205E+00
          4   -1    0    0  501    0  0.00000000000E+00  0.00000000000E+00  0.60826984636E+03  0.60826984636E+03  0.00000000000E+00 0.  1.
         -4   -1    0    0    0  501 -0.00000000000E+00 -0.00000000000E+00 -0.31181999580E+02  0.31181999580E+02  0.00000000000E+00 0.  1.
         35    2    1    2    0    0  0.00000000000E+00  0.00000000000E+00  0.57708784678E+03  0.63945184594E+03  0.27544197279E+03 0.  0.
         25    1    3    3    0    0  0.41068868323E+02  0.52250620798E+02  0.31700451258E+03  0.34541082831E+03  0.12000000000E+03 0.  0.
         25    1    3    3    0    0 -0.41068868323E+02 -0.52250620798E+02  0.26008333420E+03  0.29404101763E+03  0.12000000000E+03 0.  0.
<mgrwt>
<rscale>  0 0.27544197E+03</rscale>
<asrwt>0</asrwt>
<pdfrwt beam="1">  1        4 0.93579967E-01 0.27544197E+03</pdfrwt>
<pdfrwt beam="2">  1       -4 0.47972312E-02 0.27544197E+03</pdfrwt>
<totfact> 0.47633508E+02</totfact>
</mgrwt>
</event>
<event>
 5    1  0.1125356E+001  0.2738883E+03  0.7818608E-02  0.1099075E+00
         -2   -1    0    0    0  501 -0.00000000000E+00  0.00000000000E+00  0.81522473750E+01  0.81522473750E+01  0.00000000000E+00 0.  1.
          2   -1    0    0  501    0  0.00000000000E+00 -0.00000000000E+00 -0.23004323465E+04  0.23004323465E+04  0.00000000000E+00 0.  1.
         35    2    1    2    0    0  0.00000000000E+00  0.00000000000E+00 -0.22922800991E+04  0.23085845939E+04  0.27388825136E+03 0.  0.
         25    1    3    3    0    0  0.19824834250E+02  0.28583678063E+02 -0.16187349054E+04  0.16235494278E+04  0.12000000000E+03 0.  0.
         25    1    3    3    0    0 -0.19824834250E+02 -0.28583678063E+02 -0.67354519376E+03  0.68503516607E+03  0.12000000000E+03 0.  0.
<mgrwt>
<rscale>  0 0.27388825E+03</rscale>
<asrwt>0</asrwt>
<pdfrwt beam="1">  1        2 0.35391258E+00 0.27388825E+03</pdfrwt>
<pdfrwt beam="2">  1       -2 0.12541922E-02 0.27388825E+03</pdfrwt>
<totfact> 0.78871401E+03</totfact>
</mgrwt>
</event>
<event>
 5    1  0.1125356E+001  0.2747348E+03  0.7818608E-02  0.1098600E+00
          1   -1    0    0  501    0  0.00000000000E+00  0.00000000000E+00  0.23029387833E+04  0.23029387833E+04  0.00000000000E+00 0.  1.
         -1   -1    0    0    0  501 -0.00000000000E+00 -0.00000000000E+00 -0.81937908181E+01  0.81937908181E+01  0.00000000000E+00 0.  1.
         35    2    1    2    0    0  0.00000000000E+00  0.00000000000E+00  0.22947449925E+04  0.23111325741E+04  0.27473477143E+03 0.  0.
         25    1    3    3    0    0  0.28605733968E+01  0.56549236931E+02  0.14464269904E+04  0.14525002711E+04  0.12000000000E+03 0.  0.
         25    1    3    3    0    0 -0.28605733968E+01 -0.56549236931E+02  0.84831800211E+03  0.85863230301E+03  0.12000000000E+03 0.  0.
<mgrwt>
<rscale>  0 0.27473477E+03</rscale>
<asrwt>0</asrwt>
<pdfrwt beam="1">  1        1 0.35429776E+00 0.27473477E+03</pdfrwt>
<pdfrwt beam="2">  1       -1 0.12605850E-02 0.27473477E+03</pdfrwt>
<totfact> 0.28769805E+03</totfact>
</mgrwt>
</event>
<event>
 5    1  0.1125356E+001  0.2749183E+03  0.7818608E-02  0.1098497E+00
         -3   -1    0    0    0  501 -0.00000000000E+00  0.00000000000E+00  0.55027468725E+03  0.55027468725E+03  0.00000000000E+00 0. -1.
          3   -1    0    0  501    0  0.00000000000E+00 -0.00000000000E+00 -0.34337434714E+02  0.34337434714E+02  0.00000000000E+00 0. -1.
         35    2    1    2    0    0  0.00000000000E+00  0.00000000000E+00  0.51593725253E+03  0.58461212196E+03  0.27491832349E+03 0.  0.
         25    1    3    3    0    0 -0.51707171884E+02  0.36239696539E+01  0.34839479508E+03  0.37210979296E+03  0.12000000000E+03 0.  0.
         25    1    3    3    0    0  0.51707171884E+02 -0.36239696539E+01  0.16754245745E+03  0.21250232900E+03  0.12000000000E+03 0.  0.
<mgrwt>
<rscale>  0 0.27491832E+03</rscale>
<asrwt>0</asrwt>
<pdfrwt beam="1">  1        3 0.52826827E-02 0.27491832E+03</pdfrwt>
<pdfrwt beam="2">  1       -3 0.84657638E-01 0.27491832E+03</pdfrwt>
<totfact> 0.69791291E+02</totfact>
</mgrwt>
</event>
<event>
 5    1  0.1125356E+001  0.2749044E+03  0.7818608E-02  0.1098505E+00
         -2   -1    0    0    0  501 -0.00000000000E+00  0.00000000000E+00  0.64252301627E+02  0.64252301627E+02  0.00000000000E+00 0. -1.
          2   -1    0    0  501    0  0.00000000000E+00 -0.00000000000E+00 -0.29404557742E+03  0.29404557742E+03  0.00000000000E+00 0. -1.
         35    2    1    2    0    0  0.00000000000E+00  0.00000000000E+00 -0.22979327579E+03  0.35829787904E+03  0.27490438434E+03 0.  0.
         25    1    3    3    0    0  0.26138646370E+01  0.96805827016E+01 -0.20127826512E+03  0.23454953844E+03  0.12000000000E+03 0.  0.
         25    1    3    3    0    0 -0.26138646370E+01 -0.96805827016E+01 -0.28515010667E+02  0.12374834061E+03  0.12000000000E+03 0.  0.
<mgrwt>
<rscale>  0 0.27490438E+03</rscale>
<asrwt>0</asrwt>
<pdfrwt beam="1">  1        2 0.45237781E-01 0.27490438E+03</pdfrwt>
<pdfrwt beam="2">  1       -2 0.98849695E-02 0.27490438E+03</pdfrwt>
<totfact> 0.74971920E+03</totfact>
</mgrwt>
</event>
<event>
 5    1  0.1125356E+001  0.2747010E+03  0.7818608E-02  0.1098619E+00
          2   -1    0    0  501    0  0.00000000000E+00  0.00000000000E+00  0.11543320533E+04  0.11543320533E+04  0.00000000000E+00 0. -1.
         -2   -1    0    0    0  501 -0.00000000000E+00 -0.00000000000E+00 -0.16342927656E+02  0.16342927656E+02  0.00000000000E+00 0. -1.
         35    2    1    2    0    0  0.00000000000E+00  0.00000000000E+00  0.11379891257E+04  0.11706749810E+04  0.27470103922E+03 0.  0.
         25    1    3    3    0    0 -0.40620747132E+02 -0.51520121227E+02  0.62303456300E+03  0.63786866570E+03  0.12000000000E+03 0.  0.
         25    1    3    3    0    0  0.40620747132E+02  0.51520121227E+02  0.51495456265E+03  0.53280631526E+03  0.12000000000E+03 0.  0.
<mgrwt>
<rscale>  0 0.27470104E+03</rscale>
<asrwt>0</asrwt>
<pdfrwt beam="1">  1        2 0.17758948E+00 0.27470104E+03</pdfrwt>
<pdfrwt beam="2">  1       -2 0.25142975E-02 0.27470104E+03</pdfrwt>
<totfact> 0.11679622E+04</totfact>
</mgrwt>
</event>
<event>
 5    1  0.1125356E+001  0.2750896E+03  0.7818608E-02  0.1098402E+00
          2   -1    0    0  501    0  0.00000000000E+00  0.00000000000E+00  0.70614294815E+03  0.70614294815E+03  0.00000000000E+00 0. -1.
         -2   -1    0    0    0  501 -0.00000000000E+00 -0.00000000000E+00 -0.26791411410E+02  0.26791411410E+02  0.00000000000E+00 0. -1.
         35    2    1    2    0    0  0.00000000000E+00  0.00000000000E+00  0.67935153674E+03  0.73293435956E+03  0.27508955806E+03 0.  0.
         25    1    3    3    0    0  0.64195223567E+02  0.19890934808E+02  0.33601268062E+03  0.36307189034E+03  0.12000000000E+03 0.  0.
         25    1    3    3    0    0 -0.64195223567E+02 -0.19890934808E+02  0.34333885612E+03  0.36986246922E+03  0.12000000000E+03 0.  0.
<mgrwt>
<rscale>  0 0.27508956E+03</rscale>
<asrwt>0</asrwt>
<pdfrwt beam="1">  1        2 0.10863736E+00 0.27508956E+03</pdfrwt>
<pdfrwt beam="2">  1       -2 0.41217561E-02 0.27508956E+03</pdfrwt>
<totfact> 0.10855542E+04</totfact>
</mgrwt>
</event>
<event>
 5    1  0.1125356E+001  0.2634154E+03  0.7818608E-02  0.1105108E+00
          2   -1    0    0  501    0  0.00000000000E+00  0.00000000000E+00  0.40087311478E+03  0.40087311478E+03  0.00000000000E+00 0. -1.
         -2   -1    0    0    0  501 -0.00000000000E+00 -0.00000000000E+00 -0.43272856436E+02  0.43272856436E+02  0.00000000000E+00 0. -1.
         35    2    1    2    0    0  0.00000000000E+00  0.00000000000E+00  0.35760025835E+03  0.44414597122E+03  0.26341544939E+03 0.  0.
         25    1    3    3    0    0  0.37871370067E+02 -0.36384041277E+02  0.20197321797E+03  0.24073059612E+03  0.12000000000E+03 0.  0.
         25    1    3    3    0    0 -0.37871370067E+02  0.36384041277E+02  0.15562704037E+03  0.20341537510E+03  0.12000000000E+03 0.  0.
<mgrwt>
<rscale>  0 0.26341545E+03</rscale>
<asrwt>0</asrwt>
<pdfrwt beam="1">  1        2 0.61672784E-01 0.26341545E+03</pdfrwt>
<pdfrwt beam="2">  1       -2 0.66573628E-02 0.26341545E+03</pdfrwt>
<totfact> 0.99414948E+03</totfact>
</mgrwt>
</event>
<event>
 5    1  0.1125356E+001  0.2746821E+03  0.7818608E-02  0.1098629E+00
         -2   -1    0    0    0  501 -0.00000000000E+00  0.00000000000E+00  0.60712896370E+02  0.60712896370E+02  0.00000000000E+00 0.  1.
          2   -1    0    0  501    0  0.00000000000E+00 -0.00000000000E+00 -0.31068468915E+03  0.31068468915E+03  0.00000000000E+00 0.  1.
         35    2    1    2    0    0  0.00000000000E+00  0.00000000000E+00 -0.24997179278E+03  0.37139758552E+03  0.27468212418E+03 0.  0.
         25    1    3    3    0    0 -0.12294333701E+02  0.46805421521E+02 -0.62720731233E+02  0.14379077944E+03  0.12000000000E+03 0.  0.
         25    1    3    3    0    0  0.12294333701E+02 -0.46805421521E+02 -0.18725106155E+03  0.22760680608E+03  0.12000000000E+03 0.  0.
<mgrwt>
<rscale>  0 0.27468212E+03</rscale>
<asrwt>0</asrwt>
<pdfrwt beam="1">  1        2 0.47797644E-01 0.27468212E+03</pdfrwt>
<pdfrwt beam="2">  1       -2 0.93404457E-02 0.27468212E+03</pdfrwt>
<totfact> 0.77297045E+03</totfact>
</mgrwt>
</event>
<event>
 5    1  0.1125356E+001  0.2750444E+03  0.7818608E-02  0.1098427E+00
          2   -1    0    0  501    0  0.00000000000E+00  0.00000000000E+00  0.20933079493E+04  0.20933079493E+04  0.00000000000E+00 0. -1.
         -2   -1    0    0    0  501 -0.00000000000E+00 -0.00000000000E+00 -0.90346725247E+01  0.90346725247E+01  0.00000000000E+00 0. -1.
         35    2    1    2    0    0  0.00000000000E+00  0.00000000000E+00  0.20842732767E+04  0.21023426218E+04  0.27504437326E+03 0.  0.
         25    1    3    3    0    0  0.51106073871E+02  0.81988011807E+01  0.71485805927E+03  0.72670564607E+03  0.12000000000E+03 0.  0.
         25    1    3    3    0    0 -0.51106073871E+02 -0.81988011807E+01  0.13694152175E+04  0.13756369757E+04  0.12000000000E+03 0.  0.
<mgrwt>
<rscale>  0 0.27504437E+03</rscale>
<asrwt>0</asrwt>
<pdfrwt beam="1">  1        2 0.32204699E+00 0.27504437E+03</pdfrwt>
<pdfrwt beam="2">  1       -2 0.13899513E-02 0.27504437E+03</pdfrwt>
<totfact> 0.87493450E+03</totfact>
</mgrwt>
</event>
<event>
 5    1  0.1125356E+001  0.2761326E+03  0.7818608E-02  0.1097820E+00
         -1   -1    0    0    0  501 -0.00000000000E+00  0.00000000000E+00  0.77999344288E+02  0.77999344288E+02  0.00000000000E+00 0. -1.
          1   -1    0    0  501    0  0.00000000000E+00 -0.00000000000E+00 -0.24439058786E+03  0.24439058786E+03  0.00000000000E+00 0. -1.
         35    2    1    2    0    0  0.00000000000E+00  0.00000000000E+00 -0.16639124358E+03  0.32238993215E+03  0.27613261744E+03 0.  0.
         25    1    3    3    0    0  0.10155297503E+02  0.14853628690E+01 -0.16200933868E+03  0.20187214317E+03  0.12000000000E+03 0.  0.
         25    1    3    3    0    0 -0.10155297503E+02 -0.14853628690E+01 -0.43819048994E+01  0.12051778898E+03  0.12000000000E+03 0.  0.
<mgrwt>
<rscale>  0 0.27613262E+03</rscale>
<asrwt>0</asrwt>
<pdfrwt beam="1">  1        1 0.37598551E-01 0.27613262E+03</pdfrwt>
<pdfrwt beam="2">  1       -1 0.11999899E-01 0.27613262E+03</pdfrwt>
<totfact> 0.51726475E+03</totfact>
</mgrwt>
</event>
<event>
 5    1  0.1125356E+001  0.2712940E+03  0.7818608E-02  0.1100541E+00
         -1   -1    0    0    0  501 -0.00000000000E+00  0.00000000000E+00  0.12773869712E+02  0.12773869712E+02  0.00000000000E+00 0.  1.
          1   -1    0    0  501    0  0.00000000000E+00 -0.00000000000E+00 -0.14404488493E+04  0.14404488493E+04  0.00000000000E+00 0.  1.
         35    2    1    2    0    0  0.00000000000E+00  0.00000000000E+00 -0.14276749796E+04  0.14532227190E+04  0.27129398023E+03 0.  0.
         25    1    3    3    0    0  0.31169793955E+02  0.39893260259E+02 -0.51077386217E+03  0.52711760219E+03  0.12000000000E+03 0.  0.
         25    1    3    3    0    0 -0.31169793955E+02 -0.39893260259E+02 -0.91690111741E+03  0.92610511680E+03  0.12000000000E+03 0.  0.
<mgrwt>
<rscale>  0 0.27129398E+03</rscale>
<asrwt>0</asrwt>
<pdfrwt beam="1">  1        1 0.22160753E+00 0.27129398E+03</pdfrwt>
<pdfrwt beam="2">  1       -1 0.19652106E-02 0.27129398E+03</pdfrwt>
<totfact> 0.55150719E+03</totfact>
</mgrwt>
</event>
<event>
 5    1  0.1125356E+001  0.2743811E+03  0.7818608E-02  0.1098798E+00
         -1   -1    0    0    0  501 -0.00000000000E+00  0.00000000000E+00  0.78242697536E+02  0.78242697536E+02  0.00000000000E+00 0. -1.
          1   -1    0    0  501    0  0.00000000000E+00 -0.00000000000E+00 -0.24054960520E+03  0.24054960520E+03  0.00000000000E+00 0. -1.
         35    2    1    2    0    0  0.00000000000E+00  0.00000000000E+00 -0.16230690767E+03  0.31879230274E+03  0.27438112182E+03 0.  0.
         25    1    3    3    0    0  0.26960480619E+02  0.53806078743E+02 -0.11400118278E+03  0.17611993442E+03  0.12000000000E+03 0.  0.
         25    1    3    3    0    0 -0.26960480619E+02 -0.53806078743E+02 -0.48305724888E+02  0.14267236832E+03  0.12000000000E+03 0.  0.
<mgrwt>
<rscale>  0 0.27438112E+03</rscale>
<asrwt>0</asrwt>
<pdfrwt beam="1">  1        1 0.37007632E-01 0.27438112E+03</pdfrwt>
<pdfrwt beam="2">  1       -1 0.12037338E-01 0.27438112E+03</pdfrwt>
<totfact> 0.52498802E+03</totfact>
</mgrwt>
</event>
<event>
 5    1  0.1125356E+001  0.2753168E+03  0.7818608E-02  0.1098275E+00
          1   -1    0    0  501    0  0.00000000000E+00  0.00000000000E+00  0.79463788057E+03  0.79463788057E+03  0.00000000000E+00 0. -1.
         -1   -1    0    0    0  501 -0.00000000000E+00 -0.00000000000E+00 -0.23847125142E+02  0.23847125142E+02  0.00000000000E+00 0. -1.
         35    2    1    2    0    0  0.00000000000E+00  0.00000000000E+00  0.77079075543E+03  0.81848500571E+03  0.27531675562E+03 0.  0.
         25    1    3    3    0    0  0.67138228685E+02  0.48895154069E+00  0.40467291552E+03  0.42739671194E+03  0.12000000000E+03 0.  0.
         25    1    3    3    0    0 -0.67138228685E+02 -0.48895154069E+00  0.36611783991E+03  0.39108829377E+03  0.12000000000E+03 0.  0.
<mgrwt>
<rscale>  0 0.27531676E+03</rscale>
<asrwt>0</asrwt>
<pdfrwt beam="1">  1        1 0.12225196E+00 0.27531676E+03</pdfrwt>
<pdfrwt beam="2">  1       -1 0.36687891E-02 0.27531676E+03</pdfrwt>
<totfact> 0.65012210E+03</totfact>
</mgrwt>
</event>
<event>
 4    1  0.1125356E+001  0.3410126E+03  0.7818608E-02  0.1066365E+00
         -2   -1    0    0    0  501 -0.00000000000E+00  0.00000000000E+00  0.49224729323E+02  0.49224729323E+02  0.00000000000E+00 0.  1.
          2   -1    0    0  501    0  0.00000000000E+00 -0.00000000000E+00 -0.59060541335E+03  0.59060541335E+03  0.00000000000E+00 0.  1.
         25    1    1    2    0    0  0.10550269804E+03 -0.59511038166E+02 -0.27086485910E+03  0.32006273581E+03  0.12000000000E+03 0.  0.
         25    1    1    2    0    0 -0.10550269804E+03  0.59511038166E+02 -0.27051582493E+03  0.31976740687E+03  0.12000000000E+03 0.  0.
<mgrwt>
<rscale>  0 0.34101256E+03</rscale>
<asrwt>0</asrwt>
<pdfrwt beam="1">  1        2 0.90862376E-01 0.34101256E+03</pdfrwt>
<pdfrwt beam="2">  1       -2 0.75730349E-02 0.34101256E+03</pdfrwt>
<totfact> 0.53148547E+03</totfact>
</mgrwt>
</event>
<event>
 5    1  0.1125356E+001  0.2762776E+03  0.7818608E-02  0.1097740E+00
          1   -1    0    0  501    0  0.00000000000E+00  0.00000000000E+00  0.69118655685E+03  0.69118655685E+03  0.00000000000E+00 0.  1.
         -1   -1    0    0    0  501 -0.00000000000E+00 -0.00000000000E+00 -0.27608074815E+02  0.27608074815E+02  0.00000000000E+00 0.  1.
         35    2    1    2    0    0  0.00000000000E+00  0.00000000000E+00  0.66357848203E+03  0.71879463167E+03  0.27627761525E+03 0.  0.
         25    1    3    3    0    0 -0.59723899106E+02  0.26590392900E+02  0.38436293849E+03  0.40793242284E+03  0.12000000000E+03 0.  0.
         25    1    3    3    0    0  0.59723899106E+02 -0.26590392900E+02  0.27921554355E+03  0.31086220883E+03  0.12000000000E+03 0.  0.
<mgrwt>
<rscale>  0 0.27627762E+03</rscale>
<asrwt>0</asrwt>
<pdfrwt beam="1">  1        1 0.10633638E+00 0.27627762E+03</pdfrwt>
<pdfrwt beam="2">  1       -1 0.42473967E-02 0.27627762E+03</pdfrwt>
<totfact> 0.64397721E+03</totfact>
</mgrwt>
</event>
<event>
 5    1  0.1125356E+001  0.2756421E+03  0.7818608E-02  0.1098093E+00
         -2   -1    0    0    0  501 -0.00000000000E+00  0.00000000000E+00  0.61471059954E+02  0.61471059954E+02  0.00000000000E+00 0.  1.
          2   -1    0    0  501    0  0.00000000000E+00 -0.00000000000E+00 -0.30900142650E+03  0.30900142650E+03  0.00000000000E+00 0.  1.
         35    2    1    2    0    0  0.00000000000E+00  0.00000000000E+00 -0.24753036654E+03  0.37047248645E+03  0.27564212460E+03 0.  0.
         25    1    3    3    0    0 -0.56531847223E+02 -0.15848489711E+02 -0.78233932164E+02  0.15481463922E+03  0.12000000000E+03 0.  0.
         25    1    3    3    0    0  0.56531847223E+02  0.15848489711E+02 -0.16929643438E+03  0.21565784722E+03  0.12000000000E+03 0.  0.
<mgrwt>
<rscale>  0 0.27564212E+03</rscale>
<asrwt>0</asrwt>
<pdfrwt beam="1">  1        2 0.47538681E-01 0.27564212E+03</pdfrwt>
<pdfrwt beam="2">  1       -2 0.94570862E-02 0.27564212E+03</pdfrwt>
<totfact> 0.76249093E+03</totfact>
</mgrwt>
</event>
<event>
 5    1  0.1125356E+001  0.2761834E+03  0.7818608E-02  0.1097792E+00
          1   -1    0    0  501    0  0.00000000000E+00  0.00000000000E+00  0.58019783844E+03  0.58019783844E+03  0.00000000000E+00 0.  1.
         -1   -1    0    0    0  501 -0.00000000000E+00 -0.00000000000E+00 -0.32866934526E+02  0.32866934526E+02  0.00000000000E+00 0.  1.
         35    2    1    2    0    0  0.00000000000E+00  0.00000000000E+00  0.54733090391E+03  0.61306477296E+03  0.27618344895E+03 0.  0.
         25    1    3    3    0    0  0.12750674853E+02 -0.46022367849E+02  0.38215509347E+03  0.40338958033E+03  0.12000000000E+03 0.  0.
         25    1    3    3    0    0 -0.12750674853E+02  0.46022367849E+02  0.16517581044E+03  0.20967519263E+03  0.12000000000E+03 0.  0.
<mgrwt>
<rscale>  0 0.27618345E+03</rscale>
<asrwt>0</asrwt>
<pdfrwt beam="1">  1        1 0.89261199E-01 0.27618345E+03</pdfrwt>
<pdfrwt beam="2">  1       -1 0.50564519E-02 0.27618345E+03</pdfrwt>
<totfact> 0.63545356E+03</totfact>
</mgrwt>
</event>
<event>
 5    1  0.1125356E+001  0.2747192E+03  0.7818608E-02  0.1098609E+00
          2   -1    0    0  501    0  0.00000000000E+00  0.00000000000E+00  0.17528899605E+04  0.17528899605E+04  0.00000000000E+00 0. -1.
         -2   -1    0    0    0  501 -0.00000000000E+00 -0.00000000000E+00 -0.10763745968E+02  0.10763745968E+02  0.00000000000E+00 0. -1.
         35    2    1    2    0    0  0.00000000000E+00  0.00000000000E+00  0.17421262146E+04  0.17636537065E+04  0.27471921845E+03 0.  0.
         25    1    3    3    0    0  0.79740296893E+01  0.53177062165E+02  0.61618028702E+03  0.63005518107E+03  0.12000000000E+03 0.  0.
         25    1    3    3    0    0 -0.79740296893E+01 -0.53177062165E+02  0.11259459275E+04  0.11335985254E+04  0.12000000000E+03 0.  0.
<mgrwt>
<rscale>  0 0.27471922E+03</rscale>
<asrwt>0</asrwt>
<pdfrwt beam="1">  1        2 0.26967515E+00 0.27471922E+03</pdfrwt>
<pdfrwt beam="2">  1       -2 0.16559623E-02 0.27471922E+03</pdfrwt>
<totfact> 0.10224917E+04</totfact>
</mgrwt>
</event>
<event>
 5    1  0.1125356E+001  0.2755870E+03  0.7818608E-02  0.1098124E+00
         -2   -1    0    0    0  501 -0.00000000000E+00  0.00000000000E+00  0.17391448658E+02  0.17391448658E+02  0.00000000000E+00 0.  1.
          2   -1    0    0  501    0  0.00000000000E+00 -0.00000000000E+00 -0.10917463797E+04  0.10917463797E+04  0.00000000000E+00 0.  1.
         35    2    1    2    0    0  0.00000000000E+00  0.00000000000E+00 -0.10743549311E+04  0.11091378284E+04  0.27558701791E+03 0.  0.
         25    1    3    3    0    0  0.16009802853E+02 -0.30506313961E+02 -0.77185566285E+03  0.78188753235E+03  0.12000000000E+03 0.  0.
         25    1    3    3    0    0 -0.16009802853E+02  0.30506313961E+02 -0.30249926822E+03  0.32725029604E+03  0.12000000000E+03 0.  0.
<mgrwt>
<rscale>  0 0.27558702E+03</rscale>
<asrwt>0</asrwt>
<pdfrwt beam="1">  1        2 0.16796102E+00 0.27558702E+03</pdfrwt>
<pdfrwt beam="2">  1       -2 0.26756069E-02 0.27558702E+03</pdfrwt>
<totfact> 0.11585725E+04</totfact>
</mgrwt>
</event>
<event>
 5    1  0.1125356E+001  0.2746664E+03  0.7818608E-02  0.1098638E+00
          2   -1    0    0  501    0  0.00000000000E+00  0.00000000000E+00  0.10753046742E+02  0.10753046742E+02  0.00000000000E+00 0. -1.
         -2   -1    0    0    0  501 -0.00000000000E+00 -0.00000000000E+00 -0.17539589856E+04  0.17539589856E+04  0.00000000000E+00 0. -1.
         35    2    1    2    0    0  0.00000000000E+00  0.00000000000E+00 -0.17432059389E+04  0.17647120324E+04  0.27466636456E+03 0.  0.
         25    1    3    3    0    0  0.15182862415E+02 -0.55533007977E+02 -0.65410523391E+03  0.66750886984E+03  0.12000000000E+03 0.  0.
         25    1    3    3    0    0 -0.15182862415E+02  0.55533007977E+02 -0.10891007050E+04  0.10972031625E+04  0.12000000000E+03 0.  0.
<mgrwt>
<rscale>  0 0.27466636E+03</rscale>
<asrwt>0</asrwt>
<pdfrwt beam="1">  1        2 0.16543137E-02 0.27466636E+03</pdfrwt>
<pdfrwt beam="2">  1       -2 0.26984004E+00 0.27466636E+03</pdfrwt>
<totfact> 0.39132860E+02</totfact>
</mgrwt>
</event>
<event>
 5    1  0.1125356E+001  0.2761173E+03  0.7818608E-02  0.1097829E+00
          2   -1    0    0  501    0  0.00000000000E+00  0.00000000000E+00  0.82846442059E+02  0.82846442059E+02  0.00000000000E+00 0. -1.
         -2   -1    0    0    0  501 -0.00000000000E+00 -0.00000000000E+00 -0.23006648381E+03  0.23006648381E+03  0.00000000000E+00 0. -1.
         35    2    1    2    0    0  0.00000000000E+00  0.00000000000E+00 -0.14722004175E+03  0.31291292587E+03  0.27611729117E+03 0.  0.
         25    1    3    3    0    0 -0.38348092593E+02 -0.56230975904E+02 -0.67646573806E+02  0.15365076571E+03  0.12000000000E+03 0.  0.
         25    1    3    3    0    0  0.38348092593E+02  0.56230975904E+02 -0.79573467945E+02  0.15926216016E+03  0.12000000000E+03 0.  0.
<mgrwt>
<rscale>  0 0.27611729E+03</rscale>
<asrwt>0</asrwt>
<pdfrwt beam="1">  1        2 0.12745607E-01 0.27611729E+03</pdfrwt>
<pdfrwt beam="2">  1       -2 0.35394843E-01 0.27611729E+03</pdfrwt>
<totfact> 0.35524927E+03</totfact>
</mgrwt>
</event>
<event>
 5    1  0.1125356E+001  0.2743395E+03  0.7818608E-02  0.1098821E+00
          2   -1    0    0  501    0  0.00000000000E+00  0.00000000000E+00  0.40346192395E+03  0.40346192395E+03  0.00000000000E+00 0. -1.
         -2   -1    0    0    0  501 -0.00000000000E+00 -0.00000000000E+00 -0.46635242218E+02  0.46635242218E+02  0.00000000000E+00 0. -1.
         35    2    1    2    0    0  0.00000000000E+00  0.00000000000E+00  0.35682668173E+03  0.45009716617E+03  0.27433953087E+03 0.  0.
         25    1    3    3    0    0  0.80693079223E+01 -0.61586065675E+02  0.21715465397E+03  0.25576180511E+03  0.12000000000E+03 0.  0.
         25    1    3    3    0    0 -0.80693079223E+01  0.61586065675E+02  0.13967202776E+03  0.19433536105E+03  0.12000000000E+03 0.  0.
<mgrwt>
<rscale>  0 0.27433953E+03</rscale>
<asrwt>0</asrwt>
<pdfrwt beam="1">  1        2 0.62071063E-01 0.27433953E+03</pdfrwt>
<pdfrwt beam="2">  1       -2 0.71746529E-02 0.27433953E+03</pdfrwt>
<totfact> 0.88077221E+03</totfact>
</mgrwt>
</event>
<event>
 5    1  0.1125356E+001  0.2759431E+03  0.7818608E-02  0.1097926E+00
         -1   -1    0    0    0  501 -0.00000000000E+00  0.00000000000E+00  0.30822165950E+02  0.30822165950E+02  0.00000000000E+00 0. -1.
          1   -1    0    0  501    0  0.00000000000E+00 -0.00000000000E+00 -0.61761241955E+03  0.61761241955E+03  0.00000000000E+00 0. -1.
         35    2    1    2    0    0  0.00000000000E+00  0.00000000000E+00 -0.58679025360E+03  0.64843458550E+03  0.27594312811E+03 0.  0.
         25    1    3    3    0    0 -0.22176262389E+02 -0.84414405893E+01 -0.44336690746E+03  0.45993179838E+03  0.12000000000E+03 0.  0.
         25    1    3    3    0    0  0.22176262389E+02  0.84414405893E+01 -0.14342334614E+03  0.18850278712E+03  0.12000000000E+03 0.  0.
<mgrwt>
<rscale>  0 0.27594313E+03</rscale>
<asrwt>0</asrwt>
<pdfrwt beam="1">  1        1 0.95017298E-01 0.27594313E+03</pdfrwt>
<pdfrwt beam="2">  1       -1 0.47418716E-02 0.27594313E+03</pdfrwt>
<totfact> 0.64145157E+03</totfact>
</mgrwt>
</event>
<event>
 5    1  0.1125356E+001  0.2722652E+03  0.7818608E-02  0.1099990E+00
         -2   -1    0    0    0  501 -0.00000000000E+00  0.00000000000E+00  0.13818178436E+02  0.13818178436E+02  0.00000000000E+00 0.  1.
          2   -1    0    0  501    0  0.00000000000E+00 -0.00000000000E+00 -0.13411378847E+04  0.13411378847E+04  0.00000000000E+00 0.  1.
         35    2    1    2    0    0  0.00000000000E+00  0.00000000000E+00 -0.13273197062E+04  0.13549560631E+04  0.27226518395E+03 0.  0.
         25    1    3    3    0    0 -0.17018326143E+02  0.46946770107E+02 -0.46221739217E+03  0.48014429110E+03  0.12000000000E+03 0.  0.
         25    1    3    3    0    0  0.17018326143E+02 -0.46946770107E+02 -0.86510231406E+03  0.87481177200E+03  0.12000000000E+03 0.  0.
<mgrwt>
<rscale>  0 0.27226518E+03</rscale>
<asrwt>0</asrwt>
<pdfrwt beam="1">  1        2 0.20632885E+00 0.27226518E+03</pdfrwt>
<pdfrwt beam="2">  1       -2 0.21258742E-02 0.27226518E+03</pdfrwt>
<totfact> 0.11751014E+04</totfact>
</mgrwt>
</event>
<event>
 5    1  0.1125356E+001  0.2790173E+03  0.7818608E-02  0.1096227E+00
          4   -1    0    0  501    0  0.00000000000E+00  0.00000000000E+00  0.35497574541E+02  0.35497574541E+02  0.00000000000E+00 0. -1.
         -4   -1    0    0    0  501 -0.00000000000E+00 -0.00000000000E+00 -0.54828138230E+03  0.54828138230E+03  0.00000000000E+00 0. -1.
         35    2    1    2    0    0  0.00000000000E+00  0.00000000000E+00 -0.51278380776E+03  0.58377895684E+03  0.27901726999E+03 0.  0.
         25    1    3    3    0    0 -0.34911087742E+02 -0.18314723479E+02 -0.38032142033E+03  0.40074754635E+03  0.12000000000E+03 0.  0.
         25    1    3    3    0    0  0.34911087742E+02  0.18314723479E+02 -0.13246238743E+03  0.18303141049E+03  0.12000000000E+03 0.  0.
<mgrwt>
<rscale>  0 0.27901727E+03</rscale>
<asrwt>0</asrwt>
<pdfrwt beam="1">  1        4 0.54611654E-02 0.27901727E+03</pdfrwt>
<pdfrwt beam="2">  1       -4 0.84350980E-01 0.27901727E+03</pdfrwt>
<totfact> 0.48989822E+02</totfact>
</mgrwt>
</event>
<event>
 5    1  0.1125356E+001  0.2744243E+03  0.7818608E-02  0.1098774E+00
         -2   -1    0    0    0  501 -0.00000000000E+00  0.00000000000E+00  0.11491467448E+02  0.11491467448E+02  0.00000000000E+00 0.  1.
          2   -1    0    0  501    0  0.00000000000E+00 -0.00000000000E+00 -0.16383607906E+04  0.16383607906E+04  0.00000000000E+00 0.  1.
         35    2    1    2    0    0  0.00000000000E+00  0.00000000000E+00 -0.16268693231E+04  0.16498522580E+04  0.27442426783E+03 0.  0.
         25    1    3    3    0    0  0.62041871672E+02 -0.69998504943E+01 -0.95170891563E+03  0.96127418141E+03  0.12000000000E+03 0.  0.
         25    1    3    3    0    0 -0.62041871672E+02  0.69998504943E+01 -0.67516040749E+03  0.68857807661E+03  0.12000000000E+03 0.  0.
<mgrwt>
<rscale>  0 0.27442427E+03</rscale>
<asrwt>0</asrwt>
<pdfrwt beam="1">  1        2 0.25205563E+00 0.27442427E+03</pdfrwt>
<pdfrwt beam="2">  1       -2 0.17679172E-02 0.27442427E+03</pdfrwt>
<totfact> 0.10673985E+04</totfact>
</mgrwt>
</event>
<event>
 5    1  0.1125356E+001  0.2740141E+03  0.7818608E-02  0.1099004E+00
          2   -1    0    0  501    0  0.00000000000E+00  0.00000000000E+00  0.22704586091E+04  0.22704586091E+04  0.00000000000E+00 0. -1.
         -2   -1    0    0    0  501 -0.00000000000E+00 -0.00000000000E+00 -0.82674634492E+01  0.82674634492E+01  0.00000000000E+00 0. -1.
         35    2    1    2    0    0  0.00000000000E+00  0.00000000000E+00  0.22621911456E+04  0.22787260725E+04  0.27401411324E+03 0.  0.
         25    1    3    3    0    0  0.62065213215E+02 -0.22434860106E+02  0.10983340570E+04  0.11068392450E+04  0.12000000000E+03 0.  0.
         25    1    3    3    0    0 -0.62065213215E+02  0.22434860106E+02  0.11638570887E+04  0.11718868275E+04  0.12000000000E+03 0.  0.
<mgrwt>
<rscale>  0 0.27401411E+03</rscale>
<asrwt>0</asrwt>
<pdfrwt beam="1">  1        2 0.34930083E+00 0.27401411E+03</pdfrwt>
<pdfrwt beam="2">  1       -2 0.12719193E-02 0.27401411E+03</pdfrwt>
<totfact> 0.80184112E+03</totfact>
</mgrwt>
</event>
<event>
 5    1  0.1125356E+001  0.2751005E+03  0.7818608E-02  0.1098395E+00
          1   -1    0    0  501    0  0.00000000000E+00  0.00000000000E+00  0.16347101315E+04  0.16347101315E+04  0.00000000000E+00 0. -1.
         -1   -1    0    0    0  501 -0.00000000000E+00 -0.00000000000E+00 -0.11573964178E+02  0.11573964178E+02  0.00000000000E+00 0. -1.
         35    2    1    2    0    0  0.00000000000E+00  0.00000000000E+00  0.16231361673E+04  0.16462840957E+04  0.27510053801E+03 0.  0.
         25    1    3    3    0    0  0.25095861066E+02 -0.18956164856E+02  0.45597083391E+03  0.47254474900E+03  0.12000000000E+03 0.  0.
         25    1    3    3    0    0 -0.25095861066E+02  0.18956164856E+02  0.11671653334E+04  0.11737393467E+04  0.12000000000E+03 0.  0.
<mgrwt>
<rscale>  0 0.27510054E+03</rscale>
<asrwt>0</asrwt>
<pdfrwt beam="1">  1        1 0.25149368E+00 0.27510054E+03</pdfrwt>
<pdfrwt beam="2">  1       -1 0.17806112E-02 0.27510054E+03</pdfrwt>
<totfact> 0.47406202E+03</totfact>
</mgrwt>
</event>
<event>
 5    1  0.1125356E+001  0.2739987E+03  0.7818608E-02  0.1099013E+00
         -4   -1    0    0    0  501 -0.00000000000E+00  0.00000000000E+00  0.49041628485E+03  0.49041628485E+03  0.00000000000E+00 0. -1.
          4   -1    0    0  501    0  0.00000000000E+00 -0.00000000000E+00 -0.38271203737E+02  0.38271203737E+02  0.00000000000E+00 0. -1.
         35    2    1    2    0    0  0.00000000000E+00  0.00000000000E+00  0.45214508111E+03  0.52868748858E+03  0.27399869746E+03 0.  0.
         25    1    3    3    0    0 -0.36612026438E+02  0.49717632299E+02  0.27159209367E+03  0.30327305978E+03  0.12000000000E+03 0.  0.
         25    1    3    3    0    0  0.36612026438E+02 -0.49717632299E+02  0.18055298744E+03  0.22541442881E+03  0.12000000000E+03 0.  0.
<mgrwt>
<rscale>  0 0.27399870E+03</rscale>
<asrwt>0</asrwt>
<pdfrwt beam="1">  1        4 0.58878778E-02 0.27399870E+03</pdfrwt>
<pdfrwt beam="2">  1       -4 0.75448655E-01 0.27399870E+03</pdfrwt>
<totfact> 0.55454526E+02</totfact>
</mgrwt>
</event>
<event>
 5    1  0.1125356E+001  0.2744321E+03  0.7818608E-02  0.1098769E+00
         -2   -1    0    0    0  501 -0.00000000000E+00  0.00000000000E+00  0.14406474036E+03  0.14406474036E+03  0.00000000000E+00 0.  1.
          2   -1    0    0  501    0  0.00000000000E+00 -0.00000000000E+00 -0.13069294217E+03  0.13069294217E+03  0.00000000000E+00 0.  1.
         35    2    1    2    0    0  0.00000000000E+00  0.00000000000E+00  0.13371798196E+02  0.27475768253E+03  0.27443210294E+03 0.  0.
         25    1    3    3    0    0  0.41545339744E+02 -0.90648666758E+01 -0.44561326699E+02  0.13488476155E+03  0.12000000000E+03 0.  0.
         25    1    3    3    0    0 -0.41545339744E+02  0.90648666758E+01  0.57933124895E+02  0.13987292098E+03  0.12000000000E+03 0.  0.
<mgrwt>
<rscale>  0 0.27443210E+03</rscale>
<asrwt>0</asrwt>
<pdfrwt beam="1">  1        2 0.20106606E-01 0.27443210E+03</pdfrwt>
<pdfrwt beam="2">  1       -2 0.22163806E-01 0.27443210E+03</pdfrwt>
<totfact> 0.48195563E+03</totfact>
</mgrwt>
</event>
<event>
 5    1  0.1125356E+001  0.2741291E+03  0.7818608E-02  0.1098939E+00
         -1   -1    0    0    0  501 -0.00000000000E+00  0.00000000000E+00  0.21012511106E+02  0.21012511106E+02  0.00000000000E+00 0. -1.
          1   -1    0    0  501    0  0.00000000000E+00 -0.00000000000E+00 -0.89407166566E+03  0.89407166566E+03  0.00000000000E+00 0. -1.
         35    2    1    2    0    0  0.00000000000E+00  0.00000000000E+00 -0.87305915455E+03  0.91508417677E+03  0.27412909954E+03 0.  0.
         25    1    3    3    0    0  0.16941239482E+02 -0.24961225842E+02 -0.63335657548E+03  0.64532985371E+03  0.12000000000E+03 0.  0.
         25    1    3    3    0    0 -0.16941239482E+02  0.24961225842E+02 -0.23970257908E+03  0.26975432306E+03  0.12000000000E+03 0.  0.
<mgrwt>
<rscale>  0 0.27412910E+03</rscale>
<asrwt>0</asrwt>
<pdfrwt beam="1">  1        1 0.13754950E+00 0.27412910E+03</pdfrwt>
<pdfrwt beam="2">  1       -1 0.32326938E-02 0.27412910E+03</pdfrwt>
<totfact> 0.65097524E+03</totfact>
</mgrwt>
</event>
<event>
 5    1  0.1125356E+001  0.2754004E+03  0.7818608E-02  0.1098228E+00
         -2   -1    0    0    0  501 -0.00000000000E+00  0.00000000000E+00  0.27037956634E+03  0.27037956634E+03  0.00000000000E+00 0. -1.
          2   -1    0    0  501    0  0.00000000000E+00 -0.00000000000E+00 -0.70128597276E+02  0.70128597276E+02  0.00000000000E+00 0. -1.
         35    2    1    2    0    0  0.00000000000E+00  0.00000000000E+00  0.20025096906E+03  0.34050816362E+03  0.27540036107E+03 0.  0.
         25    1    3    3    0    0  0.39270491307E+02 -0.35789943141E+02  0.48576642068E+02  0.13993849246E+03  0.12000000000E+03 0.  0.
         25    1    3    3    0    0 -0.39270491307E+02  0.35789943141E+02  0.15167432700E+03  0.20056967115E+03  0.12000000000E+03 0.  0.
<mgrwt>
<rscale>  0 0.27540036E+03</rscale>
<asrwt>0</asrwt>
<pdfrwt beam="1">  1        2 0.10789015E-01 0.27540036E+03</pdfrwt>
<pdfrwt beam="2">  1       -2 0.41596856E-01 0.27540036E+03</pdfrwt>
<totfact> 0.32056834E+03</totfact>
</mgrwt>
</event>
<event>
 5    1  0.1125356E+001  0.2750493E+03  0.7818608E-02  0.1098424E+00
         -1   -1    0    0    0  501 -0.00000000000E+00  0.00000000000E+00  0.25588916380E+02  0.25588916380E+02  0.00000000000E+00 0. -1.
          1   -1    0    0  501    0  0.00000000000E+00 -0.00000000000E+00 -0.73911036920E+03  0.73911036920E+03  0.00000000000E+00 0. -1.
         35    2    1    2    0    0  0.00000000000E+00  0.00000000000E+00 -0.71352145282E+03  0.76469928558E+03  0.27504932963E+03 0.  0.
         25    1    3    3    0    0  0.35372080672E+02  0.55379499896E+02 -0.31794093274E+03  0.34612788072E+03  0.12000000000E+03 0.  0.
         25    1    3    3    0    0 -0.35372080672E+02 -0.55379499896E+02 -0.39558052007E+03  0.41857140485E+03  0.12000000000E+03 0.  0.
<mgrwt>
<rscale>  0 0.27504933E+03</rscale>
<asrwt>0</asrwt>
<pdfrwt beam="1">  1        1 0.11370928E+00 0.27504933E+03</pdfrwt>
<pdfrwt beam="2">  1       -1 0.39367567E-02 0.27504933E+03</pdfrwt>
<totfact> 0.65325564E+03</totfact>
</mgrwt>
</event>
<event>
 5    1  0.1125356E+001  0.2719752E+03  0.7818608E-02  0.1100154E+00
          2   -1    0    0  501    0  0.00000000000E+00  0.00000000000E+00  0.12022016011E+04  0.12022016011E+04  0.00000000000E+00 0.  1.
         -2   -1    0    0    0  501 -0.00000000000E+00 -0.00000000000E+00 -0.15382306291E+02  0.15382306291E+02  0.00000000000E+00 0.  1.
         35    2    1    2    0    0  0.00000000000E+00  0.00000000000E+00  0.11868192948E+04  0.12175839074E+04  0.27197524337E+03 0.  0.
         25    1    3    3    0    0  0.17383345368E+02 -0.33875984555E+02  0.36326152054E+03  0.38445896443E+03  0.12000000000E+03 0.  0.
         25    1    3    3    0    0 -0.17383345368E+02  0.33875984555E+02  0.82355777428E+03  0.83312494297E+03  0.12000000000E+03 0.  0.
<mgrwt>
<rscale>  0 0.27197524E+03</rscale>
<asrwt>0</asrwt>
<pdfrwt beam="1">  1        2 0.18495402E+00 0.27197524E+03</pdfrwt>
<pdfrwt beam="2">  1       -2 0.23665096E-02 0.27197524E+03</pdfrwt>
<totfact> 0.11990318E+04</totfact>
</mgrwt>
</event>
<event>
 5    1  0.1125356E+001  0.2749456E+03  0.7818608E-02  0.1098482E+00
         -2   -1    0    0    0  501 -0.00000000000E+00  0.00000000000E+00  0.17426262291E+03  0.17426262291E+03  0.00000000000E+00 0. -1.
          2   -1    0    0  501    0  0.00000000000E+00 -0.00000000000E+00 -0.10844995205E+03  0.10844995205E+03  0.00000000000E+00 0. -1.
         35    2    1    2    0    0  0.00000000000E+00  0.00000000000E+00  0.65812670865E+02  0.28271257496E+03  0.27494561716E+03 0.  0.
         25    1    3    3    0    0 -0.14690170658E+02  0.53352138655E+02  0.71878484749E+02  0.15042861557E+03  0.12000000000E+03 0.  0.
         25    1    3    3    0    0  0.14690170658E+02 -0.53352138655E+02 -0.60658138847E+01  0.13228395939E+03  0.12000000000E+03 0.  0.
<mgrwt>
<rscale>  0 0.27494562E+03</rscale>
<asrwt>0</asrwt>
<pdfrwt beam="1">  1        2 0.16684608E-01 0.27494562E+03</pdfrwt>
<pdfrwt beam="2">  1       -2 0.26809634E-01 0.27494562E+03</pdfrwt>
<totfact> 0.42806022E+03</totfact>
</mgrwt>
</event>
<event>
 5    1  0.1125356E+001  0.2731811E+03  0.7818608E-02  0.1099473E+00
          2   -1    0    0  501    0  0.00000000000E+00  0.00000000000E+00  0.62000284040E+03  0.62000284040E+03  0.00000000000E+00 0. -1.
         -2   -1    0    0    0  501 -0.00000000000E+00 -0.00000000000E+00 -0.30091759872E+02  0.30091759872E+02  0.00000000000E+00 0. -1.
         35    2    1    2    0    0  0.00000000000E+00  0.00000000000E+00  0.58991108053E+03  0.65009460028E+03  0.27318108715E+03 0.  0.
         25    1    3    3    0    0  0.10360952966E+01 -0.53144289804E+02  0.20491566433E+03  0.24334300590E+03  0.12000000000E+03 0.  0.
         25    1    3    3    0    0 -0.10360952966E+01  0.53144289804E+02  0.38499541620E+03  0.40675159438E+03  0.12000000000E+03 0.  0.
<mgrwt>
<rscale>  0 0.27318109E+03</rscale>
<asrwt>0</asrwt>
<pdfrwt beam="1">  1        2 0.95385043E-01 0.27318109E+03</pdfrwt>
<pdfrwt beam="2">  1       -2 0.46295020E-02 0.27318109E+03</pdfrwt>
<totfact> 0.10635668E+04</totfact>
</mgrwt>
</event>
<event>
 5    1  0.1125356E+001  0.2740738E+03  0.7818608E-02  0.1098970E+00
          1   -1    0    0  501    0  0.00000000000E+00  0.00000000000E+00  0.15025858589E+04  0.15025858589E+04  0.00000000000E+00 0.  1.
         -1   -1    0    0    0  501 -0.00000000000E+00 -0.00000000000E+00 -0.12497858789E+02  0.12497858789E+02  0.00000000000E+00 0.  1.
         35    2    1    2    0    0  0.00000000000E+00  0.00000000000E+00  0.14900880001E+04  0.15150837177E+04  0.27407375564E+03 0.  0.
         25    1    3    3    0    0 -0.28616766173E+02  0.50484338006E+02  0.56922895792E+03  0.58462739778E+03  0.12000000000E+03 0.  0.
         25    1    3    3    0    0  0.28616766173E+02 -0.50484338006E+02  0.92085904215E+03  0.93045631988E+03  0.12000000000E+03 0.  0.
<mgrwt>
<rscale>  0 0.27407376E+03</rscale>
<asrwt>0</asrwt>
<pdfrwt beam="1">  1        1 0.23116691E+00 0.27407376E+03</pdfrwt>
<pdfrwt beam="2">  1       -1 0.19227487E-02 0.27407376E+03</pdfrwt>
<totfact> 0.51776506E+03</totfact>
</mgrwt>
</event>
<event>
 5    1  0.1125356E+001  0.2747839E+03  0.7818608E-02  0.1098572E+00
          1   -1    0    0  501    0  0.00000000000E+00  0.00000000000E+00  0.32318436266E+03  0.32318436266E+03  0.00000000000E+00 0. -1.
         -1   -1    0    0    0  501 -0.00000000000E+00 -0.00000000000E+00 -0.58407989137E+02  0.58407989137E+02  0.00000000000E+00 0. -1.
         35    2    1    2    0    0  0.00000000000E+00  0.00000000000E+00  0.26477637353E+03  0.38159235180E+03  0.27478390596E+03 0.  0.
         25    1    3    3    0    0  0.77653455162E+01 -0.55152289312E+02  0.18387268649E+03  0.22651984559E+03  0.12000000000E+03 0.  0.
         25    1    3    3    0    0 -0.77653455162E+01  0.55152289312E+02  0.80903687036E+02  0.15507250621E+03  0.12000000000E+03 0.  0.
<mgrwt>
<rscale>  0 0.27478391E+03</rscale>
<asrwt>0</asrwt>
<pdfrwt beam="1">  1        1 0.49720670E-01 0.27478391E+03</pdfrwt>
<pdfrwt beam="2">  1       -1 0.89858447E-02 0.27478391E+03</pdfrwt>
<totfact> 0.56979465E+03</totfact>
</mgrwt>
</event>
<event>
 5    1  0.1125356E+001  0.2752938E+03  0.7818608E-02  0.1098287E+00
         -4   -1    0    0    0  501 -0.00000000000E+00  0.00000000000E+00  0.10803382147E+03  0.10803382147E+03  0.00000000000E+00 0.  1.
          4   -1    0    0  501    0  0.00000000000E+00 -0.00000000000E+00 -0.17537724480E+03  0.17537724480E+03  0.00000000000E+00 0.  1.
         35    2    1    2    0    0  0.00000000000E+00  0.00000000000E+00 -0.67343423330E+02  0.28341106627E+03  0.27529383541E+03 0.  0.
         25    1    3    3    0    0 -0.10817321140E+02 -0.64833069943E+02 -0.49159657979E+02  0.14538573990E+03  0.12000000000E+03 0.  0.
         25    1    3    3    0    0  0.10817321140E+02  0.64833069943E+02 -0.18183765351E+02  0.13802532636E+03  0.12000000000E+03 0.  0.
<mgrwt>
<rscale>  0 0.27529384E+03</rscale>
<asrwt>0</asrwt>
<pdfrwt beam="1">  1        4 0.26981114E-01 0.27529384E+03</pdfrwt>
<pdfrwt beam="2">  1       -4 0.16620588E-01 0.27529384E+03</pdfrwt>
<totfact> 0.76627448E+02</totfact>
</mgrwt>
</event>
<event>
 5    1  0.1125356E+001  0.2749944E+03  0.7818608E-02  0.1098455E+00
          2   -1    0    0  501    0  0.00000000000E+00  0.00000000000E+00  0.37648204456E+03  0.37648204456E+03  0.00000000000E+00 0. -1.
         -2   -1    0    0    0  501 -0.00000000000E+00 -0.00000000000E+00 -0.50216170194E+02  0.50216170194E+02  0.00000000000E+00 0. -1.
         35    2    1    2    0    0  0.00000000000E+00  0.00000000000E+00  0.32626587437E+03  0.42669821476E+03  0.27499444667E+03 0.  0.
         25    1    3    3    0    0  0.41329255553E+02 -0.27794355445E+02  0.23295515471E+03  0.26673720712E+03  0.12000000000E+03 0.  0.
         25    1    3    3    0    0 -0.41329255553E+02  0.27794355445E+02  0.93310719658E+02  0.15996100763E+03  0.12000000000E+03 0.  0.
<mgrwt>
<rscale>  0 0.27499445E+03</rscale>
<asrwt>0</asrwt>
<pdfrwt beam="1">  1        2 0.57920313E-01 0.27499445E+03</pdfrwt>
<pdfrwt beam="2">  1       -2 0.77255649E-02 0.27499445E+03</pdfrwt>
<totfact> 0.84636026E+03</totfact>
</mgrwt>
</event>
<event>
 5    1  0.1125356E+001  0.2759189E+03  0.7818608E-02  0.1097939E+00
          1   -1    0    0  501    0  0.00000000000E+00  0.00000000000E+00  0.76331580434E+03  0.76331580434E+03  0.00000000000E+00 0.  1.
         -1   -1    0    0    0  501 -0.00000000000E+00 -0.00000000000E+00 -0.24934383319E+02  0.24934383319E+02  0.00000000000E+00 0.  1.
         35    2    1    2    0    0  0.00000000000E+00  0.00000000000E+00  0.73838142102E+03  0.78825018766E+03  0.27591889286E+03 0.  0.
         25    1    3    3    0    0 -0.12333051137E+02  0.40868832525E+02  0.21774044007E+03  0.25225634752E+03  0.12000000000E+03 0.  0.
         25    1    3    3    0    0  0.12333051137E+02 -0.40868832525E+02  0.52064098095E+03  0.53599384014E+03  0.12000000000E+03 0.  0.
<mgrwt>
<rscale>  0 0.27591889E+03</rscale>
<asrwt>0</asrwt>
<pdfrwt beam="1">  1        1 0.11743318E+00 0.27591889E+03</pdfrwt>
<pdfrwt beam="2">  1       -1 0.38360596E-02 0.27591889E+03</pdfrwt>
<totfact> 0.64694137E+03</totfact>
</mgrwt>
</event>
<event>
 5    1  0.1125356E+001  0.2690562E+03  0.7818608E-02  0.1101821E+00
          2   -1    0    0  501    0  0.00000000000E+00  0.00000000000E+00  0.70140704070E+03  0.70140704070E+03  0.00000000000E+00 0. -1.
         -2   -1    0    0    0  501 -0.00000000000E+00 -0.00000000000E+00 -0.25802150410E+02  0.25802150410E+02  0.00000000000E+00 0. -1.
         35    2    1    2    0    0  0.00000000000E+00  0.00000000000E+00  0.67560489029E+03  0.72720919111E+03  0.26905620203E+03 0.  0.
         25    1    3    3    0    0  0.48790230490E+02  0.29651027465E+02  0.39437721226E+03  0.41616469765E+03  0.12000000000E+03 0.  0.
         25    1    3    3    0    0 -0.48790230490E+02 -0.29651027465E+02  0.28122767803E+03  0.31104449346E+03  0.12000000000E+03 0.  0.
<mgrwt>
<rscale>  0 0.26905620E+03</rscale>
<asrwt>0</asrwt>
<pdfrwt beam="1">  1        2 0.10790876E+00 0.26905620E+03</pdfrwt>
<pdfrwt beam="2">  1       -2 0.39695621E-02 0.26905620E+03</pdfrwt>
<totfact> 0.11572476E+04</totfact>
</mgrwt>
</event>
<event>
 5    1  0.1125356E+001  0.2755094E+03  0.7818608E-02  0.1098167E+00
         -2   -1    0    0    0  501 -0.00000000000E+00  0.00000000000E+00  0.30953404027E+02  0.30953404027E+02  0.00000000000E+00 0. -1.
          2   -1    0    0  501    0  0.00000000000E+00 -0.00000000000E+00 -0.61306224130E+03  0.61306224130E+03  0.00000000000E+00 0. -1.
         35    2    1    2    0    0  0.00000000000E+00  0.00000000000E+00 -0.58210883727E+03  0.64401564533E+03  0.27550944266E+03 0.  0.
         25    1    3    3    0    0 -0.66463645660E+02  0.12371430013E+02 -0.29672977961E+03  0.32713763248E+03  0.12000000000E+03 0.  0.
         25    1    3    3    0    0  0.66463645660E+02 -0.12371430013E+02 -0.28537905766E+03  0.31687801285E+03  0.12000000000E+03 0.  0.
<mgrwt>
<rscale>  0 0.27550944E+03</rscale>
<asrwt>0</asrwt>
<pdfrwt beam="1">  1        2 0.94317261E-01 0.27550944E+03</pdfrwt>
<pdfrwt beam="2">  1       -2 0.47620625E-02 0.27550944E+03</pdfrwt>
<totfact> 0.10328717E+04</totfact>
</mgrwt>
</event>
<event>
 5    1  0.1125356E+001  0.2749286E+03  0.7818608E-02  0.1098492E+00
         -2   -1    0    0    0  501 -0.00000000000E+00  0.00000000000E+00  0.72419675673E+02  0.72419675673E+02  0.00000000000E+00 0.  1.
          2   -1    0    0  501    0  0.00000000000E+00 -0.00000000000E+00 -0.26092957510E+03  0.26092957510E+03  0.00000000000E+00 0.  1.
         35    2    1    2    0    0  0.00000000000E+00  0.00000000000E+00 -0.18850989943E+03  0.33334925077E+03  0.27492861039E+03 0.  0.
         25    1    3    3    0    0 -0.61642784934E+02 -0.88196026209E+01 -0.12441698345E+03  0.18373133673E+03  0.12000000000E+03 0.  0.
         25    1    3    3    0    0  0.61642784934E+02  0.88196026209E+01 -0.64092915977E+02  0.14961791405E+03  0.12000000000E+03 0.  0.
<mgrwt>
<rscale>  0 0.27492861E+03</rscale>
<asrwt>0</asrwt>
<pdfrwt beam="1">  1        2 0.40143011E-01 0.27492861E+03</pdfrwt>
<pdfrwt beam="2">  1       -2 0.11141489E-01 0.27492861E+03</pdfrwt>
<totfact> 0.70438140E+03</totfact>
</mgrwt>
</event>
<event>
 5    1  0.1125356E+001  0.2784820E+03  0.7818608E-02  0.1096521E+00
         -1   -1    0    0    0  501 -0.00000000000E+00  0.00000000000E+00  0.10115898210E+03  0.10115898210E+03  0.00000000000E+00 0.  1.
          1   -1    0    0  501    0  0.00000000000E+00 -0.00000000000E+00 -0.19165930993E+03  0.19165930993E+03  0.00000000000E+00 0.  1.
         35    2    1    2    0    0  0.00000000000E+00  0.00000000000E+00 -0.90500327833E+02  0.29281829202E+03  0.27848203318E+03 0.  0.
         25    1    3    3    0    0  0.48940272662E+02 -0.21677752613E+02 -0.93698016433E+02  0.16138275475E+03  0.12000000000E+03 0.  0.
         25    1    3    3    0    0 -0.48940272662E+02  0.21677752613E+02  0.31976885999E+01  0.13143553728E+03  0.12000000000E+03 0.  0.
<mgrwt>
<rscale>  0 0.27848203E+03</rscale>
<asrwt>0</asrwt>
<pdfrwt beam="1">  1        1 0.29486048E-01 0.27848203E+03</pdfrwt>
<pdfrwt beam="2">  1       -1 0.15562920E-01 0.27848203E+03</pdfrwt>
<totfact> 0.46630924E+03</totfact>
</mgrwt>
</event>
<event>
 5    1  0.1125356E+001  0.2758670E+03  0.7818608E-02  0.1097968E+00
          1   -1    0    0  501    0  0.00000000000E+00  0.00000000000E+00  0.44094972319E+04  0.44094972319E+04  0.00000000000E+00 0.  1.
         -1   -1    0    0    0  501 -0.00000000000E+00 -0.00000000000E+00 -0.43146992144E+01  0.43146992144E+01  0.00000000000E+00 0.  1.
         35    2    1    2    0    0  0.00000000000E+00  0.00000000000E+00  0.44051825327E+04  0.44138119311E+04  0.27586702769E+03 0.  0.
         25    1    3    3    0    0 -0.61938718629E+02  0.27695414831E+02  0.21271825942E+04  0.21316447242E+04  0.12000000000E+03 0.  0.
         25    1    3    3    0    0  0.61938718629E+02 -0.27695414831E+02  0.22779999384E+04  0.22821672069E+04  0.12000000000E+03 0.  0.
<mgrwt>
<rscale>  0 0.27586703E+03</rscale>
<asrwt>0</asrwt>
<pdfrwt beam="1">  1        1 0.67838058E+00 0.27586703E+03</pdfrwt>
<pdfrwt beam="2">  1       -1 0.66380341E-03 0.27586703E+03</pdfrwt>
<totfact> 0.18357494E+02</totfact>
</mgrwt>
</event>
<event>
 5    1  0.1125356E+001  0.2747745E+03  0.7818608E-02  0.1098578E+00
         -3   -1    0    0    0  501 -0.00000000000E+00  0.00000000000E+00  0.26212988880E+03  0.26212988880E+03  0.00000000000E+00 0. -1.
          3   -1    0    0  501    0  0.00000000000E+00 -0.00000000000E+00 -0.72007257408E+02  0.72007257408E+02  0.00000000000E+00 0. -1.
         35    2    1    2    0    0  0.00000000000E+00  0.00000000000E+00  0.19012263139E+03  0.33413714620E+03  0.27477448482E+03 0.  0.
         25    1    3    3    0    0  0.24660295324E+02  0.54320682177E+02  0.58249436996E+02  0.14612276889E+03  0.12000000000E+03 0.  0.
         25    1    3    3    0    0 -0.24660295324E+02 -0.54320682177E+02  0.13187319439E+03  0.18801437731E+03  0.12000000000E+03 0.  0.
<mgrwt>
<rscale>  0 0.27477448E+03</rscale>
<asrwt>0</asrwt>
<pdfrwt beam="1">  1        3 0.11078040E-01 0.27477448E+03</pdfrwt>
<pdfrwt beam="2">  1       -3 0.40327675E-01 0.27477448E+03</pdfrwt>
<totfact> 0.96612863E+02</totfact>
</mgrwt>
</event>
<event>
 5    1  0.1125356E+001  0.2742283E+03  0.7818608E-02  0.1098884E+00
          1   -1    0    0  501    0  0.00000000000E+00  0.00000000000E+00  0.49916466018E+03  0.49916466018E+03  0.00000000000E+00 0.  1.
         -1   -1    0    0    0  501 -0.00000000000E+00 -0.00000000000E+00 -0.37663504576E+02  0.37663504576E+02  0.00000000000E+00 0.  1.
         35    2    1    2    0    0  0.00000000000E+00  0.00000000000E+00  0.46150115560E+03  0.53682816475E+03  0.27422830243E+03 0.  0.
         25    1    3    3    0    0 -0.36611195522E+02  0.48365791082E+02  0.17819866219E+03  0.22323618119E+03  0.12000000000E+03 0.  0.
         25    1    3    3    0    0  0.36611195522E+02 -0.48365791082E+02  0.28330249341E+03  0.31359198357E+03  0.12000000000E+03 0.  0.
<mgrwt>
<rscale>  0 0.27422830E+03</rscale>
<asrwt>0</asrwt>
<pdfrwt beam="1">  1        1 0.76794558E-01 0.27422830E+03</pdfrwt>
<pdfrwt beam="2">  1       -1 0.57943857E-02 0.27422830E+03</pdfrwt>
<totfact> 0.63440187E+03</totfact>
</mgrwt>
</event>
<event>
 5    1  0.1125356E+001  0.2744358E+03  0.7818608E-02  0.1098767E+00
         -2   -1    0    0    0  501 -0.00000000000E+00  0.00000000000E+00  0.12203377491E+02  0.12203377491E+02  0.00000000000E+00 0. -1.
          2   -1    0    0  501    0  0.00000000000E+00 -0.00000000000E+00 -0.15429136309E+04  0.15429136309E+04  0.00000000000E+00 0. -1.
         35    2    1    2    0    0  0.00000000000E+00  0.00000000000E+00 -0.15307102534E+04  0.15551170084E+04  0.27443583931E+03 0.  0.
         25    1    3    3    0    0 -0.10621747306E+02 -0.65098954016E+02 -0.71528917400E+03  0.72827831066E+03  0.12000000000E+03 0.  0.
         25    1    3    3    0    0  0.10621747306E+02  0.65098954016E+02 -0.81542107944E+03  0.82683869777E+03  0.12000000000E+03 0.  0.
<mgrwt>
<rscale>  0 0.27443584E+03</rscale>
<asrwt>0</asrwt>
<pdfrwt beam="1">  1        2 0.23737122E+00 0.27443584E+03</pdfrwt>
<pdfrwt beam="2">  1       -2 0.18774435E-02 0.27443584E+03</pdfrwt>
<totfact> 0.10980648E+04</totfact>
</mgrwt>
</event>
<event>
 5    1  0.1125356E+001  0.2748122E+03  0.7818608E-02  0.1098557E+00
         -2   -1    0    0    0  501 -0.00000000000E+00  0.00000000000E+00  0.22825461307E+02  0.22825461307E+02  0.00000000000E+00 0. -1.
          2   -1    0    0  501    0  0.00000000000E+00 -0.00000000000E+00 -0.82716583156E+03  0.82716583156E+03  0.00000000000E+00 0. -1.
         35    2    1    2    0    0  0.00000000000E+00  0.00000000000E+00 -0.80434037026E+03  0.84999129287E+03  0.27481223905E+03 0.  0.
         25    1    3    3    0    0  0.36616160207E+02  0.15862197964E+02 -0.56839034869E+03  0.58228853758E+03  0.12000000000E+03 0.  0.
         25    1    3    3    0    0 -0.36616160207E+02 -0.15862197964E+02 -0.23595002156E+03  0.26770275529E+03  0.12000000000E+03 0.  0.
<mgrwt>
<rscale>  0 0.27481224E+03</rscale>
<asrwt>0</asrwt>
<pdfrwt beam="1">  1        2 0.12725628E+00 0.27481224E+03</pdfrwt>
<pdfrwt beam="2">  1       -2 0.35116094E-02 0.27481224E+03</pdfrwt>
<totfact> 0.11326309E+04</totfact>
</mgrwt>
</event>
<event>
 5    1  0.1125356E+001  0.2748455E+03  0.7818608E-02  0.1098538E+00
         -2   -1    0    0    0  501 -0.00000000000E+00  0.00000000000E+00  0.13966671410E+02  0.13966671410E+02  0.00000000000E+00 0. -1.
          2   -1    0    0  501    0  0.00000000000E+00 -0.00000000000E+00 -0.13521481937E+04  0.13521481937E+04  0.00000000000E+00 0. -1.
         35    2    1    2    0    0  0.00000000000E+00  0.00000000000E+00 -0.13381815223E+04  0.13661148652E+04  0.27484548037E+03 0.  0.
         25    1    3    3    0    0 -0.29323349741E+02 -0.55789591636E+02 -0.78163375862E+03  0.79329923106E+03  0.12000000000E+03 0.  0.
         25    1    3    3    0    0  0.29323349741E+02  0.55789591636E+02 -0.55654776371E+03  0.57281563410E+03  0.12000000000E+03 0.  0.
<mgrwt>
<rscale>  0 0.27484548E+03</rscale>
<asrwt>0</asrwt>
<pdfrwt beam="1">  1        2 0.20802279E+00 0.27484548E+03</pdfrwt>
<pdfrwt beam="2">  1       -2 0.21487188E-02 0.27484548E+03</pdfrwt>
<totfact> 0.11410365E+04</totfact>
</mgrwt>
</event>
<event>
 5    1  0.1125356E+001  0.2738194E+03  0.7818608E-02  0.1099113E+00
         -2   -1    0    0    0  501 -0.00000000000E+00  0.00000000000E+00  0.88518172177E+01  0.88518172177E+01  0.00000000000E+00 0.  1.
          2   -1    0    0  501    0  0.00000000000E+00 -0.00000000000E+00 -0.21175614271E+04  0.21175614271E+04  0.00000000000E+00 0.  1.
         35    2    1    2    0    0  0.00000000000E+00  0.00000000000E+00 -0.21087096099E+04  0.21264132444E+04  0.27381940545E+03 0.  0.
         25    1    3    3    0    0 -0.38400323329E+02  0.49972710020E+02 -0.90449188731E+03  0.91459140100E+03  0.12000000000E+03 0.  0.
         25    1    3    3    0    0  0.38400323329E+02 -0.49972710020E+02 -0.12042177226E+04  0.12118218434E+04  0.12000000000E+03 0.  0.
<mgrwt>
<rscale>  0 0.27381941E+03</rscale>
<asrwt>0</asrwt>
<pdfrwt beam="1">  1        2 0.32577820E+00 0.27381941E+03</pdfrwt>
<pdfrwt beam="2">  1       -2 0.13618200E-02 0.27381941E+03</pdfrwt>
<totfact> 0.87520548E+03</totfact>
</mgrwt>
</event>
<event>
 5    1  0.1125356E+001  0.2746517E+03  0.7818608E-02  0.1098646E+00
          1   -1    0    0  501    0  0.00000000000E+00  0.00000000000E+00  0.11434143771E+04  0.11434143771E+04  0.00000000000E+00 0. -1.
         -1   -1    0    0    0  501 -0.00000000000E+00 -0.00000000000E+00 -0.16493053595E+02  0.16493053595E+02  0.00000000000E+00 0. -1.
         35    2    1    2    0    0  0.00000000000E+00  0.00000000000E+00  0.11269213235E+04  0.11599074307E+04  0.27465174023E+03 0.  0.
         25    1    3    3    0    0  0.42566260549E+02 -0.44976940293E+02  0.45800058649E+03  0.47749277369E+03  0.12000000000E+03 0.  0.
         25    1    3    3    0    0 -0.42566260549E+02  0.44976940293E+02  0.66892073702E+03  0.68241465701E+03  0.12000000000E+03 0.  0.
<mgrwt>
<rscale>  0 0.27465174E+03</rscale>
<asrwt>0</asrwt>
<pdfrwt beam="1">  1        1 0.17590984E+00 0.27465174E+03</pdfrwt>
<pdfrwt beam="2">  1       -1 0.25373938E-02 0.27465174E+03</pdfrwt>
<totfact> 0.60649709E+03</totfact>
</mgrwt>
</event>
<event>
 5    1  0.1125356E+001  0.2725621E+03  0.7818608E-02  0.1099822E+00
          2   -1    0    0  501    0  0.00000000000E+00  0.00000000000E+00  0.33529465894E+03  0.33529465894E+03  0.00000000000E+00 0.  1.
         -2   -1    0    0    0  501 -0.00000000000E+00 -0.00000000000E+00 -0.55391633121E+02  0.55391633121E+02  0.00000000000E+00 0.  1.
         35    2    1    2    0    0  0.00000000000E+00  0.00000000000E+00  0.27990302582E+03  0.39068629206E+03  0.27256205705E+03 0.  0.
         25    1    3    3    0    0  0.29699030045E+02  0.49073640918E+02  0.97375784845E+02  0.16484021989E+03  0.12000000000E+03 0.  0.
         25    1    3    3    0    0 -0.29699030045E+02 -0.49073640918E+02  0.18252724098E+03  0.22584607217E+03  0.12000000000E+03 0.  0.
<mgrwt>
<rscale>  0 0.27256206E+03</rscale>
<asrwt>0</asrwt>
<pdfrwt beam="1">  1        2 0.51583793E-01 0.27256206E+03</pdfrwt>
<pdfrwt beam="2">  1       -2 0.85217899E-02 0.27256206E+03</pdfrwt>
<totfact> 0.82249572E+03</totfact>
</mgrwt>
</event>
<event>
 5    1  0.1125356E+001  0.2748672E+03  0.7818608E-02  0.1098526E+00
         -3   -1    0    0    0  501 -0.00000000000E+00  0.00000000000E+00  0.14675043928E+03  0.14675043928E+03  0.00000000000E+00 0. -1.
          3   -1    0    0  501    0  0.00000000000E+00 -0.00000000000E+00 -0.12870823766E+03  0.12870823766E+03  0.00000000000E+00 0. -1.
         35    2    1    2    0    0  0.00000000000E+00  0.00000000000E+00  0.18042201624E+02  0.27545867693E+03  0.27486717094E+03 0.  0.
         25    1    3    3    0    0  0.41416761954E+02  0.27719477367E+02 -0.35844346601E+02  0.13479070732E+03  0.12000000000E+03 0.  0.
         25    1    3    3    0    0 -0.41416761954E+02 -0.27719477367E+02  0.53886548225E+02  0.14066796962E+03  0.12000000000E+03 0.  0.
<mgrwt>
<rscale>  0 0.27486717E+03</rscale>
<asrwt>0</asrwt>
<pdfrwt beam="1">  1        3 0.19801267E-01 0.27486717E+03</pdfrwt>
<pdfrwt beam="2">  1       -3 0.22576991E-01 0.27486717E+03</pdfrwt>
<totfact> 0.10497428E+03</totfact>
</mgrwt>
</event>
<event>
 5    1  0.1125356E+001  0.2746301E+03  0.7818608E-02  0.1098659E+00
          2   -1    0    0  501    0  0.00000000000E+00  0.00000000000E+00  0.24185165795E+03  0.24185165795E+03  0.00000000000E+00 0.  1.
         -2   -1    0    0    0  501 -0.00000000000E+00 -0.00000000000E+00 -0.77962762602E+02  0.77962762602E+02  0.00000000000E+00 0.  1.
         35    2    1    2    0    0  0.00000000000E+00  0.00000000000E+00  0.16388889535E+03  0.31981442056E+03  0.27463010319E+03 0.  0.
         25    1    3    3    0    0 -0.61680031197E+02 -0.25037563419E+02  0.87663401865E+02  0.16283788827E+03  0.12000000000E+03 0.  0.
         25    1    3    3    0    0  0.61680031197E+02  0.25037563419E+02  0.76225493486E+02  0.15697653228E+03  0.12000000000E+03 0.  0.
<mgrwt>
<rscale>  0 0.27463010E+03</rscale>
<asrwt>0</asrwt>
<pdfrwt beam="1">  1        2 0.37207947E-01 0.27463010E+03</pdfrwt>
<pdfrwt beam="2">  1       -2 0.11994271E-01 0.27463010E+03</pdfrwt>
<totfact> 0.67899635E+03</totfact>
</mgrwt>
</event>
<event>
 5    1  0.1125356E+001  0.2740142E+03  0.7818608E-02  0.1099004E+00
          2   -1    0    0  501    0  0.00000000000E+00  0.00000000000E+00  0.98830623695E+02  0.98830623695E+02  0.00000000000E+00 0.  1.
         -2   -1    0    0    0  501 -0.00000000000E+00 -0.00000000000E+00 -0.18993043276E+03  0.18993043276E+03  0.00000000000E+00 0.  1.
         35    2    1    2    0    0  0.00000000000E+00  0.00000000000E+00 -0.91099809060E+02  0.28876105645E+03  0.27401418305E+03 0.  0.
         25    1    3    3    0    0 -0.53010726446E+02 -0.23068304364E+02 -0.11751097856E+02  0.13371750852E+03  0.12000000000E+03 0.  0.
         25    1    3    3    0    0  0.53010726446E+02  0.23068304364E+02 -0.79348711204E+02  0.15504354793E+03  0.12000000000E+03 0.  0.
<mgrwt>
<rscale>  0 0.27401418E+03</rscale>
<asrwt>0</asrwt>
<pdfrwt beam="1">  1        2 0.15204711E-01 0.27401418E+03</pdfrwt>
<pdfrwt beam="2">  1       -2 0.29220066E-01 0.27401418E+03</pdfrwt>
<totfact> 0.40905669E+03</totfact>
</mgrwt>
</event>
<event>
 5    1  0.1125356E+001  0.2748273E+03  0.7818608E-02  0.1098548E+00
          2   -1    0    0  501    0  0.00000000000E+00  0.00000000000E+00  0.21770604942E+04  0.21770604942E+04  0.00000000000E+00 0.  1.
         -2   -1    0    0    0  501 -0.00000000000E+00 -0.00000000000E+00 -0.86733995394E+01  0.86733995394E+01  0.00000000000E+00 0.  1.
         35    2    1    2    0    0  0.00000000000E+00  0.00000000000E+00  0.21683870946E+04  0.21857338937E+04  0.27482733115E+03 0.  0.
         25    1    3    3    0    0  0.58051754032E+02 -0.33198141647E+02  0.11098326155E+04  0.11183025338E+04  0.12000000000E+03 0.  0.
         25    1    3    3    0    0 -0.58051754032E+02  0.33198141647E+02  0.10585544792E+04  0.10674313599E+04  0.12000000000E+03 0.  0.
<mgrwt>
<rscale>  0 0.27482733E+03</rscale>
<asrwt>0</asrwt>
<pdfrwt beam="1">  1        2 0.33493195E+00 0.27482733E+03</pdfrwt>
<pdfrwt beam="2">  1       -2 0.13343709E-02 0.27482733E+03</pdfrwt>
<totfact> 0.83848363E+03</totfact>
</mgrwt>
</event>
<event>
 5    1  0.1125356E+001  0.2763104E+03  0.7818608E-02  0.1097721E+00
         -2   -1    0    0    0  501 -0.00000000000E+00  0.00000000000E+00  0.10512102201E+03  0.10512102201E+03  0.00000000000E+00 0.  1.
          2   -1    0    0  501    0  0.00000000000E+00 -0.00000000000E+00 -0.18157029435E+03  0.18157029435E+03  0.00000000000E+00 0.  1.
         35    2    1    2    0    0  0.00000000000E+00  0.00000000000E+00 -0.76449272349E+02  0.28669131636E+03  0.27631036831E+03 0.  0.
         25    1    3    3    0    0 -0.20236723671E+02  0.53460380170E+02  0.86459806197E+00  0.13292210035E+03  0.12000000000E+03 0.  0.
         25    1    3    3    0    0  0.20236723671E+02 -0.53460380170E+02 -0.77313870411E+02  0.15376921601E+03  0.12000000000E+03 0.  0.
<mgrwt>
<rscale>  0 0.27631037E+03</rscale>
<asrwt>0</asrwt>
<pdfrwt beam="1">  1        2 0.27933892E-01 0.27631037E+03</pdfrwt>
<pdfrwt beam="2">  1       -2 0.16172465E-01 0.27631037E+03</pdfrwt>
<totfact> 0.56902165E+03</totfact>
</mgrwt>
</event>
<event>
 5    1  0.1125356E+001  0.2747376E+03  0.7818608E-02  0.1098598E+00
          1   -1    0    0  501    0  0.00000000000E+00  0.00000000000E+00  0.37811964706E+04  0.37811964706E+04  0.00000000000E+00 0.  1.
         -1   -1    0    0    0  501 -0.00000000000E+00 -0.00000000000E+00 -0.49905335178E+01  0.49905335178E+01  0.00000000000E+00 0.  1.
         35    2    1    2    0    0  0.00000000000E+00  0.00000000000E+00  0.37762059371E+04  0.37861870041E+04  0.27473760372E+03 0.  0.
         25    1    3    3    0    0  0.14315367918E+02 -0.58926794617E+02  0.15000503171E+04  0.15060638269E+04  0.12000000000E+03 0.  0.
         25    1    3    3    0    0 -0.14315367918E+02  0.58926794617E+02  0.22761556200E+04  0.22801231772E+04  0.12000000000E+03 0.  0.
<mgrwt>
<rscale>  0 0.27473760E+03</rscale>
<asrwt>0</asrwt>
<pdfrwt beam="1">  1        1 0.58172024E+00 0.27473760E+03</pdfrwt>
<pdfrwt beam="2">  1       -1 0.76777741E-03 0.27473760E+03</pdfrwt>
<totfact> 0.52275528E+02</totfact>
</mgrwt>
</event>
<event>
 5    1  0.1125356E+001  0.2746725E+03  0.7818608E-02  0.1098635E+00
         -2   -1    0    0    0  501 -0.00000000000E+00  0.00000000000E+00  0.28072635264E+02  0.28072635264E+02  0.00000000000E+00 0. -1.
          2   -1    0    0  501    0  0.00000000000E+00 -0.00000000000E+00 -0.67187288354E+03  0.67187288354E+03  0.00000000000E+00 0. -1.
         35    2    1    2    0    0  0.00000000000E+00  0.00000000000E+00 -0.64380024827E+03  0.69994551880E+03  0.27467247698E+03 0.  0.
         25    1    3    3    0    0  0.49638176443E+02  0.22092993763E+02 -0.22290323399E+03  0.25891678327E+03  0.12000000000E+03 0.  0.
         25    1    3    3    0    0 -0.49638176443E+02 -0.22092993763E+02 -0.42089701428E+03  0.44102873553E+03  0.12000000000E+03 0.  0.
<mgrwt>
<rscale>  0 0.27467248E+03</rscale>
<asrwt>0</asrwt>
<pdfrwt beam="1">  1        2 0.10336506E+00 0.27467248E+03</pdfrwt>
<pdfrwt beam="2">  1       -2 0.43188671E-02 0.27467248E+03</pdfrwt>
<totfact> 0.10743031E+04</totfact>
</mgrwt>
</event>
<event>
 5    1  0.1125356E+001  0.2751879E+03  0.7818608E-02  0.1098347E+00
         -1   -1    0    0    0  501 -0.00000000000E+00  0.00000000000E+00  0.17665133538E+03  0.17665133538E+03  0.00000000000E+00 0. -1.
          1   -1    0    0  501    0  0.00000000000E+00 -0.00000000000E+00 -0.10717209331E+03  0.10717209331E+03  0.00000000000E+00 0. -1.
         35    2    1    2    0    0  0.00000000000E+00  0.00000000000E+00  0.69479242068E+02  0.28382342869E+03  0.27518788780E+03 0.  0.
         25    1    3    3    0    0 -0.44442399123E+02 -0.34317783424E+02  0.73043381723E+02  0.15128837600E+03  0.12000000000E+03 0.  0.
         25    1    3    3    0    0  0.44442399123E+02  0.34317783424E+02 -0.35641396554E+01  0.13253505269E+03  0.12000000000E+03 0.  0.
<mgrwt>
<rscale>  0 0.27518789E+03</rscale>
<asrwt>0</asrwt>
<pdfrwt beam="1">  1        1 0.16488014E-01 0.27518789E+03</pdfrwt>
<pdfrwt beam="2">  1       -1 0.27177128E-01 0.27518789E+03</pdfrwt>
<totfact> 0.39547228E+03</totfact>
</mgrwt>
</event>
<event>
 5    1  0.1125356E+001  0.2732216E+03  0.7818608E-02  0.1099450E+00
          2   -1    0    0  501    0  0.00000000000E+00  0.00000000000E+00  0.24901748774E+04  0.24901748774E+04  0.00000000000E+00 0.  1.
         -2   -1    0    0    0  501 -0.00000000000E+00 -0.00000000000E+00 -0.74944563008E+01  0.74944563008E+01  0.00000000000E+00 0.  1.
         35    2    1    2    0    0  0.00000000000E+00  0.00000000000E+00  0.24826804211E+04  0.24976693337E+04  0.27322157162E+03 0.  0.
         25    1    3    3    0    0 -0.27268590985E+02 -0.58638059381E+02  0.11593161121E+04  0.11673028081E+04  0.12000000000E+03 0.  0.
         25    1    3    3    0    0  0.27268590985E+02  0.58638059381E+02  0.13233643090E+04  0.13303665256E+04  0.12000000000E+03 0.  0.
<mgrwt>
<rscale>  0 0.27322157E+03</rscale>
<asrwt>0</asrwt>
<pdfrwt beam="1">  1        2 0.38310317E+00 0.27322157E+03</pdfrwt>
<pdfrwt beam="2">  1       -2 0.11529953E-02 0.27322157E+03</pdfrwt>
<totfact> 0.70371932E+03</totfact>
</mgrwt>
</event>
<event>
 5    1  0.1125356E+001  0.2732674E+03  0.7818608E-02  0.1099424E+00
         -1   -1    0    0    0  501 -0.00000000000E+00  0.00000000000E+00  0.24625404184E+02  0.24625404184E+02  0.00000000000E+00 0. -1.
          1   -1    0    0  501    0  0.00000000000E+00 -0.00000000000E+00 -0.75811038036E+03  0.75811038036E+03  0.00000000000E+00 0. -1.
         35    2    1    2    0    0  0.00000000000E+00  0.00000000000E+00 -0.73348497618E+03  0.78273578455E+03  0.27326744799E+03 0.  0.
         25    1    3    3    0    0 -0.56951465862E+02 -0.89405463297E+01 -0.27867236835E+03  0.30883926518E+03  0.12000000000E+03 0.  0.
         25    1    3    3    0    0  0.56951465862E+02  0.89405463297E+01 -0.45481260783E+03  0.47389651937E+03  0.12000000000E+03 0.  0.
<mgrwt>
<rscale>  0 0.27326745E+03</rscale>
<asrwt>0</asrwt>
<pdfrwt beam="1">  1        1 0.11663236E+00 0.27326745E+03</pdfrwt>
<pdfrwt beam="2">  1       -1 0.37885239E-02 0.27326745E+03</pdfrwt>
<totfact> 0.66569142E+03</totfact>
</mgrwt>
</event>
<event>
 5    1  0.1125356E+001  0.2756561E+03  0.7818608E-02  0.1098085E+00
          2   -1    0    0  501    0  0.00000000000E+00  0.00000000000E+00  0.57698411938E+03  0.57698411938E+03  0.00000000000E+00 0. -1.
         -2   -1    0    0    0  501 -0.00000000000E+00 -0.00000000000E+00 -0.32923900793E+02  0.32923900793E+02  0.00000000000E+00 0. -1.
         35    2    1    2    0    0  0.00000000000E+00  0.00000000000E+00  0.54406021859E+03  0.60990802018E+03  0.27565607489E+03 0.  0.
         25    1    3    3    0    0  0.56128214148E+02 -0.18987449580E+02  0.34493309974E+03  0.36998613887E+03  0.12000000000E+03 0.  0.
         25    1    3    3    0    0 -0.56128214148E+02  0.18987449580E+02  0.19912711885E+03  0.23992188130E+03  0.12000000000E+03 0.  0.
<mgrwt>
<rscale>  0 0.27565607E+03</rscale>
<asrwt>0</asrwt>
<pdfrwt beam="1">  1        2 0.88766780E-01 0.27565607E+03</pdfrwt>
<pdfrwt beam="2">  1       -2 0.50652159E-02 0.27565607E+03</pdfrwt>
<totfact> 0.10090001E+04</totfact>
</mgrwt>
</event>
<event>
 5    1  0.1125356E+001  0.2747718E+03  0.7818608E-02  0.1098579E+00
          1   -1    0    0  501    0  0.00000000000E+00  0.00000000000E+00  0.60141167637E+02  0.60141167637E+02  0.00000000000E+00 0. -1.
         -1   -1    0    0    0  501 -0.00000000000E+00 -0.00000000000E+00 -0.31384303509E+03  0.31384303509E+03  0.00000000000E+00 0. -1.
         35    2    1    2    0    0  0.00000000000E+00  0.00000000000E+00 -0.25370186745E+03  0.37398420272E+03  0.27477180776E+03 0.  0.
         25    1    3    3    0    0  0.41464312840E+02  0.25767776994E+02 -0.18909850016E+03  0.22921934982E+03  0.12000000000E+03 0.  0.
         25    1    3    3    0    0 -0.41464312840E+02 -0.25767776994E+02 -0.64603367293E+02  0.14476485290E+03  0.12000000000E+03 0.  0.
<mgrwt>
<rscale>  0 0.27477181E+03</rscale>
<asrwt>0</asrwt>
<pdfrwt beam="1">  1        1 0.92524873E-02 0.27477181E+03</pdfrwt>
<pdfrwt beam="2">  1       -1 0.48283544E-01 0.27477181E+03</pdfrwt>
<totfact> 0.31130886E+03</totfact>
</mgrwt>
</event>
<event>
 5    1  0.1125356E+001  0.2780177E+03  0.7818608E-02  0.1096777E+00
          1   -1    0    0  501    0  0.00000000000E+00  0.00000000000E+00  0.76215865036E+03  0.76215865036E+03  0.00000000000E+00 0. -1.
         -1   -1    0    0    0  501 -0.00000000000E+00 -0.00000000000E+00 -0.25353586474E+02  0.25353586474E+02  0.00000000000E+00 0. -1.
         35    2    1    2    0    0  0.00000000000E+00  0.00000000000E+00  0.73680506389E+03  0.78751223684E+03  0.27801766310E+03 0.  0.
         25    1    3    3    0    0  0.69928605891E+02 -0.32548392257E+00  0.35204703557E+03  0.37845373709E+03  0.12000000000E+03 0.  0.
         25    1    3    3    0    0 -0.69928605891E+02  0.32548392257E+00  0.38475802832E+03  0.40905849975E+03  0.12000000000E+03 0.  0.
<mgrwt>
<rscale>  0 0.27801766E+03</rscale>
<asrwt>0</asrwt>
<pdfrwt beam="1">  1        1 0.11725516E+00 0.27801766E+03</pdfrwt>
<pdfrwt beam="2">  1       -1 0.39005524E-02 0.27801766E+03</pdfrwt>
<totfact> 0.63267881E+03</totfact>
</mgrwt>
</event>
<event>
 5    1  0.1125356E+001  0.2754430E+03  0.7818608E-02  0.1098204E+00
         -1   -1    0    0    0  501 -0.00000000000E+00  0.00000000000E+00  0.96936893007E+02  0.96936893007E+02  0.00000000000E+00 0. -1.
          1   -1    0    0  501    0  0.00000000000E+00 -0.00000000000E+00 -0.19566558888E+03  0.19566558888E+03  0.00000000000E+00 0. -1.
         35    2    1    2    0    0  0.00000000000E+00  0.00000000000E+00 -0.98728695870E+02  0.29260248188E+03  0.27544301955E+03 0.  0.
         25    1    3    3    0    0  0.23138427407E+02  0.21719086489E+02  0.14019392564E+02  0.12491456644E+03  0.12000000000E+03 0.  0.
         25    1    3    3    0    0 -0.23138427407E+02 -0.21719086489E+02 -0.11274808843E+03  0.16768791544E+03  0.12000000000E+03 0.  0.
<mgrwt>
<rscale>  0 0.27544302E+03</rscale>
<asrwt>0</asrwt>
<pdfrwt beam="1">  1        1 0.30102398E-01 0.27544302E+03</pdfrwt>
<pdfrwt beam="2">  1       -1 0.14913368E-01 0.27544302E+03</pdfrwt>
<totfact> 0.48595916E+03</totfact>
</mgrwt>
</event>
<event>
 5    1  0.1125356E+001  0.2754755E+03  0.7818608E-02  0.1098186E+00
         -2   -1    0    0    0  501 -0.00000000000E+00  0.00000000000E+00  0.96691560719E+02  0.96691560719E+02  0.00000000000E+00 0.  1.
          2   -1    0    0  501    0  0.00000000000E+00 -0.00000000000E+00 -0.19620824764E+03  0.19620824764E+03  0.00000000000E+00 0.  1.
         35    2    1    2    0    0  0.00000000000E+00  0.00000000000E+00 -0.99516686919E+02  0.29289980836E+03  0.27547545582E+03 0.  0.
         25    1    3    3    0    0  0.11236906421E+02  0.65294215346E+02 -0.64105511541E+02  0.15132454934E+03  0.12000000000E+03 0.  0.
         25    1    3    3    0    0 -0.11236906421E+02 -0.65294215346E+02 -0.35411175378E+02  0.14157525902E+03  0.12000000000E+03 0.  0.
<mgrwt>
<rscale>  0 0.27547546E+03</rscale>
<asrwt>0</asrwt>
<pdfrwt beam="1">  1        2 0.30185884E-01 0.27547546E+03</pdfrwt>
<pdfrwt beam="2">  1       -2 0.14875625E-01 0.27547546E+03</pdfrwt>
<totfact> 0.60009280E+03</totfact>
</mgrwt>
</event>
<event>
 5    1  0.1125356E+001  0.2735252E+03  0.7818608E-02  0.1099279E+00
         -2   -1    0    0    0  501 -0.00000000000E+00  0.00000000000E+00  0.29266087516E+03  0.29266087516E+03  0.00000000000E+00 0. -1.
          2   -1    0    0  501    0  0.00000000000E+00 -0.00000000000E+00 -0.63910198163E+02  0.63910198163E+02  0.00000000000E+00 0. -1.
         35    2    1    2    0    0  0.00000000000E+00  0.00000000000E+00  0.22875067700E+03  0.35657107332E+03  0.27352524217E+03 0.  0.
         25    1    3    3    0    0  0.31624289307E+02  0.44002349953E+02  0.66164350265E+02  0.14735679055E+03  0.12000000000E+03 0.  0.
         25    1    3    3    0    0 -0.31624289307E+02 -0.44002349953E+02  0.16258632673E+03  0.20921428277E+03  0.12000000000E+03 0.  0.
<mgrwt>
<rscale>  0 0.27352524E+03</rscale>
<asrwt>0</asrwt>
<pdfrwt beam="1">  1        2 0.98323383E-02 0.27352524E+03</pdfrwt>
<pdfrwt beam="2">  1       -2 0.45024750E-01 0.27352524E+03</pdfrwt>
<totfact> 0.30838011E+03</totfact>
</mgrwt>
</event>
<event>
 5    1  0.1125356E+001  0.2772597E+03  0.7818608E-02  0.1097195E+00
         -1   -1    0    0    0  501 -0.00000000000E+00  0.00000000000E+00  0.65265146898E+03  0.65265146898E+03  0.00000000000E+00 0. -1.
          1   -1    0    0  501    0  0.00000000000E+00 -0.00000000000E+00 -0.29446390648E+02  0.29446390648E+02  0.00000000000E+00 0. -1.
         35    2    1    2    0    0  0.00000000000E+00  0.00000000000E+00  0.62320507833E+03  0.68209785963E+03  0.27725966250E+03 0.  0.
         25    1    3    3    0    0  0.13583184634E+02 -0.50290106970E+01  0.14459472612E+03  0.18846068204E+03  0.12000000000E+03 0.  0.
         25    1    3    3    0    0 -0.13583184634E+02  0.50290106970E+01  0.47861035221E+03  0.49363717759E+03  0.12000000000E+03 0.  0.
<mgrwt>
<rscale>  0 0.27725966E+03</rscale>
<asrwt>0</asrwt>
<pdfrwt beam="1">  1        1 0.45302144E-02 0.27725966E+03</pdfrwt>
<pdfrwt beam="2">  1       -1 0.10040791E+00 0.27725966E+03</pdfrwt>
<totfact> 0.19064829E+03</totfact>
</mgrwt>
</event>
<event>
 5    1  0.1125356E+001  0.2714269E+03  0.7818608E-02  0.1100466E+00
          3   -1    0    0  501    0  0.00000000000E+00  0.00000000000E+00  0.21263344373E+02  0.21263344373E+02  0.00000000000E+00 0.  1.
         -3   -1    0    0    0  501 -0.00000000000E+00 -0.00000000000E+00 -0.86619192526E+03  0.86619192526E+03  0.00000000000E+00 0.  1.
         35    2    1    2    0    0  0.00000000000E+00  0.00000000000E+00 -0.84492858089E+03  0.88745526964E+03  0.27142687560E+03 0.  0.
         25    1    3    3    0    0 -0.27606387571E+02  0.37911292687E+02 -0.56190228799E+03  0.57648378988E+03  0.12000000000E+03 0.  0.
         25    1    3    3    0    0  0.27606387571E+02 -0.37911292687E+02 -0.28302629290E+03  0.31097147976E+03  0.12000000000E+03 0.  0.
<mgrwt>
<rscale>  0 0.27142688E+03</rscale>
<asrwt>0</asrwt>
<pdfrwt beam="1">  1        3 0.32712835E-02 0.27142688E+03</pdfrwt>
<pdfrwt beam="2">  1       -3 0.13326030E+00 0.27142688E+03</pdfrwt>
<totfact> 0.51740551E+02</totfact>
</mgrwt>
</event>
<event>
 5    1  0.1125356E+001  0.2749142E+03  0.7818608E-02  0.1098500E+00
         -4   -1    0    0    0  501 -0.00000000000E+00  0.00000000000E+00  0.49220021759E+03  0.49220021759E+03  0.00000000000E+00 0. -1.
          4   -1    0    0  501    0  0.00000000000E+00 -0.00000000000E+00 -0.38387748306E+02  0.38387748306E+02  0.00000000000E+00 0. -1.
         35    2    1    2    0    0  0.00000000000E+00  0.00000000000E+00  0.45381246929E+03  0.53058796590E+03  0.27491422713E+03 0.  0.
         25    1    3    3    0    0 -0.51064676253E+02  0.42448398526E+02  0.24469906515E+03  0.28051221040E+03  0.12000000000E+03 0.  0.
         25    1    3    3    0    0  0.51064676253E+02 -0.42448398526E+02  0.20911340414E+03  0.25007575550E+03  0.12000000000E+03 0.  0.
<mgrwt>
<rscale>  0 0.27491423E+03</rscale>
<asrwt>0</asrwt>
<pdfrwt beam="1">  1        4 0.59058078E-02 0.27491423E+03</pdfrwt>
<pdfrwt beam="2">  1       -4 0.75723106E-01 0.27491423E+03</pdfrwt>
<totfact> 0.54762196E+02</totfact>
</mgrwt>
</event>
<event>
 5    1  0.1125356E+001  0.2742297E+03  0.7818608E-02  0.1098883E+00
         -1   -1    0    0    0  501 -0.00000000000E+00  0.00000000000E+00  0.29074566364E+03  0.29074566364E+03  0.00000000000E+00 0. -1.
          1   -1    0    0  501    0  0.00000000000E+00 -0.00000000000E+00 -0.64662965822E+02  0.64662965822E+02  0.00000000000E+00 0. -1.
         35    2    1    2    0    0  0.00000000000E+00  0.00000000000E+00  0.22608269781E+03  0.35540862946E+03  0.27422966222E+03 0.  0.
         25    1    3    3    0    0  0.29550837246E+02 -0.41781528713E+02  0.16774419996E+03  0.21250191704E+03  0.12000000000E+03 0.  0.
         25    1    3    3    0    0 -0.29550837246E+02  0.41781528713E+02  0.58338497853E+02  0.14290671242E+03  0.12000000000E+03 0.  0.
<mgrwt>
<rscale>  0 0.27422966E+03</rscale>
<asrwt>0</asrwt>
<pdfrwt beam="1">  1        1 0.99481488E-02 0.27422966E+03</pdfrwt>
<pdfrwt beam="2">  1       -1 0.44730101E-01 0.27422966E+03</pdfrwt>
<totfact> 0.32455348E+03</totfact>
</mgrwt>
</event>
<event>
 5    1  0.1125356E+001  0.2753911E+03  0.7818608E-02  0.1098233E+00
         -3   -1    0    0    0  501 -0.00000000000E+00  0.00000000000E+00  0.77643771827E+02  0.77643771827E+02  0.00000000000E+00 0.  1.
          3   -1    0    0  501    0  0.00000000000E+00 -0.00000000000E+00 -0.24419303545E+03  0.24419303545E+03  0.00000000000E+00 0.  1.
         35    2    1    2    0    0  0.00000000000E+00  0.00000000000E+00 -0.16654926362E+03  0.32183680727E+03  0.27539112786E+03 0.  0.
         25    1    3    3    0    0  0.40681824850E+02  0.28727975538E+02 -0.13657036834E+03  0.18849873464E+03  0.12000000000E+03 0.  0.
         25    1    3    3    0    0 -0.40681824850E+02 -0.28727975538E+02 -0.29978895277E+02  0.13333807263E+03  0.12000000000E+03 0.  0.
<mgrwt>
<rscale>  0 0.27539113E+03</rscale>
<asrwt>0</asrwt>
<pdfrwt beam="1">  1        3 0.37568159E-01 0.27539113E+03</pdfrwt>
<pdfrwt beam="2">  1       -3 0.11945196E-01 0.27539113E+03</pdfrwt>
<totfact> 0.97655415E+02</totfact>
</mgrwt>
</event>
<event>
 5    1  0.1125356E+001  0.2744373E+03  0.7818608E-02  0.1098767E+00
          1   -1    0    0  501    0  0.00000000000E+00  0.00000000000E+00  0.49660838185E+03  0.49660838185E+03  0.00000000000E+00 0.  1.
         -1   -1    0    0    0  501 -0.00000000000E+00 -0.00000000000E+00 -0.37915105760E+02  0.37915105760E+02  0.00000000000E+00 0.  1.
         35    2    1    2    0    0  0.00000000000E+00  0.00000000000E+00  0.45869327609E+03  0.53452348761E+03  0.27443731029E+03 0.  0.
         25    1    3    3    0    0  0.30765673733E+02  0.15809811216E+02  0.34008337724E+03  0.36228880784E+03  0.12000000000E+03 0.  0.
         25    1    3    3    0    0 -0.30765673733E+02 -0.15809811216E+02  0.11860989885E+03  0.17223467977E+03  0.12000000000E+03 0.  0.
<mgrwt>
<rscale>  0 0.27443731E+03</rscale>
<asrwt>0</asrwt>
<pdfrwt beam="1">  1        1 0.76401285E-01 0.27443731E+03</pdfrwt>
<pdfrwt beam="2">  1       -1 0.58330935E-02 0.27443731E+03</pdfrwt>
<totfact> 0.63238114E+03</totfact>
</mgrwt>
</event>
<event>
 5    1  0.1125356E+001  0.2761921E+03  0.7818608E-02  0.1097787E+00
         -2   -1    0    0    0  501 -0.00000000000E+00  0.00000000000E+00  0.24782672053E+02  0.24782672053E+02  0.00000000000E+00 0.  1.
          2   -1    0    0  501    0  0.00000000000E+00 -0.00000000000E+00 -0.76951016058E+03  0.76951016058E+03  0.00000000000E+00 0.  1.
         35    2    1    2    0    0  0.00000000000E+00  0.00000000000E+00 -0.74472748853E+03  0.79429283263E+03  0.27619209222E+03 0.  0.
         25    1    3    3    0    0  0.14637163387E+01 -0.65213939487E+02 -0.43098621336E+03  0.45211073475E+03  0.12000000000E+03 0.  0.
         25    1    3    3    0    0 -0.14637163387E+01  0.65213939487E+02 -0.31374127517E+03  0.34218209789E+03  0.12000000000E+03 0.  0.
<mgrwt>
<rscale>  0 0.27619209E+03</rscale>
<asrwt>0</asrwt>
<pdfrwt beam="1">  1        2 0.11838617E+00 0.27619209E+03</pdfrwt>
<pdfrwt beam="2">  1       -2 0.38127189E-02 0.27619209E+03</pdfrwt>
<totfact> 0.10977871E+04</totfact>
</mgrwt>
</event>
<event>
 5    1  0.1125356E+001  0.2750044E+03  0.7818608E-02  0.1098449E+00
          2   -1    0    0  501    0  0.00000000000E+00  0.00000000000E+00  0.78790096660E+03  0.78790096660E+03  0.00000000000E+00 0.  1.
         -2   -1    0    0    0  501 -0.00000000000E+00 -0.00000000000E+00 -0.23996490313E+02  0.23996490313E+02  0.00000000000E+00 0.  1.
         35    2    1    2    0    0  0.00000000000E+00  0.00000000000E+00  0.76390447629E+03  0.81189745692E+03  0.27500442115E+03 0.  0.
         25    1    3    3    0    0  0.40689721225E+02  0.21279120957E+02  0.23736744074E+03  0.26991064507E+03  0.12000000000E+03 0.  0.
         25    1    3    3    0    0 -0.40689721225E+02 -0.21279120957E+02  0.52653703555E+03  0.54198681184E+03  0.12000000000E+03 0.  0.
<mgrwt>
<rscale>  0 0.27500442E+03</rscale>
<asrwt>0</asrwt>
<pdfrwt beam="1">  1        2 0.12121551E+00 0.27500442E+03</pdfrwt>
<pdfrwt beam="2">  1       -2 0.36917683E-02 0.27500442E+03</pdfrwt>
<totfact> 0.11182418E+04</totfact>
</mgrwt>
</event>
<event>
 5    1  0.1125356E+001  0.2749496E+03  0.7818608E-02  0.1098480E+00
         -2   -1    0    0    0  501 -0.00000000000E+00  0.00000000000E+00  0.34291359291E+02  0.34291359291E+02  0.00000000000E+00 0. -1.
          2   -1    0    0  501    0  0.00000000000E+00 -0.00000000000E+00 -0.55113925157E+03  0.55113925157E+03  0.00000000000E+00 0. -1.
         35    2    1    2    0    0  0.00000000000E+00  0.00000000000E+00 -0.51684789228E+03  0.58543061086E+03  0.27494955243E+03 0.  0.
         25    1    3    3    0    0 -0.44065592606E+02  0.58953731973E+01 -0.36536939079E+03  0.38713217847E+03  0.12000000000E+03 0.  0.
         25    1    3    3    0    0  0.44065592606E+02 -0.58953731973E+01 -0.15147850149E+03  0.19829843239E+03  0.12000000000E+03 0.  0.
<mgrwt>
<rscale>  0 0.27494955E+03</rscale>
<asrwt>0</asrwt>
<pdfrwt beam="1">  1        2 0.84790655E-01 0.27494955E+03</pdfrwt>
<pdfrwt beam="2">  1       -2 0.52755936E-02 0.27494955E+03</pdfrwt>
<totfact> 0.99938127E+03</totfact>
</mgrwt>
</event>
<event>
 5    1  0.1125356E+001  0.2748893E+03  0.7818608E-02  0.1098513E+00
          1   -1    0    0  501    0  0.00000000000E+00  0.00000000000E+00  0.46706667517E+03  0.46706667517E+03  0.00000000000E+00 0. -1.
         -1   -1    0    0    0  501 -0.00000000000E+00 -0.00000000000E+00 -0.40446117459E+02  0.40446117459E+02  0.00000000000E+00 0. -1.
         35    2    1    2    0    0  0.00000000000E+00  0.00000000000E+00  0.42662055771E+03  0.50751279263E+03  0.27488931303E+03 0.  0.
         25    1    3    3    0    0  0.38215228099E+02 -0.47008243995E+02  0.16041433795E+03  0.20929151555E+03  0.12000000000E+03 0.  0.
         25    1    3    3    0    0 -0.38215228099E+02  0.47008243995E+02  0.26620621976E+03  0.29822127707E+03  0.12000000000E+03 0.  0.
<mgrwt>
<rscale>  0 0.27488931E+03</rscale>
<asrwt>0</asrwt>
<pdfrwt beam="1">  1        1 0.71856408E-01 0.27488931E+03</pdfrwt>
<pdfrwt beam="2">  1       -1 0.62224799E-02 0.27488931E+03</pdfrwt>
<totfact> 0.62201193E+03</totfact>
</mgrwt>
</event>
<event>
 5    1  0.1125356E+001  0.2754776E+03  0.7818608E-02  0.1098185E+00
          2   -1    0    0  501    0  0.00000000000E+00  0.00000000000E+00  0.42064621883E+03  0.42064621883E+03  0.00000000000E+00 0. -1.
         -2   -1    0    0    0  501 -0.00000000000E+00 -0.00000000000E+00 -0.45101968984E+02  0.45101968984E+02  0.00000000000E+00 0. -1.
         35    2    1    2    0    0  0.00000000000E+00  0.00000000000E+00  0.37554424985E+03  0.46574818782E+03  0.27547756871E+03 0.  0.
         25    1    3    3    0    0  0.29600010956E+02 -0.43716243017E+02  0.25919672337E+03  0.29046550907E+03  0.12000000000E+03 0.  0.
         25    1    3    3    0    0 -0.29600010956E+02  0.43716243017E+02  0.11634752648E+03  0.17528267875E+03  0.12000000000E+03 0.  0.
<mgrwt>
<rscale>  0 0.27547757E+03</rscale>
<asrwt>0</asrwt>
<pdfrwt beam="1">  1        2 0.64714800E-01 0.27547757E+03</pdfrwt>
<pdfrwt beam="2">  1       -2 0.69387648E-02 0.27547757E+03</pdfrwt>
<totfact> 0.88650888E+03</totfact>
</mgrwt>
</event>
<event>
 5    1  0.1125356E+001  0.2753304E+03  0.7818608E-02  0.1098267E+00
          2   -1    0    0  501    0  0.00000000000E+00  0.00000000000E+00  0.24480656634E+04  0.24480656634E+04  0.00000000000E+00 0. -1.
         -2   -1    0    0    0  501 -0.00000000000E+00 -0.00000000000E+00 -0.77415022774E+01  0.77415022774E+01  0.00000000000E+00 0. -1.
         35    2    1    2    0    0  0.00000000000E+00  0.00000000000E+00  0.24403241611E+04  0.24558071656E+04  0.27533038996E+03 0.  0.
         25    1    3    3    0    0  0.54758362005E+02  0.16693023459E+02  0.90172614503E+03  0.91147527442E+03  0.12000000000E+03 0.  0.
         25    1    3    3    0    0 -0.54758362005E+02 -0.16693023459E+02  0.15385980161E+04  0.15443318912E+04  0.12000000000E+03 0.  0.
<mgrwt>
<rscale>  0 0.27533039E+03</rscale>
<asrwt>0</asrwt>
<pdfrwt beam="1">  1        2 0.37662487E+00 0.27533039E+03</pdfrwt>
<pdfrwt beam="2">  1       -2 0.11910023E-02 0.27533039E+03</pdfrwt>
<totfact> 0.70772408E+03</totfact>
</mgrwt>
</event>
<event>
 5    1  0.1125356E+001  0.2740297E+03  0.7818608E-02  0.1098995E+00
          2   -1    0    0  501    0  0.00000000000E+00  0.00000000000E+00  0.40698202982E+03  0.40698202982E+03  0.00000000000E+00 0. -1.
         -2   -1    0    0    0  501 -0.00000000000E+00 -0.00000000000E+00 -0.46127512745E+02  0.46127512745E+02  0.00000000000E+00 0. -1.
         35    2    1    2    0    0  0.00000000000E+00  0.00000000000E+00  0.36085451708E+03  0.45310954257E+03  0.27402969743E+03 0.  0.
         25    1    3    3    0    0  0.77687806061E+01  0.49938621346E+02  0.25094589235E+03  0.28271551203E+03  0.12000000000E+03 0.  0.
         25    1    3    3    0    0 -0.77687806061E+01 -0.49938621346E+02  0.10990862473E+03  0.17039403054E+03  0.12000000000E+03 0.  0.
<mgrwt>
<rscale>  0 0.27402970E+03</rscale>
<asrwt>0</asrwt>
<pdfrwt beam="1">  1        2 0.62612618E-01 0.27402970E+03</pdfrwt>
<pdfrwt beam="2">  1       -2 0.70965407E-02 0.27402970E+03</pdfrwt>
<totfact> 0.88738071E+03</totfact>
</mgrwt>
</event>
<event>
 5    1  0.1125356E+001  0.2755951E+03  0.7818608E-02  0.1098119E+00
          1   -1    0    0  501    0  0.00000000000E+00  0.00000000000E+00  0.23258093244E+04  0.23258093244E+04  0.00000000000E+00 0.  1.
         -1   -1    0    0    0  501 -0.00000000000E+00 -0.00000000000E+00 -0.81641133962E+01  0.81641133962E+01  0.00000000000E+00 0.  1.
         35    2    1    2    0    0  0.00000000000E+00  0.00000000000E+00  0.23176452110E+04  0.23339734378E+04  0.27559514555E+03 0.  0.
         25    1    3    3    0    0 -0.46301562851E+02  0.24717726731E+02  0.15214406775E+04  0.15270679539E+04  0.12000000000E+03 0.  0.
         25    1    3    3    0    0  0.46301562851E+02 -0.24717726731E+02  0.79620453347E+03  0.80690548385E+03  0.12000000000E+03 0.  0.
<mgrwt>
<rscale>  0 0.27559515E+03</rscale>
<asrwt>0</asrwt>
<pdfrwt beam="1">  1        1 0.35781629E+00 0.27559515E+03</pdfrwt>
<pdfrwt beam="2">  1       -1 0.12560193E-02 0.27559515E+03</pdfrwt>
<totfact> 0.27937350E+03</totfact>
</mgrwt>
</event>
<event>
 5    1  0.1125356E+001  0.2752111E+03  0.7818608E-02  0.1098334E+00
          1   -1    0    0  501    0  0.00000000000E+00  0.00000000000E+00  0.41052804584E+03  0.41052804584E+03  0.00000000000E+00 0.  1.
         -1   -1    0    0    0  501 -0.00000000000E+00 -0.00000000000E+00 -0.46124231207E+02  0.46124231207E+02  0.00000000000E+00 0.  1.
         35    2    1    2    0    0  0.00000000000E+00  0.00000000000E+00  0.36440381464E+03  0.45665227705E+03  0.27521112262E+03 0.  0.
         25    1    3    3    0    0  0.13573361283E+02 -0.20604425472E+02  0.28617551447E+03  0.31129600635E+03  0.12000000000E+03 0.  0.
         25    1    3    3    0    0 -0.13573361283E+02  0.20604425472E+02  0.78228300164E+02  0.14535627070E+03  0.12000000000E+03 0.  0.
<mgrwt>
<rscale>  0 0.27521112E+03</rscale>
<asrwt>0</asrwt>
<pdfrwt beam="1">  1        1 0.63158159E-01 0.27521112E+03</pdfrwt>
<pdfrwt beam="2">  1       -1 0.70960358E-02 0.27521112E+03</pdfrwt>
<totfact> 0.60277778E+03</totfact>
</mgrwt>
</event>
<event>
 5    1  0.1125356E+001  0.2755647E+03  0.7818608E-02  0.1098136E+00
          2   -1    0    0  501    0  0.00000000000E+00  0.00000000000E+00  0.20255679222E+04  0.20255679222E+04  0.00000000000E+00 0. -1.
         -2   -1    0    0    0  501 -0.00000000000E+00 -0.00000000000E+00 -0.93721774559E+01  0.93721774559E+01  0.00000000000E+00 0. -1.
         35    2    1    2    0    0  0.00000000000E+00  0.00000000000E+00  0.20161957448E+04  0.20349400997E+04  0.27556474387E+03 0.  0.
         25    1    3    3    0    0 -0.17539819820E+02 -0.65166537642E+02  0.10483146274E+04  0.10573163580E+04  0.12000000000E+03 0.  0.
         25    1    3    3    0    0  0.17539819820E+02  0.65166537642E+02  0.96788111743E+03  0.97762374172E+03  0.12000000000E+03 0.  0.
<mgrwt>
<rscale>  0 0.27556474E+03</rscale>
<asrwt>0</asrwt>
<pdfrwt beam="1">  1        2 0.31162549E+00 0.27556474E+03</pdfrwt>
<pdfrwt beam="2">  1       -2 0.14418751E-02 0.27556474E+03</pdfrwt>
<totfact> 0.90039898E+03</totfact>
</mgrwt>
</event>
<event>
 5    1  0.1125356E+001  0.2750363E+03  0.7818608E-02  0.1098431E+00
          2   -1    0    0  501    0  0.00000000000E+00  0.00000000000E+00  0.13557718917E+04  0.13557718917E+04  0.00000000000E+00 0.  1.
         -2   -1    0    0    0  501 -0.00000000000E+00 -0.00000000000E+00 -0.13948691744E+02  0.13948691744E+02  0.00000000000E+00 0.  1.
         35    2    1    2    0    0  0.00000000000E+00  0.00000000000E+00  0.13418231999E+04  0.13697205834E+04  0.27503631900E+03 0.  0.
         25    1    3    3    0    0  0.33814143435E+02 -0.29730849338E+02  0.91911694530E+03  0.92801038724E+03  0.12000000000E+03 0.  0.
         25    1    3    3    0    0 -0.33814143435E+02  0.29730849338E+02  0.42270625463E+03  0.44171019618E+03  0.12000000000E+03 0.  0.
<mgrwt>
<rscale>  0 0.27503632E+03</rscale>
<asrwt>0</asrwt>
<pdfrwt beam="1">  1        2 0.20858019E+00 0.27503632E+03</pdfrwt>
<pdfrwt beam="2">  1       -2 0.21459536E-02 0.27503632E+03</pdfrwt>
<totfact> 0.11380124E+04</totfact>
</mgrwt>
</event>
<event>
 5    1  0.1125356E+001  0.2712868E+03  0.7818608E-02  0.1100545E+00
         -1   -1    0    0    0  501 -0.00000000000E+00  0.00000000000E+00  0.78691815225E+02  0.78691815225E+02  0.00000000000E+00 0. -1.
          1   -1    0    0  501    0  0.00000000000E+00 -0.00000000000E+00 -0.23381259207E+03  0.23381259207E+03  0.00000000000E+00 0. -1.
         35    2    1    2    0    0  0.00000000000E+00  0.00000000000E+00 -0.15512077684E+03  0.31250440729E+03  0.27128683929E+03 0.  0.
         25    1    3    3    0    0  0.75311055146E+01  0.17163169596E+02 -0.14713417332E+03  0.19078720318E+03  0.12000000000E+03 0.  0.
         25    1    3    3    0    0 -0.75311055146E+01 -0.17163169596E+02 -0.79866035289E+01  0.12171720411E+03  0.12000000000E+03 0.  0.
<mgrwt>
<rscale>  0 0.27128684E+03</rscale>
<asrwt>0</asrwt>
<pdfrwt beam="1">  1        1 0.35971167E-01 0.27128684E+03</pdfrwt>
<pdfrwt beam="2">  1       -1 0.12106433E-01 0.27128684E+03</pdfrwt>
<totfact> 0.53900740E+03</totfact>
</mgrwt>
</event>
<event>
 5    1  0.1125356E+001  0.2642728E+03  0.7818608E-02  0.1104603E+00
          1   -1    0    0  501    0  0.00000000000E+00  0.00000000000E+00  0.64239464152E+02  0.64239464152E+02  0.00000000000E+00 0.  1.
         -1   -1    0    0    0  501 -0.00000000000E+00 -0.00000000000E+00 -0.27179595293E+03  0.27179595293E+03  0.00000000000E+00 0.  1.
         35    2    1    2    0    0  0.00000000000E+00  0.00000000000E+00 -0.20755648877E+03  0.33603541708E+03  0.26427278615E+03 0.  0.
         25    1    3    3    0    0 -0.39359898404E+02  0.20127154819E+02 -0.14606025840E+03  0.19413372465E+03  0.12000000000E+03 0.  0.
         25    1    3    3    0    0  0.39359898404E+02 -0.20127154819E+02 -0.61496230378E+02  0.14190169243E+03  0.12000000000E+03 0.  0.
<mgrwt>
<rscale>  0 0.26427279E+03</rscale>
<asrwt>0</asrwt>
<pdfrwt beam="1">  1        1 0.98829946E-02 0.26427279E+03</pdfrwt>
<pdfrwt beam="2">  1       -1 0.41814761E-01 0.26427279E+03</pdfrwt>
<totfact> 0.36923977E+03</totfact>
</mgrwt>
</event>
<event>
 5    1  0.1125356E+001  0.2730764E+03  0.7818608E-02  0.1099532E+00
          1   -1    0    0  501    0  0.00000000000E+00  0.00000000000E+00  0.51663670643E+03  0.51663670643E+03  0.00000000000E+00 0.  1.
         -1   -1    0    0    0  501 -0.00000000000E+00 -0.00000000000E+00 -0.36084704102E+02  0.36084704102E+02  0.00000000000E+00 0.  1.
         35    2    1    2    0    0  0.00000000000E+00  0.00000000000E+00  0.48055200233E+03  0.55272141053E+03  0.27307641919E+03 0.  0.
         25    1    3    3    0    0  0.26011899328E+02 -0.54044113251E+02  0.29169245404E+03  0.32106365853E+03  0.12000000000E+03 0.  0.
         25    1    3    3    0    0 -0.26011899328E+02  0.54044113251E+02  0.18885954829E+03  0.23165775200E+03  0.12000000000E+03 0.  0.
<mgrwt>
<rscale>  0 0.27307642E+03</rscale>
<asrwt>0</asrwt>
<pdfrwt beam="1">  1        1 0.79482565E-01 0.27307642E+03</pdfrwt>
<pdfrwt beam="2">  1       -1 0.55514933E-02 0.27307642E+03</pdfrwt>
<totfact> 0.64622165E+03</totfact>
</mgrwt>
</event>
<event>
 5    1  0.1125356E+001  0.2733588E+03  0.7818608E-02  0.1099373E+00
         -2   -1    0    0    0  501 -0.00000000000E+00  0.00000000000E+00  0.93793338056E+01  0.93793338056E+01  0.00000000000E+00 0. -1.
          2   -1    0    0  501    0  0.00000000000E+00 -0.00000000000E+00 -0.19917472986E+04  0.19917472986E+04  0.00000000000E+00 0. -1.
         35    2    1    2    0    0  0.00000000000E+00  0.00000000000E+00 -0.19823679648E+04  0.20011266324E+04  0.27335883209E+03 0.  0.
         25    1    3    3    0    0  0.52543305564E+02  0.19798505715E+02 -0.12371012183E+04  0.12441753108E+04  0.12000000000E+03 0.  0.
         25    1    3    3    0    0 -0.52543305564E+02 -0.19798505715E+02 -0.74526674653E+03  0.75695132160E+03  0.12000000000E+03 0.  0.
<mgrwt>
<rscale>  0 0.27335883E+03</rscale>
<asrwt>0</asrwt>
<pdfrwt beam="1">  1        2 0.30642235E+00 0.27335883E+03</pdfrwt>
<pdfrwt beam="2">  1       -2 0.14429759E-02 0.27335883E+03</pdfrwt>
<totfact> 0.93695033E+03</totfact>
</mgrwt>
</event>
<event>
 5    1  0.1125356E+001  0.2744495E+03  0.7818608E-02  0.1098760E+00
          3   -1    0    0  501    0  0.00000000000E+00  0.00000000000E+00  0.11988987811E+04  0.11988987811E+04  0.00000000000E+00 0. -1.
         -3   -1    0    0    0  501 -0.00000000000E+00 -0.00000000000E+00 -0.15706604899E+02  0.15706604899E+02  0.00000000000E+00 0. -1.
         35    2    1    2    0    0  0.00000000000E+00  0.00000000000E+00  0.11831921762E+04  0.12146053860E+04  0.27444948147E+03 0.  0.
         25    1    3    3    0    0 -0.11556201207E+02  0.15780991397E+02  0.31002024065E+03  0.33300921172E+03  0.12000000000E+03 0.  0.
         25    1    3    3    0    0  0.11556201207E+02 -0.15780991397E+02  0.87317193559E+03  0.88159617432E+03  0.12000000000E+03 0.  0.
<mgrwt>
<rscale>  0 0.27444948E+03</rscale>
<asrwt>0</asrwt>
<pdfrwt beam="1">  1        3 0.18444589E+00 0.27444948E+03</pdfrwt>
<pdfrwt beam="2">  1       -3 0.24164017E-02 0.27444948E+03</pdfrwt>
<totfact> 0.36160377E+02</totfact>
</mgrwt>
</event>
<event>
 5    1  0.1125356E+001  0.2748533E+03  0.7818608E-02  0.1098534E+00
          3   -1    0    0  501    0  0.00000000000E+00  0.00000000000E+00  0.80106654955E+02  0.80106654955E+02  0.00000000000E+00 0.  1.
         -3   -1    0    0    0  501 -0.00000000000E+00 -0.00000000000E+00 -0.23576169927E+03  0.23576169927E+03  0.00000000000E+00 0.  1.
         35    2    1    2    0    0  0.00000000000E+00  0.00000000000E+00 -0.15565504431E+03  0.31586835422E+03  0.27485327791E+03 0.  0.
         25    1    3    3    0    0 -0.20561017180E+02 -0.28353646711E+02 -0.14343808851E+03  0.19026605043E+03  0.12000000000E+03 0.  0.
         25    1    3    3    0    0  0.20561017180E+02  0.28353646711E+02 -0.12216955799E+02  0.12560230379E+03  0.12000000000E+03 0.  0.
<mgrwt>
<rscale>  0 0.27485328E+03</rscale>
<asrwt>0</asrwt>
<pdfrwt beam="1">  1        3 0.12324101E-01 0.27485328E+03</pdfrwt>
<pdfrwt beam="2">  1       -3 0.36271030E-01 0.27485328E+03</pdfrwt>
<totfact> 0.99047295E+02</totfact>
</mgrwt>
</event>
<event>
 5    1  0.1125356E+001  0.2754689E+03  0.7818608E-02  0.1098190E+00
         -1   -1    0    0    0  501 -0.00000000000E+00  0.00000000000E+00  0.13595433210E+03  0.13595433210E+03  0.00000000000E+00 0. -1.
          1   -1    0    0  501    0  0.00000000000E+00 -0.00000000000E+00 -0.13953783550E+03  0.13953783550E+03  0.00000000000E+00 0. -1.
         35    2    1    2    0    0  0.00000000000E+00  0.00000000000E+00 -0.35835033961E+01  0.27549216760E+03  0.27546886015E+03 0.  0.
         25    1    3    3    0    0  0.85480097797E+01 -0.57353046148E+02 -0.36555775303E+02  0.13819828176E+03  0.12000000000E+03 0.  0.
         25    1    3    3    0    0 -0.85480097797E+01  0.57353046148E+02  0.32972271907E+02  0.13729388584E+03  0.12000000000E+03 0.  0.
<mgrwt>
<rscale>  0 0.27546886E+03</rscale>
<asrwt>0</asrwt>
<pdfrwt beam="1">  1        1 0.21467359E-01 0.27546886E+03</pdfrwt>
<pdfrwt beam="2">  1       -1 0.20916051E-01 0.27546886E+03</pdfrwt>
<totfact> 0.43360427E+03</totfact>
</mgrwt>
</event>
<event>
 5    1  0.1125356E+001  0.2752071E+03  0.7818608E-02  0.1098336E+00
          2   -1    0    0  501    0  0.00000000000E+00  0.00000000000E+00  0.19597277469E+04  0.19597277469E+04  0.00000000000E+00 0. -1.
         -2   -1    0    0    0  501 -0.00000000000E+00 -0.00000000000E+00 -0.96619210408E+01  0.96619210408E+01  0.00000000000E+00 0. -1.
         35    2    1    2    0    0  0.00000000000E+00  0.00000000000E+00  0.19500658259E+04  0.19693896680E+04  0.27520708387E+03 0.  0.
         25    1    3    3    0    0  0.45892767219E+02 -0.36212760583E+02  0.12142225167E+04  0.12215374862E+04  0.12000000000E+03 0.  0.
         25    1    3    3    0    0 -0.45892767219E+02  0.36212760583E+02  0.73584330918E+03  0.74785218177E+03  0.12000000000E+03 0.  0.
<mgrwt>
<rscale>  0 0.27520708E+03</rscale>
<asrwt>0</asrwt>
<pdfrwt beam="1">  1        2 0.30149626E+00 0.27520708E+03</pdfrwt>
<pdfrwt beam="2">  1       -2 0.14864509E-02 0.27520708E+03</pdfrwt>
<totfact> 0.93267235E+03</totfact>
</mgrwt>
</event>
<event>
 5    1  0.1125356E+001  0.2744986E+03  0.7818608E-02  0.1098732E+00
          2   -1    0    0  501    0  0.00000000000E+00  0.00000000000E+00  0.19121162891E+03  0.19121162891E+03  0.00000000000E+00 0. -1.
         -2   -1    0    0    0  501 -0.00000000000E+00 -0.00000000000E+00 -0.98515796158E+02  0.98515796158E+02  0.00000000000E+00 0. -1.
         35    2    1    2    0    0  0.00000000000E+00  0.00000000000E+00  0.92695832751E+02  0.28972742507E+03  0.27449856726E+03 0.  0.
         25    1    3    3    0    0 -0.35565522078E+02  0.54068454088E+02  0.29690675791E+02  0.13953436966E+03  0.12000000000E+03 0.  0.
         25    1    3    3    0    0  0.35565522078E+02 -0.54068454088E+02  0.63005156960E+02  0.15019305540E+03  0.12000000000E+03 0.  0.
<mgrwt>
<rscale>  0 0.27449857E+03</rscale>
<asrwt>0</asrwt>
<pdfrwt beam="1">  1        2 0.29417174E-01 0.27449857E+03</pdfrwt>
<pdfrwt beam="2">  1       -2 0.15156276E-01 0.27449857E+03</pdfrwt>
<totfact> 0.59848372E+03</totfact>
</mgrwt>
</event>
<event>
 5    1  0.1125356E+001  0.2751730E+03  0.7818608E-02  0.1098355E+00
         -2   -1    0    0    0  501 -0.00000000000E+00  0.00000000000E+00  0.71689940849E+01  0.71689940849E+01  0.00000000000E+00 0.  1.
          2   -1    0    0  501    0  0.00000000000E+00 -0.00000000000E+00 -0.26405444295E+04  0.26405444295E+04  0.00000000000E+00 0.  1.
         35    2    1    2    0    0  0.00000000000E+00  0.00000000000E+00 -0.26333754354E+04  0.26477134236E+04  0.27517301754E+03 0.  0.
         25    1    3    3    0    0  0.45270797369E+02 -0.24836382876E+01 -0.83805425923E+03  0.84781516557E+03  0.12000000000E+03 0.  0.
         25    1    3    3    0    0 -0.45270797369E+02  0.24836382876E+01 -0.17953211762E+04  0.17998982580E+04  0.12000000000E+03 0.  0.
<mgrwt>
<rscale>  0 0.27517302E+03</rscale>
<asrwt>0</asrwt>
<pdfrwt beam="1">  1        2 0.40623733E+00 0.27517302E+03</pdfrwt>
<pdfrwt beam="2">  1       -2 0.11029229E-02 0.27517302E+03</pdfrwt>
<totfact> 0.61991787E+03</totfact>
</mgrwt>
</event>
<event>
 5    1  0.1125356E+001  0.2826040E+03  0.7818608E-02  0.1094275E+00
          1   -1    0    0  501    0  0.00000000000E+00  0.00000000000E+00  0.81614162784E+03  0.81614162784E+03  0.00000000000E+00 0.  1.
         -1   -1    0    0    0  501 -0.00000000000E+00 -0.00000000000E+00 -0.24464199126E+02  0.24464199126E+02  0.00000000000E+00 0.  1.
         35    2    1    2    0    0  0.00000000000E+00  0.00000000000E+00  0.79167742872E+03  0.84060582697E+03  0.28260397236E+03 0.  0.
         25    1    3    3    0    0  0.50937801883E+02 -0.39233899920E+02  0.28326680597E+03  0.31428337839E+03  0.12000000000E+03 0.  0.
         25    1    3    3    0    0 -0.50937801883E+02  0.39233899920E+02  0.50841062275E+03  0.52632244859E+03  0.12000000000E+03 0.  0.
<mgrwt>
<rscale>  0 0.28260397E+03</rscale>
<asrwt>0</asrwt>
<pdfrwt beam="1">  1        1 0.12556023E+00 0.28260397E+03</pdfrwt>
<pdfrwt beam="2">  1       -1 0.37637236E-02 0.28260397E+03</pdfrwt>
<totfact> 0.60099979E+03</totfact>
</mgrwt>
</event>
<event>
 5    1  0.1125356E+001  0.2829399E+03  0.7818608E-02  0.1094094E+00
         -3   -1    0    0    0  501 -0.00000000000E+00  0.00000000000E+00  0.89532041718E+02  0.89532041718E+02  0.00000000000E+00 0. -1.
          3   -1    0    0  501    0  0.00000000000E+00 -0.00000000000E+00 -0.22353717969E+03  0.22353717969E+03  0.00000000000E+00 0. -1.
         35    2    1    2    0    0  0.00000000000E+00  0.00000000000E+00 -0.13400513797E+03  0.31306922141E+03  0.28293985296E+03 0.  0.
         25    1    3    3    0    0  0.45198747730E+01 -0.49452438372E+02 -0.12908197464E+03  0.18310687892E+03  0.12000000000E+03 0.  0.
         25    1    3    3    0    0 -0.45198747730E+01  0.49452438372E+02 -0.49231633298E+01  0.12996234249E+03  0.12000000000E+03 0.  0.
<mgrwt>
<rscale>  0 0.28293985E+03</rscale>
<asrwt>0</asrwt>
<pdfrwt beam="1">  1        3 0.34390335E-01 0.28293985E+03</pdfrwt>
<pdfrwt beam="2">  1       -3 0.13774160E-01 0.28293985E+03</pdfrwt>
<totfact> 0.90998876E+02</totfact>
</mgrwt>
</event>
<event>
 5    1  0.1125356E+001  0.2743245E+03  0.7818608E-02  0.1098830E+00
          2   -1    0    0  501    0  0.00000000000E+00  0.00000000000E+00  0.10252984115E+04  0.10252984115E+04  0.00000000000E+00 0.  1.
         -2   -1    0    0    0  501 -0.00000000000E+00 -0.00000000000E+00 -0.18349271208E+02  0.18349271208E+02  0.00000000000E+00 0.  1.
         35    2    1    2    0    0  0.00000000000E+00  0.00000000000E+00  0.10069491403E+04  0.10436476828E+04  0.27432446936E+03 0.  0.
         25    1    3    3    0    0 -0.21101125401E+02 -0.61421121631E+02  0.45025785057E+03  0.47047841999E+03  0.12000000000E+03 0.  0.
         25    1    3    3    0    0  0.21101125401E+02  0.61421121631E+02  0.55669128977E+03  0.57316926277E+03  0.12000000000E+03 0.  0.
<mgrwt>
<rscale>  0 0.27432447E+03</rscale>
<asrwt>0</asrwt>
<pdfrwt beam="1">  1        2 0.15773817E+00 0.27432447E+03</pdfrwt>
<pdfrwt beam="2">  1       -2 0.28229656E-02 0.27432447E+03</pdfrwt>
<totfact> 0.11721604E+04</totfact>
</mgrwt>
</event>
<event>
 5    1  0.1125356E+001  0.2756740E+03  0.7818608E-02  0.1098075E+00
          3   -1    0    0  501    0  0.00000000000E+00  0.00000000000E+00  0.56604829047E+02  0.56604829047E+02  0.00000000000E+00 0. -1.
         -3   -1    0    0    0  501 -0.00000000000E+00 -0.00000000000E+00 -0.33564339136E+03  0.33564339136E+03  0.00000000000E+00 0. -1.
         35    2    1    2    0    0  0.00000000000E+00  0.00000000000E+00 -0.27903856231E+03  0.39224822041E+03  0.27567398708E+03 0.  0.
         25    1    3    3    0    0  0.15868168962E+02  0.51555933656E+02 -0.81039090700E+02  0.15452231976E+03  0.12000000000E+03 0.  0.
         25    1    3    3    0    0 -0.15868168962E+02 -0.51555933656E+02 -0.19799947161E+03  0.23772590065E+03  0.12000000000E+03 0.  0.
<mgrwt>
<rscale>  0 0.27567399E+03</rscale>
<asrwt>0</asrwt>
<pdfrwt beam="1">  1        3 0.87084353E-02 0.27567399E+03</pdfrwt>
<pdfrwt beam="2">  1       -3 0.51637444E-01 0.27567399E+03</pdfrwt>
<totfact> 0.88322348E+02</totfact>
</mgrwt>
</event>
<event>
 5    1  0.1125356E+001  0.2746711E+03  0.7818608E-02  0.1098636E+00
         -3   -1    0    0    0  501 -0.00000000000E+00  0.00000000000E+00  0.41685801418E+03  0.41685801418E+03  0.00000000000E+00 0. -1.
          3   -1    0    0  501    0  0.00000000000E+00 -0.00000000000E+00 -0.45245756533E+02  0.45245756533E+02  0.00000000000E+00 0. -1.
         35    2    1    2    0    0  0.00000000000E+00  0.00000000000E+00  0.37161225765E+03  0.46210377071E+03  0.27467112130E+03 0.  0.
         25    1    3    3    0    0  0.46003734217E+02 -0.43748828082E+02  0.15088884002E+03  0.20297227782E+03  0.12000000000E+03 0.  0.
         25    1    3    3    0    0 -0.46003734217E+02  0.43748828082E+02  0.22072341763E+03  0.25913149289E+03  0.12000000000E+03 0.  0.
<mgrwt>
<rscale>  0 0.27467112E+03</rscale>
<asrwt>0</asrwt>
<pdfrwt beam="1">  1        3 0.69608859E-02 0.27467112E+03</pdfrwt>
<pdfrwt beam="2">  1       -3 0.64132000E-01 0.27467112E+03</pdfrwt>
<totfact> 0.81466135E+02</totfact>
</mgrwt>
</event>
<event>
 5    1  0.1125356E+001  0.2761134E+03  0.7818608E-02  0.1097831E+00
         -2   -1    0    0    0  501 -0.00000000000E+00  0.00000000000E+00  0.69036747186E+01  0.69036747186E+01  0.00000000000E+00 0.  1.
          2   -1    0    0  501    0  0.00000000000E+00 -0.00000000000E+00 -0.27607987077E+04  0.27607987077E+04  0.00000000000E+00 0.  1.
         35    2    1    2    0    0  0.00000000000E+00  0.00000000000E+00 -0.27538950330E+04  0.27677023825E+04  0.27611342772E+03 0.  0.
         25    1    3    3    0    0 -0.47210772272E+02 -0.49292275990E+02 -0.13873198416E+04  0.13941717715E+04  0.12000000000E+03 0.  0.
         25    1    3    3    0    0  0.47210772272E+02  0.49292275990E+02 -0.13665751914E+04  0.13735306110E+04  0.12000000000E+03 0.  0.
<mgrwt>
<rscale>  0 0.27611343E+03</rscale>
<asrwt>0</asrwt>
<pdfrwt beam="1">  1        2 0.42473806E+00 0.27611343E+03</pdfrwt>
<pdfrwt beam="2">  1       -2 0.10621043E-02 0.27611343E+03</pdfrwt>
<totfact> 0.56025195E+03</totfact>
</mgrwt>
</event>
<event>
 5    1  0.1125356E+001  0.2790882E+03  0.7818608E-02  0.1096188E+00
          2   -1    0    0  501    0  0.00000000000E+00  0.00000000000E+00  0.85571596686E+02  0.85571596686E+02  0.00000000000E+00 0. -1.
         -2   -1    0    0    0  501 -0.00000000000E+00 -0.00000000000E+00 -0.22755863379E+03  0.22755863379E+03  0.00000000000E+00 0. -1.
         35    2    1    2    0    0  0.00000000000E+00  0.00000000000E+00 -0.14198703710E+03  0.31313023047E+03  0.27908819848E+03 0.  0.
         25    1    3    3    0    0  0.20531022324E+02 -0.55174163122E+02 -0.26018593551E+02  0.13617150350E+03  0.12000000000E+03 0.  0.
         25    1    3    3    0    0 -0.20531022324E+02  0.55174163122E+02 -0.11596844355E+03  0.17695872698E+03  0.12000000000E+03 0.  0.
<mgrwt>
<rscale>  0 0.27908820E+03</rscale>
<asrwt>0</asrwt>
<pdfrwt beam="1">  1        2 0.13164861E-01 0.27908820E+03</pdfrwt>
<pdfrwt beam="2">  1       -2 0.35009020E-01 0.27908820E+03</pdfrwt>
<totfact> 0.34881964E+03</totfact>
</mgrwt>
</event>
<event>
 5    1  0.1125356E+001  0.2719038E+03  0.7818608E-02  0.1100195E+00
          2   -1    0    0  501    0  0.00000000000E+00  0.00000000000E+00  0.20083047438E+03  0.20083047438E+03  0.00000000000E+00 0.  1.
         -2   -1    0    0    0  501 -0.00000000000E+00 -0.00000000000E+00 -0.92032414712E+02  0.92032414712E+02  0.00000000000E+00 0.  1.
         35    2    1    2    0    0  0.00000000000E+00  0.00000000000E+00  0.10879805967E+03  0.29286288909E+03  0.27190375875E+03 0.  0.
         25    1    3    3    0    0 -0.30456158517E+02  0.43355765798E+02  0.92867833642E+02  0.16072253901E+03  0.12000000000E+03 0.  0.
         25    1    3    3    0    0  0.30456158517E+02 -0.43355765798E+02  0.15930226028E+02  0.13214035009E+03  0.12000000000E+03 0.  0.
<mgrwt>
<rscale>  0 0.27190376E+03</rscale>
<asrwt>0</asrwt>
<pdfrwt beam="1">  1        2 0.30896996E-01 0.27190376E+03</pdfrwt>
<pdfrwt beam="2">  1       -2 0.14158833E-01 0.27190376E+03</pdfrwt>
<totfact> 0.63421166E+03</totfact>
</mgrwt>
</event>
<event>
 5    1  0.1125356E+001  0.2787725E+03  0.7818608E-02  0.1096361E+00
         -1   -1    0    0    0  501 -0.00000000000E+00  0.00000000000E+00  0.20945348240E+02  0.20945348240E+02  0.00000000000E+00 0. -1.
          1   -1    0    0  501    0  0.00000000000E+00 -0.00000000000E+00 -0.92758196860E+03  0.92758196860E+03  0.00000000000E+00 0. -1.
         35    2    1    2    0    0  0.00000000000E+00  0.00000000000E+00 -0.90663662036E+03  0.94852731684E+03  0.27877250476E+03 0.  0.
         25    1    3    3    0    0  0.68608949782E+02 -0.95976197953E+01 -0.50483298353E+03  0.52350324121E+03  0.12000000000E+03 0.  0.
         25    1    3    3    0    0 -0.68608949782E+02  0.95976197953E+01 -0.40180363683E+03  0.42502407563E+03  0.12000000000E+03 0.  0.
<mgrwt>
<rscale>  0 0.27877250E+03</rscale>
<asrwt>0</asrwt>
<pdfrwt beam="1">  1        1 0.14270493E+00 0.27877250E+03</pdfrwt>
<pdfrwt beam="2">  1       -1 0.32223610E-02 0.27877250E+03</pdfrwt>
<totfact> 0.61602552E+03</totfact>
</mgrwt>
</event>
<event>
 5    1  0.1125356E+001  0.2768205E+03  0.7818608E-02  0.1097438E+00
          1   -1    0    0  501    0  0.00000000000E+00  0.00000000000E+00  0.27710921682E+02  0.27710921682E+02  0.00000000000E+00 0.  1.
         -1   -1    0    0    0  501 -0.00000000000E+00 -0.00000000000E+00 -0.69133024537E+03  0.69133024537E+03  0.00000000000E+00 0.  1.
         35    2    1    2    0    0  0.00000000000E+00  0.00000000000E+00 -0.66361932369E+03  0.71904116705E+03  0.27682050709E+03 0.  0.
         25    1    3    3    0    0 -0.52058032408E+02  0.45920053877E+01 -0.21488544272E+03  0.25160858241E+03  0.12000000000E+03 0.  0.
         25    1    3    3    0    0  0.52058032408E+02 -0.45920053877E+01 -0.44873388097E+03  0.46743258464E+03  0.12000000000E+03 0.  0.
<mgrwt>
<rscale>  0 0.27682051E+03</rscale>
<asrwt>0</asrwt>
<pdfrwt beam="1">  1        1 0.42632189E-02 0.27682051E+03</pdfrwt>
<pdfrwt beam="2">  1       -1 0.10635849E+00 0.27682051E+03</pdfrwt>
<totfact> 0.18218339E+03</totfact>
</mgrwt>
</event>
<event>
 5    1  0.1125356E+001  0.2752526E+03  0.7818608E-02  0.1098310E+00
         -3   -1    0    0    0  501 -0.00000000000E+00  0.00000000000E+00  0.40782450460E+03  0.40782450460E+03  0.00000000000E+00 0. -1.
          3   -1    0    0  501    0  0.00000000000E+00 -0.00000000000E+00 -0.46444009082E+02  0.46444009082E+02  0.00000000000E+00 0. -1.
         35    2    1    2    0    0  0.00000000000E+00  0.00000000000E+00  0.36138049552E+03  0.45426851368E+03  0.27525264755E+03 0.  0.
         25    1    3    3    0    0 -0.58432660190E+02 -0.33328033400E+02  0.17411535215E+03  0.22190378420E+03  0.12000000000E+03 0.  0.
         25    1    3    3    0    0  0.58432660190E+02  0.33328033400E+02  0.18726514337E+03  0.23236472949E+03  0.12000000000E+03 0.  0.
<mgrwt>
<rscale>  0 0.27525265E+03</rscale>
<asrwt>0</asrwt>
<pdfrwt beam="1">  1        3 0.71452324E-02 0.27525265E+03</pdfrwt>
<pdfrwt beam="2">  1       -3 0.62742229E-01 0.27525265E+03</pdfrwt>
<totfact> 0.81766564E+02</totfact>
</mgrwt>
</event>
<event>
 5    1  0.1125356E+001  0.2752541E+03  0.7818608E-02  0.1098310E+00
         -2   -1    0    0    0  501 -0.00000000000E+00  0.00000000000E+00  0.82066976642E+02  0.82066976642E+02  0.00000000000E+00 0. -1.
          2   -1    0    0  501    0  0.00000000000E+00 -0.00000000000E+00 -0.23080171133E+03  0.23080171133E+03  0.00000000000E+00 0. -1.
         35    2    1    2    0    0  0.00000000000E+00  0.00000000000E+00 -0.14873473469E+03  0.31286868798E+03  0.27525405467E+03 0.  0.
         25    1    3    3    0    0 -0.19529305437E+02  0.53045436307E+02 -0.32666149439E+02  0.13660999013E+03  0.12000000000E+03 0.  0.
         25    1    3    3    0    0  0.19529305437E+02 -0.53045436307E+02 -0.11606858525E+03  0.17625869785E+03  0.12000000000E+03 0.  0.
<mgrwt>
<rscale>  0 0.27525405E+03</rscale>
<asrwt>0</asrwt>
<pdfrwt beam="1">  1        2 0.35507955E-01 0.27525405E+03</pdfrwt>
<pdfrwt beam="2">  1       -2 0.12625689E-01 0.27525405E+03</pdfrwt>
<totfact> 0.65743143E+03</totfact>
</mgrwt>
</event>
<event>
 5    1  0.1125356E+001  0.2752771E+03  0.7818608E-02  0.1098297E+00
          1   -1    0    0  501    0  0.00000000000E+00  0.00000000000E+00  0.79955034986E+02  0.79955034986E+02  0.00000000000E+00 0.  1.
         -1   -1    0    0    0  501 -0.00000000000E+00 -0.00000000000E+00 -0.23693781779E+03  0.23693781779E+03  0.00000000000E+00 0.  1.
         35    2    1    2    0    0  0.00000000000E+00  0.00000000000E+00 -0.15698278280E+03  0.31689285277E+03  0.27527710773E+03 0.  0.
         25    1    3    3    0    0 -0.97238371295E+01 -0.61878997143E+02 -0.49808622415E+02  0.14423751996E+03  0.12000000000E+03 0.  0.
         25    1    3    3    0    0  0.97238371295E+01  0.61878997143E+02 -0.10717416039E+03  0.17265533282E+03  0.12000000000E+03 0.  0.
<mgrwt>
<rscale>  0 0.27527711E+03</rscale>
<asrwt>0</asrwt>
<pdfrwt beam="1">  1        1 0.12300775E-01 0.27527711E+03</pdfrwt>
<pdfrwt beam="2">  1       -1 0.36451972E-01 0.27527711E+03</pdfrwt>
<totfact> 0.35171929E+03</totfact>
</mgrwt>
</event>
<event>
 5    1  0.1125356E+001  0.2746425E+03  0.7818608E-02  0.1098652E+00
          1   -1    0    0  501    0  0.00000000000E+00  0.00000000000E+00  0.17949055365E+04  0.17949055365E+04  0.00000000000E+00 0.  1.
         -1   -1    0    0    0  501 -0.00000000000E+00 -0.00000000000E+00 -0.10505913342E+02  0.10505913342E+02  0.00000000000E+00 0.  1.
         35    2    1    2    0    0  0.00000000000E+00  0.00000000000E+00  0.17843996231E+04  0.18054114498E+04  0.27464247322E+03 0.  0.
         25    1    3    3    0    0 -0.39956737777E+02 -0.50654492006E+02  0.10050497143E+04  0.10142422525E+04  0.12000000000E+03 0.  0.
         25    1    3    3    0    0  0.39956737777E+02  0.50654492006E+02  0.77934990881E+03  0.79116919734E+03  0.12000000000E+03 0.  0.
<mgrwt>
<rscale>  0 0.27464247E+03</rscale>
<asrwt>0</asrwt>
<pdfrwt beam="1">  1        1 0.27613907E+00 0.27464247E+03</pdfrwt>
<pdfrwt beam="2">  1       -1 0.16162958E-02 0.27464247E+03</pdfrwt>
<totfact> 0.42920233E+03</totfact>
</mgrwt>
</event>
<event>
 5    1  0.1125356E+001  0.2754171E+03  0.7818608E-02  0.1098219E+00
          2   -1    0    0  501    0  0.00000000000E+00  0.00000000000E+00  0.11584664788E+04  0.11584664788E+04  0.00000000000E+00 0.  1.
         -2   -1    0    0    0  501 -0.00000000000E+00 -0.00000000000E+00 -0.16369614157E+02  0.16369614157E+02  0.00000000000E+00 0.  1.
         35    2    1    2    0    0  0.00000000000E+00  0.00000000000E+00  0.11420968646E+04  0.11748360929E+04  0.27541713288E+03 0.  0.
         25    1    3    3    0    0  0.31206141084E+02  0.24171225708E+02  0.80490540326E+03  0.81475811109E+03  0.12000000000E+03 0.  0.
         25    1    3    3    0    0 -0.31206141084E+02 -0.24171225708E+02  0.33719146137E+03  0.36007798185E+03  0.12000000000E+03 0.  0.
<mgrwt>
<rscale>  0 0.27541713E+03</rscale>
<asrwt>0</asrwt>
<pdfrwt beam="1">  1        2 0.17822555E+00 0.27541713E+03</pdfrwt>
<pdfrwt beam="2">  1       -2 0.25184031E-02 0.27541713E+03</pdfrwt>
<totfact> 0.11588600E+04</totfact>
</mgrwt>
</event>
<event>
 4    1  0.1125356E+001  0.2502191E+03  0.7818608E-02  0.1113166E+00
          1   -1    0    0  501    0  0.00000000000E+00  0.00000000000E+00  0.21291791627E+03  0.21291791627E+03  0.00000000000E+00 0.  1.
         -1   -1    0    0    0  501 -0.00000000000E+00 -0.00000000000E+00 -0.73513764307E+02  0.73513764307E+02  0.00000000000E+00 0.  1.
         25    1    1    2    0    0 -0.45060059849E+01 -0.14828832247E+02  0.33282607201E+02  0.12549075782E+03  0.12000000000E+03 0.  0.
         25    1    1    2    0    0  0.45060059849E+01  0.14828832247E+02  0.10612154476E+03  0.16094092276E+03  0.12000000000E+03 0.  0.
<mgrwt>
<rscale>  0 0.25021908E+03</rscale>
<asrwt>0</asrwt>
<pdfrwt beam="1">  1        1 0.32756602E-01 0.25021908E+03</pdfrwt>
<pdfrwt beam="2">  1       -1 0.11309810E-01 0.25021908E+03</pdfrwt>
<totfact> 0.67205881E+03</totfact>
</mgrwt>
</event>
<event>
 5    1  0.1125356E+001  0.2769431E+03  0.7818608E-02  0.1097370E+00
         -1   -1    0    0    0  501 -0.00000000000E+00  0.00000000000E+00  0.16242081391E+02  0.16242081391E+02  0.00000000000E+00 0.  1.
          1   -1    0    0  501    0  0.00000000000E+00 -0.00000000000E+00 -0.11805367430E+04  0.11805367430E+04  0.00000000000E+00 0.  1.
         35    2    1    2    0    0  0.00000000000E+00  0.00000000000E+00 -0.11642946616E+04  0.11967788244E+04  0.27694312676E+03 0.  0.
         25    1    3    3    0    0 -0.48793551951E+02  0.50765807269E+01 -0.37186875260E+03  0.39381842458E+03  0.12000000000E+03 0.  0.
         25    1    3    3    0    0  0.48793551951E+02 -0.50765807269E+01 -0.79242590904E+03  0.80296039983E+03  0.12000000000E+03 0.  0.
<mgrwt>
<rscale>  0 0.27694313E+03</rscale>
<asrwt>0</asrwt>
<pdfrwt beam="1">  1        1 0.18162105E+00 0.27694313E+03</pdfrwt>
<pdfrwt beam="2">  1       -1 0.24987816E-02 0.27694313E+03</pdfrwt>
<totfact> 0.58401328E+03</totfact>
</mgrwt>
</event>
<event>
 5    1  0.1125356E+001  0.2764383E+03  0.7818608E-02  0.1097650E+00
          2   -1    0    0  501    0  0.00000000000E+00  0.00000000000E+00  0.14658201858E+04  0.14658201858E+04  0.00000000000E+00 0. -1.
         -2   -1    0    0    0  501 -0.00000000000E+00 -0.00000000000E+00 -0.13033339037E+02  0.13033339037E+02  0.00000000000E+00 0. -1.
         35    2    1    2    0    0  0.00000000000E+00  0.00000000000E+00  0.14527868468E+04  0.14788535249E+04  0.27643828569E+03 0.  0.
         25    1    3    3    0    0  0.19243956955E+02  0.64008984711E+02  0.64402736683E+03  0.65851251258E+03  0.12000000000E+03 0.  0.
         25    1    3    3    0    0 -0.19243956955E+02 -0.64008984711E+02  0.80875947996E+03  0.82034101228E+03  0.12000000000E+03 0.  0.
<mgrwt>
<rscale>  0 0.27643829E+03</rscale>
<asrwt>0</asrwt>
<pdfrwt beam="1">  1        2 0.22551067E+00 0.27643829E+03</pdfrwt>
<pdfrwt beam="2">  1       -2 0.20051302E-02 0.27643829E+03</pdfrwt>
<totfact> 0.10963093E+04</totfact>
</mgrwt>
</event>
<event>
 5    1  0.1125356E+001  0.2788661E+03  0.7818608E-02  0.1096310E+00
          2   -1    0    0  501    0  0.00000000000E+00  0.00000000000E+00  0.30244080506E+02  0.30244080506E+02  0.00000000000E+00 0.  1.
         -2   -1    0    0    0  501 -0.00000000000E+00 -0.00000000000E+00 -0.64282238948E+03  0.64282238948E+03  0.00000000000E+00 0.  1.
         35    2    1    2    0    0  0.00000000000E+00  0.00000000000E+00 -0.61257830898E+03  0.67306646999E+03  0.27886607609E+03 0.  0.
         25    1    3    3    0    0  0.16188042102E+02  0.37537435559E+02 -0.16616697633E+03  0.20900376982E+03  0.12000000000E+03 0.  0.
         25    1    3    3    0    0 -0.16188042102E+02 -0.37537435559E+02 -0.44641133264E+03  0.46406270017E+03  0.12000000000E+03 0.  0.
<mgrwt>
<rscale>  0 0.27886608E+03</rscale>
<asrwt>0</asrwt>
<pdfrwt beam="1">  1        2 0.46529358E-02 0.27886608E+03</pdfrwt>
<pdfrwt beam="2">  1       -2 0.98895745E-01 0.27886608E+03</pdfrwt>
<totfact> 0.15223504E+03</totfact>
</mgrwt>
</event>
<event>
 5    1  0.1125356E+001  0.2750382E+03  0.7818608E-02  0.1098430E+00
         -1   -1    0    0    0  501 -0.00000000000E+00  0.00000000000E+00  0.75813953623E+02  0.75813953623E+02  0.00000000000E+00 0.  1.
          1   -1    0    0  501    0  0.00000000000E+00 -0.00000000000E+00 -0.24944619488E+03  0.24944619488E+03  0.00000000000E+00 0.  1.
         35    2    1    2    0    0  0.00000000000E+00  0.00000000000E+00 -0.17363224125E+03  0.32526014850E+03  0.27503819553E+03 0.  0.
         25    1    3    3    0    0 -0.35645473650E+02  0.33938560682E+02 -0.32763715437E+02  0.13377550875E+03  0.12000000000E+03 0.  0.
         25    1    3    3    0    0  0.35645473650E+02 -0.33938560682E+02 -0.14086852582E+03  0.19148463974E+03  0.12000000000E+03 0.  0.
<mgrwt>
<rscale>  0 0.27503820E+03</rscale>
<asrwt>0</asrwt>
<pdfrwt beam="1">  1        1 0.38376338E-01 0.27503820E+03</pdfrwt>
<pdfrwt beam="2">  1       -1 0.11663685E-01 0.27503820E+03</pdfrwt>
<totfact> 0.52693147E+03</totfact>
</mgrwt>
</event>
<event>
 5    1  0.1125356E+001  0.2763891E+03  0.7818608E-02  0.1097678E+00
         -2   -1    0    0    0  501 -0.00000000000E+00  0.00000000000E+00  0.21494568396E+02  0.21494568396E+02  0.00000000000E+00 0. -1.
          2   -1    0    0  501    0  0.00000000000E+00 -0.00000000000E+00 -0.88849134483E+03  0.88849134483E+03  0.00000000000E+00 0. -1.
         35    2    1    2    0    0  0.00000000000E+00  0.00000000000E+00 -0.86699677643E+03  0.90998591322E+03  0.27638913134E+03 0.  0.
         25    1    3    3    0    0 -0.42423220345E+02 -0.37953086587E+02 -0.55919647098E+03  0.57475286825E+03  0.12000000000E+03 0.  0.
         25    1    3    3    0    0  0.42423220345E+02  0.37953086587E+02 -0.30780030545E+03  0.33523304497E+03  0.12000000000E+03 0.  0.
<mgrwt>
<rscale>  0 0.27638913E+03</rscale>
<asrwt>0</asrwt>
<pdfrwt beam="1">  1        2 0.13669099E+00 0.27638913E+03</pdfrwt>
<pdfrwt beam="2">  1       -2 0.33068565E-02 0.27638913E+03</pdfrwt>
<totfact> 0.11284524E+04</totfact>
</mgrwt>
</event>
<event>
 5    1  0.1125356E+001  0.2747578E+03  0.7818608E-02  0.1098587E+00
          2   -1    0    0  501    0  0.00000000000E+00  0.00000000000E+00  0.72630758268E+03  0.72630758268E+03  0.00000000000E+00 0. -1.
         -2   -1    0    0    0  501 -0.00000000000E+00 -0.00000000000E+00 -0.25984806597E+02  0.25984806597E+02  0.00000000000E+00 0. -1.
         35    2    1    2    0    0  0.00000000000E+00  0.00000000000E+00  0.70032277609E+03  0.75229238928E+03  0.27475779928E+03 0.  0.
         25    1    3    3    0    0 -0.42018735517E+02 -0.35578650396E+02  0.24620501285E+03  0.27937129926E+03  0.12000000000E+03 0.  0.
         25    1    3    3    0    0  0.42018735517E+02  0.35578650396E+02  0.45411776324E+03  0.47292109002E+03  0.12000000000E+03 0.  0.
<mgrwt>
<rscale>  0 0.27475780E+03</rscale>
<asrwt>0</asrwt>
<pdfrwt beam="1">  1        2 0.11173961E+00 0.27475780E+03</pdfrwt>
<pdfrwt beam="2">  1       -2 0.39976631E-02 0.27475780E+03</pdfrwt>
<totfact> 0.10981563E+04</totfact>
</mgrwt>
</event>
<event>
 5    1  0.1125356E+001  0.2762034E+03  0.7818608E-02  0.1097781E+00
         -2   -1    0    0    0  501 -0.00000000000E+00  0.00000000000E+00  0.15368893762E+03  0.15368893762E+03  0.00000000000E+00 0.  1.
          2   -1    0    0  501    0  0.00000000000E+00 -0.00000000000E+00 -0.12409531355E+03  0.12409531355E+03  0.00000000000E+00 0.  1.
         35    2    1    2    0    0  0.00000000000E+00  0.00000000000E+00  0.29593624068E+02  0.27778425117E+03  0.27620338089E+03 0.  0.
         25    1    3    3    0    0 -0.60419412904E+02  0.17149102626E+02  0.41923019395E+02  0.14178200426E+03  0.12000000000E+03 0.  0.
         25    1    3    3    0    0  0.60419412904E+02 -0.17149102626E+02 -0.12329395326E+02  0.13600224691E+03  0.12000000000E+03 0.  0.
<mgrwt>
<rscale>  0 0.27620338E+03</rscale>
<asrwt>0</asrwt>
<pdfrwt beam="1">  1        2 0.19091587E-01 0.27620338E+03</pdfrwt>
<pdfrwt beam="2">  1       -2 0.23644452E-01 0.27620338E+03</pdfrwt>
<totfact> 0.45708137E+03</totfact>
</mgrwt>
</event>
<event>
 5    1  0.1125356E+001  0.2614396E+03  0.7818608E-02  0.1106281E+00
         -1   -1    0    0    0  501 -0.00000000000E+00  0.00000000000E+00  0.11574275387E+02  0.11574275387E+02  0.00000000000E+00 0. -1.
          1   -1    0    0  501    0  0.00000000000E+00 -0.00000000000E+00 -0.14763490330E+04  0.14763490330E+04  0.00000000000E+00 0. -1.
         35    2    1    2    0    0  0.00000000000E+00  0.00000000000E+00 -0.14647747576E+04  0.14879233084E+04  0.26143963184E+03 0.  0.
         25    1    3    3    0    0 -0.17378775792E+02 -0.43426524472E+02 -0.60515404530E+03  0.61870776900E+03  0.12000000000E+03 0.  0.
         25    1    3    3    0    0  0.17378775792E+02  0.43426524472E+02 -0.85962071230E+03  0.86921553937E+03  0.12000000000E+03 0.  0.
<mgrwt>
<rscale>  0 0.26143963E+03</rscale>
<asrwt>0</asrwt>
<pdfrwt beam="1">  1        1 0.22713077E+00 0.26143963E+03</pdfrwt>
<pdfrwt beam="2">  1       -1 0.17806566E-02 0.26143963E+03</pdfrwt>
<totfact> 0.60250235E+03</totfact>
</mgrwt>
</event>
<event>
 5    1  0.1125356E+001  0.2853314E+03  0.7818608E-02  0.1092812E+00
         -2   -1    0    0    0  501 -0.00000000000E+00  0.00000000000E+00  0.95770241452E+02  0.95770241452E+02  0.00000000000E+00 0. -1.
          2   -1    0    0  501    0  0.00000000000E+00 -0.00000000000E+00 -0.21252431808E+03  0.21252431808E+03  0.00000000000E+00 0. -1.
         35    2    1    2    0    0  0.00000000000E+00  0.00000000000E+00 -0.11675407663E+03  0.30829455954E+03  0.28533142314E+03 0.  0.
         25    1    3    3    0    0  0.18297391217E+01 -0.30332165243E+02  0.18254104876E+02  0.12512633831E+03  0.12000000000E+03 0.  0.
         25    1    3    3    0    0 -0.18297391217E+01  0.30332165243E+02 -0.13500818151E+03  0.18316822123E+03  0.12000000000E+03 0.  0.
<mgrwt>
<rscale>  0 0.28533142E+03</rscale>
<asrwt>0</asrwt>
<pdfrwt beam="1">  1        2 0.32696048E-01 0.28533142E+03</pdfrwt>
<pdfrwt beam="2">  1       -2 0.14733884E-01 0.28533142E+03</pdfrwt>
<totfact> 0.55929418E+03</totfact>
</mgrwt>
</event>
<event>
 5    1  0.1125356E+001  0.2752310E+03  0.7818608E-02  0.1098323E+00
         -1   -1    0    0    0  501 -0.00000000000E+00  0.00000000000E+00  0.19565573264E+03  0.19565573264E+03  0.00000000000E+00 0.  1.
          1   -1    0    0  501    0  0.00000000000E+00 -0.00000000000E+00 -0.96792590815E+02  0.96792590815E+02  0.00000000000E+00 0.  1.
         35    2    1    2    0    0  0.00000000000E+00  0.00000000000E+00  0.98863141822E+02  0.29244832345E+03  0.27523099585E+03 0.  0.
         25    1    3    3    0    0  0.28546077807E+02 -0.36908070651E+02 -0.21975065068E+01  0.12877077802E+03  0.12000000000E+03 0.  0.
         25    1    3    3    0    0 -0.28546077807E+02  0.36908070651E+02  0.10106064833E+03  0.16367754543E+03  0.12000000000E+03 0.  0.
<mgrwt>
<rscale>  0 0.27523100E+03</rscale>
<asrwt>0</asrwt>
<pdfrwt beam="1">  1        1 0.14891168E-01 0.27523100E+03</pdfrwt>
<pdfrwt beam="2">  1       -1 0.30100882E-01 0.27523100E+03</pdfrwt>
<totfact> 0.38016700E+03</totfact>
</mgrwt>
</event>
<event>
 5    1  0.1125356E+001  0.2740675E+03  0.7818608E-02  0.1098974E+00
          1   -1    0    0  501    0  0.00000000000E+00  0.00000000000E+00  0.37388036924E+03  0.37388036924E+03  0.00000000000E+00 0.  1.
         -1   -1    0    0    0  501 -0.00000000000E+00 -0.00000000000E+00 -0.50225291454E+02  0.50225291454E+02  0.00000000000E+00 0.  1.
         35    2    1    2    0    0  0.00000000000E+00  0.00000000000E+00  0.32365507779E+03  0.42410566070E+03  0.27406751368E+03 0.  0.
         25    1    3    3    0    0  0.54327342657E+02 -0.31043792832E+02  0.19512731938E+03  0.23746546697E+03  0.12000000000E+03 0.  0.
         25    1    3    3    0    0 -0.54327342657E+02  0.31043792832E+02  0.12852775841E+03  0.18664019373E+03  0.12000000000E+03 0.  0.
<mgrwt>
<rscale>  0 0.27406751E+03</rscale>
<asrwt>0</asrwt>
<pdfrwt beam="1">  1        1 0.57520055E-01 0.27406751E+03</pdfrwt>
<pdfrwt beam="2">  1       -1 0.77269682E-02 0.27406751E+03</pdfrwt>
<totfact> 0.59673043E+03</totfact>
</mgrwt>
</event>
<event>
 5    1  0.1125356E+001  0.2731647E+03  0.7818608E-02  0.1099482E+00
         -2   -1    0    0    0  501 -0.00000000000E+00  0.00000000000E+00  0.95622593677E+02  0.95622593677E+02  0.00000000000E+00 0. -1.
          2   -1    0    0  501    0  0.00000000000E+00 -0.00000000000E+00 -0.19508714209E+03  0.19508714209E+03  0.00000000000E+00 0. -1.
         35    2    1    2    0    0  0.00000000000E+00  0.00000000000E+00 -0.99464548413E+02  0.29070973577E+03  0.27316470138E+03 0.  0.
         25    1    3    3    0    0 -0.55127013419E+02  0.13995535977E+02 -0.15745600736E+02  0.13372653655E+03  0.12000000000E+03 0.  0.
         25    1    3    3    0    0  0.55127013419E+02 -0.13995535977E+02 -0.83718947677E+02  0.15698319922E+03  0.12000000000E+03 0.  0.
<mgrwt>
<rscale>  0 0.27316470E+03</rscale>
<asrwt>0</asrwt>
<pdfrwt beam="1">  1        2 0.30013406E-01 0.27316470E+03</pdfrwt>
<pdfrwt beam="2">  1       -2 0.14711168E-01 0.27316470E+03</pdfrwt>
<totfact> 0.61486398E+03</totfact>
</mgrwt>
</event>
<event>
 5    1  0.1125356E+001  0.2752444E+03  0.7818608E-02  0.1098315E+00
          2   -1    0    0  501    0  0.00000000000E+00  0.00000000000E+00  0.23682908938E+02  0.23682908938E+02  0.00000000000E+00 0. -1.
         -2   -1    0    0    0  501 -0.00000000000E+00 -0.00000000000E+00 -0.79972740552E+03  0.79972740552E+03  0.00000000000E+00 0. -1.
         35    2    1    2    0    0  0.00000000000E+00  0.00000000000E+00 -0.77604449658E+03  0.82341031446E+03  0.27524441008E+03 0.  0.
         25    1    3    3    0    0 -0.66352929991E+02 -0.11540510438E+02 -0.39398785865E+03  0.41732760209E+03  0.12000000000E+03 0.  0.
         25    1    3    3    0    0  0.66352929991E+02  0.11540510438E+02 -0.38205663793E+03  0.40608271237E+03  0.12000000000E+03 0.  0.
<mgrwt>
<rscale>  0 0.27524441E+03</rscale>
<asrwt>0</asrwt>
<pdfrwt beam="1">  1        2 0.36435252E-02 0.27524441E+03</pdfrwt>
<pdfrwt beam="2">  1       -2 0.12303496E+00 0.27524441E+03</pdfrwt>
<totfact> 0.12560334E+03</totfact>
</mgrwt>
</event>
<event>
 5    1  0.1125356E+001  0.2735543E+03  0.7818608E-02  0.1099262E+00
         -2   -1    0    0    0  501 -0.00000000000E+00  0.00000000000E+00  0.50513176266E+02  0.50513176266E+02  0.00000000000E+00 0. -1.
          2   -1    0    0  501    0  0.00000000000E+00 -0.00000000000E+00 -0.37035850216E+03  0.37035850216E+03  0.00000000000E+00 0. -1.
         35    2    1    2    0    0  0.00000000000E+00  0.00000000000E+00 -0.31984532589E+03  0.42087167842E+03  0.27355426738E+03 0.  0.
         25    1    3    3    0    0  0.32736146623E+02 -0.41905922677E+02 -0.21911557833E+03  0.25542004291E+03  0.12000000000E+03 0.  0.
         25    1    3    3    0    0 -0.32736146623E+02  0.41905922677E+02 -0.10072974756E+03  0.16545163551E+03  0.12000000000E+03 0.  0.
<mgrwt>
<rscale>  0 0.27355427E+03</rscale>
<asrwt>0</asrwt>
<pdfrwt beam="1">  1        2 0.56978233E-01 0.27355427E+03</pdfrwt>
<pdfrwt beam="2">  1       -2 0.77712576E-02 0.27355427E+03</pdfrwt>
<totfact> 0.85345096E+03</totfact>
</mgrwt>
</event>
<event>
 5    1  0.1125356E+001  0.2749948E+03  0.7818608E-02  0.1098455E+00
          2   -1    0    0  501    0  0.00000000000E+00  0.00000000000E+00  0.13301615041E+03  0.13301615041E+03  0.00000000000E+00 0. -1.
         -2   -1    0    0    0  501 -0.00000000000E+00 -0.00000000000E+00 -0.14212960423E+03  0.14212960423E+03  0.00000000000E+00 0. -1.
         35    2    1    2    0    0  0.00000000000E+00  0.00000000000E+00 -0.91134538203E+01  0.27514575464E+03  0.27499478405E+03 0.  0.
         25    1    3    3    0    0 -0.65920454945E+02  0.63298173901E+01  0.64019042246E+01  0.13720990251E+03  0.12000000000E+03 0.  0.
         25    1    3    3    0    0  0.65920454945E+02 -0.63298173901E+01 -0.15515358045E+02  0.13793585213E+03  0.12000000000E+03 0.  0.
<mgrwt>
<rscale>  0 0.27499478E+03</rscale>
<asrwt>0</asrwt>
<pdfrwt beam="1">  1        2 0.20464023E-01 0.27499478E+03</pdfrwt>
<pdfrwt beam="2">  1       -2 0.21866093E-01 0.27499478E+03</pdfrwt>
<totfact> 0.48357803E+03</totfact>
</mgrwt>
</event>
<event>
 5    1  0.1125356E+001  0.2740623E+03  0.7818608E-02  0.1098977E+00
         -1   -1    0    0    0  501 -0.00000000000E+00  0.00000000000E+00  0.14753314388E+03  0.14753314388E+03  0.00000000000E+00 0. -1.
          1   -1    0    0  501    0  0.00000000000E+00 -0.00000000000E+00 -0.12727668718E+03  0.12727668718E+03  0.00000000000E+00 0. -1.
         35    2    1    2    0    0  0.00000000000E+00  0.00000000000E+00  0.20256456705E+02  0.27480983106E+03  0.27406225426E+03 0.  0.
         25    1    3    3    0    0  0.38658672602E+02  0.20569333458E+02 -0.39604838334E+02  0.13373905064E+03  0.12000000000E+03 0.  0.
         25    1    3    3    0    0 -0.38658672602E+02 -0.20569333458E+02  0.59861295039E+02  0.14107078043E+03  0.12000000000E+03 0.  0.
<mgrwt>
<rscale>  0 0.27406225E+03</rscale>
<asrwt>0</asrwt>
<pdfrwt beam="1">  1        1 0.19581029E-01 0.27406225E+03</pdfrwt>
<pdfrwt beam="2">  1       -1 0.22697407E-01 0.27406225E+03</pdfrwt>
<totfact> 0.42680421E+03</totfact>
</mgrwt>
</event>
<event>
 5    1  0.1125356E+001  0.2753427E+03  0.7818608E-02  0.1098260E+00
          2   -1    0    0  501    0  0.00000000000E+00  0.00000000000E+00  0.45961502870E+02  0.45961502870E+02  0.00000000000E+00 0.  1.
         -2   -1    0    0    0  501 -0.00000000000E+00 -0.00000000000E+00 -0.41237543852E+03  0.41237543852E+03  0.00000000000E+00 0.  1.
         35    2    1    2    0    0  0.00000000000E+00  0.00000000000E+00 -0.36641393565E+03  0.45833694139E+03  0.27534265853E+03 0.  0.
         25    1    3    3    0    0  0.55472748770E+02 -0.38138140754E+02 -0.17546140474E+03  0.22297633998E+03  0.12000000000E+03 0.  0.
         25    1    3    3    0    0 -0.55472748770E+02  0.38138140754E+02 -0.19095253091E+03  0.23536060141E+03  0.12000000000E+03 0.  0.
<mgrwt>
<rscale>  0 0.27534266E+03</rscale>
<asrwt>0</asrwt>
<pdfrwt beam="1">  1        2 0.70710004E-02 0.27534266E+03</pdfrwt>
<pdfrwt beam="2">  1       -2 0.63442376E-01 0.27534266E+03</pdfrwt>
<totfact> 0.23394218E+03</totfact>
</mgrwt>
</event>
<event>
 5    1  0.1125356E+001  0.2749502E+03  0.7818608E-02  0.1098479E+00
         -2   -1    0    0    0  501 -0.00000000000E+00  0.00000000000E+00  0.82808970533E+02  0.82808970533E+02  0.00000000000E+00 0.  1.
          2   -1    0    0  501    0  0.00000000000E+00 -0.00000000000E+00 -0.22822899749E+03  0.22822899749E+03  0.00000000000E+00 0.  1.
         35    2    1    2    0    0  0.00000000000E+00  0.00000000000E+00 -0.14542002696E+03  0.31103796802E+03  0.27495023788E+03 0.  0.
         25    1    3    3    0    0  0.51120681720E+02 -0.32329203725E+02 -0.10551449986E+03  0.17085611254E+03  0.12000000000E+03 0.  0.
         25    1    3    3    0    0 -0.51120681720E+02  0.32329203725E+02 -0.39905527099E+02  0.14018185548E+03  0.12000000000E+03 0.  0.
<mgrwt>
<rscale>  0 0.27495024E+03</rscale>
<asrwt>0</asrwt>
<pdfrwt beam="1">  1        2 0.35112153E-01 0.27495024E+03</pdfrwt>
<pdfrwt beam="2">  1       -2 0.12739842E-01 0.27495024E+03</pdfrwt>
<totfact> 0.65579966E+03</totfact>
</mgrwt>
</event>
<event>
 5    1  0.1125356E+001  0.2751665E+03  0.7818608E-02  0.1098359E+00
         -2   -1    0    0    0  501 -0.00000000000E+00  0.00000000000E+00  0.17979247751E+02  0.17979247751E+02  0.00000000000E+00 0.  1.
          2   -1    0    0  501    0  0.00000000000E+00 -0.00000000000E+00 -0.10528332368E+04  0.10528332368E+04  0.00000000000E+00 0.  1.
         35    2    1    2    0    0  0.00000000000E+00  0.00000000000E+00 -0.10348539890E+04  0.10708124845E+04  0.27516649218E+03 0.  0.
         25    1    3    3    0    0 -0.43413360650E+02  0.38562532678E+02 -0.64981610429E+03  0.66334965004E+03  0.12000000000E+03 0.  0.
         25    1    3    3    0    0  0.43413360650E+02 -0.38562532678E+02 -0.38503788473E+03  0.40746283448E+03  0.12000000000E+03 0.  0.
<mgrwt>
<rscale>  0 0.27516649E+03</rscale>
<asrwt>0</asrwt>
<pdfrwt beam="1">  1        2 0.16197443E+00 0.27516649E+03</pdfrwt>
<pdfrwt beam="2">  1       -2 0.27660366E-02 0.27516649E+03</pdfrwt>
<totfact> 0.11630308E+04</totfact>
</mgrwt>
</event>
<event>
 5    1  0.1125356E+001  0.2757906E+03  0.7818608E-02  0.1098010E+00
         -2   -1    0    0    0  501 -0.00000000000E+00  0.00000000000E+00  0.20586702564E+02  0.20586702564E+02  0.00000000000E+00 0.  1.
          2   -1    0    0  501    0  0.00000000000E+00 -0.00000000000E+00 -0.92366021300E+03  0.92366021300E+03  0.00000000000E+00 0.  1.
         35    2    1    2    0    0  0.00000000000E+00  0.00000000000E+00 -0.90307351044E+03  0.94424691557E+03  0.27579063128E+03 0.  0.
         25    1    3    3    0    0  0.14687201239E+02  0.63528250271E+02 -0.38625415176E+03  0.40968746895E+03  0.12000000000E+03 0.  0.
         25    1    3    3    0    0 -0.14687201239E+02 -0.63528250271E+02 -0.51681935868E+03  0.53455944661E+03  0.12000000000E+03 0.  0.
<mgrwt>
<rscale>  0 0.27579063E+03</rscale>
<asrwt>0</asrwt>
<pdfrwt beam="1">  1        2 0.14210159E+00 0.27579063E+03</pdfrwt>
<pdfrwt beam="2">  1       -2 0.31671845E-02 0.27579063E+03</pdfrwt>
<totfact> 0.11422935E+04</totfact>
</mgrwt>
</event>
<event>
 5    1  0.1125356E+001  0.2749577E+03  0.7818608E-02  0.1098475E+00
         -2   -1    0    0    0  501 -0.00000000000E+00  0.00000000000E+00  0.51233305788E+02  0.51233305788E+02  0.00000000000E+00 0.  1.
          2   -1    0    0  501    0  0.00000000000E+00 -0.00000000000E+00 -0.36890913390E+03  0.36890913390E+03  0.00000000000E+00 0.  1.
         35    2    1    2    0    0  0.00000000000E+00  0.00000000000E+00 -0.31767582812E+03  0.42014243969E+03  0.27495770195E+03 0.  0.
         25    1    3    3    0    0 -0.27667003963E+02  0.17591975921E+02 -0.24826977188E+03  0.27769195227E+03  0.12000000000E+03 0.  0.
         25    1    3    3    0    0  0.27667003963E+02 -0.17591975921E+02 -0.69406056234E+02  0.14245048742E+03  0.12000000000E+03 0.  0.
<mgrwt>
<rscale>  0 0.27495770E+03</rscale>
<asrwt>0</asrwt>
<pdfrwt beam="1">  1        2 0.56755251E-01 0.27495770E+03</pdfrwt>
<pdfrwt beam="2">  1       -2 0.78820471E-02 0.27495770E+03</pdfrwt>
<totfact> 0.83853042E+03</totfact>
</mgrwt>
</event>
<event>
 5    1  0.1125356E+001  0.2755729E+03  0.7818608E-02  0.1098132E+00
          2   -1    0    0  501    0  0.00000000000E+00  0.00000000000E+00  0.24997281623E+03  0.24997281623E+03  0.00000000000E+00 0. -1.
         -2   -1    0    0    0  501 -0.00000000000E+00 -0.00000000000E+00 -0.75948700003E+02  0.75948700003E+02  0.00000000000E+00 0. -1.
         35    2    1    2    0    0  0.00000000000E+00  0.00000000000E+00  0.17402411622E+03  0.32592151623E+03  0.27557293357E+03 0.  0.
         25    1    3    3    0    0 -0.45911269990E+01  0.66453185753E+02  0.72623533706E+02  0.15527807956E+03  0.12000000000E+03 0.  0.
         25    1    3    3    0    0  0.45911269990E+01 -0.66453185753E+02  0.10140058252E+03  0.17064343667E+03  0.12000000000E+03 0.  0.
<mgrwt>
<rscale>  0 0.27557293E+03</rscale>
<asrwt>0</asrwt>
<pdfrwt beam="1">  1        2 0.38457356E-01 0.27557293E+03</pdfrwt>
<pdfrwt beam="2">  1       -2 0.11684416E-01 0.27557293E+03</pdfrwt>
<totfact> 0.68350209E+03</totfact>
</mgrwt>
</event>
<event>
 5    1  0.1125356E+001  0.2739880E+03  0.7818608E-02  0.1099019E+00
          1   -1    0    0  501    0  0.00000000000E+00  0.00000000000E+00  0.25198005521E+04  0.25198005521E+04  0.00000000000E+00 0. -1.
         -1   -1    0    0    0  501 -0.00000000000E+00 -0.00000000000E+00 -0.74479502675E+01  0.74479502675E+01  0.00000000000E+00 0. -1.
         35    2    1    2    0    0  0.00000000000E+00  0.00000000000E+00  0.25123526018E+04  0.25272485024E+04  0.27398795007E+03 0.  0.
         25    1    3    3    0    0 -0.25430001373E+02 -0.26221146209E+02  0.74817950323E+03  0.75862164649E+03  0.12000000000E+03 0.  0.
         25    1    3    3    0    0  0.25430001373E+02  0.26221146209E+02  0.17641730986E+04  0.17686268559E+04  0.12000000000E+03 0.  0.
<mgrwt>
<rscale>  0 0.27398795E+03</rscale>
<asrwt>0</asrwt>
<pdfrwt beam="1">  1        1 0.38766094E+00 0.27398795E+03</pdfrwt>
<pdfrwt beam="2">  1       -1 0.11458405E-02 0.27398795E+03</pdfrwt>
<totfact> 0.23754780E+03</totfact>
</mgrwt>
</event>
<event>
 5    1  0.1125356E+001  0.2752896E+03  0.7818608E-02  0.1098290E+00
          2   -1    0    0  501    0  0.00000000000E+00  0.00000000000E+00  0.13798618116E+04  0.13798618116E+04  0.00000000000E+00 0. -1.
         -2   -1    0    0    0  501 -0.00000000000E+00 -0.00000000000E+00 -0.13730424289E+02  0.13730424289E+02  0.00000000000E+00 0. -1.
         35    2    1    2    0    0  0.00000000000E+00  0.00000000000E+00  0.13661313874E+04  0.13935922359E+04  0.27528957942E+03 0.  0.
         25    1    3    3    0    0 -0.41536594121E+02 -0.51233299192E+02  0.61220311407E+03  0.62732989126E+03  0.12000000000E+03 0.  0.
         25    1    3    3    0    0  0.41536594121E+02  0.51233299192E+02  0.75392827329E+03  0.76626234467E+03  0.12000000000E+03 0.  0.
<mgrwt>
<rscale>  0 0.27528958E+03</rscale>
<asrwt>0</asrwt>
<pdfrwt beam="1">  1        2 0.21228632E+00 0.27528958E+03</pdfrwt>
<pdfrwt beam="2">  1       -2 0.21123741E-02 0.27528958E+03</pdfrwt>
<totfact> 0.11300370E+04</totfact>
</mgrwt>
</event>
<event>
 5    1  0.1125356E+001  0.2725035E+03  0.7818608E-02  0.1099855E+00
         -1   -1    0    0    0  501 -0.00000000000E+00  0.00000000000E+00  0.10831810518E+04  0.10831810518E+04  0.00000000000E+00 0.  1.
          1   -1    0    0  501    0  0.00000000000E+00 -0.00000000000E+00 -0.17138913020E+02  0.17138913020E+02  0.00000000000E+00 0.  1.
         35    2    1    2    0    0  0.00000000000E+00  0.00000000000E+00  0.10660421388E+04  0.11003199648E+04  0.27250354737E+03 0.  0.
         25    1    3    3    0    0  0.48602062274E+02  0.61344022383E+00  0.70442679255E+03  0.71622597190E+03  0.12000000000E+03 0.  0.
         25    1    3    3    0    0 -0.48602062274E+02 -0.61344022383E+00  0.36161534625E+03  0.38409399293E+03  0.12000000000E+03 0.  0.
<mgrwt>
<rscale>  0 0.27250355E+03</rscale>
<asrwt>0</asrwt>
<pdfrwt beam="1">  1        1 0.26367567E-02 0.27250355E+03</pdfrwt>
<pdfrwt beam="2">  1       -1 0.16664319E+00 0.27250355E+03</pdfrwt>
<totfact> 0.11632061E+03</totfact>
</mgrwt>
</event>
<event>
 5    1  0.1125356E+001  0.2751606E+03  0.7818608E-02  0.1098362E+00
         -2   -1    0    0    0  501 -0.00000000000E+00  0.00000000000E+00  0.17715314278E+02  0.17715314278E+02  0.00000000000E+00 0.  1.
          2   -1    0    0  501    0  0.00000000000E+00 -0.00000000000E+00 -0.10684735796E+04  0.10684735796E+04  0.00000000000E+00 0.  1.
         35    2    1    2    0    0  0.00000000000E+00  0.00000000000E+00 -0.10507582653E+04  0.10861888939E+04  0.27516064588E+03 0.  0.
         25    1    3    3    0    0 -0.21675393068E+02  0.37351141326E+02 -0.32165689158E+03  0.34601746535E+03  0.12000000000E+03 0.  0.
         25    1    3    3    0    0  0.21675393068E+02 -0.37351141326E+02 -0.72910137375E+03  0.74017142854E+03  0.12000000000E+03 0.  0.
<mgrwt>
<rscale>  0 0.27516065E+03</rscale>
<asrwt>0</asrwt>
<pdfrwt beam="1">  1        2 0.16438056E+00 0.27516065E+03</pdfrwt>
<pdfrwt beam="2">  1       -2 0.27254328E-02 0.27516065E+03</pdfrwt>
<totfact> 0.11635706E+04</totfact>
</mgrwt>
</event>
<event>
 5    1  0.1125356E+001  0.2752523E+03  0.7818608E-02  0.1098311E+00
         -2   -1    0    0    0  501 -0.00000000000E+00  0.00000000000E+00  0.25917468924E+02  0.25917468924E+02  0.00000000000E+00 0.  1.
          2   -1    0    0  501    0  0.00000000000E+00 -0.00000000000E+00 -0.73081813198E+03  0.73081813198E+03  0.00000000000E+00 0.  1.
         35    2    1    2    0    0  0.00000000000E+00  0.00000000000E+00 -0.70490066305E+03  0.75673560090E+03  0.27525229318E+03 0.  0.
         25    1    3    3    0    0  0.55145216875E+02  0.19928540945E+02 -0.26115165939E+03  0.29332291232E+03  0.12000000000E+03 0.  0.
         25    1    3    3    0    0 -0.55145216875E+02 -0.19928540945E+02 -0.44374900366E+03  0.46341268858E+03  0.12000000000E+03 0.  0.
<mgrwt>
<rscale>  0 0.27525229E+03</rscale>
<asrwt>0</asrwt>
<pdfrwt beam="1">  1        2 0.11243354E+00 0.27525229E+03</pdfrwt>
<pdfrwt beam="2">  1       -2 0.39873035E-02 0.27525229E+03</pdfrwt>
<totfact> 0.10941605E+04</totfact>
</mgrwt>
</event>
<event>
 5    1  0.1125356E+001  0.2755243E+03  0.7818608E-02  0.1098159E+00
         -1   -1    0    0    0  501 -0.00000000000E+00  0.00000000000E+00  0.50038014787E+03  0.50038014787E+03  0.00000000000E+00 0.  1.
          3   -1    0    0  501    0  0.00000000000E+00 -0.00000000000E+00 -0.37927985430E+02  0.37927985430E+02  0.00000000000E+00 0.  1.
         35    2    1    2    0    0  0.00000000000E+00  0.00000000000E+00  0.46245216244E+03  0.53830813330E+03  0.27552430715E+03 0.  0.
         25    1    3    3    0    0  0.49648012482E+02  0.24863274305E+02  0.30677629262E+03  0.33405808068E+03  0.12000000000E+03 0.  0.
         25    1    3    3    0    0 -0.49648012482E+02 -0.24863274305E+02  0.15567586983E+03  0.20425005263E+03  0.12000000000E+03 0.  0.
<mgrwt>
<rscale>  0 0.27552431E+03</rscale>
<asrwt>0</asrwt>
<pdfrwt beam="1">  1        3 0.58350750E-02 0.27552431E+03</pdfrwt>
<pdfrwt beam="2">  1       -1 0.76981556E-01 0.27552431E+03</pdfrwt>
<totfact> 0.14864192E+03</totfact>
</mgrwt>
</event>
<event>
 5    1  0.1125356E+001  0.2743092E+03  0.7818608E-02  0.1098838E+00
         -1   -1    0    0    0  501 -0.00000000000E+00  0.00000000000E+00  0.67613452724E+02  0.67613452724E+02  0.00000000000E+00 0. -1.
          1   -1    0    0  501    0  0.00000000000E+00 -0.00000000000E+00 -0.27821947838E+03  0.27821947838E+03  0.00000000000E+00 0. -1.
         35    2    1    2    0    0  0.00000000000E+00  0.00000000000E+00 -0.21060602565E+03  0.34583293110E+03  0.27430916534E+03 0.  0.
         25    1    3    3    0    0 -0.62442434104E+02  0.88936617660E+01 -0.79061875288E+02  0.15693608546E+03  0.12000000000E+03 0.  0.
         25    1    3    3    0    0  0.62442434104E+02 -0.88936617660E+01 -0.13154415037E+03  0.18889684564E+03  0.12000000000E+03 0.  0.
<mgrwt>
<rscale>  0 0.27430917E+03</rscale>
<asrwt>0</asrwt>
<pdfrwt beam="1">  1        1 0.42802998E-01 0.27430917E+03</pdfrwt>
<pdfrwt beam="2">  1       -1 0.10402069E-01 0.27430917E+03</pdfrwt>
<totfact> 0.54889142E+03</totfact>
</mgrwt>
</event>
<event>
 5    1  0.1125356E+001  0.2749470E+03  0.7818608E-02  0.1098481E+00
          1   -1    0    0  501    0  0.00000000000E+00  0.00000000000E+00  0.16284485455E+04  0.16284485455E+04  0.00000000000E+00 0.  1.
         -1   -1    0    0    0  501 -0.00000000000E+00 -0.00000000000E+00 -0.11605498695E+02  0.11605498695E+02  0.00000000000E+00 0.  1.
         35    2    1    2    0    0  0.00000000000E+00  0.00000000000E+00  0.16168430468E+04  0.16400540442E+04  0.27494695830E+03 0.  0.
         25    1    3    3    0    0  0.85528629293E+01 -0.18104670069E+02  0.42656813933E+03  0.44357784890E+03  0.12000000000E+03 0.  0.
         25    1    3    3    0    0 -0.85528629293E+01  0.18104670069E+02  0.11902749075E+04  0.11964761953E+04  0.12000000000E+03 0.  0.
<mgrwt>
<rscale>  0 0.27494696E+03</rscale>
<asrwt>0</asrwt>
<pdfrwt beam="1">  1        1 0.25053036E+00 0.27494696E+03</pdfrwt>
<pdfrwt beam="2">  1       -1 0.17854626E-02 0.27494696E+03</pdfrwt>
<totfact> 0.47666344E+03</totfact>
</mgrwt>
</event>
<event>
 5    1  0.1125356E+001  0.2752179E+03  0.7818608E-02  0.1098330E+00
          2   -1    0    0  501    0  0.00000000000E+00  0.00000000000E+00  0.28384628619E+03  0.28384628619E+03  0.00000000000E+00 0.  1.
         -2   -1    0    0    0  501 -0.00000000000E+00 -0.00000000000E+00 -0.66712973392E+02  0.66712973392E+02  0.00000000000E+00 0.  1.
         35    2    1    2    0    0  0.00000000000E+00  0.00000000000E+00  0.21713331280E+03  0.35055925959E+03  0.27521794809E+03 0.  0.
         25    1    3    3    0    0  0.47165171968E+02  0.46243033081E+02  0.12533273772E+03  0.18566439265E+03  0.12000000000E+03 0.  0.
         25    1    3    3    0    0 -0.47165171968E+02 -0.46243033081E+02  0.91800575083E+02  0.16489486693E+03  0.12000000000E+03 0.  0.
<mgrwt>
<rscale>  0 0.27521795E+03</rscale>
<asrwt>0</asrwt>
<pdfrwt beam="1">  1        2 0.43668659E-01 0.27521795E+03</pdfrwt>
<pdfrwt beam="2">  1       -2 0.10263535E-01 0.27521795E+03</pdfrwt>
<totfact> 0.73358138E+03</totfact>
</mgrwt>
</event>
<event>
 5    1  0.1125356E+001  0.2756715E+03  0.7818608E-02  0.1098077E+00
          2   -1    0    0  501    0  0.00000000000E+00  0.00000000000E+00  0.37681705325E+03  0.37681705325E+03  0.00000000000E+00 0. -1.
         -2   -1    0    0    0  501 -0.00000000000E+00 -0.00000000000E+00 -0.50418869895E+02  0.50418869895E+02  0.00000000000E+00 0. -1.
         35    2    1    2    0    0  0.00000000000E+00  0.00000000000E+00  0.32639818336E+03  0.42723592315E+03  0.27567147101E+03 0.  0.
         25    1    3    3    0    0 -0.45498034264E+01  0.17784223712E+02  0.62025325037E+02  0.13632358662E+03  0.12000000000E+03 0.  0.
         25    1    3    3    0    0  0.45498034264E+01 -0.17784223712E+02  0.26437285832E+03  0.29091233652E+03  0.12000000000E+03 0.  0.
<mgrwt>
<rscale>  0 0.27567147E+03</rscale>
<asrwt>0</asrwt>
<pdfrwt beam="1">  1        2 0.57971853E-01 0.27567147E+03</pdfrwt>
<pdfrwt beam="2">  1       -2 0.77567494E-02 0.27567147E+03</pdfrwt>
<totfact> 0.84033288E+03</totfact>
</mgrwt>
</event>
<event>
 5    1  0.1125356E+001  0.2749590E+03  0.7818608E-02  0.1098474E+00
          3   -1    0    0  501    0  0.00000000000E+00  0.00000000000E+00  0.38091653563E+02  0.38091653563E+02  0.00000000000E+00 0.  1.
         -3   -1    0    0    0  501 -0.00000000000E+00 -0.00000000000E+00 -0.49618794651E+03  0.49618794651E+03  0.00000000000E+00 0.  1.
         35    2    1    2    0    0  0.00000000000E+00  0.00000000000E+00 -0.45809629295E+03  0.53427960008E+03  0.27495904685E+03 0.  0.
         25    1    3    3    0    0 -0.27855642663E+01  0.63414792929E+02 -0.27123784642E+03  0.30331364075E+03  0.12000000000E+03 0.  0.
         25    1    3    3    0    0  0.27855642663E+01 -0.63414792929E+02 -0.18685844653E+03  0.23096595933E+03  0.12000000000E+03 0.  0.
<mgrwt>
<rscale>  0 0.27495905E+03</rscale>
<asrwt>0</asrwt>
<pdfrwt beam="1">  1        3 0.58602540E-02 0.27495905E+03</pdfrwt>
<pdfrwt beam="2">  1       -3 0.76336612E-01 0.27495905E+03</pdfrwt>
<totfact> 0.74155593E+02</totfact>
</mgrwt>
</event>
<event>
 5    1  0.1125356E+001  0.2740584E+03  0.7818608E-02  0.1098979E+00
         -1   -1    0    0    0  501 -0.00000000000E+00  0.00000000000E+00  0.12796454693E+02  0.12796454693E+02  0.00000000000E+00 0. -1.
          1   -1    0    0  501    0  0.00000000000E+00 -0.00000000000E+00 -0.14673600316E+04  0.14673600316E+04  0.00000000000E+00 0. -1.
         35    2    1    2    0    0  0.00000000000E+00  0.00000000000E+00 -0.14545635769E+04  0.14801564863E+04  0.27405843291E+03 0.  0.
         25    1    3    3    0    0  0.36919163455E+02  0.50880119400E+02 -0.61591427378E+03  0.63063634832E+03  0.12000000000E+03 0.  0.
         25    1    3    3    0    0 -0.36919163455E+02 -0.50880119400E+02 -0.83864930316E+03  0.84952013800E+03  0.12000000000E+03 0.  0.
<mgrwt>
<rscale>  0 0.27405843E+03</rscale>
<asrwt>0</asrwt>
<pdfrwt beam="1">  1        1 0.22574785E+00 0.27405843E+03</pdfrwt>
<pdfrwt beam="2">  1       -1 0.19686840E-02 0.27405843E+03</pdfrwt>
<totfact> 0.52788424E+03</totfact>
</mgrwt>
</event>
<event>
 5    1  0.1125356E+001  0.2741296E+03  0.7818608E-02  0.1098939E+00
          2   -1    0    0  501    0  0.00000000000E+00  0.00000000000E+00  0.25077034982E+04  0.25077034982E+04  0.00000000000E+00 0.  1.
         -2   -1    0    0    0  501 -0.00000000000E+00 -0.00000000000E+00 -0.74916193080E+01  0.74916193080E+01  0.00000000000E+00 0.  1.
         35    2    1    2    0    0  0.00000000000E+00  0.00000000000E+00  0.25002118789E+04  0.25151951175E+04  0.27412960399E+03 0.  0.
         25    1    3    3    0    0  0.16221951637E+02 -0.50408758394E+02  0.88510283086E+03  0.89476880580E+03  0.12000000000E+03 0.  0.
         25    1    3    3    0    0 -0.16221951637E+02  0.50408758394E+02  0.16151090480E+04  0.16204263117E+04  0.12000000000E+03 0.  0.
<mgrwt>
<rscale>  0 0.27412960E+03</rscale>
<asrwt>0</asrwt>
<pdfrwt beam="1">  1        2 0.38579987E+00 0.27412960E+03</pdfrwt>
<pdfrwt beam="2">  1       -2 0.11525588E-02 0.27412960E+03</pdfrwt>
<totfact> 0.68869717E+03</totfact>
</mgrwt>
</event>
<event>
 5    1  0.1125356E+001  0.2747233E+03  0.7818608E-02  0.1098606E+00
          2   -1    0    0  501    0  0.00000000000E+00  0.00000000000E+00  0.27901825751E+03  0.27901825751E+03  0.00000000000E+00 0. -1.
         -2   -1    0    0    0  501 -0.00000000000E+00 -0.00000000000E+00 -0.67623621025E+02  0.67623621025E+02  0.00000000000E+00 0. -1.
         35    2    1    2    0    0  0.00000000000E+00  0.00000000000E+00  0.21139463649E+03  0.34664187854E+03  0.27472331466E+03 0.  0.
         25    1    3    3    0    0 -0.22359585549E+02  0.59708968648E+02  0.13103103211E+03  0.18877034560E+03  0.12000000000E+03 0.  0.
         25    1    3    3    0    0  0.22359585549E+02 -0.59708968648E+02  0.80363604380E+02  0.15787153294E+03  0.12000000000E+03 0.  0.
<mgrwt>
<rscale>  0 0.27472331E+03</rscale>
<asrwt>0</asrwt>
<pdfrwt beam="1">  1        2 0.42925885E-01 0.27472331E+03</pdfrwt>
<pdfrwt beam="2">  1       -2 0.10403634E-01 0.27472331E+03</pdfrwt>
<totfact> 0.73122163E+03</totfact>
</mgrwt>
</event>
<event>
 5    1  0.1125356E+001  0.2749788E+03  0.7818608E-02  0.1098463E+00
         -3   -1    0    0    0  501 -0.00000000000E+00  0.00000000000E+00  0.23085548992E+02  0.23085548992E+02  0.00000000000E+00 0.  1.
          3   -1    0    0  501    0  0.00000000000E+00 -0.00000000000E+00 -0.81883821320E+03  0.81883821320E+03  0.00000000000E+00 0.  1.
         35    2    1    2    0    0  0.00000000000E+00  0.00000000000E+00 -0.79575266420E+03  0.84192376219E+03  0.27497876054E+03 0.  0.
         25    1    3    3    0    0 -0.25503682942E+02  0.58535724202E+02 -0.33464778623E+03  0.36120078860E+03  0.12000000000E+03 0.  0.
         25    1    3    3    0    0  0.25503682942E+02 -0.58535724202E+02 -0.46110487797E+03  0.48072297359E+03  0.12000000000E+03 0.  0.
<mgrwt>
<rscale>  0 0.27497876E+03</rscale>
<asrwt>0</asrwt>
<pdfrwt beam="1">  1        3 0.12597511E+00 0.27497876E+03</pdfrwt>
<pdfrwt beam="2">  1       -3 0.35516229E-02 0.27497876E+03</pdfrwt>
<totfact> 0.52366200E+02</totfact>
</mgrwt>
</event>
<event>
 5    1  0.1125356E+001  0.2750583E+03  0.7818608E-02  0.1098419E+00
         -1   -1    0    0    0  501 -0.00000000000E+00  0.00000000000E+00  0.37132301186E+02  0.37132301186E+02  0.00000000000E+00 0.  1.
          1   -1    0    0  501    0  0.00000000000E+00 -0.00000000000E+00 -0.50937489567E+03  0.50937489567E+03  0.00000000000E+00 0.  1.
         35    2    1    2    0    0  0.00000000000E+00  0.00000000000E+00 -0.47224259448E+03  0.54650719685E+03  0.27505826323E+03 0.  0.
         25    1    3    3    0    0 -0.39211783909E+02 -0.63120916994E+01 -0.34379570250E+03  0.36629618010E+03  0.12000000000E+03 0.  0.
         25    1    3    3    0    0  0.39211783909E+02  0.63120916994E+01 -0.12844689198E+03  0.18021101675E+03  0.12000000000E+03 0.  0.
<mgrwt>
<rscale>  0 0.27505826E+03</rscale>
<asrwt>0</asrwt>
<pdfrwt beam="1">  1        1 0.78365361E-01 0.27505826E+03</pdfrwt>
<pdfrwt beam="2">  1       -1 0.57126622E-02 0.27505826E+03</pdfrwt>
<totfact> 0.63094299E+03</totfact>
</mgrwt>
</event>
<event>
 5    1  0.1125356E+001  0.2757067E+03  0.7818608E-02  0.1098057E+00
          2   -1    0    0  501    0  0.00000000000E+00  0.00000000000E+00  0.55983826936E+03  0.55983826936E+03  0.00000000000E+00 0.  1.
         -2   -1    0    0    0  501 -0.00000000000E+00 -0.00000000000E+00 -0.33944719143E+02  0.33944719143E+02  0.00000000000E+00 0.  1.
         35    2    1    2    0    0  0.00000000000E+00  0.00000000000E+00  0.52589355022E+03  0.59378298851E+03  0.27570674870E+03 0.  0.
         25    1    3    3    0    0 -0.52277829335E+02  0.13132059150E+02  0.17419728369E+03  0.21828906538E+03  0.12000000000E+03 0.  0.
         25    1    3    3    0    0  0.52277829335E+02 -0.13132059150E+02  0.35169626653E+03  0.37549392313E+03  0.12000000000E+03 0.  0.
<mgrwt>
<rscale>  0 0.27570675E+03</rscale>
<asrwt>0</asrwt>
<pdfrwt beam="1">  1        2 0.86128958E-01 0.27570675E+03</pdfrwt>
<pdfrwt beam="2">  1       -2 0.52222649E-02 0.27570675E+03</pdfrwt>
<totfact> 0.99709887E+03</totfact>
</mgrwt>
</event>
<event>
 5    1  0.1125356E+001  0.2732489E+03  0.7818608E-02  0.1099434E+00
         -2   -1    0    0    0  501 -0.00000000000E+00  0.00000000000E+00  0.47327014081E+03  0.47327014081E+03  0.00000000000E+00 0. -1.
          2   -1    0    0  501    0  0.00000000000E+00 -0.00000000000E+00 -0.39440996011E+02  0.39440996011E+02  0.00000000000E+00 0. -1.
         35    2    1    2    0    0  0.00000000000E+00  0.00000000000E+00  0.43382914480E+03  0.51271113682E+03  0.27324893951E+03 0.  0.
         25    1    3    3    0    0  0.82409744034E+01  0.33644991042E+02  0.11301233698E+03  0.16843897230E+03  0.12000000000E+03 0.  0.
         25    1    3    3    0    0 -0.82409744034E+01 -0.33644991042E+02  0.32081680782E+03  0.34427216452E+03  0.12000000000E+03 0.  0.
<mgrwt>
<rscale>  0 0.27324894E+03</rscale>
<asrwt>0</asrwt>
<pdfrwt beam="1">  1        2 0.60678459E-02 0.27324894E+03</pdfrwt>
<pdfrwt beam="2">  1       -2 0.72810787E-01 0.27324894E+03</pdfrwt>
<totfact> 0.21269363E+03</totfact>
</mgrwt>
</event>
<event>
 5    1  0.1125356E+001  0.2737326E+03  0.7818608E-02  0.1099162E+00
          2   -1    0    0  501    0  0.00000000000E+00  0.00000000000E+00  0.56629509133E+03  0.56629509133E+03  0.00000000000E+00 0.  1.
         -2   -1    0    0    0  501 -0.00000000000E+00 -0.00000000000E+00 -0.33078841397E+02  0.33078841397E+02  0.00000000000E+00 0.  1.
         35    2    1    2    0    0  0.00000000000E+00  0.00000000000E+00  0.53321624994E+03  0.59937393273E+03  0.27373261048E+03 0.  0.
         25    1    3    3    0    0  0.42531230992E+02  0.50223501227E+02  0.26888347404E+03  0.30171116701E+03  0.12000000000E+03 0.  0.
         25    1    3    3    0    0 -0.42531230992E+02 -0.50223501227E+02  0.26433277590E+03  0.29766276572E+03  0.12000000000E+03 0.  0.
<mgrwt>
<rscale>  0 0.27373261E+03</rscale>
<asrwt>0</asrwt>
<pdfrwt beam="1">  1        2 0.87122315E-01 0.27373261E+03</pdfrwt>
<pdfrwt beam="2">  1       -2 0.50890529E-02 0.27373261E+03</pdfrwt>
<totfact> 0.10232900E+04</totfact>
</mgrwt>
</event>
<event>
 5    1  0.1125356E+001  0.2752412E+03  0.7818608E-02  0.1098317E+00
          2   -1    0    0  501    0  0.00000000000E+00  0.00000000000E+00  0.60821080273E+01  0.60821080273E+01  0.00000000000E+00 0.  1.
         -2   -1    0    0    0  501 -0.00000000000E+00 -0.00000000000E+00 -0.31139587214E+04  0.31139587214E+04  0.00000000000E+00 0.  1.
         35    2    1    2    0    0  0.00000000000E+00  0.00000000000E+00 -0.31078766134E+04  0.31200408294E+04  0.27524122755E+03 0.  0.
         25    1    3    3    0    0 -0.62629683377E+02  0.22902866599E+02 -0.14449656472E+04  0.14514726109E+04  0.12000000000E+03 0.  0.
         25    1    3    3    0    0  0.62629683377E+02 -0.22902866599E+02 -0.16629109662E+04  0.16685682185E+04  0.12000000000E+03 0.  0.
<mgrwt>
<rscale>  0 0.27524123E+03</rscale>
<asrwt>0</asrwt>
<pdfrwt beam="1">  1        2 0.93571088E-03 0.27524123E+03</pdfrwt>
<pdfrwt beam="2">  1       -2 0.47906957E+00 0.27524123E+03</pdfrwt>
<totfact> 0.43579434E+01</totfact>
</mgrwt>
</event>
<event>
 5    1  0.1125356E+001  0.2747865E+03  0.7818608E-02  0.1098571E+00
         -2   -1    0    0    0  501 -0.00000000000E+00  0.00000000000E+00  0.13201118247E+03  0.13201118247E+03  0.00000000000E+00 0.  1.
          2   -1    0    0  501    0  0.00000000000E+00 -0.00000000000E+00 -0.14299477274E+03  0.14299477274E+03  0.00000000000E+00 0.  1.
         35    2    1    2    0    0  0.00000000000E+00  0.00000000000E+00 -0.10983590273E+02  0.27500595521E+03  0.27478652831E+03 0.  0.
         25    1    3    3    0    0  0.23345375458E+01 -0.33160627430E+02 -0.63605640008E+02  0.13982401338E+03  0.12000000000E+03 0.  0.
         25    1    3    3    0    0 -0.23345375458E+01  0.33160627430E+02  0.52622049735E+02  0.13518194182E+03  0.12000000000E+03 0.  0.
<mgrwt>
<rscale>  0 0.27478653E+03</rscale>
<asrwt>0</asrwt>
<pdfrwt beam="1">  1        2 0.21999196E-01 0.27478653E+03</pdfrwt>
<pdfrwt beam="2">  1       -2 0.20309413E-01 0.27478653E+03</pdfrwt>
<totfact> 0.50579173E+03</totfact>
</mgrwt>
</event>
<event>
 5    1  0.1125356E+001  0.2736347E+03  0.7818608E-02  0.1099217E+00
         -4   -1    0    0    0  501 -0.00000000000E+00  0.00000000000E+00  0.31149616973E+02  0.31149616973E+02  0.00000000000E+00 0.  1.
          4   -1    0    0  501    0  0.00000000000E+00 -0.00000000000E+00 -0.60093787265E+03  0.60093787265E+03  0.00000000000E+00 0.  1.
         35    2    1    2    0    0  0.00000000000E+00  0.00000000000E+00 -0.56978825567E+03  0.63208748962E+03  0.27363468024E+03 0.  0.
         25    1    3    3    0    0  0.51831342958E+02 -0.36726719621E+02 -0.24599021824E+03  0.28097424707E+03  0.12000000000E+03 0.  0.
         25    1    3    3    0    0 -0.51831342958E+02  0.36726719621E+02 -0.32379803744E+03  0.35111324255E+03  0.12000000000E+03 0.  0.
<mgrwt>
<rscale>  0 0.27363468E+03</rscale>
<asrwt>0</asrwt>
<pdfrwt beam="1">  1        4 0.92451973E-01 0.27363468E+03</pdfrwt>
<pdfrwt beam="2">  1       -4 0.47922491E-02 0.27363468E+03</pdfrwt>
<totfact> 0.49022588E+02</totfact>
</mgrwt>
</event>
<event>
 5    1  0.1125356E+001  0.2746236E+03  0.7818608E-02  0.1098662E+00
         -1   -1    0    0    0  501 -0.00000000000E+00  0.00000000000E+00  0.55437757442E+01  0.55437757442E+01  0.00000000000E+00 0. -1.
          1   -1    0    0  501    0  0.00000000000E+00 -0.00000000000E+00 -0.34010268672E+04  0.34010268672E+04  0.00000000000E+00 0. -1.
         35    2    1    2    0    0  0.00000000000E+00  0.00000000000E+00 -0.33954830915E+04  0.34065706430E+04  0.27462359878E+03 0.  0.
         25    1    3    3    0    0 -0.47174677467E+02 -0.47101090657E+02 -0.16574177032E+04  0.16630927231E+04  0.12000000000E+03 0.  0.
         25    1    3    3    0    0  0.47174677467E+02  0.47101090657E+02 -0.17380653883E+04  0.17434779198E+04  0.12000000000E+03 0.  0.
<mgrwt>
<rscale>  0 0.27462360E+03</rscale>
<asrwt>0</asrwt>
<pdfrwt beam="1">  1        1 0.52323438E+00 0.27462360E+03</pdfrwt>
<pdfrwt beam="2">  1       -1 0.85288943E-03 0.27462360E+03</pdfrwt>
<totfact> 0.88123487E+02</totfact>
</mgrwt>
</event>
<event>
 5    1  0.1125356E+001  0.2756276E+03  0.7818608E-02  0.1098101E+00
         -2   -1    0    0    0  501 -0.00000000000E+00  0.00000000000E+00  0.21980470327E+02  0.21980470327E+02  0.00000000000E+00 0.  1.
          2   -1    0    0  501    0  0.00000000000E+00 -0.00000000000E+00 -0.86406871271E+03  0.86406871271E+03  0.00000000000E+00 0.  1.
         35    2    1    2    0    0  0.00000000000E+00  0.00000000000E+00 -0.84208824238E+03  0.88604918304E+03  0.27562755087E+03 0.  0.
         25    1    3    3    0    0  0.35383278384E+02  0.54773942624E+02 -0.36172726170E+03  0.38665071193E+03  0.12000000000E+03 0.  0.
         25    1    3    3    0    0 -0.35383278384E+02 -0.54773942624E+02 -0.48036098068E+03  0.49939847110E+03  0.12000000000E+03 0.  0.
<mgrwt>
<rscale>  0 0.27562755E+03</rscale>
<asrwt>0</asrwt>
<pdfrwt beam="1">  1        2 0.13293367E+00 0.27562755E+03</pdfrwt>
<pdfrwt beam="2">  1       -2 0.33816102E-02 0.27562755E+03</pdfrwt>
<totfact> 0.11322701E+04</totfact>
</mgrwt>
</event>
<event>
 5    1  0.1125356E+001  0.2748785E+03  0.7818608E-02  0.1098520E+00
          1   -1    0    0  501    0  0.00000000000E+00  0.00000000000E+00  0.16671674200E+03  0.16671674200E+03  0.00000000000E+00 0. -1.
         -1   -1    0    0    0  501 -0.00000000000E+00 -0.00000000000E+00 -0.11330325380E+03  0.11330325380E+03  0.00000000000E+00 0. -1.
         35    2    1    2    0    0  0.00000000000E+00  0.00000000000E+00  0.53413488199E+02  0.28001999580E+03  0.27487851376E+03 0.  0.
         25    1    3    3    0    0  0.30020167827E+02  0.48835078921E+02  0.62046747968E+02  0.14675106249E+03  0.12000000000E+03 0.  0.
         25    1    3    3    0    0 -0.30020167827E+02 -0.48835078921E+02 -0.86332597689E+01  0.13326893330E+03  0.12000000000E+03 0.  0.
<mgrwt>
<rscale>  0 0.27487851E+03</rscale>
<asrwt>0</asrwt>
<pdfrwt beam="1">  1        1 0.25648729E-01 0.27487851E+03</pdfrwt>
<pdfrwt beam="2">  1       -1 0.17431270E-01 0.27487851E+03</pdfrwt>
<totfact> 0.46398018E+03</totfact>
</mgrwt>
</event>
<event>
 5    1  0.1125356E+001  0.2739079E+03  0.7818608E-02  0.1099064E+00
         -2   -1    0    0    0  501 -0.00000000000E+00  0.00000000000E+00  0.18416692412E+03  0.18416692412E+03  0.00000000000E+00 0.  1.
          2   -1    0    0  501    0  0.00000000000E+00 -0.00000000000E+00 -0.10184449224E+03  0.10184449224E+03  0.00000000000E+00 0.  1.
         35    2    1    2    0    0  0.00000000000E+00  0.00000000000E+00  0.82322431882E+02  0.28601141636E+03  0.27390791791E+03 0.  0.
         25    1    3    3    0    0  0.44617734666E+02  0.13928709345E+01  0.91927500113E+02  0.15761772620E+03  0.12000000000E+03 0.  0.
         25    1    3    3    0    0 -0.44617734666E+02 -0.13928709345E+01 -0.96050682303E+01  0.12839369016E+03  0.12000000000E+03 0.  0.
<mgrwt>
<rscale>  0 0.27390792E+03</rscale>
<asrwt>0</asrwt>
<pdfrwt beam="1">  1        2 0.15668383E-01 0.27390792E+03</pdfrwt>
<pdfrwt beam="2">  1       -2 0.28333373E-01 0.27390792E+03</pdfrwt>
<totfact> 0.41735645E+03</totfact>
</mgrwt>
</event>
<event>
 5    1  0.1125356E+001  0.2749318E+03  0.7818608E-02  0.1098490E+00
          2   -1    0    0  501    0  0.00000000000E+00  0.00000000000E+00  0.82373880231E+03  0.82373880231E+03  0.00000000000E+00 0.  1.
         -2   -1    0    0    0  501 -0.00000000000E+00 -0.00000000000E+00 -0.22940376005E+02  0.22940376005E+02  0.00000000000E+00 0.  1.
         35    2    1    2    0    0  0.00000000000E+00  0.00000000000E+00  0.80079842630E+03  0.84667917831E+03  0.27493183050E+03 0.  0.
         25    1    3    3    0    0  0.44858709460E+02  0.32270363175E+02  0.28340705022E+03  0.31268712200E+03  0.12000000000E+03 0.  0.
         25    1    3    3    0    0 -0.44858709460E+02 -0.32270363175E+02  0.51739137609E+03  0.53399205631E+03  0.12000000000E+03 0.  0.
<mgrwt>
<rscale>  0 0.27493183E+03</rscale>
<asrwt>0</asrwt>
<pdfrwt beam="1">  1        2 0.12672902E+00 0.27493183E+03</pdfrwt>
<pdfrwt beam="2">  1       -2 0.35292892E-02 0.27493183E+03</pdfrwt>
<totfact> 0.11301993E+04</totfact>
</mgrwt>
</event>
<event>
 5    1  0.1125356E+001  0.2744958E+03  0.7818608E-02  0.1098734E+00
          1   -1    0    0  501    0  0.00000000000E+00  0.00000000000E+00  0.40785543531E+04  0.40785543531E+04  0.00000000000E+00 0.  1.
         -1   -1    0    0    0  501 -0.00000000000E+00 -0.00000000000E+00 -0.46185456022E+01  0.46185456022E+01  0.00000000000E+00 0.  1.
         35    2    1    2    0    0  0.00000000000E+00  0.00000000000E+00  0.40739358075E+04  0.40831728987E+04  0.27449582344E+03 0.  0.
         25    1    3    3    0    0  0.42803822558E+02 -0.17875778904E+02  0.27480694176E+04  0.27510792854E+04  0.12000000000E+03 0.  0.
         25    1    3    3    0    0 -0.42803822558E+02  0.17875778904E+02  0.13258663899E+04  0.13320936133E+04  0.12000000000E+03 0.  0.
<mgrwt>
<rscale>  0 0.27449582E+03</rscale>
<asrwt>0</asrwt>
<pdfrwt beam="1">  1        1 0.62746702E+00 0.27449582E+03</pdfrwt>
<pdfrwt beam="2">  1       -1 0.71054874E-03 0.27449582E+03</pdfrwt>
<totfact> 0.33140796E+02</totfact>
</mgrwt>
</event>
<event>
 5    1  0.1125356E+001  0.2748388E+03  0.7818608E-02  0.1098542E+00
          1   -1    0    0  501    0  0.00000000000E+00  0.00000000000E+00  0.53932700525E+03  0.53932700525E+03  0.00000000000E+00 0.  1.
         -1   -1    0    0    0  501 -0.00000000000E+00 -0.00000000000E+00 -0.35014172847E+02  0.35014172847E+02  0.00000000000E+00 0.  1.
         35    2    1    2    0    0  0.00000000000E+00  0.00000000000E+00  0.50431283240E+03  0.57434117809E+03  0.27483878171E+03 0.  0.
         25    1    3    3    0    0 -0.38617387674E+02 -0.50095979784E+02  0.29809166128E+03  0.32750503560E+03  0.12000000000E+03 0.  0.
         25    1    3    3    0    0  0.38617387674E+02  0.50095979784E+02  0.20622117112E+03  0.24683614249E+03  0.12000000000E+03 0.  0.
<mgrwt>
<rscale>  0 0.27483878E+03</rscale>
<asrwt>0</asrwt>
<pdfrwt beam="1">  1        1 0.82973379E-01 0.27483878E+03</pdfrwt>
<pdfrwt beam="2">  1       -1 0.53867962E-02 0.27483878E+03</pdfrwt>
<totfact> 0.63831374E+03</totfact>
</mgrwt>
</event>
<event>
 5    1  0.1125356E+001  0.2748633E+03  0.7818608E-02  0.1098528E+00
          1   -1    0    0  501    0  0.00000000000E+00  0.00000000000E+00  0.24537828146E+03  0.24537828146E+03  0.00000000000E+00 0. -1.
         -1   -1    0    0    0  501 -0.00000000000E+00 -0.00000000000E+00 -0.76972808173E+02  0.76972808173E+02  0.00000000000E+00 0. -1.
         35    2    1    2    0    0  0.00000000000E+00  0.00000000000E+00  0.16840547328E+03  0.32235108963E+03  0.27486327793E+03 0.  0.
         25    1    3    3    0    0  0.38778839186E+02  0.46771045859E+02  0.51112230984E+02  0.14388811367E+03  0.12000000000E+03 0.  0.
         25    1    3    3    0    0 -0.38778839186E+02 -0.46771045859E+02  0.11729324230E+03  0.17846297596E+03  0.12000000000E+03 0.  0.
<mgrwt>
<rscale>  0 0.27486328E+03</rscale>
<asrwt>0</asrwt>
<pdfrwt beam="1">  1        1 0.37750505E-01 0.27486328E+03</pdfrwt>
<pdfrwt beam="2">  1       -1 0.11841971E-01 0.27486328E+03</pdfrwt>
<totfact> 0.52533102E+03</totfact>
</mgrwt>
</event>
<event>
 5    1  0.1125356E+001  0.2738542E+03  0.7818608E-02  0.1099094E+00
         -1   -1    0    0    0  501 -0.00000000000E+00  0.00000000000E+00  0.32076798781E+02  0.32076798781E+02  0.00000000000E+00 0.  1.
          1   -1    0    0  501    0  0.00000000000E+00 -0.00000000000E+00 -0.58450440708E+03  0.58450440708E+03  0.00000000000E+00 0.  1.
         35    2    1    2    0    0  0.00000000000E+00  0.00000000000E+00 -0.55242760830E+03  0.61658120586E+03  0.27385419663E+03 0.  0.
         25    1    3    3    0    0 -0.60143476607E+02 -0.13934901921E+02 -0.22400966384E+03  0.26151816144E+03  0.12000000000E+03 0.  0.
         25    1    3    3    0    0  0.60143476607E+02  0.13934901921E+02 -0.32841794446E+03  0.35506304442E+03  0.12000000000E+03 0.  0.
<mgrwt>
<rscale>  0 0.27385420E+03</rscale>
<asrwt>0</asrwt>
<pdfrwt beam="1">  1        1 0.89923754E-01 0.27385420E+03</pdfrwt>
<pdfrwt beam="2">  1       -1 0.49348922E-02 0.27385420E+03</pdfrwt>
<totfact> 0.65220528E+03</totfact>
</mgrwt>
</event>
<event>
 5    1  0.1125356E+001  0.2774661E+03  0.7818608E-02  0.1097081E+00
         -1   -1    0    0    0  501 -0.00000000000E+00  0.00000000000E+00  0.84181104425E+01  0.84181104425E+01  0.00000000000E+00 0.  1.
          1   -1    0    0  501    0  0.00000000000E+00 -0.00000000000E+00 -0.22863634427E+04  0.22863634427E+04  0.00000000000E+00 0.  1.
         35    2    1    2    0    0  0.00000000000E+00  0.00000000000E+00 -0.22779453323E+04  0.22947815532E+04  0.27746610584E+03 0.  0.
         25    1    3    3    0    0 -0.30505276864E+02 -0.60215425471E+02 -0.99803642588E+03  0.10074885492E+04  0.12000000000E+03 0.  0.
         25    1    3    3    0    0  0.30505276864E+02  0.60215425471E+02 -0.12799089064E+04  0.12872930040E+04  0.12000000000E+03 0.  0.
<mgrwt>
<rscale>  0 0.27746611E+03</rscale>
<asrwt>0</asrwt>
<pdfrwt beam="1">  1        1 0.35174853E+00 0.27746611E+03</pdfrwt>
<pdfrwt beam="2">  1       -1 0.12950928E-02 0.27746611E+03</pdfrwt>
<totfact> 0.28361236E+03</totfact>
</mgrwt>
</event>
<event>
 5    1  0.1125356E+001  0.2755566E+03  0.7818608E-02  0.1098141E+00
          1   -1    0    0  501    0  0.00000000000E+00  0.00000000000E+00  0.93769215230E+03  0.93769215230E+03  0.00000000000E+00 0. -1.
         -1   -1    0    0    0  501 -0.00000000000E+00 -0.00000000000E+00 -0.20244236766E+02  0.20244236766E+02  0.00000000000E+00 0. -1.
         35    2    1    2    0    0  0.00000000000E+00  0.00000000000E+00  0.91744791553E+03  0.95793638906E+03  0.27555661447E+03 0.  0.
         25    1    3    3    0    0  0.41720322987E+02 -0.53275929319E+02  0.45181310678E+03  0.47234943999E+03  0.12000000000E+03 0.  0.
         25    1    3    3    0    0 -0.41720322987E+02  0.53275929319E+02  0.46563480875E+03  0.48558694908E+03  0.12000000000E+03 0.  0.
<mgrwt>
<rscale>  0 0.27555661E+03</rscale>
<asrwt>0</asrwt>
<pdfrwt beam="1">  1        1 0.14426030E+00 0.27555661E+03</pdfrwt>
<pdfrwt beam="2">  1       -1 0.31144987E-02 0.27555661E+03</pdfrwt>
<totfact> 0.63610727E+03</totfact>
</mgrwt>
</event>
<event>
 5    1  0.1125356E+001  0.2748378E+03  0.7818608E-02  0.1098542E+00
          2   -1    0    0  501    0  0.00000000000E+00  0.00000000000E+00  0.57170272939E+03  0.57170272939E+03  0.00000000000E+00 0. -1.
         -2   -1    0    0    0  501 -0.00000000000E+00 -0.00000000000E+00 -0.33031060524E+02  0.33031060524E+02  0.00000000000E+00 0. -1.
         35    2    1    2    0    0  0.00000000000E+00  0.00000000000E+00  0.53867166886E+03  0.60473378991E+03  0.27483775182E+03 0.  0.
         25    1    3    3    0    0  0.63457146000E+02 -0.10710477091E+02  0.31005227388E+03  0.33863540311E+03  0.12000000000E+03 0.  0.
         25    1    3    3    0    0 -0.63457146000E+02  0.10710477091E+02  0.22861939498E+03  0.26609838680E+03  0.12000000000E+03 0.  0.
<mgrwt>
<rscale>  0 0.27483775E+03</rscale>
<asrwt>0</asrwt>
<pdfrwt beam="1">  1        2 0.87954259E-01 0.27483775E+03</pdfrwt>
<pdfrwt beam="2">  1       -2 0.50817020E-02 0.27483775E+03</pdfrwt>
<totfact> 0.10145808E+04</totfact>
</mgrwt>
</event>
<event>
 5    1  0.1125356E+001  0.2723243E+03  0.7818608E-02  0.1099957E+00
          2   -1    0    0  501    0  0.00000000000E+00  0.00000000000E+00  0.11580864569E+04  0.11580864569E+04  0.00000000000E+00 0. -1.
         -2   -1    0    0    0  501 -0.00000000000E+00 -0.00000000000E+00 -0.16009285249E+02  0.16009285249E+02  0.00000000000E+00 0. -1.
         35    2    1    2    0    0  0.00000000000E+00  0.00000000000E+00  0.11420771716E+04  0.11740957421E+04  0.27232433921E+03 0.  0.
         25    1    3    3    0    0  0.46556024232E+01 -0.42177906370E+02  0.77957278138E+03  0.78989516512E+03  0.12000000000E+03 0.  0.
         25    1    3    3    0    0 -0.46556024232E+01  0.42177906370E+02  0.36250439027E+03  0.38420057702E+03  0.12000000000E+03 0.  0.
<mgrwt>
<rscale>  0 0.27232434E+03</rscale>
<asrwt>0</asrwt>
<pdfrwt beam="1">  1        2 0.17816708E+00 0.27232434E+03</pdfrwt>
<pdfrwt beam="2">  1       -2 0.24629679E-02 0.27232434E+03</pdfrwt>
<totfact> 0.11978731E+04</totfact>
</mgrwt>
</event>
<event>
 5    1  0.1125356E+001  0.2752723E+03  0.7818608E-02  0.1098299E+00
          1   -1    0    0  501    0  0.00000000000E+00  0.00000000000E+00  0.33345359349E+03  0.33345359349E+03  0.00000000000E+00 0. -1.
         -1   -1    0    0    0  501 -0.00000000000E+00 -0.00000000000E+00 -0.56810646672E+02  0.56810646672E+02  0.00000000000E+00 0. -1.
         35    2    1    2    0    0  0.00000000000E+00  0.00000000000E+00  0.27664294682E+03  0.39026424016E+03  0.27527233265E+03 0.  0.
         25    1    3    3    0    0 -0.35244580724E+02 -0.19159872785E+02  0.21512095722E+03  0.24957224892E+03  0.12000000000E+03 0.  0.
         25    1    3    3    0    0  0.35244580724E+02  0.19159872785E+02  0.61521989599E+02  0.14069199124E+03  0.12000000000E+03 0.  0.
<mgrwt>
<rscale>  0 0.27527233E+03</rscale>
<asrwt>0</asrwt>
<pdfrwt beam="1">  1        1 0.51300552E-01 0.27527233E+03</pdfrwt>
<pdfrwt beam="2">  1       -1 0.87400997E-02 0.27527233E+03</pdfrwt>
<totfact> 0.57157868E+03</totfact>
</mgrwt>
</event>
<event>
 5    1  0.1125356E+001  0.2742513E+03  0.7818608E-02  0.1098871E+00
          1   -1    0    0  501    0  0.00000000000E+00  0.00000000000E+00  0.70020773996E+02  0.70020773996E+02  0.00000000000E+00 0.  1.
         -1   -1    0    0    0  501 -0.00000000000E+00 -0.00000000000E+00 -0.26854088401E+03  0.26854088401E+03  0.00000000000E+00 0.  1.
         35    2    1    2    0    0  0.00000000000E+00  0.00000000000E+00 -0.19852011001E+03  0.33856165800E+03  0.27425127564E+03 0.  0.
         25    1    3    3    0    0 -0.43791482512E+02 -0.49845227789E+02 -0.97907805308E+02  0.16848791949E+03  0.12000000000E+03 0.  0.
         25    1    3    3    0    0  0.43791482512E+02  0.49845227789E+02 -0.10061230470E+03  0.17007373851E+03  0.12000000000E+03 0.  0.
<mgrwt>
<rscale>  0 0.27425128E+03</rscale>
<asrwt>0</asrwt>
<pdfrwt beam="1">  1        1 0.10772427E-01 0.27425128E+03</pdfrwt>
<pdfrwt beam="2">  1       -1 0.41313982E-01 0.27425128E+03</pdfrwt>
<totfact> 0.33646129E+03</totfact>
</mgrwt>
</event>
<event>
 5    1  0.1125356E+001  0.2750107E+03  0.7818608E-02  0.1098446E+00
          2   -1    0    0  501    0  0.00000000000E+00  0.00000000000E+00  0.82181595157E+03  0.82181595157E+03  0.00000000000E+00 0. -1.
         -2   -1    0    0    0  501 -0.00000000000E+00 -0.00000000000E+00 -0.23007245645E+02  0.23007245645E+02  0.00000000000E+00 0. -1.
         35    2    1    2    0    0  0.00000000000E+00  0.00000000000E+00  0.79880870593E+03  0.84482319722E+03  0.27501070141E+03 0.  0.
         25    1    3    3    0    0 -0.32484106488E+02 -0.46944493589E+02  0.50795903639E+03  0.52505369754E+03  0.12000000000E+03 0.  0.
         25    1    3    3    0    0  0.32484106488E+02  0.46944493589E+02  0.29084966954E+03  0.31976949968E+03  0.12000000000E+03 0.  0.
<mgrwt>
<rscale>  0 0.27501070E+03</rscale>
<asrwt>0</asrwt>
<pdfrwt beam="1">  1        2 0.12643320E+00 0.27501070E+03</pdfrwt>
<pdfrwt beam="2">  1       -2 0.35395769E-02 0.27501070E+03</pdfrwt>
<totfact> 0.11286875E+04</totfact>
</mgrwt>
</event>
<event>
 5    1  0.1125356E+001  0.2759201E+03  0.7818608E-02  0.1097938E+00
          2   -1    0    0  501    0  0.00000000000E+00  0.00000000000E+00  0.13949580085E+04  0.13949580085E+04  0.00000000000E+00 0.  1.
         -2   -1    0    0    0  501 -0.00000000000E+00 -0.00000000000E+00 -0.13644124996E+02  0.13644124996E+02  0.00000000000E+00 0.  1.
         35    2    1    2    0    0  0.00000000000E+00  0.00000000000E+00  0.13813138835E+04  0.14086021335E+04  0.27592014375E+03 0.  0.
         25    1    3    3    0    0 -0.62753301392E+02  0.25754414686E+02  0.66190710527E+03  0.67610818862E+03  0.12000000000E+03 0.  0.
         25    1    3    3    0    0  0.62753301392E+02 -0.25754414686E+02  0.71940677827E+03  0.73249394491E+03  0.12000000000E+03 0.  0.
<mgrwt>
<rscale>  0 0.27592014E+03</rscale>
<asrwt>0</asrwt>
<pdfrwt beam="1">  1        2 0.21460881E+00 0.27592014E+03</pdfrwt>
<pdfrwt beam="2">  1       -2 0.20990973E-02 0.27592014E+03</pdfrwt>
<totfact> 0.11192668E+04</totfact>
</mgrwt>
</event>
<event>
 5    1  0.1125356E+001  0.2750016E+03  0.7818608E-02  0.1098451E+00
         -1   -1    0    0    0  501 -0.00000000000E+00  0.00000000000E+00  0.52690177410E+01  0.52690177410E+01  0.00000000000E+00 0.  1.
          1   -1    0    0  501    0  0.00000000000E+00 -0.00000000000E+00 -0.35882345409E+04  0.35882345409E+04  0.00000000000E+00 0.  1.
         35    2    1    2    0    0  0.00000000000E+00  0.00000000000E+00 -0.35829655232E+04  0.35935035586E+04  0.27500161058E+03 0.  0.
         25    1    3    3    0    0  0.66747059309E+02  0.50139435714E+01 -0.17246456815E+04  0.17301107005E+04  0.12000000000E+03 0.  0.
         25    1    3    3    0    0 -0.66747059309E+02 -0.50139435714E+01 -0.18583198417E+04  0.18633928581E+04  0.12000000000E+03 0.  0.
<mgrwt>
<rscale>  0 0.27500161E+03</rscale>
<asrwt>0</asrwt>
<pdfrwt beam="1">  1        1 0.55203523E+00 0.27500161E+03</pdfrwt>
<pdfrwt beam="2">  1       -1 0.81061937E-03 0.27500161E+03</pdfrwt>
<totfact> 0.68470959E+02</totfact>
</mgrwt>
</event>
<event>
 5    1  0.1125356E+001  0.2742023E+03  0.7818608E-02  0.1098898E+00
         -1   -1    0    0    0  501 -0.00000000000E+00  0.00000000000E+00  0.21487946438E+02  0.21487946438E+02  0.00000000000E+00 0. -1.
          1   -1    0    0  501    0  0.00000000000E+00 -0.00000000000E+00 -0.87475643311E+03  0.87475643311E+03  0.00000000000E+00 0. -1.
         35    2    1    2    0    0  0.00000000000E+00  0.00000000000E+00 -0.85326848667E+03  0.89624437955E+03  0.27420225660E+03 0.  0.
         25    1    3    3    0    0 -0.26418259275E+02  0.37962507918E+02 -0.27133009727E+03  0.30026504645E+03  0.12000000000E+03 0.  0.
         25    1    3    3    0    0  0.26418259275E+02 -0.37962507918E+02 -0.58193838940E+03  0.59597933310E+03  0.12000000000E+03 0.  0.
<mgrwt>
<rscale>  0 0.27420226E+03</rscale>
<asrwt>0</asrwt>
<pdfrwt beam="1">  1        1 0.13457791E+00 0.27420226E+03</pdfrwt>
<pdfrwt beam="2">  1       -1 0.33058380E-02 0.27420226E+03</pdfrwt>
<totfact> 0.65238397E+03</totfact>
</mgrwt>
</event>
<event>
 5    1  0.1125356E+001  0.2746420E+03  0.7818608E-02  0.1098652E+00
         -4   -1    0    0    0  501 -0.00000000000E+00  0.00000000000E+00  0.53122774281E+02  0.53122774281E+02  0.00000000000E+00 0.  1.
          4   -1    0    0  501    0  0.00000000000E+00 -0.00000000000E+00 -0.35497114804E+03  0.35497114804E+03  0.00000000000E+00 0.  1.
         35    2    1    2    0    0  0.00000000000E+00  0.00000000000E+00 -0.30184837376E+03  0.40809392233E+03  0.27464196456E+03 0.  0.
         25    1    3    3    0    0 -0.31460481091E+02  0.34709602781E+02 -0.22160324701E+03  0.25632502313E+03  0.12000000000E+03 0.  0.
         25    1    3    3    0    0  0.31460481091E+02 -0.34709602781E+02 -0.80245126750E+02  0.15176889919E+03  0.12000000000E+03 0.  0.
<mgrwt>
<rscale>  0 0.27464196E+03</rscale>
<asrwt>0</asrwt>
<pdfrwt beam="1">  1        4 0.54610946E-01 0.27464196E+03</pdfrwt>
<pdfrwt beam="2">  1       -4 0.81727345E-02 0.27464196E+03</pdfrwt>
<totfact> 0.64541522E+02</totfact>
</mgrwt>
</event>
<event>
 5    1  0.1125356E+001  0.2763007E+03  0.7818608E-02  0.1097727E+00
         -1   -1    0    0    0  501 -0.00000000000E+00  0.00000000000E+00  0.75694751697E+02  0.75694751697E+02  0.00000000000E+00 0. -1.
          1   -1    0    0  501    0  0.00000000000E+00 -0.00000000000E+00 -0.25213791084E+03  0.25213791084E+03  0.00000000000E+00 0. -1.
         35    2    1    2    0    0  0.00000000000E+00  0.00000000000E+00 -0.17644315914E+03  0.32783266253E+03  0.27630068081E+03 0.  0.
         25    1    3    3    0    0  0.65978904296E+02  0.17549203848E+02 -0.94073619476E+02  0.16706596377E+03  0.12000000000E+03 0.  0.
         25    1    3    3    0    0 -0.65978904296E+02 -0.17549203848E+02 -0.82369539663E+02  0.16076669877E+03  0.12000000000E+03 0.  0.
<mgrwt>
<rscale>  0 0.27630068E+03</rscale>
<asrwt>0</asrwt>
<pdfrwt beam="1">  1        1 0.38790448E-01 0.27630068E+03</pdfrwt>
<pdfrwt beam="2">  1       -1 0.11645346E-01 0.27630068E+03</pdfrwt>
<totfact> 0.52123217E+03</totfact>
</mgrwt>
</event>
<event>
 5    1  0.1125356E+001  0.2829727E+03  0.7818608E-02  0.1094076E+00
          1   -1    0    0  501    0  0.00000000000E+00  0.00000000000E+00  0.31509449576E+02  0.31509449576E+02  0.00000000000E+00 0. -1.
         -1   -1    0    0    0  501 -0.00000000000E+00 -0.00000000000E+00 -0.63531357411E+03  0.63531357411E+03  0.00000000000E+00 0. -1.
         35    2    1    2    0    0  0.00000000000E+00  0.00000000000E+00 -0.60380412454E+03  0.66682302369E+03  0.28297265612E+03 0.  0.
         25    1    3    3    0    0  0.39204230549E+01 -0.19170834440E+02 -0.13139404679E+03  0.17901755820E+03  0.12000000000E+03 0.  0.
         25    1    3    3    0    0 -0.39204230549E+01  0.19170834440E+02 -0.47241007774E+03  0.48780546549E+03  0.12000000000E+03 0.  0.
<mgrwt>
<rscale>  0 0.28297266E+03</rscale>
<asrwt>0</asrwt>
<pdfrwt beam="1">  1        1 0.48476079E-02 0.28297266E+03</pdfrwt>
<pdfrwt beam="2">  1       -1 0.97740544E-01 0.28297266E+03</pdfrwt>
<totfact> 0.18428620E+03</totfact>
</mgrwt>
</event>
<event>
 5    1  0.1125356E+001  0.2745695E+03  0.7818608E-02  0.1098692E+00
          2   -1    0    0  501    0  0.00000000000E+00  0.00000000000E+00  0.17520635105E+04  0.17520635105E+04  0.00000000000E+00 0. -1.
         -2   -1    0    0    0  501 -0.00000000000E+00 -0.00000000000E+00 -0.10757086334E+02  0.10757086334E+02  0.00000000000E+00 0. -1.
         35    2    1    2    0    0  0.00000000000E+00  0.00000000000E+00  0.17413064242E+04  0.17628205969E+04  0.27456946986E+03 0.  0.
         25    1    3    3    0    0 -0.10498595646E+02  0.36061732675E+02  0.12244366214E+04  0.12308759925E+04  0.12000000000E+03 0.  0.
         25    1    3    3    0    0  0.10498595646E+02 -0.36061732675E+02  0.51686980276E+03  0.53194460433E+03  0.12000000000E+03 0.  0.
<mgrwt>
<rscale>  0 0.27456947E+03</rscale>
<asrwt>0</asrwt>
<pdfrwt beam="1">  1        2 0.26954801E+00 0.27456947E+03</pdfrwt>
<pdfrwt beam="2">  1       -2 0.16549377E-02 0.27456947E+03</pdfrwt>
<totfact> 0.10244349E+04</totfact>
</mgrwt>
</event>
<event>
 5    1  0.1125356E+001  0.2748688E+03  0.7818608E-02  0.1098525E+00
          3   -1    0    0  501    0  0.00000000000E+00  0.00000000000E+00  0.26551080675E+03  0.26551080675E+03  0.00000000000E+00 0.  1.
         -3   -1    0    0    0  501 -0.00000000000E+00 -0.00000000000E+00 -0.71139159560E+02  0.71139159560E+02  0.00000000000E+00 0.  1.
         35    2    1    2    0    0  0.00000000000E+00  0.00000000000E+00  0.19437164719E+03  0.33664996631E+03  0.27486880977E+03 0.  0.
         25    1    3    3    0    0  0.31451162006E+02 -0.54731706073E+02  0.69704072626E+02  0.15245784001E+03  0.12000000000E+03 0.  0.
         25    1    3    3    0    0 -0.31451162006E+02  0.54731706073E+02  0.12466757456E+03  0.18419212629E+03  0.12000000000E+03 0.  0.
<mgrwt>
<rscale>  0 0.27486881E+03</rscale>
<asrwt>0</asrwt>
<pdfrwt beam="1">  1        3 0.40847816E-01 0.27486881E+03</pdfrwt>
<pdfrwt beam="2">  1       -3 0.10944486E-01 0.27486881E+03</pdfrwt>
<totfact> 0.96205906E+02</totfact>
</mgrwt>
</event>
<event>
 5    1  0.1125356E+001  0.2745598E+03  0.7818608E-02  0.1098698E+00
         -2   -1    0    0    0  501 -0.00000000000E+00  0.00000000000E+00  0.24039200163E+02  0.24039200163E+02  0.00000000000E+00 0. -1.
          2   -1    0    0  501    0  0.00000000000E+00 -0.00000000000E+00 -0.78396009194E+03  0.78396009194E+03  0.00000000000E+00 0. -1.
         35    2    1    2    0    0  0.00000000000E+00  0.00000000000E+00 -0.75992089178E+03  0.80799929211E+03  0.27455981913E+03 0.  0.
         25    1    3    3    0    0 -0.48360792924E+01  0.46346557203E+02 -0.23961259822E+03  0.27200291956E+03  0.12000000000E+03 0.  0.
         25    1    3    3    0    0  0.48360792924E+01 -0.46346557203E+02 -0.52030829356E+03  0.53599637254E+03  0.12000000000E+03 0.  0.
<mgrwt>
<rscale>  0 0.27455982E+03</rscale>
<asrwt>0</asrwt>
<pdfrwt beam="1">  1        2 0.12060923E+00 0.27455982E+03</pdfrwt>
<pdfrwt beam="2">  1       -2 0.36983390E-02 0.27455982E+03</pdfrwt>
<totfact> 0.11222920E+04</totfact>
</mgrwt>
</event>
<event>
 5    1  0.1125356E+001  0.2750352E+03  0.7818608E-02  0.1098432E+00
         -1   -1    0    0    0  501 -0.00000000000E+00  0.00000000000E+00  0.17645532116E+03  0.17645532116E+03  0.00000000000E+00 0. -1.
          1   -1    0    0  501    0  0.00000000000E+00 -0.00000000000E+00 -0.10717213327E+03  0.10717213327E+03  0.00000000000E+00 0. -1.
         35    2    1    2    0    0  0.00000000000E+00  0.00000000000E+00  0.69283187886E+02  0.28362745444E+03  0.27503522099E+03 0.  0.
         25    1    3    3    0    0 -0.30462748452E+02  0.70545454608E+01  0.95940557640E+02  0.15678755134E+03  0.12000000000E+03 0.  0.
         25    1    3    3    0    0  0.30462748452E+02 -0.70545454608E+01 -0.26657369754E+02  0.12683990309E+03  0.12000000000E+03 0.  0.
<mgrwt>
<rscale>  0 0.27503522E+03</rscale>
<asrwt>0</asrwt>
<pdfrwt beam="1">  1        1 0.16488020E-01 0.27503522E+03</pdfrwt>
<pdfrwt beam="2">  1       -1 0.27146973E-01 0.27503522E+03</pdfrwt>
<totfact> 0.39620362E+03</totfact>
</mgrwt>
</event>
<event>
 5    1  0.1125356E+001  0.2754817E+03  0.7818608E-02  0.1098183E+00
         -2   -1    0    0    0  501 -0.00000000000E+00  0.00000000000E+00  0.30777066789E+03  0.30777066789E+03  0.00000000000E+00 0. -1.
          2   -1    0    0  501    0  0.00000000000E+00 -0.00000000000E+00 -0.61645052519E+02  0.61645052519E+02  0.00000000000E+00 0. -1.
         35    2    1    2    0    0  0.00000000000E+00  0.00000000000E+00  0.24612561537E+03  0.36941572041E+03  0.27548167987E+03 0.  0.
         25    1    3    3    0    0  0.48881880259E+02  0.18906890829E+02  0.65766179988E+02  0.14653361105E+03  0.12000000000E+03 0.  0.
         25    1    3    3    0    0 -0.48881880259E+02 -0.18906890829E+02  0.18035943538E+03  0.22288210935E+03  0.12000000000E+03 0.  0.
<mgrwt>
<rscale>  0 0.27548168E+03</rscale>
<asrwt>0</asrwt>
<pdfrwt beam="1">  1        2 0.94838544E-02 0.27548168E+03</pdfrwt>
<pdfrwt beam="2">  1       -2 0.47349333E-01 0.27548168E+03</pdfrwt>
<totfact> 0.29227799E+03</totfact>
</mgrwt>
</event>
<event>
 5    1  0.1125356E+001  0.2732614E+03  0.7818608E-02  0.1099427E+00
         -3   -1    0    0    0  501 -0.00000000000E+00  0.00000000000E+00  0.30464104948E+02  0.30464104948E+02  0.00000000000E+00 0. -1.
          3   -1    0    0  501    0  0.00000000000E+00 -0.00000000000E+00 -0.61278495265E+03  0.61278495265E+03  0.00000000000E+00 0. -1.
         35    2    1    2    0    0  0.00000000000E+00  0.00000000000E+00 -0.58232084770E+03  0.64324905759E+03  0.27326137750E+03 0.  0.
         25    1    3    3    0    0 -0.63553027419E+02  0.71664727145E+01 -0.25978990127E+03  0.29322540549E+03  0.12000000000E+03 0.  0.
         25    1    3    3    0    0  0.63553027419E+02 -0.71664727145E+01 -0.32253094643E+03  0.35002365210E+03  0.12000000000E+03 0.  0.
<mgrwt>
<rscale>  0 0.27326138E+03</rscale>
<asrwt>0</asrwt>
<pdfrwt beam="1">  1        3 0.94274611E-01 0.27326138E+03</pdfrwt>
<pdfrwt beam="2">  1       -3 0.46867852E-02 0.27326138E+03</pdfrwt>
<totfact> 0.66460739E+02</totfact>
</mgrwt>
</event>
<event>
 5    1  0.1125356E+001  0.2749427E+03  0.7818608E-02  0.1098484E+00
          2   -1    0    0  501    0  0.00000000000E+00  0.00000000000E+00  0.87303755121E+03  0.87303755121E+03  0.00000000000E+00 0.  1.
         -2   -1    0    0    0  501 -0.00000000000E+00 -0.00000000000E+00 -0.21646685204E+02  0.21646685204E+02  0.00000000000E+00 0.  1.
         35    2    1    2    0    0  0.00000000000E+00  0.00000000000E+00  0.85139086600E+03  0.89468423641E+03  0.27494267797E+03 0.  0.
         25    1    3    3    0    0  0.17660646872E+02 -0.64515139487E+02  0.44172563505E+03  0.46259662594E+03  0.12000000000E+03 0.  0.
         25    1    3    3    0    0 -0.17660646872E+02  0.64515139487E+02  0.40966523095E+03  0.43208761047E+03  0.12000000000E+03 0.  0.
<mgrwt>
<rscale>  0 0.27494268E+03</rscale>
<asrwt>0</asrwt>
<pdfrwt beam="1">  1        2 0.13431344E+00 0.27494268E+03</pdfrwt>
<pdfrwt beam="2">  1       -2 0.33302599E-02 0.27494268E+03</pdfrwt>
<totfact> 0.11427064E+04</totfact>
</mgrwt>
</event>
<event>
 5    1  0.1125356E+001  0.2698796E+03  0.7818608E-02  0.1101349E+00
         -1   -1    0    0    0  501 -0.00000000000E+00  0.00000000000E+00  0.13996436343E+03  0.13996436343E+03  0.00000000000E+00 0.  1.
          1   -1    0    0  501    0  0.00000000000E+00 -0.00000000000E+00 -0.13009557755E+03  0.13009557755E+03  0.00000000000E+00 0.  1.
         35    2    1    2    0    0  0.00000000000E+00  0.00000000000E+00  0.98687858794E+01  0.27005994098E+03  0.26987956349E+03 0.  0.
         25    1    3    3    0    0 -0.13599264826E+02  0.12659127405E+02 -0.53956884446E+02  0.13287790971E+03  0.12000000000E+03 0.  0.
         25    1    3    3    0    0  0.13599264826E+02 -0.12659127405E+02  0.63825670325E+02  0.13718203127E+03  0.12000000000E+03 0.  0.
<mgrwt>
<rscale>  0 0.26987956E+03</rscale>
<asrwt>0</asrwt>
<pdfrwt beam="1">  1        1 0.20014704E-01 0.26987956E+03</pdfrwt>
<pdfrwt beam="2">  1       -1 0.21532979E-01 0.26987956E+03</pdfrwt>
<totfact> 0.45216514E+03</totfact>
</mgrwt>
</event>
<event>
 5    1  0.1125356E+001  0.2663587E+03  0.7818608E-02  0.1103382E+00
          2   -1    0    0  501    0  0.00000000000E+00  0.00000000000E+00  0.75663201751E+03  0.75663201751E+03  0.00000000000E+00 0. -1.
         -2   -1    0    0    0  501 -0.00000000000E+00 -0.00000000000E+00 -0.23441703846E+02  0.23441703846E+02  0.00000000000E+00 0. -1.
         35    2    1    2    0    0  0.00000000000E+00  0.00000000000E+00  0.73319031367E+03  0.78007372136E+03  0.26635873310E+03 0.  0.
         25    1    3    3    0    0  0.79274128213E+01  0.22494910555E+02  0.52067372786E+03  0.53485511660E+03  0.12000000000E+03 0.  0.
         25    1    3    3    0    0 -0.79274128213E+01 -0.22494910555E+02  0.21251658581E+03  0.24521860476E+03  0.12000000000E+03 0.  0.
<mgrwt>
<rscale>  0 0.26635873E+03</rscale>
<asrwt>0</asrwt>
<pdfrwt beam="1">  1        2 0.11640491E+00 0.26635873E+03</pdfrwt>
<pdfrwt beam="2">  1       -2 0.36064165E-02 0.26635873E+03</pdfrwt>
<totfact> 0.12170703E+04</totfact>
</mgrwt>
</event>
<event>
 5    1  0.1125356E+001  0.2750703E+03  0.7818608E-02  0.1098412E+00
          2   -1    0    0  501    0  0.00000000000E+00  0.00000000000E+00  0.98856413614E+03  0.98856413614E+03  0.00000000000E+00 0. -1.
         -2   -1    0    0    0  501 -0.00000000000E+00 -0.00000000000E+00 -0.19134738975E+02  0.19134738975E+02  0.00000000000E+00 0. -1.
         35    2    1    2    0    0  0.00000000000E+00  0.00000000000E+00  0.96942939717E+03  0.10076988751E+04  0.27507029432E+03 0.  0.
         25    1    3    3    0    0 -0.46931553738E+02 -0.47657147568E+02  0.50849656650E+03  0.52672813917E+03  0.12000000000E+03 0.  0.
         25    1    3    3    0    0  0.46931553738E+02  0.47657147568E+02  0.46093283067E+03  0.48097073595E+03  0.12000000000E+03 0.  0.
<mgrwt>
<rscale>  0 0.27507029E+03</rscale>
<asrwt>0</asrwt>
<pdfrwt beam="1">  1        2 0.15208675E+00 0.27507029E+03</pdfrwt>
<pdfrwt beam="2">  1       -2 0.29438068E-02 0.27507029E+03</pdfrwt>
<totfact> 0.11598447E+04</totfact>
</mgrwt>
</event>
<event>
 5    1  0.1125356E+001  0.2748544E+03  0.7818608E-02  0.1098533E+00
          2   -1    0    0  501    0  0.00000000000E+00  0.00000000000E+00  0.21800659740E+04  0.21800659740E+04  0.00000000000E+00 0. -1.
         -2   -1    0    0    0  501 -0.00000000000E+00 -0.00000000000E+00 -0.86631471427E+01  0.86631471427E+01  0.00000000000E+00 0. -1.
         35    2    1    2    0    0  0.00000000000E+00  0.00000000000E+00  0.21714028268E+04  0.21887291211E+04  0.27485437827E+03 0.  0.
         25    1    3    3    0    0  0.21367892266E+02 -0.62314134366E+02  0.98928573109E+03  0.99871211863E+03  0.12000000000E+03 0.  0.
         25    1    3    3    0    0 -0.21367892266E+02  0.62314134366E+02  0.11821170957E+04  0.11900170025E+04  0.12000000000E+03 0.  0.
<mgrwt>
<rscale>  0 0.27485438E+03</rscale>
<asrwt>0</asrwt>
<pdfrwt beam="1">  1        2 0.33539433E+00 0.27485438E+03</pdfrwt>
<pdfrwt beam="2">  1       -2 0.13327936E-02 0.27485438E+03</pdfrwt>
<totfact> 0.83685112E+03</totfact>
</mgrwt>
</event>
<event>
 5    1  0.1125356E+001  0.2724020E+03  0.7818608E-02  0.1099913E+00
          2   -1    0    0  501    0  0.00000000000E+00  0.00000000000E+00  0.17727150208E+04  0.17727150208E+04  0.00000000000E+00 0. -1.
         -2   -1    0    0    0  501 -0.00000000000E+00 -0.00000000000E+00 -0.10464580221E+02  0.10464580221E+02  0.00000000000E+00 0. -1.
         35    2    1    2    0    0  0.00000000000E+00  0.00000000000E+00  0.17622504406E+04  0.17831796010E+04  0.27240204510E+03 0.  0.
         25    1    3    3    0    0 -0.59802668154E+01 -0.52904892792E+02  0.11185998220E+04  0.11262771653E+04  0.12000000000E+03 0.  0.
         25    1    3    3    0    0  0.59802668154E+01  0.52904892792E+02  0.64365061858E+03  0.65690243573E+03  0.12000000000E+03 0.  0.
<mgrwt>
<rscale>  0 0.27240205E+03</rscale>
<asrwt>0</asrwt>
<pdfrwt beam="1">  1        2 0.27272515E+00 0.27240205E+03</pdfrwt>
<pdfrwt beam="2">  1       -2 0.16099368E-02 0.27240205E+03</pdfrwt>
<totfact> 0.10402076E+04</totfact>
</mgrwt>
</event>
<event>
 5    1  0.1125356E+001  0.2778478E+03  0.7818608E-02  0.1096870E+00
          2   -1    0    0  501    0  0.00000000000E+00  0.00000000000E+00  0.18289882847E+04  0.18289882847E+04  0.00000000000E+00 0. -1.
         -2   -1    0    0    0  501 -0.00000000000E+00 -0.00000000000E+00 -0.10552203337E+02  0.10552203337E+02  0.00000000000E+00 0. -1.
         35    2    1    2    0    0  0.00000000000E+00  0.00000000000E+00  0.18184360814E+04  0.18395404881E+04  0.27784784527E+03 0.  0.
         25    1    3    3    0    0  0.22426752838E+02 -0.24756071816E+02  0.50195047032E+03  0.51717511250E+03  0.12000000000E+03 0.  0.
         25    1    3    3    0    0 -0.22426752838E+02  0.24756071816E+02  0.13164856111E+04  0.13223653756E+04  0.12000000000E+03 0.  0.
<mgrwt>
<rscale>  0 0.27784785E+03</rscale>
<asrwt>0</asrwt>
<pdfrwt beam="1">  1        2 0.28138256E+00 0.27784785E+03</pdfrwt>
<pdfrwt beam="2">  1       -2 0.16234173E-02 0.27784785E+03</pdfrwt>
<totfact> 0.96026004E+03</totfact>
</mgrwt>
</event>
<event>
 5    1  0.1125356E+001  0.2757640E+03  0.7818608E-02  0.1098025E+00
          1   -1    0    0  501    0  0.00000000000E+00  0.00000000000E+00  0.10968465843E+03  0.10968465843E+03  0.00000000000E+00 0.  1.
         -1   -1    0    0    0  501 -0.00000000000E+00 -0.00000000000E+00 -0.17332817035E+03  0.17332817035E+03  0.00000000000E+00 0.  1.
         35    2    1    2    0    0  0.00000000000E+00  0.00000000000E+00 -0.63643511915E+02  0.28301282878E+03  0.27576396545E+03 0.  0.
         25    1    3    3    0    0 -0.26138995127E+02 -0.34916341158E+02  0.21594884841E+02  0.12949415816E+03  0.12000000000E+03 0.  0.
         25    1    3    3    0    0  0.26138995127E+02  0.34916341158E+02 -0.85238396756E+02  0.15351867062E+03  0.12000000000E+03 0.  0.
<mgrwt>
<rscale>  0 0.27576397E+03</rscale>
<asrwt>0</asrwt>
<pdfrwt beam="1">  1        1 0.16874563E-01 0.27576397E+03</pdfrwt>
<pdfrwt beam="2">  1       -1 0.26665872E-01 0.27576397E+03</pdfrwt>
<totfact> 0.39615089E+03</totfact>
</mgrwt>
</event>
<event>
 5    1  0.1125356E+001  0.2750401E+03  0.7818608E-02  0.1098429E+00
          2   -1    0    0  501    0  0.00000000000E+00  0.00000000000E+00  0.14362924777E+04  0.14362924777E+04  0.00000000000E+00 0.  1.
         -2   -1    0    0    0  501 -0.00000000000E+00 -0.00000000000E+00 -0.13167066962E+02  0.13167066962E+02  0.00000000000E+00 0.  1.
         35    2    1    2    0    0  0.00000000000E+00  0.00000000000E+00  0.14231254107E+04  0.14494595446E+04  0.27504006421E+03 0.  0.
         25    1    3    3    0    0 -0.44778219888E+02  0.49785020490E+02  0.68361583666E+03  0.69729064914E+03  0.12000000000E+03 0.  0.
         25    1    3    3    0    0  0.44778219888E+02 -0.49785020490E+02  0.73950957406E+03  0.75216889551E+03  0.12000000000E+03 0.  0.
<mgrwt>
<rscale>  0 0.27504006E+03</rscale>
<asrwt>0</asrwt>
<pdfrwt beam="1">  1        2 0.22096795E+00 0.27504006E+03</pdfrwt>
<pdfrwt beam="2">  1       -2 0.20257037E-02 0.27504006E+03</pdfrwt>
<totfact> 0.11201368E+04</totfact>
</mgrwt>
</event>
<event>
 5    1  0.1125356E+001  0.2741684E+03  0.7818608E-02  0.1098917E+00
         -2   -1    0    0    0  501 -0.00000000000E+00  0.00000000000E+00  0.32560091254E+03  0.32560091254E+03  0.00000000000E+00 0. -1.
          2   -1    0    0  501    0  0.00000000000E+00 -0.00000000000E+00 -0.57715058172E+02  0.57715058172E+02  0.00000000000E+00 0. -1.
         35    2    1    2    0    0  0.00000000000E+00  0.00000000000E+00  0.26788585437E+03  0.38331597072E+03  0.27416838336E+03 0.  0.
         25    1    3    3    0    0  0.15576338064E+02 -0.63839343119E+02  0.12191666502E+03  0.18325325985E+03  0.12000000000E+03 0.  0.
         25    1    3    3    0    0 -0.15576338064E+02  0.63839343119E+02  0.14596918936E+03  0.20006271087E+03  0.12000000000E+03 0.  0.
<mgrwt>
<rscale>  0 0.27416838E+03</rscale>
<asrwt>0</asrwt>
<pdfrwt beam="1">  1        2 0.88792399E-02 0.27416838E+03</pdfrwt>
<pdfrwt beam="2">  1       -2 0.50092447E-01 0.27416838E+03</pdfrwt>
<totfact> 0.28383370E+03</totfact>
</mgrwt>
</event>
<event>
 5    1  0.1125356E+001  0.2743904E+03  0.7818608E-02  0.1098793E+00
         -2   -1    0    0    0  501 -0.00000000000E+00  0.00000000000E+00  0.23886664452E+02  0.23886664452E+02  0.00000000000E+00 0. -1.
          2   -1    0    0  501    0  0.00000000000E+00 -0.00000000000E+00 -0.78799269925E+03  0.78799269925E+03  0.00000000000E+00 0. -1.
         35    2    1    2    0    0  0.00000000000E+00  0.00000000000E+00 -0.76410603480E+03  0.81187936370E+03  0.27439035841E+03 0.  0.
         25    1    3    3    0    0  0.18548892732E+02  0.55615469842E+02 -0.28917274308E+03  0.31852475139E+03  0.12000000000E+03 0.  0.
         25    1    3    3    0    0 -0.18548892732E+02 -0.55615469842E+02 -0.47493329171E+03  0.49335461231E+03  0.12000000000E+03 0.  0.
<mgrwt>
<rscale>  0 0.27439036E+03</rscale>
<asrwt>0</asrwt>
<pdfrwt beam="1">  1        2 0.12122963E+00 0.27439036E+03</pdfrwt>
<pdfrwt beam="2">  1       -2 0.36748721E-02 0.27439036E+03</pdfrwt>
<totfact> 0.11257040E+04</totfact>
</mgrwt>
</event>
<event>
 5    1  0.1125356E+001  0.2745626E+03  0.7818608E-02  0.1098696E+00
          4   -1    0    0  501    0  0.00000000000E+00  0.00000000000E+00  0.19752276528E+03  0.19752276528E+03  0.00000000000E+00 0.  1.
         -4   -1    0    0    0  501 -0.00000000000E+00 -0.00000000000E+00 -0.95412579283E+02  0.95412579283E+02  0.00000000000E+00 0.  1.
         35    2    1    2    0    0  0.00000000000E+00  0.00000000000E+00  0.10211018599E+03  0.29293534456E+03  0.27456260854E+03 0.  0.
         25    1    3    3    0    0  0.12149590382E+02  0.65301194231E+02  0.44806752268E+02  0.14428965162E+03  0.12000000000E+03 0.  0.
         25    1    3    3    0    0 -0.12149590382E+02 -0.65301194231E+02  0.57303433727E+02  0.14864569295E+03  0.12000000000E+03 0.  0.
<mgrwt>
<rscale>  0 0.27456261E+03</rscale>
<asrwt>0</asrwt>
<pdfrwt beam="1">  1        4 0.30388118E-01 0.27456261E+03</pdfrwt>
<pdfrwt beam="2">  1       -4 0.14678858E-01 0.27456261E+03</pdfrwt>
<totfact> 0.76161916E+02</totfact>
</mgrwt>
</event>
<event>
 5    1  0.1125356E+001  0.2720915E+03  0.7818608E-02  0.1100089E+00
         -1   -1    0    0    0  501 -0.00000000000E+00  0.00000000000E+00  0.22315416069E+02  0.22315416069E+02  0.00000000000E+00 0. -1.
          1   -1    0    0  501    0  0.00000000000E+00 -0.00000000000E+00 -0.82940163719E+03  0.82940163719E+03  0.00000000000E+00 0. -1.
         35    2    1    2    0    0  0.00000000000E+00  0.00000000000E+00 -0.80708622112E+03  0.85171705326E+03  0.27209147449E+03 0.  0.
         25    1    3    3    0    0 -0.34955118934E+02  0.19253424933E+02 -0.56055265479E+03  0.57464061247E+03  0.12000000000E+03 0.  0.
         25    1    3    3    0    0  0.34955118934E+02 -0.19253424933E+02 -0.24653356633E+03  0.27707644079E+03  0.12000000000E+03 0.  0.
<mgrwt>
<rscale>  0 0.27209147E+03</rscale>
<asrwt>0</asrwt>
<pdfrwt beam="1">  1        1 0.12760026E+00 0.27209147E+03</pdfrwt>
<pdfrwt beam="2">  1       -1 0.34331408E-02 0.27209147E+03</pdfrwt>
<totfact> 0.67107168E+03</totfact>
</mgrwt>
</event>
<event>
 5    1  0.1125356E+001  0.2759859E+03  0.7818608E-02  0.1097902E+00
          2   -1    0    0  501    0  0.00000000000E+00  0.00000000000E+00  0.31033250977E+03  0.31033250977E+03  0.00000000000E+00 0. -1.
         -2   -1    0    0    0  501 -0.00000000000E+00 -0.00000000000E+00 -0.61360185695E+02  0.61360185695E+02  0.00000000000E+00 0. -1.
         35    2    1    2    0    0  0.00000000000E+00  0.00000000000E+00  0.24897232408E+03  0.37169269547E+03  0.27598594476E+03 0.  0.
         25    1    3    3    0    0 -0.58062833323E+01 -0.67727707673E+02  0.11826976144E+03  0.18168239261E+03  0.12000000000E+03 0.  0.
         25    1    3    3    0    0  0.58062833323E+01  0.67727707673E+02  0.13070256264E+03  0.19001030286E+03  0.12000000000E+03 0.  0.
<mgrwt>
<rscale>  0 0.27598594E+03</rscale>
<asrwt>0</asrwt>
<pdfrwt beam="1">  1        2 0.47743462E-01 0.27598594E+03</pdfrwt>
<pdfrwt beam="2">  1       -2 0.94400288E-02 0.27598594E+03</pdfrwt>
<totfact> 0.76118068E+03</totfact>
</mgrwt>
</event>
<event>
 4    1  0.1125356E+001  0.3151440E+03  0.7818608E-02  0.1077906E+00
         -1   -1    0    0    0  501 -0.00000000000E+00  0.00000000000E+00  0.12191197688E+03  0.12191197688E+03  0.00000000000E+00 0. -1.
          1   -1    0    0  501    0  0.00000000000E+00 -0.00000000000E+00 -0.20366279116E+03  0.20366279116E+03  0.00000000000E+00 0. -1.
         25    1    1    2    0    0  0.43192190679E+02  0.92324030786E+02 -0.47379948832E+02  0.16442065426E+03  0.12000000000E+03 0.  0.
         25    1    1    2    0    0 -0.43192190679E+02 -0.92324030786E+02 -0.34370865443E+02  0.16115411378E+03  0.12000000000E+03 0.  0.
<mgrwt>
<rscale>  0 0.31514399E+03</rscale>
<asrwt>0</asrwt>
<pdfrwt beam="1">  1        1 0.31332737E-01 0.31514399E+03</pdfrwt>
<pdfrwt beam="2">  1       -1 0.18755689E-01 0.31514399E+03</pdfrwt>
<totfact> 0.32098325E+03</totfact>
</mgrwt>
</event>
<event>
 5    1  0.1125356E+001  0.2746265E+03  0.7818608E-02  0.1098661E+00
          2   -1    0    0  501    0  0.00000000000E+00  0.00000000000E+00  0.18095451815E+04  0.18095451815E+04  0.00000000000E+00 0.  1.
         -2   -1    0    0    0  501 -0.00000000000E+00 -0.00000000000E+00 -0.10419709001E+02  0.10419709001E+02  0.00000000000E+00 0.  1.
         35    2    1    2    0    0  0.00000000000E+00  0.00000000000E+00  0.17991254725E+04  0.18199648905E+04  0.27462654071E+03 0.  0.
         25    1    3    3    0    0  0.15653403166E+02 -0.64842078592E+02  0.88414856099E+03  0.89474476925E+03  0.12000000000E+03 0.  0.
         25    1    3    3    0    0 -0.15653403166E+02  0.64842078592E+02  0.91497691154E+03  0.92522012129E+03  0.12000000000E+03 0.  0.
<mgrwt>
<rscale>  0 0.27462654E+03</rscale>
<asrwt>0</asrwt>
<pdfrwt beam="1">  1        2 0.27839132E+00 0.27462654E+03</pdfrwt>
<pdfrwt beam="2">  1       -2 0.16030336E-02 0.27462654E+03</pdfrwt>
<totfact> 0.10013100E+04</totfact>
</mgrwt>
</event>
<event>
 5    1  0.1125356E+001  0.2792429E+03  0.7818608E-02  0.1096103E+00
          2   -1    0    0  501    0  0.00000000000E+00  0.00000000000E+00  0.10216475934E+04  0.10216475934E+04  0.00000000000E+00 0. -1.
         -2   -1    0    0    0  501 -0.00000000000E+00 -0.00000000000E+00 -0.19081083599E+02  0.19081083599E+02  0.00000000000E+00 0. -1.
         35    2    1    2    0    0  0.00000000000E+00  0.00000000000E+00  0.10025665098E+04  0.10407286770E+04  0.27924285587E+03 0.  0.
         25    1    3    3    0    0  0.69066991842E+01 -0.69201123732E+02  0.44146049978E+03  0.46273520601E+03  0.12000000000E+03 0.  0.
         25    1    3    3    0    0 -0.69066991842E+01  0.69201123732E+02  0.56110601002E+03  0.57799347099E+03  0.12000000000E+03 0.  0.
<mgrwt>
<rscale>  0 0.27924286E+03</rscale>
<asrwt>0</asrwt>
<pdfrwt beam="1">  1        2 0.15717651E+00 0.27924286E+03</pdfrwt>
<pdfrwt beam="2">  1       -2 0.29355521E-02 0.27924286E+03</pdfrwt>
<totfact> 0.11122207E+04</totfact>
</mgrwt>
</event>
<event>
 5    1  0.1125356E+001  0.2811145E+03  0.7818608E-02  0.1095082E+00
          2   -1    0    0  501    0  0.00000000000E+00  0.00000000000E+00  0.21666407474E+04  0.21666407474E+04  0.00000000000E+00 0.  1.
         -2   -1    0    0    0  501 -0.00000000000E+00 -0.00000000000E+00 -0.91184226594E+01  0.91184226594E+01  0.00000000000E+00 0.  1.
         35    2    1    2    0    0  0.00000000000E+00  0.00000000000E+00  0.21575223248E+04  0.21757591701E+04  0.28111453955E+03 0.  0.
         25    1    3    3    0    0  0.24648073645E+02  0.42956738004E+02  0.14958141267E+04  0.15014368820E+04  0.12000000000E+03 0.  0.
         25    1    3    3    0    0 -0.24648073645E+02 -0.42956738004E+02  0.66170819807E+03  0.67432228813E+03  0.12000000000E+03 0.  0.
<mgrwt>
<rscale>  0 0.28111454E+03</rscale>
<asrwt>0</asrwt>
<pdfrwt beam="1">  1        2 0.33332893E+00 0.28111454E+03</pdfrwt>
<pdfrwt beam="2">  1       -2 0.14028360E-02 0.28111454E+03</pdfrwt>
<totfact> 0.78944499E+03</totfact>
</mgrwt>
</event>
<event>
 5    1  0.1125356E+001  0.2759928E+03  0.7818608E-02  0.1097898E+00
         -2   -1    0    0    0  501 -0.00000000000E+00  0.00000000000E+00  0.60021528730E+02  0.60021528730E+02  0.00000000000E+00 0.  1.
          2   -1    0    0  501    0  0.00000000000E+00 -0.00000000000E+00 -0.31726959687E+03  0.31726959687E+03  0.00000000000E+00 0.  1.
         35    2    1    2    0    0  0.00000000000E+00  0.00000000000E+00 -0.25724806814E+03  0.37729112559E+03  0.27599279863E+03 0.  0.
         25    1    3    3    0    0  0.26937290194E+02  0.14812823104E+01 -0.21416132795E+03  0.24696737879E+03  0.12000000000E+03 0.  0.
         25    1    3    3    0    0 -0.26937290194E+02 -0.14812823104E+01 -0.43086740190E+02  0.13032374680E+03  0.12000000000E+03 0.  0.
<mgrwt>
<rscale>  0 0.27599280E+03</rscale>
<asrwt>0</asrwt>
<pdfrwt beam="1">  1        2 0.48810708E-01 0.27599280E+03</pdfrwt>
<pdfrwt beam="2">  1       -2 0.92340813E-02 0.27599280E+03</pdfrwt>
<totfact> 0.76966472E+03</totfact>
</mgrwt>
</event>
<event>
 5    1  0.1125356E+001  0.2840858E+03  0.7818608E-02  0.1093478E+00
         -1   -1    0    0    0  501 -0.00000000000E+00  0.00000000000E+00  0.10088589735E+03  0.10088589735E+03  0.00000000000E+00 0. -1.
          1   -1    0    0  501    0  0.00000000000E+00 -0.00000000000E+00 -0.19999020707E+03  0.19999020707E+03  0.00000000000E+00 0. -1.
         35    2    1    2    0    0  0.00000000000E+00  0.00000000000E+00 -0.99104309728E+02  0.30087610442E+03  0.28408584267E+03 0.  0.
         25    1    3    3    0    0 -0.23501810970E+02 -0.72160924577E+02 -0.45229595009E+02  0.14901426247E+03  0.12000000000E+03 0.  0.
         25    1    3    3    0    0  0.23501810970E+02  0.72160924577E+02 -0.53874714719E+02  0.15186184195E+03  0.12000000000E+03 0.  0.
<mgrwt>
<rscale>  0 0.28408584E+03</rscale>
<asrwt>0</asrwt>
<pdfrwt beam="1">  1        1 0.30767724E-01 0.28408584E+03</pdfrwt>
<pdfrwt beam="2">  1       -1 0.15520907E-01 0.28408584E+03</pdfrwt>
<totfact> 0.44408416E+03</totfact>
</mgrwt>
</event>
<event>
 5    1  0.1125356E+001  0.2736075E+03  0.7818608E-02  0.1099233E+00
         -2   -1    0    0    0  501 -0.00000000000E+00  0.00000000000E+00  0.20053005270E+02  0.20053005270E+02  0.00000000000E+00 0.  1.
          2   -1    0    0  501    0  0.00000000000E+00 -0.00000000000E+00 -0.93328971016E+03  0.93328971016E+03  0.00000000000E+00 0.  1.
         35    2    1    2    0    0  0.00000000000E+00  0.00000000000E+00 -0.91323670489E+03  0.95334271543E+03  0.27360748145E+03 0.  0.
         25    1    3    3    0    0  0.44884114627E+02 -0.26772927429E+02 -0.31794800479E+03  0.34383470904E+03  0.12000000000E+03 0.  0.
         25    1    3    3    0    0 -0.44884114627E+02  0.26772927429E+02 -0.59528870010E+03  0.60950800639E+03  0.12000000000E+03 0.  0.
<mgrwt>
<rscale>  0 0.27360748E+03</rscale>
<asrwt>0</asrwt>
<pdfrwt beam="1">  1        2 0.14358303E+00 0.27360748E+03</pdfrwt>
<pdfrwt beam="2">  1       -2 0.30850777E-02 0.27360748E+03</pdfrwt>
<totfact> 0.11709702E+04</totfact>
</mgrwt>
</event>
<event>
 5    1  0.1125356E+001  0.2758777E+03  0.7818608E-02  0.1097962E+00
         -1   -1    0    0    0  501 -0.00000000000E+00  0.00000000000E+00  0.67474152239E+02  0.67474152239E+02  0.00000000000E+00 0.  1.
          1   -1    0    0  501    0  0.00000000000E+00 -0.00000000000E+00 -0.28199137615E+03  0.28199137615E+03  0.00000000000E+00 0.  1.
         35    2    1    2    0    0  0.00000000000E+00  0.00000000000E+00 -0.21451722391E+03  0.34946552839E+03  0.27587771961E+03 0.  0.
         25    1    3    3    0    0 -0.65067286391E+02 -0.32987568551E+01 -0.82484341500E+02  0.15952523358E+03  0.12000000000E+03 0.  0.
         25    1    3    3    0    0  0.65067286391E+02  0.32987568551E+01 -0.13203288241E+03  0.18994029481E+03  0.12000000000E+03 0.  0.
<mgrwt>
<rscale>  0 0.27587772E+03</rscale>
<asrwt>0</asrwt>
<pdfrwt beam="1">  1        1 0.43383289E-01 0.27587772E+03</pdfrwt>
<pdfrwt beam="2">  1       -1 0.10380639E-01 0.27587772E+03</pdfrwt>
<totfact> 0.54151811E+03</totfact>
</mgrwt>
</event>
<event>
 5    1  0.1125356E+001  0.2670088E+03  0.7818608E-02  0.1103004E+00
         -2   -1    0    0    0  501 -0.00000000000E+00  0.00000000000E+00  0.75117497173E+03  0.75117497173E+03  0.00000000000E+00 0.  1.
          2   -1    0    0  501    0  0.00000000000E+00 -0.00000000000E+00 -0.23727397277E+02  0.23727397277E+02  0.00000000000E+00 0.  1.
         35    2    1    2    0    0  0.00000000000E+00  0.00000000000E+00  0.72744757445E+03  0.77490236901E+03  0.26700881618E+03 0.  0.
         25    1    3    3    0    0  0.45737057603E+02 -0.36202075265E+02  0.35043763327E+03  0.37497867073E+03  0.12000000000E+03 0.  0.
         25    1    3    3    0    0 -0.45737057603E+02  0.36202075265E+02  0.37700994118E+03  0.39992369827E+03  0.12000000000E+03 0.  0.
<mgrwt>
<rscale>  0 0.26700882E+03</rscale>
<asrwt>0</asrwt>
<pdfrwt beam="1">  1        2 0.36503694E-02 0.26700882E+03</pdfrwt>
<pdfrwt beam="2">  1       -2 0.11556536E+00 0.26700882E+03</pdfrwt>
<totfact> 0.14569301E+03</totfact>
</mgrwt>
</event>
<event>
 5    1  0.1125356E+001  0.2750607E+03  0.7818608E-02  0.1098418E+00
          2   -1    0    0  501    0  0.00000000000E+00  0.00000000000E+00  0.99581462010E+03  0.99581462010E+03  0.00000000000E+00 0. -1.
         -2   -1    0    0    0  501 -0.00000000000E+00 -0.00000000000E+00 -0.18994100655E+02  0.18994100655E+02  0.00000000000E+00 0. -1.
         35    2    1    2    0    0  0.00000000000E+00  0.00000000000E+00  0.97682051944E+03  0.10148087208E+04  0.27506074331E+03 0.  0.
         25    1    3    3    0    0  0.16744935139E+02  0.64790674933E+02  0.51066278319E+03  0.52882388613E+03  0.12000000000E+03 0.  0.
         25    1    3    3    0    0 -0.16744935139E+02 -0.64790674933E+02  0.46615773626E+03  0.48598483462E+03  0.12000000000E+03 0.  0.
<mgrwt>
<rscale>  0 0.27506074E+03</rscale>
<asrwt>0</asrwt>
<pdfrwt beam="1">  1        2 0.15320221E+00 0.27506074E+03</pdfrwt>
<pdfrwt beam="2">  1       -2 0.29221701E-02 0.27506074E+03</pdfrwt>
<totfact> 0.11606633E+04</totfact>
</mgrwt>
</event>
<event>
 5    1  0.1125356E+001  0.2711506E+03  0.7818608E-02  0.1100623E+00
          3   -1    0    0  501    0  0.00000000000E+00  0.00000000000E+00  0.36518250054E+03  0.36518250054E+03  0.00000000000E+00 0. -1.
         -3   -1    0    0    0  501 -0.00000000000E+00 -0.00000000000E+00 -0.50332811682E+02  0.50332811682E+02  0.00000000000E+00 0. -1.
         35    2    1    2    0    0  0.00000000000E+00  0.00000000000E+00  0.31484968886E+03  0.41551531222E+03  0.27115060044E+03 0.  0.
         25    1    3    3    0    0  0.35403630147E+02  0.16423135325E+02  0.23339193431E+03  0.26532043155E+03  0.12000000000E+03 0.  0.
         25    1    3    3    0    0 -0.35403630147E+02 -0.16423135325E+02  0.81457754549E+02  0.15019488066E+03  0.12000000000E+03 0.  0.
<mgrwt>
<rscale>  0 0.27115060E+03</rscale>
<asrwt>0</asrwt>
<pdfrwt beam="1">  1        3 0.56181921E-01 0.27115060E+03</pdfrwt>
<pdfrwt beam="2">  1       -3 0.77435097E-02 0.27115060E+03</pdfrwt>
<totfact> 0.90101212E+02</totfact>
</mgrwt>
</event>
<event>
 5    1  0.1125356E+001  0.2744886E+03  0.7818608E-02  0.1098738E+00
         -2   -1    0    0    0  501 -0.00000000000E+00  0.00000000000E+00  0.90981009021E+01  0.90981009021E+01  0.00000000000E+00 0.  1.
          2   -1    0    0  501    0  0.00000000000E+00 -0.00000000000E+00 -0.20703224218E+04  0.20703224218E+04  0.00000000000E+00 0.  1.
         35    2    1    2    0    0  0.00000000000E+00  0.00000000000E+00 -0.20612243209E+04  0.20794205227E+04  0.27448863214E+03 0.  0.
         25    1    3    3    0    0 -0.41457628597E+02 -0.27794271649E+02 -0.69653300224E+03  0.70855450018E+03  0.12000000000E+03 0.  0.
         25    1    3    3    0    0  0.41457628597E+02  0.27794271649E+02 -0.13646913187E+04  0.13708660225E+04  0.12000000000E+03 0.  0.
<mgrwt>
<rscale>  0 0.27448863E+03</rscale>
<asrwt>0</asrwt>
<pdfrwt beam="1">  1        2 0.31851127E+00 0.27448863E+03</pdfrwt>
<pdfrwt beam="2">  1       -2 0.13997073E-02 0.27448863E+03</pdfrwt>
<totfact> 0.89056509E+03</totfact>
</mgrwt>
</event>
<event>
 5    1  0.1125356E+001  0.2751844E+03  0.7818608E-02  0.1098349E+00
          1   -1    0    0  501    0  0.00000000000E+00  0.00000000000E+00  0.12728763423E+04  0.12728763423E+04  0.00000000000E+00 0.  1.
         -1   -1    0    0    0  501 -0.00000000000E+00 -0.00000000000E+00 -0.14873100123E+02  0.14873100123E+02  0.00000000000E+00 0.  1.
         35    2    1    2    0    0  0.00000000000E+00  0.00000000000E+00  0.12580032422E+04  0.12877494424E+04  0.27518442749E+03 0.  0.
         25    1    3    3    0    0  0.29584970324E+02 -0.30051787017E+02  0.87454561087E+03  0.88374679963E+03  0.12000000000E+03 0.  0.
         25    1    3    3    0    0 -0.29584970324E+02  0.30051787017E+02  0.38345763129E+03  0.40400264277E+03  0.12000000000E+03 0.  0.
<mgrwt>
<rscale>  0 0.27518443E+03</rscale>
<asrwt>0</asrwt>
<pdfrwt beam="1">  1        1 0.19582704E+00 0.27518443E+03</pdfrwt>
<pdfrwt beam="2">  1       -1 0.22881702E-02 0.27518443E+03</pdfrwt>
<totfact> 0.57320526E+03</totfact>
</mgrwt>
</event>
<event>
 5    1  0.1125356E+001  0.2774649E+03  0.7818608E-02  0.1097082E+00
         -2   -1    0    0    0  501 -0.00000000000E+00  0.00000000000E+00  0.28572677942E+02  0.28572677942E+02  0.00000000000E+00 0. -1.
          2   -1    0    0  501    0  0.00000000000E+00 -0.00000000000E+00 -0.67360502940E+03  0.67360502940E+03  0.00000000000E+00 0. -1.
         35    2    1    2    0    0  0.00000000000E+00  0.00000000000E+00 -0.64503235146E+03  0.70217770735E+03  0.27746494961E+03 0.  0.
         25    1    3    3    0    0 -0.19007866276E+02 -0.82160245987E+01 -0.49072420675E+03  0.50560760391E+03  0.12000000000E+03 0.  0.
         25    1    3    3    0    0  0.19007866276E+02  0.82160245987E+01 -0.15430814471E+03  0.19657010343E+03  0.12000000000E+03 0.  0.
<mgrwt>
<rscale>  0 0.27746495E+03</rscale>
<asrwt>0</asrwt>
<pdfrwt beam="1">  1        2 0.10363154E+00 0.27746495E+03</pdfrwt>
<pdfrwt beam="2">  1       -2 0.43957968E-02 0.27746495E+03</pdfrwt>
<totfact> 0.10432007E+04</totfact>
</mgrwt>
</event>
<event>
 5    1  0.1125356E+001  0.2745397E+03  0.7818608E-02  0.1098709E+00
          2   -1    0    0  501    0  0.00000000000E+00  0.00000000000E+00  0.49318898760E+03  0.49318898760E+03  0.00000000000E+00 0.  1.
         -2   -1    0    0    0  501 -0.00000000000E+00 -0.00000000000E+00 -0.38206482563E+02  0.38206482563E+02  0.00000000000E+00 0.  1.
         35    2    1    2    0    0  0.00000000000E+00  0.00000000000E+00  0.45498250504E+03  0.53139547017E+03  0.27453973450E+03 0.  0.
         25    1    3    3    0    0  0.97167341913E+01 -0.57804760534E+02  0.28892017677E+03  0.31829337695E+03  0.12000000000E+03 0.  0.
         25    1    3    3    0    0 -0.97167341913E+01  0.57804760534E+02  0.16606232827E+03  0.21310209322E+03  0.12000000000E+03 0.  0.
<mgrwt>
<rscale>  0 0.27453973E+03</rscale>
<asrwt>0</asrwt>
<pdfrwt beam="1">  1        2 0.75875224E-01 0.27453973E+03</pdfrwt>
<pdfrwt beam="2">  1       -2 0.58779207E-02 0.27453973E+03</pdfrwt>
<totfact> 0.96018675E+03</totfact>
</mgrwt>
</event>
<event>
 5    1  0.1125356E+001  0.2752586E+03  0.7818608E-02  0.1098307E+00
          2   -1    0    0  501    0  0.00000000000E+00  0.00000000000E+00  0.25724039312E+04  0.25724039312E+04  0.00000000000E+00 0. -1.
         -2   -1    0    0    0  501 -0.00000000000E+00 -0.00000000000E+00 -0.73634704076E+01  0.73634704076E+01  0.00000000000E+00 0. -1.
         35    2    1    2    0    0  0.00000000000E+00  0.00000000000E+00  0.25650404608E+04  0.25797674016E+04  0.27525857097E+03 0.  0.
         25    1    3    3    0    0  0.25451177373E+02 -0.19030419274E+02  0.18395058168E+04  0.18436896619E+04  0.12000000000E+03 0.  0.
         25    1    3    3    0    0 -0.25451177373E+02  0.19030419274E+02  0.72553464400E+03  0.73607773973E+03  0.12000000000E+03 0.  0.
<mgrwt>
<rscale>  0 0.27525857E+03</rscale>
<asrwt>0</asrwt>
<pdfrwt beam="1">  1        2 0.39575373E+00 0.27525857E+03</pdfrwt>
<pdfrwt beam="2">  1       -2 0.11328437E-02 0.27525857E+03</pdfrwt>
<totfact> 0.65055848E+03</totfact>
</mgrwt>
</event>
<event>
 5    1  0.1125356E+001  0.2754417E+03  0.7818608E-02  0.1098205E+00
          1   -1    0    0  501    0  0.00000000000E+00  0.00000000000E+00  0.15710734602E+02  0.15710734602E+02  0.00000000000E+00 0. -1.
         -1   -1    0    0    0  501 -0.00000000000E+00 -0.00000000000E+00 -0.12072661933E+04  0.12072661933E+04  0.00000000000E+00 0. -1.
         35    2    1    2    0    0  0.00000000000E+00  0.00000000000E+00 -0.11915554587E+04  0.12229769279E+04  0.27544174525E+03 0.  0.
         25    1    3    3    0    0 -0.41071998120E+01 -0.67452712739E+02 -0.59821454991E+03  0.61386267623E+03  0.12000000000E+03 0.  0.
         25    1    3    3    0    0  0.41071998120E+01  0.67452712739E+02 -0.59334090879E+03  0.60911425167E+03  0.12000000000E+03 0.  0.
<mgrwt>
<rscale>  0 0.27544175E+03</rscale>
<asrwt>0</asrwt>
<pdfrwt beam="1">  1        1 0.24170351E-02 0.27544175E+03</pdfrwt>
<pdfrwt beam="2">  1       -1 0.18573334E+00 0.27544175E+03</pdfrwt>
<totfact> 0.96523017E+02</totfact>
</mgrwt>
</event>
<event>
 5    1  0.1125356E+001  0.2749364E+03  0.7818608E-02  0.1098487E+00
          3   -1    0    0  501    0  0.00000000000E+00  0.00000000000E+00  0.40216357832E+02  0.40216357832E+02  0.00000000000E+00 0.  1.
         -3   -1    0    0    0  501 -0.00000000000E+00 -0.00000000000E+00 -0.46989587956E+03  0.46989587956E+03  0.00000000000E+00 0.  1.
         35    2    1    2    0    0  0.00000000000E+00  0.00000000000E+00 -0.42967952172E+03  0.51011223739E+03  0.27493636235E+03 0.  0.
         25    1    3    3    0    0  0.24580059089E+02  0.62333792117E+02 -0.22002816652E+03  0.25942643467E+03  0.12000000000E+03 0.  0.
         25    1    3    3    0    0 -0.24580059089E+02 -0.62333792117E+02 -0.20965135520E+03  0.25068580271E+03  0.12000000000E+03 0.  0.
<mgrwt>
<rscale>  0 0.27493636E+03</rscale>
<asrwt>0</asrwt>
<pdfrwt beam="1">  1        3 0.61871319E-02 0.27493636E+03</pdfrwt>
<pdfrwt beam="2">  1       -3 0.72291675E-01 0.27493636E+03</pdfrwt>
<totfact> 0.76432598E+02</totfact>
</mgrwt>
</event>
<event>
 5    1  0.1125356E+001  0.2754554E+03  0.7818608E-02  0.1098197E+00
         -1   -1    0    0    0  501 -0.00000000000E+00  0.00000000000E+00  0.31982598460E+03  0.31982598460E+03  0.00000000000E+00 0.  1.
          1   -1    0    0  501    0  0.00000000000E+00 -0.00000000000E+00 -0.59310144775E+02  0.59310144775E+02  0.00000000000E+00 0.  1.
         35    2    1    2    0    0  0.00000000000E+00  0.00000000000E+00  0.26051583983E+03  0.37913612938E+03  0.27545544431E+03 0.  0.
         25    1    3    3    0    0  0.27390905260E+02 -0.37075434340E+02  0.62212145935E+02  0.14281176641E+03  0.12000000000E+03 0.  0.
         25    1    3    3    0    0 -0.27390905260E+02  0.37075434340E+02  0.19830369389E+03  0.23632436297E+03  0.12000000000E+03 0.  0.
<mgrwt>
<rscale>  0 0.27545544E+03</rscale>
<asrwt>0</asrwt>
<pdfrwt beam="1">  1        1 0.91246378E-02 0.27545544E+03</pdfrwt>
<pdfrwt beam="2">  1       -1 0.49203997E-01 0.27545544E+03</pdfrwt>
<totfact> 0.30640149E+03</totfact>
</mgrwt>
</event>
<event>
 5    1  0.1125356E+001  0.2753587E+03  0.7818608E-02  0.1098251E+00
          2   -1    0    0  501    0  0.00000000000E+00  0.00000000000E+00  0.34216676576E+03  0.34216676576E+03  0.00000000000E+00 0.  1.
         -2   -1    0    0    0  501 -0.00000000000E+00 -0.00000000000E+00 -0.55398743585E+02  0.55398743585E+02  0.00000000000E+00 0.  1.
         35    2    1    2    0    0  0.00000000000E+00  0.00000000000E+00  0.28676802218E+03  0.39756550935E+03  0.27535873997E+03 0.  0.
         25    1    3    3    0    0 -0.73589032981E+01  0.66787086679E+02  0.15262219249E+03  0.20544634834E+03  0.12000000000E+03 0.  0.
         25    1    3    3    0    0  0.73589032981E+01 -0.66787086679E+02  0.13414582969E+03  0.19211916101E+03  0.12000000000E+03 0.  0.
<mgrwt>
<rscale>  0 0.27535874E+03</rscale>
<asrwt>0</asrwt>
<pdfrwt beam="1">  1        2 0.52641040E-01 0.27535874E+03</pdfrwt>
<pdfrwt beam="2">  1       -2 0.85228838E-02 0.27535874E+03</pdfrwt>
<totfact> 0.80486152E+03</totfact>
</mgrwt>
</event>
<event>
 5    1  0.1125356E+001  0.2751506E+03  0.7818608E-02  0.1098367E+00
          2   -1    0    0  501    0  0.00000000000E+00  0.00000000000E+00  0.12709948761E+04  0.12709948761E+04  0.00000000000E+00 0.  1.
         -2   -1    0    0    0  501 -0.00000000000E+00 -0.00000000000E+00 -0.14891457321E+02  0.14891457321E+02  0.00000000000E+00 0.  1.
         35    2    1    2    0    0  0.00000000000E+00  0.00000000000E+00  0.12561034188E+04  0.12858863335E+04  0.27515062023E+03 0.  0.
         25    1    3    3    0    0  0.37626894590E+01  0.62134231946E+02  0.74739672426E+03  0.75952398517E+03  0.12000000000E+03 0.  0.
         25    1    3    3    0    0 -0.37626894590E+01 -0.62134231946E+02  0.50870669456E+03  0.52636234829E+03  0.12000000000E+03 0.  0.
<mgrwt>
<rscale>  0 0.27515062E+03</rscale>
<asrwt>0</asrwt>
<pdfrwt beam="1">  1        2 0.19553759E+00 0.27515062E+03</pdfrwt>
<pdfrwt beam="2">  1       -2 0.22909944E-02 0.27515062E+03</pdfrwt>
<totfact> 0.11509970E+04</totfact>
</mgrwt>
</event>
<event>
 5    1  0.1125356E+001  0.2721412E+03  0.7818608E-02  0.1100060E+00
          2   -1    0    0  501    0  0.00000000000E+00  0.00000000000E+00  0.10052944598E+04  0.10052944598E+04  0.00000000000E+00 0. -1.
         -2   -1    0    0    0  501 -0.00000000000E+00 -0.00000000000E+00 -0.18417693972E+02  0.18417693972E+02  0.00000000000E+00 0. -1.
         35    2    1    2    0    0  0.00000000000E+00  0.00000000000E+00  0.98687676578E+03  0.10237121537E+04  0.27214118183E+03 0.  0.
         25    1    3    3    0    0  0.24467659307E+02 -0.31343002589E+02  0.30407315832E+03  0.32930462459E+03  0.12000000000E+03 0.  0.
         25    1    3    3    0    0 -0.24467659307E+02  0.31343002589E+02  0.68280360745E+03  0.69440752913E+03  0.12000000000E+03 0.  0.
<mgrwt>
<rscale>  0 0.27214118E+03</rscale>
<asrwt>0</asrwt>
<pdfrwt beam="1">  1        2 0.15466064E+00 0.27214118E+03</pdfrwt>
<pdfrwt beam="2">  1       -2 0.28334922E-02 0.27214118E+03</pdfrwt>
<totfact> 0.11985069E+04</totfact>
</mgrwt>
</event>
<event>
 5    1  0.1125356E+001  0.2744939E+03  0.7818608E-02  0.1098735E+00
          2   -1    0    0  501    0  0.00000000000E+00  0.00000000000E+00  0.49508972758E+03  0.49508972758E+03  0.00000000000E+00 0. -1.
         -2   -1    0    0    0  501 -0.00000000000E+00 -0.00000000000E+00 -0.38047086055E+02  0.38047086055E+02  0.00000000000E+00 0. -1.
         35    2    1    2    0    0  0.00000000000E+00  0.00000000000E+00  0.45704264153E+03  0.53313681364E+03  0.27449387221E+03 0.  0.
         25    1    3    3    0    0 -0.50884826757E+02 -0.33402943525E+02  0.28105917367E+03  0.31160757587E+03  0.12000000000E+03 0.  0.
         25    1    3    3    0    0  0.50884826757E+02  0.33402943525E+02  0.17598346785E+03  0.22152923777E+03  0.12000000000E+03 0.  0.
<mgrwt>
<rscale>  0 0.27449387E+03</rscale>
<asrwt>0</asrwt>
<pdfrwt beam="1">  1        2 0.76167646E-01 0.27449387E+03</pdfrwt>
<pdfrwt beam="2">  1       -2 0.58533982E-02 0.27449387E+03</pdfrwt>
<totfact> 0.96220924E+03</totfact>
</mgrwt>
</event>
<event>
 5    1  0.1125356E+001  0.2749987E+03  0.7818608E-02  0.1098452E+00
          2   -1    0    0  501    0  0.00000000000E+00  0.00000000000E+00  0.17194321178E+03  0.17194321178E+03  0.00000000000E+00 0. -1.
         -2   -1    0    0    0  501 -0.00000000000E+00 -0.00000000000E+00 -0.10995531148E+03  0.10995531148E+03  0.00000000000E+00 0. -1.
         35    2    1    2    0    0  0.00000000000E+00  0.00000000000E+00  0.61987900301E+02  0.28189852326E+03  0.27499868660E+03 0.  0.
         25    1    3    3    0    0 -0.26169135433E+02  0.37710295909E+02  0.81204333565E+02  0.15199024264E+03  0.12000000000E+03 0.  0.
         25    1    3    3    0    0  0.26169135433E+02 -0.37710295909E+02 -0.19216433264E+02  0.12990828062E+03  0.12000000000E+03 0.  0.
<mgrwt>
<rscale>  0 0.27499869E+03</rscale>
<asrwt>0</asrwt>
<pdfrwt beam="1">  1        2 0.26452802E-01 0.27499869E+03</pdfrwt>
<pdfrwt beam="2">  1       -2 0.16916202E-01 0.27499869E+03</pdfrwt>
<totfact> 0.56059556E+03</totfact>
</mgrwt>
</event>
<event>
 5    1  0.1125356E+001  0.2736489E+03  0.7818608E-02  0.1099209E+00
         -2   -1    0    0    0  501 -0.00000000000E+00  0.00000000000E+00  0.41239548073E+02  0.41239548073E+02  0.00000000000E+00 0. -1.
          2   -1    0    0  501    0  0.00000000000E+00 -0.00000000000E+00 -0.45395563808E+03  0.45395563808E+03  0.00000000000E+00 0. -1.
         35    2    1    2    0    0  0.00000000000E+00  0.00000000000E+00 -0.41271609000E+03  0.49519518615E+03  0.27364886523E+03 0.  0.
         25    1    3    3    0    0 -0.32653855461E+02 -0.46150269269E+01 -0.10345948503E+03  0.16183768965E+03  0.12000000000E+03 0.  0.
         25    1    3    3    0    0  0.32653855461E+02  0.46150269269E+01 -0.30925660498E+03  0.33335749650E+03  0.12000000000E+03 0.  0.
<mgrwt>
<rscale>  0 0.27364887E+03</rscale>
<asrwt>0</asrwt>
<pdfrwt beam="1">  1        2 0.69839331E-01 0.27364887E+03</pdfrwt>
<pdfrwt beam="2">  1       -2 0.63445457E-02 0.27364887E+03</pdfrwt>
<totfact> 0.93599417E+03</totfact>
</mgrwt>
</event>
<event>
 5    1  0.1125356E+001  0.2759475E+03  0.7818608E-02  0.1097923E+00
         -2   -1    0    0    0  501 -0.00000000000E+00  0.00000000000E+00  0.15572700945E+02  0.15572700945E+02  0.00000000000E+00 0.  1.
          2   -1    0    0  501    0  0.00000000000E+00 -0.00000000000E+00 -0.12224440413E+04  0.12224440413E+04  0.00000000000E+00 0.  1.
         35    2    1    2    0    0  0.00000000000E+00  0.00000000000E+00 -0.12068713403E+04  0.12380167422E+04  0.27594749847E+03 0.  0.
         25    1    3    3    0    0  0.49714620412E+02 -0.45129230405E+02 -0.65430554707E+03  0.66859848926E+03  0.12000000000E+03 0.  0.
         25    1    3    3    0    0 -0.49714620412E+02  0.45129230405E+02 -0.55256579327E+03  0.56941825297E+03  0.12000000000E+03 0.  0.
<mgrwt>
<rscale>  0 0.27594750E+03</rscale>
<asrwt>0</asrwt>
<pdfrwt beam="1">  1        2 0.18806840E+00 0.27594750E+03</pdfrwt>
<pdfrwt beam="2">  1       -2 0.23957991E-02 0.27594750E+03</pdfrwt>
<totfact> 0.11472252E+04</totfact>
</mgrwt>
</event>
<event>
 5    1  0.1125356E+001  0.2746774E+03  0.7818608E-02  0.1098632E+00
          2   -1    0    0  501    0  0.00000000000E+00  0.00000000000E+00  0.37831215154E+03  0.37831215154E+03  0.00000000000E+00 0.  1.
         -2   -1    0    0    0  501 -0.00000000000E+00 -0.00000000000E+00 -0.49858076431E+02  0.49858076431E+02  0.00000000000E+00 0.  1.
         35    2    1    2    0    0  0.00000000000E+00  0.00000000000E+00  0.32845407511E+03  0.42817022797E+03  0.27467738288E+03 0.  0.
         25    1    3    3    0    0  0.17422591412E+02  0.64083390257E+02  0.15302000031E+03  0.20548807288E+03  0.12000000000E+03 0.  0.
         25    1    3    3    0    0 -0.17422591412E+02 -0.64083390257E+02  0.17543407479E+03  0.22268215509E+03  0.12000000000E+03 0.  0.
<mgrwt>
<rscale>  0 0.27467738E+03</rscale>
<asrwt>0</asrwt>
<pdfrwt beam="1">  1        2 0.58201868E-01 0.27467738E+03</pdfrwt>
<pdfrwt beam="2">  1       -2 0.76704735E-02 0.27467738E+03</pdfrwt>
<totfact> 0.85133385E+03</totfact>
</mgrwt>
</event>
<event>
 5    1  0.1125356E+001  0.2759206E+03  0.7818608E-02  0.1097938E+00
          1   -1    0    0  501    0  0.00000000000E+00  0.00000000000E+00  0.22012047317E+03  0.22012047317E+03  0.00000000000E+00 0.  1.
         -1   -1    0    0    0  501 -0.00000000000E+00 -0.00000000000E+00 -0.86466485729E+02  0.86466485729E+02  0.00000000000E+00 0.  1.
         35    2    1    2    0    0  0.00000000000E+00  0.00000000000E+00  0.13365398744E+03  0.30658695890E+03  0.27592059548E+03 0.  0.
         25    1    3    3    0    0  0.17997126683E+02  0.61920616967E+02  0.42610613778E+02  0.14273655377E+03  0.12000000000E+03 0.  0.
         25    1    3    3    0    0 -0.17997126683E+02 -0.61920616967E+02  0.91043373662E+02  0.16385040513E+03  0.12000000000E+03 0.  0.
<mgrwt>
<rscale>  0 0.27592060E+03</rscale>
<asrwt>0</asrwt>
<pdfrwt beam="1">  1        1 0.33864688E-01 0.27592060E+03</pdfrwt>
<pdfrwt beam="2">  1       -1 0.13302536E-01 0.27592060E+03</pdfrwt>
<totfact> 0.50190198E+03</totfact>
</mgrwt>
</event>
<event>
 5    1  0.1125356E+001  0.2750908E+03  0.7818608E-02  0.1098401E+00
         -4   -1    0    0    0  501 -0.00000000000E+00  0.00000000000E+00  0.91039463650E+02  0.91039463650E+02  0.00000000000E+00 0.  1.
          4   -1    0    0  501    0  0.00000000000E+00 -0.00000000000E+00 -0.20780807633E+03  0.20780807633E+03  0.00000000000E+00 0.  1.
         35    2    1    2    0    0  0.00000000000E+00  0.00000000000E+00 -0.11676861268E+03  0.29884753998E+03  0.27509079091E+03 0.  0.
         25    1    3    3    0    0 -0.15659483625E+02  0.59704739755E+02 -0.29460596130E+02  0.13812241708E+03  0.12000000000E+03 0.  0.
         25    1    3    3    0    0  0.15659483625E+02 -0.59704739755E+02 -0.87308016553E+02  0.16072512290E+03  0.12000000000E+03 0.  0.
<mgrwt>
<rscale>  0 0.27509079E+03</rscale>
<asrwt>0</asrwt>
<pdfrwt beam="1">  1        4 0.31970473E-01 0.27509079E+03</pdfrwt>
<pdfrwt beam="2">  1       -4 0.14006071E-01 0.27509079E+03</pdfrwt>
<totfact> 0.75046451E+02</totfact>
</mgrwt>
</event>
<event>
 5    1  0.1125356E+001  0.2739366E+03  0.7818608E-02  0.1099047E+00
          2   -1    0    0  501    0  0.00000000000E+00  0.00000000000E+00  0.18793551362E+03  0.18793551362E+03  0.00000000000E+00 0.  1.
         -2   -1    0    0    0  501 -0.00000000000E+00 -0.00000000000E+00 -0.99823144967E+02  0.99823144967E+02  0.00000000000E+00 0.  1.
         35    2    1    2    0    0  0.00000000000E+00  0.00000000000E+00  0.88112368657E+02  0.28775865859E+03  0.27393659136E+03 0.  0.
         25    1    3    3    0    0 -0.51763554851E+02 -0.40078833808E+02  0.34987173710E+02  0.14110237721E+03  0.12000000000E+03 0.  0.
         25    1    3    3    0    0  0.51763554851E+02  0.40078833808E+02  0.53125194946E+02  0.14665628138E+03  0.12000000000E+03 0.  0.
<mgrwt>
<rscale>  0 0.27393659E+03</rscale>
<asrwt>0</asrwt>
<pdfrwt beam="1">  1        2 0.28913156E-01 0.27393659E+03</pdfrwt>
<pdfrwt beam="2">  1       -2 0.15357407E-01 0.27393659E+03</pdfrwt>
<totfact> 0.59676063E+03</totfact>
</mgrwt>
</event>
<event>
 5    1  0.1125356E+001  0.2746203E+03  0.7818608E-02  0.1098664E+00
         -2   -1    0    0    0  501 -0.00000000000E+00  0.00000000000E+00  0.54525318508E+03  0.54525318508E+03  0.00000000000E+00 0. -1.
          2   -1    0    0  501    0  0.00000000000E+00 -0.00000000000E+00 -0.34578563214E+02  0.34578563214E+02  0.00000000000E+00 0. -1.
         35    2    1    2    0    0  0.00000000000E+00  0.00000000000E+00  0.51067462187E+03  0.57983174830E+03  0.27462025947E+03 0.  0.
         25    1    3    3    0    0 -0.45180719482E+02 -0.76972235543E+00  0.35903628029E+03  0.38124656123E+03  0.12000000000E+03 0.  0.
         25    1    3    3    0    0  0.45180719482E+02  0.76972235543E+00  0.15163834157E+03  0.19858518706E+03  0.12000000000E+03 0.  0.
<mgrwt>
<rscale>  0 0.27462026E+03</rscale>
<asrwt>0</asrwt>
<pdfrwt beam="1">  1        2 0.53197793E-02 0.27462026E+03</pdfrwt>
<pdfrwt beam="2">  1       -2 0.83885099E-01 0.27462026E+03</pdfrwt>
<totfact> 0.18522829E+03</totfact>
</mgrwt>
</event>
<event>
 5    1  0.1125356E+001  0.2766452E+03  0.7818608E-02  0.1097535E+00
         -2   -1    0    0    0  501 -0.00000000000E+00  0.00000000000E+00  0.23894200662E+03  0.23894200662E+03  0.00000000000E+00 0.  1.
          2   -1    0    0  501    0  0.00000000000E+00 -0.00000000000E+00 -0.80074436385E+02  0.80074436385E+02  0.00000000000E+00 0.  1.
         35    2    1    2    0    0  0.00000000000E+00  0.00000000000E+00  0.15886757023E+03  0.31901644300E+03  0.27664523498E+03 0.  0.
         25    1    3    3    0    0  0.47327264929E+02  0.49932553790E+02  0.79582247709E+02  0.15958215465E+03  0.12000000000E+03 0.  0.
         25    1    3    3    0    0 -0.47327264929E+02 -0.49932553790E+02  0.79285322523E+02  0.15943428835E+03  0.12000000000E+03 0.  0.
<mgrwt>
<rscale>  0 0.27664523E+03</rscale>
<asrwt>0</asrwt>
<pdfrwt beam="1">  1        2 0.12319144E-01 0.27664523E+03</pdfrwt>
<pdfrwt beam="2">  1       -2 0.36760308E-01 0.27664523E+03</pdfrwt>
<totfact> 0.34486593E+03</totfact>
</mgrwt>
</event>
<event>
 5    1  0.1125356E+001  0.2751316E+03  0.7818608E-02  0.1098378E+00
          2   -1    0    0  501    0  0.00000000000E+00  0.00000000000E+00  0.28169241199E+03  0.28169241199E+03  0.00000000000E+00 0.  1.
         -2   -1    0    0    0  501 -0.00000000000E+00 -0.00000000000E+00 -0.67180897920E+02  0.67180897920E+02  0.00000000000E+00 0.  1.
         35    2    1    2    0    0  0.00000000000E+00  0.00000000000E+00  0.21451151407E+03  0.34887330991E+03  0.27513159887E+03 0.  0.
         25    1    3    3    0    0 -0.60105772537E+01 -0.66975643764E+02  0.10525674784E+03  0.17320752542E+03  0.12000000000E+03 0.  0.
         25    1    3    3    0    0  0.60105772537E+01  0.66975643764E+02  0.10925476624E+03  0.17566578449E+03  0.12000000000E+03 0.  0.
<mgrwt>
<rscale>  0 0.27513160E+03</rscale>
<asrwt>0</asrwt>
<pdfrwt beam="1">  1        2 0.43337294E-01 0.27513160E+03</pdfrwt>
<pdfrwt beam="2">  1       -2 0.10335523E-01 0.27513160E+03</pdfrwt>
<totfact> 0.73141680E+03</totfact>
</mgrwt>
</event>
<event>
 5    1  0.1125356E+001  0.2748556E+03  0.7818608E-02  0.1098532E+00
         -1   -1    0    0    0  501 -0.00000000000E+00  0.00000000000E+00  0.60966955989E+02  0.60966955989E+02  0.00000000000E+00 0.  1.
          1   -1    0    0  501    0  0.00000000000E+00 -0.00000000000E+00 -0.30978098508E+03  0.30978098508E+03  0.00000000000E+00 0.  1.
         35    2    1    2    0    0  0.00000000000E+00  0.00000000000E+00 -0.24881402909E+03  0.37074794107E+03  0.27485562526E+03 0.  0.
         25    1    3    3    0    0  0.28669283404E+02  0.15119387533E+02 -0.20347362322E+03  0.23843665623E+03  0.12000000000E+03 0.  0.
         25    1    3    3    0    0 -0.28669283404E+02 -0.15119387533E+02 -0.45340405874E+02  0.13231128484E+03  0.12000000000E+03 0.  0.
<mgrwt>
<rscale>  0 0.27485563E+03</rscale>
<asrwt>0</asrwt>
<pdfrwt beam="1">  1        1 0.47658612E-01 0.27485563E+03</pdfrwt>
<pdfrwt beam="2">  1       -1 0.93795319E-02 0.27485563E+03</pdfrwt>
<totfact> 0.56268051E+03</totfact>
</mgrwt>
</event>
<event>
 5    1  0.1125356E+001  0.2748456E+03  0.7818608E-02  0.1098538E+00
         -2   -1    0    0    0  501 -0.00000000000E+00  0.00000000000E+00  0.12906405043E+02  0.12906405043E+02  0.00000000000E+00 0. -1.
          2   -1    0    0  501    0  0.00000000000E+00 -0.00000000000E+00 -0.14632292028E+04  0.14632292028E+04  0.00000000000E+00 0. -1.
         35    2    1    2    0    0  0.00000000000E+00  0.00000000000E+00 -0.14503227977E+04  0.14761356078E+04  0.27484562039E+03 0.  0.
         25    1    3    3    0    0 -0.19534961388E+02 -0.33792635382E+02 -0.43288668823E+03  0.45090402723E+03  0.12000000000E+03 0.  0.
         25    1    3    3    0    0  0.19534961388E+02  0.33792635382E+02 -0.10174361095E+04  0.10252315806E+04  0.12000000000E+03 0.  0.
<mgrwt>
<rscale>  0 0.27484562E+03</rscale>
<asrwt>0</asrwt>
<pdfrwt beam="1">  1        2 0.22511230E+00 0.27484562E+03</pdfrwt>
<pdfrwt beam="2">  1       -2 0.19855998E-02 0.27484562E+03</pdfrwt>
<totfact> 0.11156437E+04</totfact>
</mgrwt>
</event>
<event>
 5    1  0.1125356E+001  0.2747939E+03  0.7818608E-02  0.1098567E+00
         -2   -1    0    0    0  501 -0.00000000000E+00  0.00000000000E+00  0.11433478939E+04  0.11433478939E+04  0.00000000000E+00 0. -1.
          2   -1    0    0  501    0  0.00000000000E+00 -0.00000000000E+00 -0.16511091858E+02  0.16511091858E+02  0.00000000000E+00 0. -1.
         35    2    1    2    0    0  0.00000000000E+00  0.00000000000E+00  0.11268368021E+04  0.11598589858E+04  0.27479390170E+03 0.  0.
         25    1    3    3    0    0  0.25840016725E+02  0.55023190770E+02  0.68150097519E+03  0.69465015452E+03  0.12000000000E+03 0.  0.
         25    1    3    3    0    0 -0.25840016725E+02 -0.55023190770E+02  0.44533582689E+03  0.46520883127E+03  0.12000000000E+03 0.  0.
<mgrwt>
<rscale>  0 0.27479390E+03</rscale>
<asrwt>0</asrwt>
<pdfrwt beam="1">  1        2 0.25401689E-02 0.27479390E+03</pdfrwt>
<pdfrwt beam="2">  1       -2 0.17589961E+00 0.27479390E+03</pdfrwt>
<totfact> 0.81644134E+02</totfact>
</mgrwt>
</event>
<event>
 5    1  0.1125356E+001  0.2717124E+03  0.7818608E-02  0.1100304E+00
          1   -1    0    0  501    0  0.00000000000E+00  0.00000000000E+00  0.12833138725E+04  0.12833138725E+04  0.00000000000E+00 0. -1.
         -1   -1    0    0    0  501 -0.00000000000E+00 -0.00000000000E+00 -0.14382222412E+02  0.14382222412E+02  0.00000000000E+00 0. -1.
         35    2    1    2    0    0  0.00000000000E+00  0.00000000000E+00  0.12689316501E+04  0.12976960949E+04  0.27171238867E+03 0.  0.
         25    1    3    3    0    0  0.13862691447E+02  0.58851297331E+02  0.73013552153E+03  0.74239715060E+03  0.12000000000E+03 0.  0.
         25    1    3    3    0    0 -0.13862691447E+02 -0.58851297331E+02  0.53879612856E+03  0.55529894432E+03  0.12000000000E+03 0.  0.
<mgrwt>
<rscale>  0 0.27171239E+03</rscale>
<asrwt>0</asrwt>
<pdfrwt beam="1">  1        1 0.19743281E+00 0.27171239E+03</pdfrwt>
<pdfrwt beam="2">  1       -1 0.22126506E-02 0.27171239E+03</pdfrwt>
<totfact> 0.59214050E+03</totfact>
</mgrwt>
</event>
<event>
 5    1  0.1125356E+001  0.2752214E+03  0.7818608E-02  0.1098328E+00
          1   -1    0    0  501    0  0.00000000000E+00  0.00000000000E+00  0.12777269352E+03  0.12777269352E+03  0.00000000000E+00 0. -1.
         -1   -1    0    0    0  501 -0.00000000000E+00 -0.00000000000E+00 -0.14820620578E+03  0.14820620578E+03  0.00000000000E+00 0. -1.
         35    2    1    2    0    0  0.00000000000E+00  0.00000000000E+00 -0.20433512268E+02  0.27597889930E+03  0.27522140984E+03 0.  0.
         25    1    3    3    0    0 -0.63725525382E+02 -0.36996044610E+01  0.11338370596E+02  0.13639350537E+03  0.12000000000E+03 0.  0.
         25    1    3    3    0    0  0.63725525382E+02  0.36996044610E+01 -0.31771882864E+02  0.13958539393E+03  0.12000000000E+03 0.  0.
<mgrwt>
<rscale>  0 0.27522141E+03</rscale>
<asrwt>0</asrwt>
<pdfrwt beam="1">  1        1 0.19657338E-01 0.27522141E+03</pdfrwt>
<pdfrwt beam="2">  1       -1 0.22800955E-01 0.27522141E+03</pdfrwt>
<totfact> 0.42155164E+03</totfact>
</mgrwt>
</event>
<event>
 5    1  0.1125356E+001  0.2732730E+03  0.7818608E-02  0.1099421E+00
          2   -1    0    0  501    0  0.00000000000E+00  0.00000000000E+00  0.87227265237E+03  0.87227265237E+03  0.00000000000E+00 0. -1.
         -2   -1    0    0    0  501 -0.00000000000E+00 -0.00000000000E+00 -0.21403315022E+02  0.21403315022E+02  0.00000000000E+00 0. -1.
         35    2    1    2    0    0  0.00000000000E+00  0.00000000000E+00  0.85086933735E+03  0.89367596739E+03  0.27327295046E+03 0.  0.
         25    1    3    3    0    0  0.49369624319E+02 -0.38510833614E+02  0.48653552801E+03  0.50501214255E+03  0.12000000000E+03 0.  0.
         25    1    3    3    0    0 -0.49369624319E+02  0.38510833614E+02  0.36433380934E+03  0.38866382484E+03  0.12000000000E+03 0.  0.
<mgrwt>
<rscale>  0 0.27327295E+03</rscale>
<asrwt>0</asrwt>
<pdfrwt beam="1">  1        2 0.13419577E+00 0.27327295E+03</pdfrwt>
<pdfrwt beam="2">  1       -2 0.32928184E-02 0.27327295E+03</pdfrwt>
<totfact> 0.11632669E+04</totfact>
</mgrwt>
</event>
<event>
 5    1  0.1125356E+001  0.2745807E+03  0.7818608E-02  0.1098686E+00
          1   -1    0    0  501    0  0.00000000000E+00  0.00000000000E+00  0.73839057074E+01  0.73839057074E+01  0.00000000000E+00 0. -1.
         -1   -1    0    0    0  501 -0.00000000000E+00 -0.00000000000E+00 -0.25526648790E+04  0.25526648790E+04  0.00000000000E+00 0. -1.
         35    2    1    2    0    0  0.00000000000E+00  0.00000000000E+00 -0.25452809733E+04  0.25600487847E+04  0.27458067499E+03 0.  0.
         25    1    3    3    0    0  0.50838698193E+02 -0.15884178016E+02 -0.89833346167E+03  0.90787658231E+03  0.12000000000E+03 0.  0.
         25    1    3    3    0    0 -0.50838698193E+02  0.15884178016E+02 -0.16469475116E+04  0.16521722024E+04  0.12000000000E+03 0.  0.
<mgrwt>
<rscale>  0 0.27458067E+03</rscale>
<asrwt>0</asrwt>
<pdfrwt beam="1">  1        1 0.11359839E-02 0.27458067E+03</pdfrwt>
<pdfrwt beam="2">  1       -1 0.39271823E+00 0.27458067E+03</pdfrwt>
<totfact> 0.13269638E+02</totfact>
</mgrwt>
</event>
<event>
 5    1  0.1125356E+001  0.2754517E+03  0.7818608E-02  0.1098199E+00
         -1   -1    0    0    0  501 -0.00000000000E+00  0.00000000000E+00  0.15482533097E+02  0.15482533097E+02  0.00000000000E+00 0. -1.
          1   -1    0    0  501    0  0.00000000000E+00 -0.00000000000E+00 -0.12251492975E+04  0.12251492975E+04  0.00000000000E+00 0. -1.
         35    2    1    2    0    0  0.00000000000E+00  0.00000000000E+00 -0.12096667644E+04  0.12406318306E+04  0.27545173477E+03 0.  0.
         25    1    3    3    0    0  0.50156473488E+02 -0.28354466428E+02 -0.44567185219E+03  0.46512691540E+03  0.12000000000E+03 0.  0.
         25    1    3    3    0    0 -0.50156473488E+02  0.28354466428E+02 -0.76399491222E+03  0.77550491520E+03  0.12000000000E+03 0.  0.
<mgrwt>
<rscale>  0 0.27545173E+03</rscale>
<asrwt>0</asrwt>
<pdfrwt beam="1">  1        1 0.18848453E+00 0.27545173E+03</pdfrwt>
<pdfrwt beam="2">  1       -1 0.23819278E-02 0.27545173E+03</pdfrwt>
<totfact> 0.58308225E+03</totfact>
</mgrwt>
</event>
<event>
 5    1  0.1125356E+001  0.2747305E+03  0.7818608E-02  0.1098602E+00
          1   -1    0    0  501    0  0.00000000000E+00  0.00000000000E+00  0.27868984591E+02  0.27868984591E+02  0.00000000000E+00 0. -1.
         -1   -1    0    0    0  501 -0.00000000000E+00 -0.00000000000E+00 -0.67706842745E+03  0.67706842745E+03  0.00000000000E+00 0. -1.
         35    2    1    2    0    0  0.00000000000E+00  0.00000000000E+00 -0.64919944286E+03  0.70493741204E+03  0.27473048299E+03 0.  0.
         25    1    3    3    0    0 -0.50633297475E+01  0.55309042808E+02 -0.42007421742E+03  0.44039422756E+03  0.12000000000E+03 0.  0.
         25    1    3    3    0    0  0.50633297475E+01 -0.55309042808E+02 -0.22912522544E+03  0.26454318448E+03  0.12000000000E+03 0.  0.
<mgrwt>
<rscale>  0 0.27473048E+03</rscale>
<asrwt>0</asrwt>
<pdfrwt beam="1">  1        1 0.42875362E-02 0.27473048E+03</pdfrwt>
<pdfrwt beam="2">  1       -1 0.10416437E+00 0.27473048E+03</pdfrwt>
<totfact> 0.18947831E+03</totfact>
</mgrwt>
</event>
<event>
 5    1  0.1125356E+001  0.2752480E+03  0.7818608E-02  0.1098313E+00
          1   -1    0    0  501    0  0.00000000000E+00  0.00000000000E+00  0.42234611730E+03  0.42234611730E+03  0.00000000000E+00 0.  1.
         -1   -1    0    0    0  501 -0.00000000000E+00 -0.00000000000E+00 -0.44845585539E+02  0.44845585539E+02  0.00000000000E+00 0.  1.
         35    2    1    2    0    0  0.00000000000E+00  0.00000000000E+00  0.37750053176E+03  0.46719170283E+03  0.27524795316E+03 0.  0.
         25    1    3    3    0    0  0.98048032033E+01  0.58177445492E+02  0.13349877957E+03  0.18895151091E+03  0.12000000000E+03 0.  0.
         25    1    3    3    0    0 -0.98048032033E+01 -0.58177445492E+02  0.24400175219E+03  0.27824019192E+03  0.12000000000E+03 0.  0.
<mgrwt>
<rscale>  0 0.27524795E+03</rscale>
<asrwt>0</asrwt>
<pdfrwt beam="1">  1        1 0.64976323E-01 0.27524795E+03</pdfrwt>
<pdfrwt beam="2">  1       -1 0.68993211E-02 0.27524795E+03</pdfrwt>
<totfact> 0.60646359E+03</totfact>
</mgrwt>
</event>
<event>
 5    1  0.1125356E+001  0.2765920E+03  0.7818608E-02  0.1097565E+00
         -2   -1    0    0    0  501 -0.00000000000E+00  0.00000000000E+00  0.20936541332E+02  0.20936541332E+02  0.00000000000E+00 0. -1.
          2   -1    0    0  501    0  0.00000000000E+00 -0.00000000000E+00 -0.91351222676E+03  0.91351222676E+03  0.00000000000E+00 0. -1.
         35    2    1    2    0    0  0.00000000000E+00  0.00000000000E+00 -0.89257568543E+03  0.93444876809E+03  0.27659202080E+03 0.  0.
         25    1    3    3    0    0 -0.65639677134E+02 -0.68761148470E+00 -0.51525650666E+03  0.53310253017E+03  0.12000000000E+03 0.  0.
         25    1    3    3    0    0  0.65639677134E+02  0.68761148470E+00 -0.37731917877E+03  0.40134623792E+03  0.12000000000E+03 0.  0.
<mgrwt>
<rscale>  0 0.27659202E+03</rscale>
<asrwt>0</asrwt>
<pdfrwt beam="1">  1        2 0.14054032E+00 0.27659202E+03</pdfrwt>
<pdfrwt beam="2">  1       -2 0.32210069E-02 0.27659202E+03</pdfrwt>
<totfact> 0.11308080E+04</totfact>
</mgrwt>
</event>
<event>
 5    1  0.1125356E+001  0.2772170E+03  0.7818608E-02  0.1097219E+00
          2   -1    0    0  501    0  0.00000000000E+00  0.00000000000E+00  0.20982918930E+04  0.20982918930E+04  0.00000000000E+00 0.  1.
         -2   -1    0    0    0  501 -0.00000000000E+00 -0.00000000000E+00 -0.91561686844E+01  0.91561686844E+01  0.00000000000E+00 0.  1.
         35    2    1    2    0    0  0.00000000000E+00  0.00000000000E+00  0.20891357243E+04  0.21074480617E+04  0.27721698737E+03 0.  0.
         25    1    3    3    0    0 -0.49563933381E+02 -0.39131163845E+02  0.82628084557E+03  0.83733378484E+03  0.12000000000E+03 0.  0.
         25    1    3    3    0    0  0.49563933381E+02  0.39131163845E+02  0.12628548787E+04  0.12701142768E+04  0.12000000000E+03 0.  0.
<mgrwt>
<rscale>  0 0.27721699E+03</rscale>
<asrwt>0</asrwt>
<pdfrwt beam="1">  1        2 0.32281375E+00 0.27721699E+03</pdfrwt>
<pdfrwt beam="2">  1       -2 0.14086430E-02 0.27721699E+03</pdfrwt>
<totfact> 0.85287699E+03</totfact>
</mgrwt>
</event>
<event>
 5    1  0.1125356E+001  0.2851271E+03  0.7818608E-02  0.1092921E+00
         -1   -1    0    0    0  501 -0.00000000000E+00  0.00000000000E+00  0.16330395926E+02  0.16330395926E+02  0.00000000000E+00 0. -1.
          1   -1    0    0  501    0  0.00000000000E+00 -0.00000000000E+00 -0.12445731251E+04  0.12445731251E+04  0.00000000000E+00 0. -1.
         35    2    1    2    0    0  0.00000000000E+00  0.00000000000E+00 -0.12282427292E+04  0.12609035210E+04  0.28512714281E+03 0.  0.
         25    1    3    3    0    0 -0.15151292626E+02  0.71327447410E+02 -0.50515031535E+03  0.52430335448E+03  0.12000000000E+03 0.  0.
         25    1    3    3    0    0  0.15151292626E+02 -0.71327447410E+02 -0.72309241382E+03  0.73660016654E+03  0.12000000000E+03 0.  0.
<mgrwt>
<rscale>  0 0.28512714E+03</rscale>
<asrwt>0</asrwt>
<pdfrwt beam="1">  1        1 0.19147283E+00 0.28512714E+03</pdfrwt>
<pdfrwt beam="2">  1       -1 0.25123681E-02 0.28512714E+03</pdfrwt>
<totfact> 0.52291761E+03</totfact>
</mgrwt>
</event>
<event>
 5    1  0.1125356E+001  0.2751704E+03  0.7818608E-02  0.1098356E+00
         -2   -1    0    0    0  501 -0.00000000000E+00  0.00000000000E+00  0.78241619560E+01  0.78241619560E+01  0.00000000000E+00 0.  1.
          2   -1    0    0  501    0  0.00000000000E+00 -0.00000000000E+00 -0.24193876426E+04  0.24193876426E+04  0.00000000000E+00 0.  1.
         35    2    1    2    0    0  0.00000000000E+00  0.00000000000E+00 -0.24115634807E+04  0.24272118046E+04  0.27517035269E+03 0.  0.
         25    1    3    3    0    0  0.33751573294E+02  0.58227951862E+02 -0.12046091278E+04  0.12124408496E+04  0.12000000000E+03 0.  0.
         25    1    3    3    0    0 -0.33751573294E+02 -0.58227951862E+02 -0.12069543529E+04  0.12147709550E+04  0.12000000000E+03 0.  0.
<mgrwt>
<rscale>  0 0.27517035E+03</rscale>
<asrwt>0</asrwt>
<pdfrwt beam="1">  1        2 0.37221345E+00 0.27517035E+03</pdfrwt>
<pdfrwt beam="2">  1       -2 0.12037173E-02 0.27517035E+03</pdfrwt>
<totfact> 0.72233602E+03</totfact>
</mgrwt>
</event>
<event>
 5    1  0.1125356E+001  0.2754275E+03  0.7818608E-02  0.1098213E+00
          2   -1    0    0  501    0  0.00000000000E+00  0.00000000000E+00  0.16082997562E+04  0.16082997562E+04  0.00000000000E+00 0.  1.
         -2   -1    0    0    0  501 -0.00000000000E+00 -0.00000000000E+00 -0.11792007454E+02  0.11792007454E+02  0.00000000000E+00 0.  1.
         35    2    1    2    0    0  0.00000000000E+00  0.00000000000E+00  0.15965077488E+04  0.16200917637E+04  0.27542754193E+03 0.  0.
         25    1    3    3    0    0  0.13363374566E+02 -0.63255261017E+02  0.91371016460E+03  0.92382145067E+03  0.12000000000E+03 0.  0.
         25    1    3    3    0    0 -0.13363374566E+02  0.63255261017E+02  0.68279758415E+03  0.69627031299E+03  0.12000000000E+03 0.  0.
<mgrwt>
<rscale>  0 0.27542754E+03</rscale>
<asrwt>0</asrwt>
<pdfrwt beam="1">  1        2 0.24743056E+00 0.27542754E+03</pdfrwt>
<pdfrwt beam="2">  1       -2 0.18141563E-02 0.27542754E+03</pdfrwt>
<totfact> 0.10661101E+04</totfact>
</mgrwt>
</event>
<event>
 5    1  0.1125356E+001  0.2753151E+03  0.7818608E-02  0.1098276E+00
          2   -1    0    0  501    0  0.00000000000E+00  0.00000000000E+00  0.69550987669E+03  0.69550987669E+03  0.00000000000E+00 0. -1.
         -2   -1    0    0    0  501 -0.00000000000E+00 -0.00000000000E+00 -0.27245624992E+02  0.27245624992E+02  0.00000000000E+00 0. -1.
         35    2    1    2    0    0  0.00000000000E+00  0.00000000000E+00  0.66826425170E+03  0.72275550168E+03  0.27531510150E+03 0.  0.
         25    1    3    3    0    0 -0.64317064801E+02 -0.94569830987E+01  0.38134782026E+03  0.40503367684E+03  0.12000000000E+03 0.  0.
         25    1    3    3    0    0  0.64317064801E+02  0.94569830987E+01  0.28691643144E+03  0.31772182484E+03  0.12000000000E+03 0.  0.
<mgrwt>
<rscale>  0 0.27531510E+03</rscale>
<asrwt>0</asrwt>
<pdfrwt beam="1">  1        2 0.10700151E+00 0.27531510E+03</pdfrwt>
<pdfrwt beam="2">  1       -2 0.41916351E-02 0.27531510E+03</pdfrwt>
<totfact> 0.10781123E+04</totfact>
</mgrwt>
</event>
<event>
 5    1  0.1125356E+001  0.2789861E+03  0.7818608E-02  0.1096244E+00
          3   -1    0    0  501    0  0.00000000000E+00  0.00000000000E+00  0.47764356977E+02  0.47764356977E+02  0.00000000000E+00 0. -1.
         -3   -1    0    0    0  501 -0.00000000000E+00 -0.00000000000E+00 -0.40738126534E+03  0.40738126534E+03  0.00000000000E+00 0. -1.
         35    2    1    2    0    0  0.00000000000E+00  0.00000000000E+00 -0.35961690837E+03  0.45514562232E+03  0.27898605115E+03 0.  0.
         25    1    3    3    0    0 -0.20157886157E+02 -0.61949121509E+02 -0.22636193280E+03  0.26435536434E+03  0.12000000000E+03 0.  0.
         25    1    3    3    0    0  0.20157886157E+02  0.61949121509E+02 -0.13325497556E+03  0.19079025799E+03  0.12000000000E+03 0.  0.
<mgrwt>
<rscale>  0 0.27898605E+03</rscale>
<asrwt>0</asrwt>
<pdfrwt beam="1">  1        3 0.73483626E-02 0.27898605E+03</pdfrwt>
<pdfrwt beam="2">  1       -3 0.62674041E-01 0.27898605E+03</pdfrwt>
<totfact> 0.78396806E+02</totfact>
</mgrwt>
</event>
<event>
 5    1  0.1125356E+001  0.2756358E+03  0.7818608E-02  0.1098097E+00
          2   -1    0    0  501    0  0.00000000000E+00  0.00000000000E+00  0.19581402237E+04  0.19581402237E+04  0.00000000000E+00 0.  1.
         -2   -1    0    0    0  501 -0.00000000000E+00 -0.00000000000E+00 -0.96999047731E+01  0.96999047731E+01  0.00000000000E+00 0.  1.
         35    2    1    2    0    0  0.00000000000E+00  0.00000000000E+00  0.19484403189E+04  0.19678401284E+04  0.27563580103E+03 0.  0.
         25    1    3    3    0    0  0.67082548183E+02 -0.47445759407E+01  0.10344590821E+04  0.10435651258E+04  0.12000000000E+03 0.  0.
         25    1    3    3    0    0 -0.67082548183E+02  0.47445759407E+01  0.91398123677E+03  0.92427500260E+03  0.12000000000E+03 0.  0.
<mgrwt>
<rscale>  0 0.27563580E+03</rscale>
<asrwt>0</asrwt>
<pdfrwt beam="1">  1        2 0.30125203E+00 0.27563580E+03</pdfrwt>
<pdfrwt beam="2">  1       -2 0.14922946E-02 0.27563580E+03</pdfrwt>
<totfact> 0.92913292E+03</totfact>
</mgrwt>
</event>
<event>
 5    1  0.1125356E+001  0.2752877E+03  0.7818608E-02  0.1098291E+00
          1   -1    0    0  501    0  0.00000000000E+00  0.00000000000E+00  0.79980319008E+01  0.79980319008E+01  0.00000000000E+00 0. -1.
         -1   -1    0    0    0  501 -0.00000000000E+00 -0.00000000000E+00 -0.23688118102E+04  0.23688118102E+04  0.00000000000E+00 0. -1.
         35    2    1    2    0    0  0.00000000000E+00  0.00000000000E+00 -0.23608137783E+04  0.23768098421E+04  0.27528772167E+03 0.  0.
         25    1    3    3    0    0  0.12606121903E+02 -0.63931476770E+02 -0.13298719417E+04  0.13368640654E+04  0.12000000000E+03 0.  0.
         25    1    3    3    0    0 -0.12606121903E+02  0.63931476770E+02 -0.10309418366E+04  0.10399457767E+04  0.12000000000E+03 0.  0.
<mgrwt>
<rscale>  0 0.27528772E+03</rscale>
<asrwt>0</asrwt>
<pdfrwt beam="1">  1        1 0.12304672E-02 0.27528772E+03</pdfrwt>
<pdfrwt beam="2">  1       -1 0.36443238E+00 0.27528772E+03</pdfrwt>
<totfact> 0.18158891E+02</totfact>
</mgrwt>
</event>
<event>
 5    1  0.1125356E+001  0.2749203E+03  0.7818608E-02  0.1098496E+00
          2   -1    0    0  501    0  0.00000000000E+00  0.00000000000E+00  0.15295402476E+04  0.15295402476E+04  0.00000000000E+00 0.  1.
         -2   -1    0    0    0  501 -0.00000000000E+00 -0.00000000000E+00 -0.12353574799E+02  0.12353574799E+02  0.00000000000E+00 0.  1.
         35    2    1    2    0    0  0.00000000000E+00  0.00000000000E+00  0.15171866728E+04  0.15418938224E+04  0.27492027832E+03 0.  0.
         25    1    3    3    0    0 -0.39957447257E+02 -0.53040528273E+02  0.81042115938E+03  0.82194425042E+03  0.12000000000E+03 0.  0.
         25    1    3    3    0    0  0.39957447257E+02  0.53040528273E+02  0.70676551344E+03  0.71994957200E+03  0.12000000000E+03 0.  0.
<mgrwt>
<rscale>  0 0.27492028E+03</rscale>
<asrwt>0</asrwt>
<pdfrwt beam="1">  1        2 0.23531373E+00 0.27492028E+03</pdfrwt>
<pdfrwt beam="2">  1       -2 0.19005512E-02 0.27492028E+03</pdfrwt>
<totfact> 0.10963946E+04</totfact>
</mgrwt>
</event>
<event>
 5    1  0.1125356E+001  0.2730607E+03  0.7818608E-02  0.1099541E+00
         -2   -1    0    0    0  501 -0.00000000000E+00  0.00000000000E+00  0.30256544232E+02  0.30256544232E+02  0.00000000000E+00 0. -1.
          2   -1    0    0  501    0  0.00000000000E+00 -0.00000000000E+00 -0.61608257965E+03  0.61608257965E+03  0.00000000000E+00 0. -1.
         35    2    1    2    0    0  0.00000000000E+00  0.00000000000E+00 -0.58582603542E+03  0.64633912388E+03  0.27306065130E+03 0.  0.
         25    1    3    3    0    0 -0.17849507134E+01 -0.39672176786E+02 -0.41507177026E+03  0.43389127915E+03  0.12000000000E+03 0.  0.
         25    1    3    3    0    0  0.17849507134E+01  0.39672176786E+02 -0.17075426516E+03  0.21244784473E+03  0.12000000000E+03 0.  0.
<mgrwt>
<rscale>  0 0.27306065E+03</rscale>
<asrwt>0</asrwt>
<pdfrwt beam="1">  1        2 0.94781925E-01 0.27306065E+03</pdfrwt>
<pdfrwt beam="2">  1       -2 0.46548535E-02 0.27306065E+03</pdfrwt>
<totfact> 0.10626488E+04</totfact>
</mgrwt>
</event>
<event>
 5    1  0.1125356E+001  0.2743058E+03  0.7818608E-02  0.1098840E+00
         -1   -1    0    0    0  501 -0.00000000000E+00  0.00000000000E+00  0.23258218345E+03  0.23258218345E+03  0.00000000000E+00 0.  1.
          1   -1    0    0  501    0  0.00000000000E+00 -0.00000000000E+00 -0.80878612717E+02  0.80878612717E+02  0.00000000000E+00 0.  1.
         35    2    1    2    0    0  0.00000000000E+00  0.00000000000E+00  0.15170357073E+03  0.31346079616E+03  0.27430584638E+03 0.  0.
         25    1    3    3    0    0  0.84636943819E+01  0.64232826123E+02  0.92546547679E+02  0.16481005298E+03  0.12000000000E+03 0.  0.
         25    1    3    3    0    0 -0.84636943819E+01 -0.64232826123E+02  0.59157023052E+02  0.14865074319E+03  0.12000000000E+03 0.  0.
<mgrwt>
<rscale>  0 0.27430585E+03</rscale>
<asrwt>0</asrwt>
<pdfrwt beam="1">  1        1 0.12442864E-01 0.27430585E+03</pdfrwt>
<pdfrwt beam="2">  1       -1 0.35781874E-01 0.27430585E+03</pdfrwt>
<totfact> 0.35776571E+03</totfact>
</mgrwt>
</event>
<event>
 5    1  0.1125356E+001  0.2756754E+03  0.7818608E-02  0.1098075E+00
          1   -1    0    0  501    0  0.00000000000E+00  0.00000000000E+00  0.82990364086E+03  0.82990364086E+03  0.00000000000E+00 0.  1.
         -1   -1    0    0    0  501 -0.00000000000E+00 -0.00000000000E+00 -0.22893300150E+02  0.22893300150E+02  0.00000000000E+00 0.  1.
         35    2    1    2    0    0  0.00000000000E+00  0.00000000000E+00  0.80701034071E+03  0.85279694101E+03  0.27567541164E+03 0.  0.
         25    1    3    3    0    0  0.60064573173E+02  0.31383075764E+02  0.41144207761E+03  0.43390924584E+03  0.12000000000E+03 0.  0.
         25    1    3    3    0    0 -0.60064573173E+02 -0.31383075764E+02  0.39556826310E+03  0.41888769517E+03  0.12000000000E+03 0.  0.
<mgrwt>
<rscale>  0 0.27567541E+03</rscale>
<asrwt>0</asrwt>
<pdfrwt beam="1">  1        1 0.12767746E+00 0.27567541E+03</pdfrwt>
<pdfrwt beam="2">  1       -1 0.35220468E-02 0.27567541E+03</pdfrwt>
<totfact> 0.64573493E+03</totfact>
</mgrwt>
</event>
<event>
 5    1  0.1125356E+001  0.2806641E+03  0.7818608E-02  0.1095327E+00
         -3   -1    0    0    0  501 -0.00000000000E+00  0.00000000000E+00  0.16705540856E+03  0.16705540856E+03  0.00000000000E+00 0. -1.
          3   -1    0    0  501    0  0.00000000000E+00 -0.00000000000E+00 -0.11788354992E+03  0.11788354992E+03  0.00000000000E+00 0. -1.
         35    2    1    2    0    0  0.00000000000E+00  0.00000000000E+00  0.49171858643E+02  0.28493895848E+03  0.28066410240E+03 0.  0.
         25    1    3    3    0    0 -0.38731086915E+01  0.40708433751E+02  0.85676425362E+02  0.15301185383E+03  0.12000000000E+03 0.  0.
         25    1    3    3    0    0  0.38731086915E+01 -0.40708433751E+02 -0.36504566719E+02  0.13192710465E+03  0.12000000000E+03 0.  0.
<mgrwt>
<rscale>  0 0.28066410E+03</rscale>
<asrwt>0</asrwt>
<pdfrwt beam="1">  1        3 0.18135931E-01 0.28066410E+03</pdfrwt>
<pdfrwt beam="2">  1       -3 0.25700832E-01 0.28066410E+03</pdfrwt>
<totfact> 0.97107373E+02</totfact>
</mgrwt>
</event>
<event>
 5    1  0.1125356E+001  0.2750175E+03  0.7818608E-02  0.1098442E+00
          1   -1    0    0  501    0  0.00000000000E+00  0.00000000000E+00  0.21286966589E+03  0.21286966589E+03  0.00000000000E+00 0. -1.
         -1   -1    0    0    0  501 -0.00000000000E+00 -0.00000000000E+00 -0.88827385701E+02  0.88827385701E+02  0.00000000000E+00 0. -1.
         35    2    1    2    0    0  0.00000000000E+00  0.00000000000E+00  0.12404228019E+03  0.30169705159E+03  0.27501749701E+03 0.  0.
         25    1    3    3    0    0 -0.28865074032E+02 -0.55079645035E+02  0.89810301889E+02  0.16227399706E+03  0.12000000000E+03 0.  0.
         25    1    3    3    0    0  0.28865074032E+02  0.55079645035E+02  0.34231978296E+02  0.13942305453E+03  0.12000000000E+03 0.  0.
<mgrwt>
<rscale>  0 0.27501750E+03</rscale>
<asrwt>0</asrwt>
<pdfrwt beam="1">  1        1 0.32749179E-01 0.27501750E+03</pdfrwt>
<pdfrwt beam="2">  1       -1 0.13665752E-01 0.27501750E+03</pdfrwt>
<totfact> 0.50170789E+03</totfact>
</mgrwt>
</event>
<event>
 5    1  0.1125356E+001  0.2748508E+03  0.7818608E-02  0.1098535E+00
         -3   -1    0    0    0  501 -0.00000000000E+00  0.00000000000E+00  0.27709258118E+02  0.27709258118E+02  0.00000000000E+00 0.  1.
          3   -1    0    0  501    0  0.00000000000E+00 -0.00000000000E+00 -0.68156789376E+03  0.68156789376E+03  0.00000000000E+00 0.  1.
         35    2    1    2    0    0  0.00000000000E+00  0.00000000000E+00 -0.65385863564E+03  0.70927715188E+03  0.27485080093E+03 0.  0.
         25    1    3    3    0    0 -0.26043224132E+01 -0.45441594239E+02 -0.20013804281E+03  0.23775398453E+03  0.12000000000E+03 0.  0.
         25    1    3    3    0    0  0.26043224132E+01  0.45441594239E+02 -0.45372059283E+03  0.47152316734E+03  0.12000000000E+03 0.  0.
<mgrwt>
<rscale>  0 0.27485080E+03</rscale>
<asrwt>0</asrwt>
<pdfrwt beam="1">  1        3 0.10485659E+00 0.27485080E+03</pdfrwt>
<pdfrwt beam="2">  1       -3 0.42629633E-02 0.27485080E+03</pdfrwt>
<totfact> 0.60570384E+02</totfact>
</mgrwt>
</event>
<event>
 5    1  0.1125356E+001  0.2755338E+03  0.7818608E-02  0.1098154E+00
          2   -1    0    0  501    0  0.00000000000E+00  0.00000000000E+00  0.26806431192E+03  0.26806431192E+03  0.00000000000E+00 0.  1.
         -2   -1    0    0    0  501 -0.00000000000E+00 -0.00000000000E+00 -0.70802867851E+02  0.70802867851E+02  0.00000000000E+00 0.  1.
         35    2    1    2    0    0  0.00000000000E+00  0.00000000000E+00  0.19726144407E+03  0.33886717977E+03  0.27553382407E+03 0.  0.
         25    1    3    3    0    0 -0.66586886100E+02 -0.11989743953E+02  0.10043601278E+03  0.17048448617E+03  0.12000000000E+03 0.  0.
         25    1    3    3    0    0  0.66586886100E+02  0.11989743953E+02  0.96825431291E+02  0.16838269360E+03  0.12000000000E+03 0.  0.
<mgrwt>
<rscale>  0 0.27553382E+03</rscale>
<asrwt>0</asrwt>
<pdfrwt beam="1">  1        2 0.41240663E-01 0.27553382E+03</pdfrwt>
<pdfrwt beam="2">  1       -2 0.10892749E-01 0.27553382E+03</pdfrwt>
<totfact> 0.70947697E+03</totfact>
</mgrwt>
</event>
<event>
 5    1  0.1125356E+001  0.2744413E+03  0.7818608E-02  0.1098764E+00
          2   -1    0    0  501    0  0.00000000000E+00  0.00000000000E+00  0.26303497928E+04  0.26303497928E+04  0.00000000000E+00 0. -1.
         -2   -1    0    0    0  501 -0.00000000000E+00 -0.00000000000E+00 -0.71585566184E+01  0.71585566184E+01  0.00000000000E+00 0. -1.
         35    2    1    2    0    0  0.00000000000E+00  0.00000000000E+00  0.26231912362E+04  0.26375083494E+04  0.27444130825E+03 0.  0.
         25    1    3    3    0    0 -0.25586191591E+02  0.40635980242E+01  0.72242306820E+03  0.73277981379E+03  0.12000000000E+03 0.  0.
         25    1    3    3    0    0  0.25586191591E+02 -0.40635980242E+01  0.19007681680E+04  0.19047285356E+04  0.12000000000E+03 0.  0.
<mgrwt>
<rscale>  0 0.27444131E+03</rscale>
<asrwt>0</asrwt>
<pdfrwt beam="1">  1        2 0.40466843E+00 0.27444131E+03</pdfrwt>
<pdfrwt beam="2">  1       -2 0.11013185E-02 0.27444131E+03</pdfrwt>
<totfact> 0.62944109E+03</totfact>
</mgrwt>
</event>
<event>
 5    1  0.1125356E+001  0.2753543E+03  0.7818608E-02  0.1098254E+00
         -2   -1    0    0    0  501 -0.00000000000E+00  0.00000000000E+00  0.17150296370E+02  0.17150296370E+02  0.00000000000E+00 0.  1.
          2   -1    0    0  501    0  0.00000000000E+00 -0.00000000000E+00 -0.11052286909E+04  0.11052286909E+04  0.00000000000E+00 0.  1.
         35    2    1    2    0    0  0.00000000000E+00  0.00000000000E+00 -0.10880783946E+04  0.11223789873E+04  0.27535431434E+03 0.  0.
         25    1    3    3    0    0 -0.21108501928E+02 -0.40186567472E+02 -0.34045839004E+03  0.36383024119E+03  0.12000000000E+03 0.  0.
         25    1    3    3    0    0  0.21108501928E+02  0.40186567472E+02 -0.74762000453E+03  0.75854874612E+03  0.12000000000E+03 0.  0.
<mgrwt>
<rscale>  0 0.27535431E+03</rscale>
<asrwt>0</asrwt>
<pdfrwt beam="1">  1        2 0.17003523E+00 0.27535431E+03</pdfrwt>
<pdfrwt beam="2">  1       -2 0.26385064E-02 0.27535431E+03</pdfrwt>
<totfact> 0.11613908E+04</totfact>
</mgrwt>
</event>
<event>
 5    1  0.1125356E+001  0.2770464E+03  0.7818608E-02  0.1097313E+00
         -2   -1    0    0    0  501 -0.00000000000E+00  0.00000000000E+00  0.10322619165E+03  0.10322619165E+03  0.00000000000E+00 0.  1.
          2   -1    0    0  501    0  0.00000000000E+00 -0.00000000000E+00 -0.18588966818E+03  0.18588966818E+03  0.00000000000E+00 0.  1.
         35    2    1    2    0    0  0.00000000000E+00  0.00000000000E+00 -0.82663476522E+02  0.28911585983E+03  0.27704644025E+03 0.  0.
         25    1    3    3    0    0 -0.64901897666E+02  0.25660421753E+01 -0.16420436360E+02  0.13743533615E+03  0.12000000000E+03 0.  0.
         25    1    3    3    0    0  0.64901897666E+02 -0.25660421753E+01 -0.66243040162E+02  0.15168052368E+03  0.12000000000E+03 0.  0.
<mgrwt>
<rscale>  0 0.27704644E+03</rscale>
<asrwt>0</asrwt>
<pdfrwt beam="1">  1        2 0.28598410E-01 0.27704644E+03</pdfrwt>
<pdfrwt beam="2">  1       -2 0.15880953E-01 0.27704644E+03</pdfrwt>
<totfact> 0.57154871E+03</totfact>
</mgrwt>
</event>
<event>
 5    1  0.1125356E+001  0.2745709E+03  0.7818608E-02  0.1098692E+00
          1   -1    0    0  501    0  0.00000000000E+00  0.00000000000E+00  0.19165908559E+03  0.19165908559E+03  0.00000000000E+00 0.  1.
         -1   -1    0    0    0  501 -0.00000000000E+00 -0.00000000000E+00 -0.98337626616E+02  0.98337626616E+02  0.00000000000E+00 0.  1.
         35    2    1    2    0    0  0.00000000000E+00  0.00000000000E+00  0.93321458973E+02  0.28999671220E+03  0.27457093507E+03 0.  0.
         25    1    3    3    0    0 -0.53507063911E+02  0.90803878173E+01  0.57299153292E+01  0.13182674714E+03  0.12000000000E+03 0.  0.
         25    1    3    3    0    0  0.53507063911E+02 -0.90803878173E+01  0.87591543644E+02  0.15816996507E+03  0.12000000000E+03 0.  0.
<mgrwt>
<rscale>  0 0.27457094E+03</rscale>
<asrwt>0</asrwt>
<pdfrwt beam="1">  1        1 0.29486013E-01 0.27457094E+03</pdfrwt>
<pdfrwt beam="2">  1       -1 0.15128866E-01 0.27457094E+03</pdfrwt>
<totfact> 0.48753810E+03</totfact>
</mgrwt>
</event>
<event>
 5    1  0.1125356E+001  0.2749283E+03  0.7818608E-02  0.1098492E+00
         -3   -1    0    0    0  501 -0.00000000000E+00  0.00000000000E+00  0.16134375530E+03  0.16134375530E+03  0.00000000000E+00 0.  1.
          3   -1    0    0  501    0  0.00000000000E+00 -0.00000000000E+00 -0.11711881583E+03  0.11711881583E+03  0.00000000000E+00 0.  1.
         35    2    1    2    0    0  0.00000000000E+00  0.00000000000E+00  0.44224939469E+02  0.27846257114E+03  0.27492827838E+03 0.  0.
         25    1    3    3    0    0  0.35878429987E+02  0.32703033999E+02 -0.24738405535E+02  0.13179051134E+03  0.12000000000E+03 0.  0.
         25    1    3    3    0    0 -0.35878429987E+02 -0.32703033999E+02  0.68963345005E+02  0.14667205980E+03  0.12000000000E+03 0.  0.
<mgrwt>
<rscale>  0 0.27492828E+03</rscale>
<asrwt>0</asrwt>
<pdfrwt beam="1">  1        3 0.18018279E-01 0.27492828E+03</pdfrwt>
<pdfrwt beam="2">  1       -3 0.24822116E-01 0.27492828E+03</pdfrwt>
<totfact> 0.10444281E+03</totfact>
</mgrwt>
</event>
<event>
 5    1  0.1125356E+001  0.2808703E+03  0.7818608E-02  0.1095215E+00
          2   -1    0    0  501    0  0.00000000000E+00  0.00000000000E+00  0.23522920825E+03  0.23522920825E+03  0.00000000000E+00 0. -1.
         -2   -1    0    0    0  501 -0.00000000000E+00 -0.00000000000E+00 -0.83841736939E+02  0.83841736939E+02  0.00000000000E+00 0. -1.
         35    2    1    2    0    0  0.00000000000E+00  0.00000000000E+00  0.15138747131E+03  0.31907094519E+03  0.28087025758E+03 0.  0.
         25    1    3    3    0    0  0.59491682777E+02  0.40922386481E+02  0.63881250392E+02  0.15393088120E+03  0.12000000000E+03 0.  0.
         25    1    3    3    0    0 -0.59491682777E+02 -0.40922386481E+02  0.87506220920E+02  0.16514006399E+03  0.12000000000E+03 0.  0.
<mgrwt>
<rscale>  0 0.28087026E+03</rscale>
<asrwt>0</asrwt>
<pdfrwt beam="1">  1        2 0.36189109E-01 0.28087026E+03</pdfrwt>
<pdfrwt beam="2">  1       -2 0.12898729E-01 0.28087026E+03</pdfrwt>
<totfact> 0.62247660E+03</totfact>
</mgrwt>
</event>
<event>
 5    1  0.1125356E+001  0.2739324E+03  0.7818608E-02  0.1099050E+00
         -2   -1    0    0    0  501 -0.00000000000E+00  0.00000000000E+00  0.96231529137E+01  0.96231529137E+01  0.00000000000E+00 0.  1.
          2   -1    0    0  501    0  0.00000000000E+00 -0.00000000000E+00 -0.19494379342E+04  0.19494379342E+04  0.00000000000E+00 0.  1.
         35    2    1    2    0    0  0.00000000000E+00  0.00000000000E+00 -0.19398147813E+04  0.19590610871E+04  0.27393239557E+03 0.  0.
         25    1    3    3    0    0 -0.26457842323E+02  0.28741083480E+02 -0.13506043210E+04  0.13564874121E+04  0.12000000000E+03 0.  0.
         25    1    3    3    0    0  0.26457842323E+02 -0.28741083480E+02 -0.58921046026E+03  0.60257367498E+03  0.12000000000E+03 0.  0.
<mgrwt>
<rscale>  0 0.27393240E+03</rscale>
<asrwt>0</asrwt>
<pdfrwt beam="1">  1        2 0.29991372E+00 0.27393240E+03</pdfrwt>
<pdfrwt beam="2">  1       -2 0.14804841E-02 0.27393240E+03</pdfrwt>
<totfact> 0.94987709E+03</totfact>
</mgrwt>
</event>
<event>
 5    1  0.1125356E+001  0.2744946E+03  0.7818608E-02  0.1098734E+00
         -2   -1    0    0    0  501 -0.00000000000E+00  0.00000000000E+00  0.76785793894E+01  0.76785793894E+01  0.00000000000E+00 0.  1.
          2   -1    0    0  501    0  0.00000000000E+00 -0.00000000000E+00 -0.24531652165E+04  0.24531652165E+04  0.00000000000E+00 0.  1.
         35    2    1    2    0    0  0.00000000000E+00  0.00000000000E+00 -0.24454866371E+04  0.24608437959E+04  0.27449461831E+03 0.  0.
         25    1    3    3    0    0  0.57918858252E+02  0.30109300717E+02 -0.13415624382E+04  0.13484995142E+04  0.12000000000E+03 0.  0.
         25    1    3    3    0    0 -0.57918858252E+02 -0.30109300717E+02 -0.11039241989E+04  0.11123442817E+04  0.12000000000E+03 0.  0.
<mgrwt>
<rscale>  0 0.27449462E+03</rscale>
<asrwt>0</asrwt>
<pdfrwt beam="1">  1        2 0.37740970E+00 0.27449462E+03</pdfrwt>
<pdfrwt beam="2">  1       -2 0.11813210E-02 0.27449462E+03</pdfrwt>
<totfact> 0.71162786E+03</totfact>
</mgrwt>
</event>
<event>
 5    1  0.1125356E+001  0.2751863E+03  0.7818608E-02  0.1098348E+00
          4   -1    0    0  501    0  0.00000000000E+00  0.00000000000E+00  0.56756729216E+03  0.56756729216E+03  0.00000000000E+00 0.  1.
         -4   -1    0    0    0  501 -0.00000000000E+00 -0.00000000000E+00 -0.33356171486E+02  0.33356171486E+02  0.00000000000E+00 0.  1.
         35    2    1    2    0    0  0.00000000000E+00  0.00000000000E+00  0.53421112067E+03  0.60092346364E+03  0.27518627820E+03 0.  0.
         25    1    3    3    0    0  0.56205409792E+02 -0.36143496506E+02  0.24930186645E+03  0.28463453945E+03  0.12000000000E+03 0.  0.
         25    1    3    3    0    0 -0.56205409792E+02  0.36143496506E+02  0.28490925422E+03  0.31628892420E+03  0.12000000000E+03 0.  0.
<mgrwt>
<rscale>  0 0.27518628E+03</rscale>
<asrwt>0</asrwt>
<pdfrwt beam="1">  1        4 0.87318038E-01 0.27518628E+03</pdfrwt>
<pdfrwt beam="2">  1       -4 0.51317191E-02 0.27518628E+03</pdfrwt>
<totfact> 0.50034513E+02</totfact>
</mgrwt>
</event>
<event>
 5    1  0.1125356E+001  0.2741580E+03  0.7818608E-02  0.1098923E+00
         -2   -1    0    0    0  501 -0.00000000000E+00  0.00000000000E+00  0.23341328220E+02  0.23341328220E+02  0.00000000000E+00 0.  1.
          2   -1    0    0  501    0  0.00000000000E+00 -0.00000000000E+00 -0.80503755429E+03  0.80503755429E+03  0.00000000000E+00 0.  1.
         35    2    1    2    0    0  0.00000000000E+00  0.00000000000E+00 -0.78169622607E+03  0.82837888251E+03  0.27415795290E+03 0.  0.
         25    1    3    3    0    0  0.59865062748E+02  0.81833387873E+01 -0.47303469020E+03  0.49174445691E+03  0.12000000000E+03 0.  0.
         25    1    3    3    0    0 -0.59865062748E+02 -0.81833387873E+01 -0.30866153587E+03  0.33663442559E+03  0.12000000000E+03 0.  0.
<mgrwt>
<rscale>  0 0.27415795E+03</rscale>
<asrwt>0</asrwt>
<pdfrwt beam="1">  1        2 0.12385193E+00 0.27415795E+03</pdfrwt>
<pdfrwt beam="2">  1       -2 0.35909737E-02 0.27415795E+03</pdfrwt>
<totfact> 0.11340457E+04</totfact>
</mgrwt>
</event>
<event>
 5    1  0.1125356E+001  0.2749997E+03  0.7818608E-02  0.1098452E+00
          2   -1    0    0  501    0  0.00000000000E+00  0.00000000000E+00  0.14969109472E+04  0.14969109472E+04  0.00000000000E+00 0.  1.
         -2   -1    0    0    0  501 -0.00000000000E+00 -0.00000000000E+00 -0.12630151084E+02  0.12630151084E+02  0.00000000000E+00 0.  1.
         35    2    1    2    0    0  0.00000000000E+00  0.00000000000E+00  0.14842807961E+04  0.15095410983E+04  0.27499971944E+03 0.  0.
         25    1    3    3    0    0 -0.52174094930E+02 -0.20805088736E+02  0.54036124751E+03  0.55636792297E+03  0.12000000000E+03 0.  0.
         25    1    3    3    0    0  0.52174094930E+02  0.20805088736E+02  0.94391954863E+03  0.95317317534E+03  0.12000000000E+03 0.  0.
<mgrwt>
<rscale>  0 0.27499972E+03</rscale>
<asrwt>0</asrwt>
<pdfrwt beam="1">  1        2 0.23029385E+00 0.27499972E+03</pdfrwt>
<pdfrwt beam="2">  1       -2 0.19431013E-02 0.27499972E+03</pdfrwt>
<totfact> 0.11047761E+04</totfact>
</mgrwt>
</event>
<event>
 5    1  0.1125356E+001  0.2749574E+03  0.7818608E-02  0.1098475E+00
          2   -1    0    0  501    0  0.00000000000E+00  0.00000000000E+00  0.65586546487E+03  0.65586546487E+03  0.00000000000E+00 0. -1.
         -2   -1    0    0    0  501 -0.00000000000E+00 -0.00000000000E+00 -0.28817475452E+02  0.28817475452E+02  0.00000000000E+00 0. -1.
         35    2    1    2    0    0  0.00000000000E+00  0.00000000000E+00  0.62704798942E+03  0.68468294032E+03  0.27495735621E+03 0.  0.
         25    1    3    3    0    0  0.39412613969E+02 -0.51350258414E+02  0.35738046626E+03  0.38250621021E+03  0.12000000000E+03 0.  0.
         25    1    3    3    0    0 -0.39412613969E+02  0.51350258414E+02  0.26966752315E+03  0.30217673011E+03  0.12000000000E+03 0.  0.
<mgrwt>
<rscale>  0 0.27495736E+03</rscale>
<asrwt>0</asrwt>
<pdfrwt beam="1">  1        2 0.10090237E+00 0.27495736E+03</pdfrwt>
<pdfrwt beam="2">  1       -2 0.44334583E-02 0.27495736E+03</pdfrwt>
<totfact> 0.10628474E+04</totfact>
</mgrwt>
</event>
<event>
 5    1  0.1125356E+001  0.2749941E+03  0.7818608E-02  0.1098455E+00
         -1   -1    0    0    0  501 -0.00000000000E+00  0.00000000000E+00  0.10452788416E+03  0.10452788416E+03  0.00000000000E+00 0. -1.
          1   -1    0    0  501    0  0.00000000000E+00 -0.00000000000E+00 -0.18086503872E+03  0.18086503872E+03  0.00000000000E+00 0. -1.
         35    2    1    2    0    0  0.00000000000E+00  0.00000000000E+00 -0.76337154558E+02  0.28539292288E+03  0.27499410769E+03 0.  0.
         25    1    3    3    0    0 -0.28896026018E+02 -0.10975559885E+02 -0.10000349375E+03  0.15923612026E+03  0.12000000000E+03 0.  0.
         25    1    3    3    0    0  0.28896026018E+02  0.10975559885E+02  0.23666339193E+02  0.12615680261E+03  0.12000000000E+03 0.  0.
<mgrwt>
<rscale>  0 0.27499411E+03</rscale>
<asrwt>0</asrwt>
<pdfrwt beam="1">  1        1 0.27825390E-01 0.27499411E+03</pdfrwt>
<pdfrwt beam="2">  1       -1 0.16081213E-01 0.27499411E+03</pdfrwt>
<totfact> 0.47605713E+03</totfact>
</mgrwt>
</event>
<event>
 5    1  0.1125356E+001  0.2749533E+03  0.7818608E-02  0.1098478E+00
         -2   -1    0    0    0  501 -0.00000000000E+00  0.00000000000E+00  0.68597970173E+01  0.68597970173E+01  0.00000000000E+00 0. -1.
          2   -1    0    0  501    0  0.00000000000E+00 -0.00000000000E+00 -0.27551593149E+04  0.27551593149E+04  0.00000000000E+00 0. -1.
         35    2    1    2    0    0  0.00000000000E+00  0.00000000000E+00 -0.27482995179E+04  0.27620191119E+04  0.27495333168E+03 0.  0.
         25    1    3    3    0    0 -0.49167007752E+02 -0.45580522847E+02 -0.13962837361E+04  0.14030335885E+04  0.12000000000E+03 0.  0.
         25    1    3    3    0    0  0.49167007752E+02  0.45580522847E+02 -0.13520157817E+04  0.13589855234E+04  0.12000000000E+03 0.  0.
<mgrwt>
<rscale>  0 0.27495333E+03</rscale>
<asrwt>0</asrwt>
<pdfrwt beam="1">  1        2 0.42387094E+00 0.27495333E+03</pdfrwt>
<pdfrwt beam="2">  1       -2 0.10553527E-02 0.27495333E+03</pdfrwt>
<totfact> 0.56969076E+03</totfact>
</mgrwt>
</event>
<event>
 5    1  0.1125356E+001  0.2740358E+03  0.7818608E-02  0.1098992E+00
         -1   -1    0    0    0  501 -0.00000000000E+00  0.00000000000E+00  0.11758060574E+03  0.11758060574E+03  0.00000000000E+00 0.  1.
          1   -1    0    0  501    0  0.00000000000E+00 -0.00000000000E+00 -0.15966840036E+03  0.15966840036E+03  0.00000000000E+00 0.  1.
         35    2    1    2    0    0  0.00000000000E+00  0.00000000000E+00 -0.42087794619E+02  0.27724900610E+03  0.27403581687E+03 0.  0.
         25    1    3    3    0    0 -0.86744804185E+01 -0.17293760019E+01 -0.87353758360E+02  0.14869067372E+03  0.12000000000E+03 0.  0.
         25    1    3    3    0    0  0.86744804185E+01  0.17293760019E+01  0.45265963742E+02  0.12855833238E+03  0.12000000000E+03 0.  0.
<mgrwt>
<rscale>  0 0.27403582E+03</rscale>
<asrwt>0</asrwt>
<pdfrwt beam="1">  1        1 0.24564369E-01 0.27403582E+03</pdfrwt>
<pdfrwt beam="2">  1       -1 0.18089324E-01 0.27403582E+03</pdfrwt>
<totfact> 0.46179622E+03</totfact>
</mgrwt>
</event>
<event>
 5    1  0.1125356E+001  0.2755539E+03  0.7818608E-02  0.1098142E+00
         -3   -1    0    0    0  501 -0.00000000000E+00  0.00000000000E+00  0.19806529355E+03  0.19806529355E+03  0.00000000000E+00 0. -1.
          3   -1    0    0  501    0  0.00000000000E+00 -0.00000000000E+00 -0.95839580347E+02  0.95839580347E+02  0.00000000000E+00 0. -1.
         35    2    1    2    0    0  0.00000000000E+00  0.00000000000E+00  0.10222571320E+03  0.29390487389E+03  0.27555394836E+03 0.  0.
         25    1    3    3    0    0 -0.64769006100E+00  0.32970698553E+02 -0.11942828137E+02  0.12502046876E+03  0.12000000000E+03 0.  0.
         25    1    3    3    0    0  0.64769006100E+00 -0.32970698553E+02  0.11416854134E+03  0.16888440513E+03  0.12000000000E+03 0.  0.
<mgrwt>
<rscale>  0 0.27555395E+03</rscale>
<asrwt>0</asrwt>
<pdfrwt beam="1">  1        3 0.14744551E-01 0.27555395E+03</pdfrwt>
<pdfrwt beam="2">  1       -3 0.30471584E-01 0.27555395E+03</pdfrwt>
<totfact> 0.10141495E+03</totfact>
</mgrwt>
</event>
<event>
 5    1  0.1125356E+001  0.2793721E+03  0.7818608E-02  0.1096032E+00
         -2   -1    0    0    0  501 -0.00000000000E+00  0.00000000000E+00  0.18509422774E+03  0.18509422774E+03  0.00000000000E+00 0. -1.
          2   -1    0    0  501    0  0.00000000000E+00 -0.00000000000E+00 -0.10541760890E+03  0.10541760890E+03  0.00000000000E+00 0. -1.
         35    2    1    2    0    0  0.00000000000E+00  0.00000000000E+00  0.79676618838E+02  0.29051183664E+03  0.27937208815E+03 0.  0.
         25    1    3    3    0    0  0.46153154414E+02  0.54112531284E+02  0.47473508017E+02  0.14734997003E+03  0.12000000000E+03 0.  0.
         25    1    3    3    0    0 -0.46153154414E+02 -0.54112531284E+02  0.32203110822E+02  0.14316186661E+03  0.12000000000E+03 0.  0.
<mgrwt>
<rscale>  0 0.27937209E+03</rscale>
<asrwt>0</asrwt>
<pdfrwt beam="1">  1        2 0.16218094E-01 0.27937209E+03</pdfrwt>
<pdfrwt beam="2">  1       -2 0.28476035E-01 0.27937209E+03</pdfrwt>
<totfact> 0.39740261E+03</totfact>
</mgrwt>
</event>
<event>
 5    1  0.1125356E+001  0.2764960E+03  0.7818608E-02  0.1097618E+00
         -1   -1    0    0    0  501 -0.00000000000E+00  0.00000000000E+00  0.83148867359E+03  0.83148867359E+03  0.00000000000E+00 0.  1.
          1   -1    0    0  501    0  0.00000000000E+00 -0.00000000000E+00 -0.22985887773E+02  0.22985887773E+02  0.00000000000E+00 0.  1.
         35    2    1    2    0    0  0.00000000000E+00  0.00000000000E+00  0.80850278582E+03  0.85447456137E+03  0.27649596985E+03 0.  0.
         25    1    3    3    0    0  0.56502711839E+02 -0.11106716683E+02  0.28876129349E+03  0.31796068974E+03  0.12000000000E+03 0.  0.
         25    1    3    3    0    0 -0.56502711839E+02  0.11106716683E+02  0.51974149233E+03  0.53651387163E+03  0.12000000000E+03 0.  0.
<mgrwt>
<rscale>  0 0.27649597E+03</rscale>
<asrwt>0</asrwt>
<pdfrwt beam="1">  1        1 0.35362911E-02 0.27649597E+03</pdfrwt>
<pdfrwt beam="2">  1       -1 0.12792131E+00 0.27649597E+03</pdfrwt>
<totfact> 0.15307552E+03</totfact>
</mgrwt>
</event>
<event>
 5    1  0.1125356E+001  0.2743229E+03  0.7818608E-02  0.1098831E+00
         -1   -1    0    0    0  501 -0.00000000000E+00  0.00000000000E+00  0.58074132893E+01  0.58074132893E+01  0.00000000000E+00 0.  1.
          1   -1    0    0  501    0  0.00000000000E+00 -0.00000000000E+00 -0.32395255801E+04  0.32395255801E+04  0.00000000000E+00 0.  1.
         35    2    1    2    0    0  0.00000000000E+00  0.00000000000E+00 -0.32337181668E+04  0.32453329934E+04  0.27432290393E+03 0.  0.
         25    1    3    3    0    0  0.41446921115E+02 -0.49833069672E+02 -0.14445735159E+04  0.14509975275E+04  0.12000000000E+03 0.  0.
         25    1    3    3    0    0 -0.41446921115E+02  0.49833069672E+02 -0.17891446510E+04  0.17943354659E+04  0.12000000000E+03 0.  0.
<mgrwt>
<rscale>  0 0.27432290E+03</rscale>
<asrwt>0</asrwt>
<pdfrwt beam="1">  1        1 0.49838970E+00 0.27432290E+03</pdfrwt>
<pdfrwt beam="2">  1       -1 0.89344614E-03 0.27432290E+03</pdfrwt>
<totfact> 0.10823356E+03</totfact>
</mgrwt>
</event>
<event>
 5    1  0.1125356E+001  0.2742703E+03  0.7818608E-02  0.1098860E+00
         -2   -1    0    0    0  501 -0.00000000000E+00  0.00000000000E+00  0.12230078287E+04  0.12230078287E+04  0.00000000000E+00 0. -1.
          2   -1    0    0  501    0  0.00000000000E+00 -0.00000000000E+00 -0.15376888463E+02  0.15376888463E+02  0.00000000000E+00 0. -1.
         35    2    1    2    0    0  0.00000000000E+00  0.00000000000E+00  0.12076309402E+04  0.12383847172E+04  0.27427034088E+03 0.  0.
         25    1    3    3    0    0  0.54989637632E+01  0.37586519296E+02  0.84959612017E+03  0.85886934538E+03  0.12000000000E+03 0.  0.
         25    1    3    3    0    0 -0.54989637632E+01 -0.37586519296E+02  0.35803482008E+03  0.37951537179E+03  0.12000000000E+03 0.  0.
<mgrwt>
<rscale>  0 0.27427034E+03</rscale>
<asrwt>0</asrwt>
<pdfrwt beam="1">  1        2 0.23656761E-02 0.27427034E+03</pdfrwt>
<pdfrwt beam="2">  1       -2 0.18815497E+00 0.27427034E+03</pdfrwt>
<totfact> 0.74624184E+02</totfact>
</mgrwt>
</event>
<event>
 5    1  0.1125356E+001  0.2749410E+03  0.7818608E-02  0.1098485E+00
          1   -1    0    0  501    0  0.00000000000E+00  0.00000000000E+00  0.30342363292E+03  0.30342363292E+03  0.00000000000E+00 0.  1.
         -1   -1    0    0    0  501 -0.00000000000E+00 -0.00000000000E+00 -0.62283020104E+02  0.62283020104E+02  0.00000000000E+00 0.  1.
         35    2    1    2    0    0  0.00000000000E+00  0.00000000000E+00  0.24114061282E+03  0.36570665303E+03  0.27494101353E+03 0.  0.
         25    1    3    3    0    0  0.46764268947E+02 -0.16511728070E+02  0.18062680438E+03  0.22245353779E+03  0.12000000000E+03 0.  0.
         25    1    3    3    0    0 -0.46764268947E+02  0.16511728070E+02  0.60513808439E+02  0.14325311524E+03  0.12000000000E+03 0.  0.
<mgrwt>
<rscale>  0 0.27494101E+03</rscale>
<asrwt>0</asrwt>
<pdfrwt beam="1">  1        1 0.46680558E-01 0.27494101E+03</pdfrwt>
<pdfrwt beam="2">  1       -1 0.95820032E-02 0.27494101E+03</pdfrwt>
<totfact> 0.55886735E+03</totfact>
</mgrwt>
</event>
<event>
 5    1  0.1125356E+001  0.2733857E+03  0.7818608E-02  0.1099357E+00
          1   -1    0    0  501    0  0.00000000000E+00  0.00000000000E+00  0.61201189385E+03  0.61201189385E+03  0.00000000000E+00 0.  1.
         -1   -1    0    0    0  501 -0.00000000000E+00 -0.00000000000E+00 -0.30530342979E+02  0.30530342979E+02  0.00000000000E+00 0.  1.
         35    2    1    2    0    0  0.00000000000E+00  0.00000000000E+00  0.58148155087E+03  0.64254223683E+03  0.27338568380E+03 0.  0.
         25    1    3    3    0    0 -0.18773557472E+02 -0.50471887171E+02  0.37821147192E+03  0.40042948861E+03  0.12000000000E+03 0.  0.
         25    1    3    3    0    0  0.18773557472E+02  0.50471887171E+02  0.20327007895E+03  0.24211274822E+03  0.12000000000E+03 0.  0.
<mgrwt>
<rscale>  0 0.27338568E+03</rscale>
<asrwt>0</asrwt>
<pdfrwt beam="1">  1        1 0.94155667E-01 0.27338568E+03</pdfrwt>
<pdfrwt beam="2">  1       -1 0.46969763E-02 0.27338568E+03</pdfrwt>
<totfact> 0.65880557E+03</totfact>
</mgrwt>
</event>
<event>
 5    1  0.1125356E+001  0.2741942E+03  0.7818608E-02  0.1098903E+00
          1   -1    0    0  501    0  0.00000000000E+00  0.00000000000E+00  0.28506614609E+03  0.28506614609E+03  0.00000000000E+00 0.  1.
         -1   -1    0    0    0  501 -0.00000000000E+00 -0.00000000000E+00 -0.65934229399E+02  0.65934229399E+02  0.00000000000E+00 0.  1.
         35    2    1    2    0    0  0.00000000000E+00  0.00000000000E+00  0.21913191669E+03  0.35100037549E+03  0.27419421343E+03 0.  0.
         25    1    3    3    0    0  0.46408072776E+02 -0.16769505073E+02  0.16624909703E+03  0.21088785594E+03  0.12000000000E+03 0.  0.
         25    1    3    3    0    0 -0.46408072776E+02  0.16769505073E+02  0.52882819660E+02  0.14011251955E+03  0.12000000000E+03 0.  0.
<mgrwt>
<rscale>  0 0.27419421E+03</rscale>
<asrwt>0</asrwt>
<pdfrwt beam="1">  1        1 0.43856329E-01 0.27419421E+03</pdfrwt>
<pdfrwt beam="2">  1       -1 0.10143728E-01 0.27419421E+03</pdfrwt>
<totfact> 0.55351579E+03</totfact>
</mgrwt>
</event>
<event>
 5    1  0.1125356E+001  0.2735230E+03  0.7818608E-02  0.1099280E+00
          1   -1    0    0  501    0  0.00000000000E+00  0.00000000000E+00  0.42307459260E+03  0.42307459260E+03  0.00000000000E+00 0.  1.
         -1   -1    0    0    0  501 -0.00000000000E+00 -0.00000000000E+00 -0.44209008256E+02  0.44209008256E+02  0.00000000000E+00 0.  1.
         35    2    1    2    0    0  0.00000000000E+00  0.00000000000E+00  0.37886558435E+03  0.46728360086E+03  0.27352300201E+03 0.  0.
         25    1    3    3    0    0 -0.27560507018E+02  0.19258845928E+02  0.93196913930E+02  0.15561538953E+03  0.12000000000E+03 0.  0.
         25    1    3    3    0    0  0.27560507018E+02 -0.19258845928E+02  0.28566867042E+03  0.31166821133E+03  0.12000000000E+03 0.  0.
<mgrwt>
<rscale>  0 0.27352300E+03</rscale>
<asrwt>0</asrwt>
<pdfrwt beam="1">  1        1 0.65088396E-01 0.27352300E+03</pdfrwt>
<pdfrwt beam="2">  1       -1 0.68013862E-02 0.27352300E+03</pdfrwt>
<totfact> 0.61825585E+03</totfact>
</mgrwt>
</event>
<event>
 5    1  0.1125356E+001  0.2742768E+03  0.7818608E-02  0.1098857E+00
          2   -1    0    0  501    0  0.00000000000E+00  0.00000000000E+00  0.38628428035E+03  0.38628428035E+03  0.00000000000E+00 0. -1.
         -2   -1    0    0    0  501 -0.00000000000E+00 -0.00000000000E+00 -0.48686770579E+02  0.48686770579E+02  0.00000000000E+00 0. -1.
         35    2    1    2    0    0  0.00000000000E+00  0.00000000000E+00  0.33759750977E+03  0.43497105093E+03  0.27427675174E+03 0.  0.
         25    1    3    3    0    0  0.55387194526E+02  0.58625308692E+01  0.22608459014E+03  0.26194723225E+03  0.12000000000E+03 0.  0.
         25    1    3    3    0    0 -0.55387194526E+02 -0.58625308692E+01  0.11151291963E+03  0.17302381868E+03  0.12000000000E+03 0.  0.
<mgrwt>
<rscale>  0 0.27427675E+03</rscale>
<asrwt>0</asrwt>
<pdfrwt beam="1">  1        2 0.59428349E-01 0.27427675E+03</pdfrwt>
<pdfrwt beam="2">  1       -2 0.74902727E-02 0.27427675E+03</pdfrwt>
<totfact> 0.86364881E+03</totfact>
</mgrwt>
</event>
<event>
 5    1  0.1125356E+001  0.2745459E+03  0.7818608E-02  0.1098706E+00
          2   -1    0    0  501    0  0.00000000000E+00  0.00000000000E+00  0.36267539293E+04  0.36267539293E+04  0.00000000000E+00 0. -1.
         -2   -1    0    0    0  501 -0.00000000000E+00 -0.00000000000E+00 -0.51957937621E+01  0.51957937621E+01  0.00000000000E+00 0. -1.
         35    2    1    2    0    0  0.00000000000E+00  0.00000000000E+00  0.36215581355E+04  0.36319497230E+04  0.27454591924E+03 0.  0.
         25    1    3    3    0    0 -0.11611653243E+02  0.60716589104E+02  0.21408484515E+04  0.21450998641E+04  0.12000000000E+03 0.  0.
         25    1    3    3    0    0  0.11611653243E+02 -0.60716589104E+02  0.14807096840E+04  0.14868498589E+04  0.12000000000E+03 0.  0.
<mgrwt>
<rscale>  0 0.27454592E+03</rscale>
<asrwt>0</asrwt>
<pdfrwt beam="1">  1        2 0.55796012E+00 0.27454592E+03</pdfrwt>
<pdfrwt beam="2">  1       -2 0.79935578E-03 0.27454592E+03</pdfrwt>
<totfact> 0.24585974E+03</totfact>
</mgrwt>
</event>
<event>
 5    1  0.1125356E+001  0.2750177E+03  0.7818608E-02  0.1098442E+00
         -2   -1    0    0    0  501 -0.00000000000E+00  0.00000000000E+00  0.17897067336E+02  0.17897067336E+02  0.00000000000E+00 0.  1.
          2   -1    0    0  501    0  0.00000000000E+00 -0.00000000000E+00 -0.10565245236E+04  0.10565245236E+04  0.00000000000E+00 0.  1.
         35    2    1    2    0    0  0.00000000000E+00  0.00000000000E+00 -0.10386274562E+04  0.10744215909E+04  0.27501774881E+03 0.  0.
         25    1    3    3    0    0  0.39121941048E+02  0.30248152034E+02 -0.69676785211E+03  0.70875307175E+03  0.12000000000E+03 0.  0.
         25    1    3    3    0    0 -0.39121941048E+02 -0.30248152034E+02 -0.34185960411E+03  0.36566851915E+03  0.12000000000E+03 0.  0.
<mgrwt>
<rscale>  0 0.27501775E+03</rscale>
<asrwt>0</asrwt>
<pdfrwt beam="1">  1        2 0.16254221E+00 0.27501775E+03</pdfrwt>
<pdfrwt beam="2">  1       -2 0.27533955E-02 0.27501775E+03</pdfrwt>
<totfact> 0.11650106E+04</totfact>
</mgrwt>
</event>
<event>
 5    1  0.1125356E+001  0.2754895E+03  0.7818608E-02  0.1098178E+00
         -1   -1    0    0    0  501 -0.00000000000E+00  0.00000000000E+00  0.59194474986E+02  0.59194474986E+02  0.00000000000E+00 0.  1.
          1   -1    0    0  501    0  0.00000000000E+00 -0.00000000000E+00 -0.32053014277E+03  0.32053014277E+03  0.00000000000E+00 0.  1.
         35    2    1    2    0    0  0.00000000000E+00  0.00000000000E+00 -0.26133566779E+03  0.37972461776E+03  0.27548948088E+03 0.  0.
         25    1    3    3    0    0  0.24491480407E+02 -0.59237272485E+02 -0.10095374416E+03  0.16941235351E+03  0.12000000000E+03 0.  0.
         25    1    3    3    0    0 -0.24491480407E+02  0.59237272485E+02 -0.16038192363E+03  0.21031226424E+03  0.12000000000E+03 0.  0.
<mgrwt>
<rscale>  0 0.27548948E+03</rscale>
<asrwt>0</asrwt>
<pdfrwt beam="1">  1        1 0.49312329E-01 0.27548948E+03</pdfrwt>
<pdfrwt beam="2">  1       -1 0.91068424E-02 0.27548948E+03</pdfrwt>
<totfact> 0.56408373E+03</totfact>
</mgrwt>
</event>
<event>
 5    1  0.1125356E+001  0.2754598E+03  0.7818608E-02  0.1098195E+00
         -1   -1    0    0    0  501 -0.00000000000E+00  0.00000000000E+00  0.16287344196E+03  0.16287344196E+03  0.00000000000E+00 0. -1.
          1   -1    0    0  501    0  0.00000000000E+00 -0.00000000000E+00 -0.11646789610E+03  0.11646789610E+03  0.00000000000E+00 0. -1.
         35    2    1    2    0    0  0.00000000000E+00  0.00000000000E+00  0.46405545859E+02  0.27934133806E+03  0.27545981279E+03 0.  0.
         25    1    3    3    0    0 -0.16956522107E+02 -0.65124388572E+02  0.29681655224E+02  0.14074697256E+03  0.12000000000E+03 0.  0.
         25    1    3    3    0    0  0.16956522107E+02  0.65124388572E+02  0.16723890636E+02  0.13859436549E+03  0.12000000000E+03 0.  0.
<mgrwt>
<rscale>  0 0.27545981E+03</rscale>
<asrwt>0</asrwt>
<pdfrwt beam="1">  1        1 0.17918138E-01 0.27545981E+03</pdfrwt>
<pdfrwt beam="2">  1       -1 0.25057453E-01 0.27545981E+03</pdfrwt>
<totfact> 0.40651531E+03</totfact>
</mgrwt>
</event>
<event>
 5    1  0.1125356E+001  0.2749541E+03  0.7818608E-02  0.1098477E+00
         -1   -1    0    0    0  501 -0.00000000000E+00  0.00000000000E+00  0.16171549774E+03  0.16171549774E+03  0.00000000000E+00 0.  1.
          1   -1    0    0  501    0  0.00000000000E+00 -0.00000000000E+00 -0.11687155470E+03  0.11687155470E+03  0.00000000000E+00 0.  1.
         35    2    1    2    0    0  0.00000000000E+00  0.00000000000E+00  0.44843943042E+02  0.27858705244E+03  0.27495411719E+03 0.  0.
         25    1    3    3    0    0  0.31173908813E+02  0.49416016901E+02  0.55814773816E+02  0.14466873986E+03  0.12000000000E+03 0.  0.
         25    1    3    3    0    0 -0.31173908813E+02 -0.49416016901E+02 -0.10970830774E+02  0.13391831258E+03  0.12000000000E+03 0.  0.
<mgrwt>
<rscale>  0 0.27495412E+03</rscale>
<asrwt>0</asrwt>
<pdfrwt beam="1">  1        1 0.17980239E-01 0.27495412E+03</pdfrwt>
<pdfrwt beam="2">  1       -1 0.24879307E-01 0.27495412E+03</pdfrwt>
<totfact> 0.40950250E+03</totfact>
</mgrwt>
</event>
<event>
 5    1  0.1125356E+001  0.2758741E+03  0.7818608E-02  0.1097964E+00
          2   -1    0    0  501    0  0.00000000000E+00  0.00000000000E+00  0.33364942658E+04  0.33364942658E+04  0.00000000000E+00 0. -1.
         -2   -1    0    0    0  501 -0.00000000000E+00 -0.00000000000E+00 -0.57025825549E+01  0.57025825549E+01  0.00000000000E+00 0. -1.
         35    2    1    2    0    0  0.00000000000E+00  0.00000000000E+00  0.33307916833E+04  0.33421968484E+04  0.27587413068E+03 0.  0.
         25    1    3    3    0    0  0.56407558819E+02  0.30336734053E+02  0.19428526563E+04  0.19476084243E+04  0.12000000000E+03 0.  0.
         25    1    3    3    0    0 -0.56407558819E+02 -0.30336734053E+02  0.13879390270E+04  0.13945884241E+04  0.12000000000E+03 0.  0.
<mgrwt>
<rscale>  0 0.27587413E+03</rscale>
<asrwt>0</asrwt>
<pdfrwt beam="1">  1        2 0.51330525E+00 0.27587413E+03</pdfrwt>
<pdfrwt beam="2">  1       -2 0.87732306E-03 0.27587413E+03</pdfrwt>
<totfact> 0.33386943E+03</totfact>
</mgrwt>
</event>
<event>
 5    1  0.1125356E+001  0.2749480E+03  0.7818608E-02  0.1098481E+00
         -2   -1    0    0    0  501 -0.00000000000E+00  0.00000000000E+00  0.13045328546E+02  0.13045328546E+02  0.00000000000E+00 0. -1.
          2   -1    0    0  501    0  0.00000000000E+00 -0.00000000000E+00 -0.14487252399E+04  0.14487252399E+04  0.00000000000E+00 0. -1.
         35    2    1    2    0    0  0.00000000000E+00  0.00000000000E+00 -0.14356799114E+04  0.14617705684E+04  0.27494797128E+03 0.  0.
         25    1    3    3    0    0  0.44502220100E+01 -0.53344017344E+02 -0.50295009690E+03  0.51983092312E+03  0.12000000000E+03 0.  0.
         25    1    3    3    0    0 -0.44502220100E+01  0.53344017344E+02 -0.93272981445E+03  0.94193964532E+03  0.12000000000E+03 0.  0.
<mgrwt>
<rscale>  0 0.27494797E+03</rscale>
<asrwt>0</asrwt>
<pdfrwt beam="1">  1        2 0.22288077E+00 0.27494797E+03</pdfrwt>
<pdfrwt beam="2">  1       -2 0.20069739E-02 0.27494797E+03</pdfrwt>
<totfact> 0.11181442E+04</totfact>
</mgrwt>
</event>
<event>
 5    1  0.1125356E+001  0.2751040E+03  0.7818608E-02  0.1098393E+00
          4   -1    0    0  501    0  0.00000000000E+00  0.00000000000E+00  0.73587525576E+03  0.73587525576E+03  0.00000000000E+00 0.  1.
         -4   -1    0    0    0  501 -0.00000000000E+00 -0.00000000000E+00 -0.25711629304E+02  0.25711629304E+02  0.00000000000E+00 0.  1.
         35    2    1    2    0    0  0.00000000000E+00  0.00000000000E+00  0.71016362646E+03  0.76158688507E+03  0.27510399336E+03 0.  0.
         25    1    3    3    0    0 -0.36110635778E+02 -0.12895834063E+01  0.51204833052E+03  0.52716139258E+03  0.12000000000E+03 0.  0.
         25    1    3    3    0    0  0.36110635778E+02  0.12895834063E+01  0.19811529594E+03  0.23442549249E+03  0.12000000000E+03 0.  0.
<mgrwt>
<rscale>  0 0.27510399E+03</rscale>
<asrwt>0</asrwt>
<pdfrwt beam="1">  1        4 0.11321156E+00 0.27510399E+03</pdfrwt>
<pdfrwt beam="2">  1       -4 0.39556358E-02 0.27510399E+03</pdfrwt>
<totfact> 0.41473059E+02</totfact>
</mgrwt>
</event>
<event>
 5    1  0.1125356E+001  0.2761342E+03  0.7818608E-02  0.1097819E+00
         -4   -1    0    0    0  501 -0.00000000000E+00  0.00000000000E+00  0.94927205328E+03  0.94927205328E+03  0.00000000000E+00 0.  1.
          4   -1    0    0  501    0  0.00000000000E+00 -0.00000000000E+00 -0.20081195988E+02  0.20081195988E+02  0.00000000000E+00 0.  1.
         35    2    1    2    0    0  0.00000000000E+00  0.00000000000E+00  0.92919085729E+03  0.96935324927E+03  0.27613415687E+03 0.  0.
         25    1    3    3    0    0  0.48699101333E+02  0.90653658952E+00  0.29660343594E+03  0.32364490185E+03  0.12000000000E+03 0.  0.
         25    1    3    3    0    0 -0.48699101333E+02 -0.90653658952E+00  0.63258742135E+03  0.64570834742E+03  0.12000000000E+03 0.  0.
<mgrwt>
<rscale>  0 0.27613416E+03</rscale>
<asrwt>0</asrwt>
<pdfrwt beam="1">  1        4 0.30894155E-02 0.27613416E+03</pdfrwt>
<pdfrwt beam="2">  1       -4 0.14604182E+00 0.27613416E+03</pdfrwt>
<totfact> 0.32675234E+02</totfact>
</mgrwt>
</event>
<event>
 5    1  0.1125356E+001  0.2747920E+03  0.7818608E-02  0.1098568E+00
         -2   -1    0    0    0  501 -0.00000000000E+00  0.00000000000E+00  0.33745433935E+03  0.33745433935E+03  0.00000000000E+00 0. -1.
          2   -1    0    0  501    0  0.00000000000E+00 -0.00000000000E+00 -0.55941389326E+02  0.55941389326E+02  0.00000000000E+00 0. -1.
         35    2    1    2    0    0  0.00000000000E+00  0.00000000000E+00  0.28151295003E+03  0.39339572868E+03  0.27479202738E+03 0.  0.
         25    1    3    3    0    0 -0.44380139316E+02 -0.51249345302E+01  0.21207611663E+03  0.24773401253E+03  0.12000000000E+03 0.  0.
         25    1    3    3    0    0  0.44380139316E+02  0.51249345302E+01  0.69436833401E+02  0.14566171615E+03  0.12000000000E+03 0.  0.
<mgrwt>
<rscale>  0 0.27479203E+03</rscale>
<asrwt>0</asrwt>
<pdfrwt beam="1">  1        2 0.86063678E-02 0.27479203E+03</pdfrwt>
<pdfrwt beam="2">  1       -2 0.51916051E-01 0.27479203E+03</pdfrwt>
<totfact> 0.27483299E+03</totfact>
</mgrwt>
</event>
<event>
 5    1  0.1125356E+001  0.2748933E+03  0.7818608E-02  0.1098511E+00
         -1   -1    0    0    0  501 -0.00000000000E+00  0.00000000000E+00  0.71337892379E+02  0.71337892379E+02  0.00000000000E+00 0.  1.
          1   -1    0    0  501    0  0.00000000000E+00 -0.00000000000E+00 -0.26481838030E+03  0.26481838030E+03  0.00000000000E+00 0.  1.
         35    2    1    2    0    0  0.00000000000E+00  0.00000000000E+00 -0.19348048792E+03  0.33615627268E+03  0.27489332559E+03 0.  0.
         25    1    3    3    0    0 -0.35709131799E+02 -0.41295628650E+02 -0.14427657398E+03  0.19543848352E+03  0.12000000000E+03 0.  0.
         25    1    3    3    0    0  0.35709131799E+02  0.41295628650E+02 -0.49203913938E+02  0.14071778916E+03  0.12000000000E+03 0.  0.
<mgrwt>
<rscale>  0 0.27489333E+03</rscale>
<asrwt>0</asrwt>
<pdfrwt beam="1">  1        1 0.40741289E-01 0.27489333E+03</pdfrwt>
<pdfrwt beam="2">  1       -1 0.10975060E-01 0.27489333E+03</pdfrwt>
<totfact> 0.53739408E+03</totfact>
</mgrwt>
</event>
<event>
 5    1  0.1125356E+001  0.2748468E+03  0.7818608E-02  0.1098537E+00
          2   -1    0    0  501    0  0.00000000000E+00  0.00000000000E+00  0.24730543586E+03  0.24730543586E+03  0.00000000000E+00 0.  1.
         -2   -1    0    0    0  501 -0.00000000000E+00 -0.00000000000E+00 -0.76363854813E+02  0.76363854813E+02  0.00000000000E+00 0.  1.
         35    2    1    2    0    0  0.00000000000E+00  0.00000000000E+00  0.17094158104E+03  0.32366929067E+03  0.27484684025E+03 0.  0.
         25    1    3    3    0    0 -0.31226209970E+02  0.53584699425E+01  0.15986256847E+02  0.12513732376E+03  0.12000000000E+03 0.  0.
         25    1    3    3    0    0  0.31226209970E+02 -0.53584699425E+01  0.15495532420E+03  0.19853196691E+03  0.12000000000E+03 0.  0.
<mgrwt>
<rscale>  0 0.27484684E+03</rscale>
<asrwt>0</asrwt>
<pdfrwt beam="1">  1        2 0.38046990E-01 0.27484684E+03</pdfrwt>
<pdfrwt beam="2">  1       -2 0.11748285E-01 0.27484684E+03</pdfrwt>
<totfact> 0.68536133E+03</totfact>
</mgrwt>
</event>
<event>
 5    1  0.1125356E+001  0.2750741E+03  0.7818608E-02  0.1098410E+00
         -1   -1    0    0    0  501 -0.00000000000E+00  0.00000000000E+00  0.11729572831E+02  0.11729572831E+02  0.00000000000E+00 0.  1.
          1   -1    0    0  501    0  0.00000000000E+00 -0.00000000000E+00 -0.16127137263E+04  0.16127137263E+04  0.00000000000E+00 0.  1.
         35    2    1    2    0    0  0.00000000000E+00  0.00000000000E+00 -0.16009841535E+04  0.16244432992E+04  0.27507412171E+03 0.  0.
         25    1    3    3    0    0 -0.40066815042E+02  0.44931362865E+02 -0.62409068317E+03  0.63836772934E+03  0.12000000000E+03 0.  0.
         25    1    3    3    0    0  0.40066815042E+02 -0.44931362865E+02 -0.97689347034E+03  0.98607556983E+03  0.12000000000E+03 0.  0.
<mgrwt>
<rscale>  0 0.27507412E+03</rscale>
<asrwt>0</asrwt>
<pdfrwt beam="1">  1        1 0.24810966E+00 0.27507412E+03</pdfrwt>
<pdfrwt beam="2">  1       -1 0.18045507E-02 0.27507412E+03</pdfrwt>
<totfact> 0.48060604E+03</totfact>
</mgrwt>
</event>
<event>
 5    1  0.1125356E+001  0.2744170E+03  0.7818608E-02  0.1098778E+00
         -2   -1    0    0    0  501 -0.00000000000E+00  0.00000000000E+00  0.17595157835E+02  0.17595157835E+02  0.00000000000E+00 0. -1.
          2   -1    0    0  501    0  0.00000000000E+00 -0.00000000000E+00 -0.10699629735E+04  0.10699629735E+04  0.00000000000E+00 0. -1.
         35    2    1    2    0    0  0.00000000000E+00  0.00000000000E+00 -0.10523678156E+04  0.10875581313E+04  0.27441696301E+03 0.  0.
         25    1    3    3    0    0 -0.14412308505E+02 -0.26310640800E+02 -0.76152359823E+03  0.77150382703E+03  0.12000000000E+03 0.  0.
         25    1    3    3    0    0  0.14412308505E+02  0.26310640800E+02 -0.29084421741E+03  0.31605430428E+03  0.12000000000E+03 0.  0.
<mgrwt>
<rscale>  0 0.27441696E+03</rscale>
<asrwt>0</asrwt>
<pdfrwt beam="1">  1        2 0.16460968E+00 0.27441696E+03</pdfrwt>
<pdfrwt beam="2">  1       -2 0.27069475E-02 0.27441696E+03</pdfrwt>
<totfact> 0.11728876E+04</totfact>
</mgrwt>
</event>
<event>
 5    1  0.1125356E+001  0.2755502E+03  0.7818608E-02  0.1098144E+00
         -2   -1    0    0    0  501 -0.00000000000E+00  0.00000000000E+00  0.91687853601E+02  0.91687853601E+02  0.00000000000E+00 0.  1.
          2   -1    0    0  501    0  0.00000000000E+00 -0.00000000000E+00 -0.20702834045E+03  0.20702834045E+03  0.00000000000E+00 0.  1.
         35    2    1    2    0    0  0.00000000000E+00  0.00000000000E+00 -0.11534048685E+03  0.29871619405E+03  0.27555024348E+03 0.  0.
         25    1    3    3    0    0  0.32264014231E+02  0.40502760651E+02 -0.10493059250E+03  0.16760629307E+03  0.12000000000E+03 0.  0.
         25    1    3    3    0    0 -0.32264014231E+02 -0.40502760651E+02 -0.10409894348E+02  0.13110990098E+03  0.12000000000E+03 0.  0.
<mgrwt>
<rscale>  0 0.27555024E+03</rscale>
<asrwt>0</asrwt>
<pdfrwt beam="1">  1        2 0.31850514E-01 0.27555024E+03</pdfrwt>
<pdfrwt beam="2">  1       -2 0.14105824E-01 0.27555024E+03</pdfrwt>
<totfact> 0.61757068E+03</totfact>
</mgrwt>
</event>
<event>
 5    1  0.1125356E+001  0.2742742E+03  0.7818608E-02  0.1098858E+00
          1   -1    0    0  501    0  0.00000000000E+00  0.00000000000E+00  0.26241675547E+03  0.26241675547E+03  0.00000000000E+00 0.  1.
         -1   -1    0    0    0  501 -0.00000000000E+00 -0.00000000000E+00 -0.71666844336E+02  0.71666844336E+02  0.00000000000E+00 0.  1.
         35    2    1    2    0    0  0.00000000000E+00  0.00000000000E+00  0.19074991113E+03  0.33408359981E+03  0.27427417498E+03 0.  0.
         25    1    3    3    0    0  0.17293268883E+02 -0.28764635119E+02  0.25613575338E+02  0.12721052088E+03  0.12000000000E+03 0.  0.
         25    1    3    3    0    0 -0.17293268883E+02  0.28764635119E+02  0.16513633580E+03  0.20687307892E+03  0.12000000000E+03 0.  0.
<mgrwt>
<rscale>  0 0.27427417E+03</rscale>
<asrwt>0</asrwt>
<pdfrwt beam="1">  1        1 0.40371808E-01 0.27427417E+03</pdfrwt>
<pdfrwt beam="2">  1       -1 0.11025668E-01 0.27427417E+03</pdfrwt>
<totfact> 0.53965832E+03</totfact>
</mgrwt>
</event>
<event>
 5    1  0.1125356E+001  0.2752042E+03  0.7818608E-02  0.1098337E+00
          1   -1    0    0  501    0  0.00000000000E+00  0.00000000000E+00  0.13881830032E+04  0.13881830032E+04  0.00000000000E+00 0. -1.
         -1   -1    0    0    0  501 -0.00000000000E+00 -0.00000000000E+00 -0.13639659854E+02  0.13639659854E+02  0.00000000000E+00 0. -1.
         35    2    1    2    0    0  0.00000000000E+00  0.00000000000E+00  0.13745433433E+04  0.14018226630E+04  0.27520424400E+03 0.  0.
         25    1    3    3    0    0  0.14762846054E+02  0.56062443406E+02  0.86175819086E+03  0.87200236164E+03  0.12000000000E+03 0.  0.
         25    1    3    3    0    0 -0.14762846054E+02 -0.56062443406E+02  0.51278515244E+03  0.52982030138E+03  0.12000000000E+03 0.  0.
<mgrwt>
<rscale>  0 0.27520424E+03</rscale>
<asrwt>0</asrwt>
<pdfrwt beam="1">  1        1 0.21356650E+00 0.27520424E+03</pdfrwt>
<pdfrwt beam="2">  1       -1 0.20984103E-02 0.27520424E+03</pdfrwt>
<totfact> 0.54324257E+03</totfact>
</mgrwt>
</event>
<event>
 5    1  0.1125356E+001  0.2759013E+03  0.7818608E-02  0.1097949E+00
         -1   -1    0    0    0  501 -0.00000000000E+00  0.00000000000E+00  0.84985857000E+01  0.84985857000E+01  0.00000000000E+00 0. -1.
          1   -1    0    0  501    0  0.00000000000E+00 -0.00000000000E+00 -0.22392418051E+04  0.22392418051E+04  0.00000000000E+00 0. -1.
         35    2    1    2    0    0  0.00000000000E+00  0.00000000000E+00 -0.22307432194E+04  0.22477403908E+04  0.27590134747E+03 0.  0.
         25    1    3    3    0    0 -0.73179790094E+01  0.51114855289E+02 -0.75431532001E+03  0.76554417459E+03  0.12000000000E+03 0.  0.
         25    1    3    3    0    0  0.73179790094E+01 -0.51114855289E+02 -0.14764278994E+04  0.14821962162E+04  0.12000000000E+03 0.  0.
<mgrwt>
<rscale>  0 0.27590135E+03</rscale>
<asrwt>0</asrwt>
<pdfrwt beam="1">  1        1 0.34449938E+00 0.27590135E+03</pdfrwt>
<pdfrwt beam="2">  1       -1 0.13074723E-02 0.27590135E+03</pdfrwt>
<totfact> 0.30034525E+03</totfact>
</mgrwt>
</event>
<event>
 5    1  0.1125356E+001  0.2743283E+03  0.7818608E-02  0.1098828E+00
         -2   -1    0    0    0  501 -0.00000000000E+00  0.00000000000E+00  0.26908151014E+02  0.26908151014E+02  0.00000000000E+00 0.  1.
          2   -1    0    0  501    0  0.00000000000E+00 -0.00000000000E+00 -0.69919335336E+03  0.69919335336E+03  0.00000000000E+00 0.  1.
         35    2    1    2    0    0  0.00000000000E+00  0.00000000000E+00 -0.67228520234E+03  0.72610150437E+03  0.27432827299E+03 0.  0.
         25    1    3    3    0    0 -0.52678657594E+01  0.62304928859E+02 -0.27670093713E+03  0.30801471260E+03  0.12000000000E+03 0.  0.
         25    1    3    3    0    0  0.52678657594E+01 -0.62304928859E+02 -0.39558426521E+03  0.41808679177E+03  0.12000000000E+03 0.  0.
<mgrwt>
<rscale>  0 0.27432827E+03</rscale>
<asrwt>0</asrwt>
<pdfrwt beam="1">  1        2 0.10756821E+00 0.27432827E+03</pdfrwt>
<pdfrwt beam="2">  1       -2 0.41397155E-02 0.27432827E+03</pdfrwt>
<totfact> 0.10913955E+04</totfact>
</mgrwt>
</event>
<event>
 5    1  0.1125356E+001  0.2742992E+03  0.7818608E-02  0.1098844E+00
          2   -1    0    0  501    0  0.00000000000E+00  0.00000000000E+00  0.17015361756E+04  0.17015361756E+04  0.00000000000E+00 0.  1.
         -2   -1    0    0    0  501 -0.00000000000E+00 -0.00000000000E+00 -0.11054722038E+02  0.11054722038E+02  0.00000000000E+00 0.  1.
         35    2    1    2    0    0  0.00000000000E+00  0.00000000000E+00  0.16904814535E+04  0.17125908976E+04  0.27429917578E+03 0.  0.
         25    1    3    3    0    0  0.20376426912E+02  0.55286091219E+02  0.65399556687E+03  0.66751925226E+03  0.12000000000E+03 0.  0.
         25    1    3    3    0    0 -0.20376426912E+02 -0.55286091219E+02  0.10364858867E+04  0.10450716454E+04  0.12000000000E+03 0.  0.
<mgrwt>
<rscale>  0 0.27429918E+03</rscale>
<asrwt>0</asrwt>
<pdfrwt beam="1">  1        2 0.26177459E+00 0.27429918E+03</pdfrwt>
<pdfrwt beam="2">  1       -2 0.17007278E-02 0.27429918E+03</pdfrwt>
<totfact> 0.10463645E+04</totfact>
</mgrwt>
</event>
<event>
 5    1  0.1125356E+001  0.2752210E+03  0.7818608E-02  0.1098328E+00
         -2   -1    0    0    0  501 -0.00000000000E+00  0.00000000000E+00  0.14193220663E+02  0.14193220663E+02  0.00000000000E+00 0. -1.
          2   -1    0    0  501    0  0.00000000000E+00 -0.00000000000E+00 -0.13342039845E+04  0.13342039845E+04  0.00000000000E+00 0. -1.
         35    2    1    2    0    0  0.00000000000E+00  0.00000000000E+00 -0.13200107638E+04  0.13483972051E+04  0.27522101345E+03 0.  0.
         25    1    3    3    0    0  0.32322349999E+01 -0.40014110600E+02 -0.39503046193E+03  0.41480193134E+03  0.12000000000E+03 0.  0.
         25    1    3    3    0    0 -0.32322349999E+01  0.40014110600E+02 -0.92498030189E+03  0.93359527380E+03  0.12000000000E+03 0.  0.
<mgrwt>
<rscale>  0 0.27522101E+03</rscale>
<asrwt>0</asrwt>
<pdfrwt beam="1">  1        2 0.20526219E+00 0.27522101E+03</pdfrwt>
<pdfrwt beam="2">  1       -2 0.21835720E-02 0.27522101E+03</pdfrwt>
<totfact> 0.11398809E+04</totfact>
</mgrwt>
</event>
<event>
 5    1  0.1125356E+001  0.2744580E+03  0.7818608E-02  0.1098755E+00
          1   -1    0    0  501    0  0.00000000000E+00  0.00000000000E+00  0.29331019358E+02  0.29331019358E+02  0.00000000000E+00 0. -1.
         -1   -1    0    0    0  501 -0.00000000000E+00 -0.00000000000E+00 -0.64204373250E+03  0.64204373250E+03  0.00000000000E+00 0. -1.
         35    2    1    2    0    0  0.00000000000E+00  0.00000000000E+00 -0.61271271314E+03  0.67137475185E+03  0.27445799057E+03 0.  0.
         25    1    3    3    0    0  0.33052627386E+02  0.12944575972E+01 -0.44767817576E+03  0.46466106018E+03  0.12000000000E+03 0.  0.
         25    1    3    3    0    0 -0.33052627386E+02 -0.12944575972E+01 -0.16503453738E+03  0.20671369168E+03  0.12000000000E+03 0.  0.
<mgrwt>
<rscale>  0 0.27445799E+03</rscale>
<asrwt>0</asrwt>
<pdfrwt beam="1">  1        1 0.45124651E-02 0.27445799E+03</pdfrwt>
<pdfrwt beam="2">  1       -1 0.98775947E-01 0.27445799E+03</pdfrwt>
<totfact> 0.19876799E+03</totfact>
</mgrwt>
</event>
<event>
 5    1  0.1125356E+001  0.2749982E+03  0.7818608E-02  0.1098453E+00
         -3   -1    0    0    0  501 -0.00000000000E+00  0.00000000000E+00  0.15136911912E+02  0.15136911912E+02  0.00000000000E+00 0. -1.
          3   -1    0    0  501    0  0.00000000000E+00 -0.00000000000E+00 -0.12489998420E+04  0.12489998420E+04  0.00000000000E+00 0. -1.
         35    2    1    2    0    0  0.00000000000E+00  0.00000000000E+00 -0.12338629301E+04  0.12641367539E+04  0.27499818607E+03 0.  0.
         25    1    3    3    0    0 -0.30754618637E+02 -0.12015575310E+02 -0.34826765288E+03  0.36983858460E+03  0.12000000000E+03 0.  0.
         25    1    3    3    0    0  0.30754618637E+02  0.12015575310E+02 -0.88559527718E+03  0.89429816928E+03  0.12000000000E+03 0.  0.
<mgrwt>
<rscale>  0 0.27499819E+03</rscale>
<asrwt>0</asrwt>
<pdfrwt beam="1">  1        3 0.19215380E+00 0.27499819E+03</pdfrwt>
<pdfrwt beam="2">  1       -3 0.23287559E-02 0.27499819E+03</pdfrwt>
<totfact> 0.34243805E+02</totfact>
</mgrwt>
</event>
<event>
 5    1  0.1125356E+001  0.2747027E+03  0.7818608E-02  0.1098618E+00
          2   -1    0    0  501    0  0.00000000000E+00  0.00000000000E+00  0.24367231018E+04  0.24367231018E+04  0.00000000000E+00 0. -1.
         -2   -1    0    0    0  501 -0.00000000000E+00 -0.00000000000E+00 -0.77421171110E+01  0.77421171110E+01  0.00000000000E+00 0. -1.
         35    2    1    2    0    0  0.00000000000E+00  0.00000000000E+00  0.24289809847E+04  0.24444652189E+04  0.27470271656E+03 0.  0.
         25    1    3    3    0    0 -0.33278398780E+02  0.57329355810E+02  0.11393573707E+04  0.11475754115E+04  0.12000000000E+03 0.  0.
         25    1    3    3    0    0  0.33278398780E+02 -0.57329355810E+02  0.12896236140E+04  0.12968898074E+04  0.12000000000E+03 0.  0.
<mgrwt>
<rscale>  0 0.27470272E+03</rscale>
<asrwt>0</asrwt>
<pdfrwt beam="1">  1        2 0.37487987E+00 0.27470272E+03</pdfrwt>
<pdfrwt beam="2">  1       -2 0.11910969E-02 0.27470272E+03</pdfrwt>
<totfact> 0.71777968E+03</totfact>
</mgrwt>
</event>
<event>
 5    1  0.1125356E+001  0.2748163E+03  0.7818608E-02  0.1098554E+00
          1   -1    0    0  501    0  0.00000000000E+00  0.00000000000E+00  0.12952643733E+03  0.12952643733E+03  0.00000000000E+00 0.  1.
         -1   -1    0    0    0  501 -0.00000000000E+00 -0.00000000000E+00 -0.14576944755E+03  0.14576944755E+03  0.00000000000E+00 0.  1.
         35    2    1    2    0    0  0.00000000000E+00  0.00000000000E+00 -0.16243010216E+02  0.27529588488E+03  0.27481628200E+03 0.  0.
         25    1    3    3    0    0 -0.63433719858E+01 -0.65626749388E+02 -0.19712723149E+02  0.13833184759E+03  0.12000000000E+03 0.  0.
         25    1    3    3    0    0  0.63433719858E+01  0.65626749388E+02  0.34697129321E+01  0.13696403729E+03  0.12000000000E+03 0.  0.
<mgrwt>
<rscale>  0 0.27481628E+03</rscale>
<asrwt>0</asrwt>
<pdfrwt beam="1">  1        1 0.19927144E-01 0.27481628E+03</pdfrwt>
<pdfrwt beam="2">  1       -1 0.22426069E-01 0.27481628E+03</pdfrwt>
<totfact> 0.42564263E+03</totfact>
</mgrwt>
</event>
<event>
 5    1  0.1125356E+001  0.2770962E+03  0.7818608E-02  0.1097286E+00
         -1   -1    0    0    0  501 -0.00000000000E+00  0.00000000000E+00  0.98048671407E+01  0.98048671407E+01  0.00000000000E+00 0. -1.
          1   -1    0    0  501    0  0.00000000000E+00 -0.00000000000E+00 -0.19577605283E+04  0.19577605283E+04  0.00000000000E+00 0. -1.
         35    2    1    2    0    0  0.00000000000E+00  0.00000000000E+00 -0.19479556612E+04  0.19675653954E+04  0.27709624229E+03 0.  0.
         25    1    3    3    0    0 -0.30351341921E+02  0.61885880497E+02 -0.10213534828E+04  0.10306861806E+04  0.12000000000E+03 0.  0.
         25    1    3    3    0    0  0.30351341921E+02 -0.61885880497E+02 -0.92660217838E+03  0.93687921481E+03  0.12000000000E+03 0.  0.
<mgrwt>
<rscale>  0 0.27709624E+03</rscale>
<asrwt>0</asrwt>
<pdfrwt beam="1">  1        1 0.30119393E+00 0.27709624E+03</pdfrwt>
<pdfrwt beam="2">  1       -1 0.15084411E-02 0.27709624E+03</pdfrwt>
<totfact> 0.37203247E+03</totfact>
</mgrwt>
</event>
<event>
 5    1  0.1125356E+001  0.2754436E+03  0.7818608E-02  0.1098204E+00
         -2   -1    0    0    0  501 -0.00000000000E+00  0.00000000000E+00  0.27290784945E+02  0.27290784945E+02  0.00000000000E+00 0. -1.
          2   -1    0    0  501    0  0.00000000000E+00 -0.00000000000E+00 -0.69500725612E+03  0.69500725612E+03  0.00000000000E+00 0. -1.
         35    2    1    2    0    0  0.00000000000E+00  0.00000000000E+00 -0.66771647118E+03  0.72229804107E+03  0.27544359540E+03 0.  0.
         25    1    3    3    0    0  0.63254742296E+02  0.25079364163E+01 -0.27181188225E+03  0.30379129596E+03  0.12000000000E+03 0.  0.
         25    1    3    3    0    0 -0.63254742296E+02 -0.25079364163E+01 -0.39590458893E+03  0.41850674511E+03  0.12000000000E+03 0.  0.
<mgrwt>
<rscale>  0 0.27544360E+03</rscale>
<asrwt>0</asrwt>
<pdfrwt beam="1">  1        2 0.10692418E+00 0.27544360E+03</pdfrwt>
<pdfrwt beam="2">  1       -2 0.41985829E-02 0.27544360E+03</pdfrwt>
<totfact> 0.10763847E+04</totfact>
</mgrwt>
</event>
<event>
 5    1  0.1125356E+001  0.2746683E+03  0.7818608E-02  0.1098637E+00
         -3   -1    0    0    0  501 -0.00000000000E+00  0.00000000000E+00  0.87315924413E+02  0.87315924413E+02  0.00000000000E+00 0. -1.
          3   -1    0    0  501    0  0.00000000000E+00 -0.00000000000E+00 -0.21600498573E+03  0.21600498573E+03  0.00000000000E+00 0. -1.
         35    2    1    2    0    0  0.00000000000E+00  0.00000000000E+00 -0.12868906131E+03  0.30332091014E+03  0.27466834551E+03 0.  0.
         25    1    3    3    0    0 -0.53730065383E+02  0.21904896291E+02 -0.27819665259E+02  0.13616415895E+03  0.12000000000E+03 0.  0.
         25    1    3    3    0    0  0.53730065383E+02 -0.21904896291E+02 -0.10086939605E+03  0.16715675119E+03  0.12000000000E+03 0.  0.
<mgrwt>
<rscale>  0 0.27466835E+03</rscale>
<asrwt>0</asrwt>
<pdfrwt beam="1">  1        3 0.33231536E-01 0.27466835E+03</pdfrwt>
<pdfrwt beam="2">  1       -3 0.13433219E-01 0.27466835E+03</pdfrwt>
<totfact> 0.10106419E+03</totfact>
</mgrwt>
</event>
<event>
 5    1  0.1125356E+001  0.2765120E+03  0.7818608E-02  0.1097609E+00
          3   -1    0    0  501    0  0.00000000000E+00  0.00000000000E+00  0.34764678855E+02  0.34764678855E+02  0.00000000000E+00 0. -1.
         -3   -1    0    0    0  501 -0.00000000000E+00 -0.00000000000E+00 -0.54983184479E+03  0.54983184479E+03  0.00000000000E+00 0. -1.
         35    2    1    2    0    0  0.00000000000E+00  0.00000000000E+00 -0.51506716594E+03  0.58459652365E+03  0.27651204320E+03 0.  0.
         25    1    3    3    0    0  0.67355659684E+02 -0.13337062313E+02 -0.25699297357E+03  0.29182195014E+03  0.12000000000E+03 0.  0.
         25    1    3    3    0    0 -0.67355659684E+02  0.13337062313E+02 -0.25807419237E+03  0.29277457351E+03  0.12000000000E+03 0.  0.
<mgrwt>
<rscale>  0 0.27651204E+03</rscale>
<asrwt>0</asrwt>
<pdfrwt beam="1">  1        3 0.53484118E-02 0.27651204E+03</pdfrwt>
<pdfrwt beam="2">  1       -3 0.84589520E-01 0.27651204E+03</pdfrwt>
<totfact> 0.68584007E+02</totfact>
</mgrwt>
</event>
<event>
 5    1  0.1125356E+001  0.2750762E+03  0.7818608E-02  0.1098409E+00
         -2   -1    0    0    0  501 -0.00000000000E+00  0.00000000000E+00  0.44129660234E+02  0.44129660234E+02  0.00000000000E+00 0. -1.
          2   -1    0    0  501    0  0.00000000000E+00 -0.00000000000E+00 -0.42866248069E+03  0.42866248069E+03  0.00000000000E+00 0. -1.
         35    2    1    2    0    0  0.00000000000E+00  0.00000000000E+00 -0.38453282045E+03  0.47279214092E+03  0.27507620492E+03 0.  0.
         25    1    3    3    0    0  0.36505012058E+02  0.54185852738E+02 -0.21933398027E+03  0.25841075334E+03  0.12000000000E+03 0.  0.
         25    1    3    3    0    0 -0.36505012058E+02 -0.54185852738E+02 -0.16519884018E+03  0.21438138758E+03  0.12000000000E+03 0.  0.
<mgrwt>
<rscale>  0 0.27507620E+03</rscale>
<asrwt>0</asrwt>
<pdfrwt beam="1">  1        2 0.65948073E-01 0.27507620E+03</pdfrwt>
<pdfrwt beam="2">  1       -2 0.67891785E-02 0.27507620E+03</pdfrwt>
<totfact> 0.89811807E+03</totfact>
</mgrwt>
</event>
<event>
 5    1  0.1125356E+001  0.2751305E+03  0.7818608E-02  0.1098379E+00
         -1   -1    0    0    0  501 -0.00000000000E+00  0.00000000000E+00  0.13473152542E+03  0.13473152542E+03  0.00000000000E+00 0. -1.
          1   -1    0    0  501    0  0.00000000000E+00 -0.00000000000E+00 -0.14045857378E+03  0.14045857378E+03  0.00000000000E+00 0. -1.
         35    2    1    2    0    0  0.00000000000E+00  0.00000000000E+00 -0.57270483610E+01  0.27519009921E+03  0.27513049925E+03 0.  0.
         25    1    3    3    0    0 -0.37616194570E+02  0.26311647158E+02 -0.52036324323E+02  0.13861839676E+03  0.12000000000E+03 0.  0.
         25    1    3    3    0    0  0.37616194570E+02 -0.26311647158E+02  0.46309275962E+02  0.13657170245E+03  0.12000000000E+03 0.  0.
<mgrwt>
<rscale>  0 0.27513050E+03</rscale>
<asrwt>0</asrwt>
<pdfrwt beam="1">  1        1 0.21609011E-01 0.27513050E+03</pdfrwt>
<pdfrwt beam="2">  1       -1 0.20727927E-01 0.27513050E+03</pdfrwt>
<totfact> 0.43633130E+03</totfact>
</mgrwt>
</event>
<event>
 5    1  0.1125356E+001  0.2747767E+03  0.7818608E-02  0.1098577E+00
          2   -1    0    0  501    0  0.00000000000E+00  0.00000000000E+00  0.52510142961E+02  0.52510142961E+02  0.00000000000E+00 0.  1.
         -2   -1    0    0    0  501 -0.00000000000E+00 -0.00000000000E+00 -0.35946487698E+03  0.35946487698E+03  0.00000000000E+00 0.  1.
         35    2    1    2    0    0  0.00000000000E+00  0.00000000000E+00 -0.30695473402E+03  0.41197501994E+03  0.27477665170E+03 0.  0.
         25    1    3    3    0    0  0.25796836771E+02 -0.81351608643E+01 -0.24521612466E+03  0.27434030951E+03  0.12000000000E+03 0.  0.
         25    1    3    3    0    0 -0.25796836771E+02  0.81351608643E+01 -0.61738609361E+02  0.13763471043E+03  0.12000000000E+03 0.  0.
<mgrwt>
<rscale>  0 0.27477665E+03</rscale>
<asrwt>0</asrwt>
<pdfrwt beam="1">  1        2 0.80784833E-02 0.27477665E+03</pdfrwt>
<pdfrwt beam="2">  1       -2 0.55302290E-01 0.27477665E+03</pdfrwt>
<totfact> 0.26202500E+03</totfact>
</mgrwt>
</event>
<event>
 5    1  0.1125356E+001  0.2747799E+03  0.7818608E-02  0.1098575E+00
         -2   -1    0    0    0  501 -0.00000000000E+00  0.00000000000E+00  0.11218728544E+02  0.11218728544E+02  0.00000000000E+00 0. -1.
          2   -1    0    0  501    0  0.00000000000E+00 -0.00000000000E+00 -0.16825432475E+04  0.16825432475E+04  0.00000000000E+00 0. -1.
         35    2    1    2    0    0  0.00000000000E+00  0.00000000000E+00 -0.16713245190E+04  0.16937619761E+04  0.27477988250E+03 0.  0.
         25    1    3    3    0    0 -0.48995991401E+02  0.30474300386E+02 -0.62692813724E+03  0.64091199038E+03  0.12000000000E+03 0.  0.
         25    1    3    3    0    0  0.48995991401E+02 -0.30474300386E+02 -0.10443963817E+04  0.10528499857E+04  0.12000000000E+03 0.  0.
<mgrwt>
<rscale>  0 0.27477988E+03</rscale>
<asrwt>0</asrwt>
<pdfrwt beam="1">  1        2 0.25885279E+00 0.27477988E+03</pdfrwt>
<pdfrwt beam="2">  1       -2 0.17259583E-02 0.27477988E+03</pdfrwt>
<totfact> 0.10479079E+04</totfact>
</mgrwt>
</event>
<event>
 5    1  0.1125356E+001  0.2670407E+03  0.7818608E-02  0.1102985E+00
          2   -1    0    0  501    0  0.00000000000E+00  0.00000000000E+00  0.50645355453E+03  0.50645355453E+03  0.00000000000E+00 0.  1.
         -2   -1    0    0    0  501 -0.00000000000E+00 -0.00000000000E+00 -0.35201035191E+02  0.35201035191E+02  0.00000000000E+00 0.  1.
         35    2    1    2    0    0  0.00000000000E+00  0.00000000000E+00  0.47125251934E+03  0.54165458972E+03  0.26704074143E+03 0.  0.
         25    1    3    3    0    0  0.50899741557E+02 -0.20282400314E+02  0.27746802166E+03  0.30723063405E+03  0.12000000000E+03 0.  0.
         25    1    3    3    0    0 -0.50899741557E+02  0.20282400314E+02  0.19378449767E+03  0.23442395567E+03  0.12000000000E+03 0.  0.
<mgrwt>
<rscale>  0 0.26704074E+03</rscale>
<asrwt>0</asrwt>
<pdfrwt beam="1">  1        2 0.77915926E-01 0.26704074E+03</pdfrwt>
<pdfrwt beam="2">  1       -2 0.54155443E-02 0.26704074E+03</pdfrwt>
<totfact> 0.10552979E+04</totfact>
</mgrwt>
</event>
<event>
 5    1  0.1125356E+001  0.2762658E+03  0.7818608E-02  0.1097746E+00
         -1   -1    0    0    0  501 -0.00000000000E+00  0.00000000000E+00  0.15544091956E+02  0.15544091956E+02  0.00000000000E+00 0.  1.
          1   -1    0    0  501    0  0.00000000000E+00 -0.00000000000E+00 -0.12275205987E+04  0.12275205987E+04  0.00000000000E+00 0.  1.
         35    2    1    2    0    0  0.00000000000E+00  0.00000000000E+00 -0.12119765067E+04  0.12430646906E+04  0.27626576381E+03 0.  0.
         25    1    3    3    0    0  0.68717372643E+01  0.43401704653E+02 -0.84193522011E+03  0.85157844242E+03  0.12000000000E+03 0.  0.
         25    1    3    3    0    0 -0.68717372643E+01 -0.43401704653E+02 -0.37004128661E+03  0.39148624821E+03  0.12000000000E+03 0.  0.
<mgrwt>
<rscale>  0 0.27626576E+03</rscale>
<asrwt>0</asrwt>
<pdfrwt beam="1">  1        1 0.18884936E+00 0.27626576E+03</pdfrwt>
<pdfrwt beam="2">  1       -1 0.23913983E-02 0.27626576E+03</pdfrwt>
<totfact> 0.57752565E+03</totfact>
</mgrwt>
</event>
<event>
 5    1  0.1125356E+001  0.2747750E+03  0.7818608E-02  0.1098577E+00
          2   -1    0    0  501    0  0.00000000000E+00  0.00000000000E+00  0.37174590446E+03  0.37174590446E+03  0.00000000000E+00 0.  1.
         -2   -1    0    0    0  501 -0.00000000000E+00 -0.00000000000E+00 -0.50774795874E+02  0.50774795874E+02  0.00000000000E+00 0.  1.
         35    2    1    2    0    0  0.00000000000E+00  0.00000000000E+00  0.32097110858E+03  0.42252070033E+03  0.27477498005E+03 0.  0.
         25    1    3    3    0    0 -0.47270078417E+02 -0.18223315271E+02  0.93304326879E+02  0.16022561264E+03  0.12000000000E+03 0.  0.
         25    1    3    3    0    0  0.47270078417E+02  0.18223315271E+02  0.22766678171E+03  0.26229508769E+03  0.12000000000E+03 0.  0.
<mgrwt>
<rscale>  0 0.27477498E+03</rscale>
<asrwt>0</asrwt>
<pdfrwt beam="1">  1        2 0.57191676E-01 0.27477498E+03</pdfrwt>
<pdfrwt beam="2">  1       -2 0.78115073E-02 0.27477498E+03</pdfrwt>
<totfact> 0.84332929E+03</totfact>
</mgrwt>
</event>
<event>
 5    1  0.1125356E+001  0.2743049E+03  0.7818608E-02  0.1098841E+00
          2   -1    0    0  501    0  0.00000000000E+00  0.00000000000E+00  0.17079428143E+04  0.17079428143E+04  0.00000000000E+00 0.  1.
         -2   -1    0    0    0  501 -0.00000000000E+00 -0.00000000000E+00 -0.11013715533E+02  0.11013715533E+02  0.00000000000E+00 0.  1.
         35    2    1    2    0    0  0.00000000000E+00  0.00000000000E+00  0.16969290987E+04  0.17189565298E+04  0.27430491285E+03 0.  0.
         25    1    3    3    0    0 -0.45168797625E+02  0.44232719049E+02  0.97597735936E+03  0.98535707218E+03  0.12000000000E+03 0.  0.
         25    1    3    3    0    0  0.45168797625E+02 -0.44232719049E+02  0.72095173937E+03  0.73359945761E+03  0.12000000000E+03 0.  0.
<mgrwt>
<rscale>  0 0.27430491E+03</rscale>
<asrwt>0</asrwt>
<pdfrwt beam="1">  1        2 0.26276022E+00 0.27430491E+03</pdfrwt>
<pdfrwt beam="2">  1       -2 0.16944191E-02 0.27430491E+03</pdfrwt>
<totfact> 0.10439416E+04</totfact>
</mgrwt>
</event>
<event>
 5    1  0.1125356E+001  0.2750659E+03  0.7818608E-02  0.1098415E+00
         -2   -1    0    0    0  501 -0.00000000000E+00  0.00000000000E+00  0.49260890434E+02  0.49260890434E+02  0.00000000000E+00 0. -1.
          2   -1    0    0  501    0  0.00000000000E+00 -0.00000000000E+00 -0.38398228870E+03  0.38398228870E+03  0.00000000000E+00 0. -1.
         35    2    1    2    0    0  0.00000000000E+00  0.00000000000E+00 -0.33472139827E+03  0.43324317913E+03  0.27506587903E+03 0.  0.
         25    1    3    3    0    0 -0.58838869447E+02 -0.10711076044E+02 -0.11910725820E+03  0.17934123526E+03  0.12000000000E+03 0.  0.
         25    1    3    3    0    0  0.58838869447E+02  0.10711076044E+02 -0.21561414006E+03  0.25390194387E+03  0.12000000000E+03 0.  0.
<mgrwt>
<rscale>  0 0.27506588E+03</rscale>
<asrwt>0</asrwt>
<pdfrwt beam="1">  1        2 0.59074200E-01 0.27506588E+03</pdfrwt>
<pdfrwt beam="2">  1       -2 0.75785984E-02 0.27506588E+03</pdfrwt>
<totfact> 0.85364409E+03</totfact>
</mgrwt>
</event>
<event>
 5    1  0.1125356E+001  0.2744998E+03  0.7818608E-02  0.1098732E+00
          2   -1    0    0  501    0  0.00000000000E+00  0.00000000000E+00  0.32152775328E+04  0.32152775328E+04  0.00000000000E+00 0.  1.
         -2   -1    0    0    0  501 -0.00000000000E+00 -0.00000000000E+00 -0.58587600757E+01  0.58587600757E+01  0.00000000000E+00 0.  1.
         35    2    1    2    0    0  0.00000000000E+00  0.00000000000E+00  0.32094187727E+04  0.32211362929E+04  0.27449983345E+03 0.  0.
         25    1    3    3    0    0 -0.51588693342E+02  0.14896085840E+02  0.20673330794E+04  0.20715089543E+04  0.12000000000E+03 0.  0.
         25    1    3    3    0    0  0.51588693342E+02 -0.14896085840E+02  0.11420856933E+04  0.11496273385E+04  0.12000000000E+03 0.  0.
<mgrwt>
<rscale>  0 0.27449983E+03</rscale>
<asrwt>0</asrwt>
<pdfrwt beam="1">  1        2 0.49465667E+00 0.27449983E+03</pdfrwt>
<pdfrwt beam="2">  1       -2 0.90135027E-03 0.27449983E+03</pdfrwt>
<totfact> 0.38259050E+03</totfact>
</mgrwt>
</event>
<event>
 5    1  0.1125356E+001  0.2758350E+03  0.7818608E-02  0.1097986E+00
          2   -1    0    0  501    0  0.00000000000E+00  0.00000000000E+00  0.14600829258E+04  0.14600829258E+04  0.00000000000E+00 0. -1.
         -2   -1    0    0    0  501 -0.00000000000E+00 -0.00000000000E+00 -0.13027500863E+02  0.13027500863E+02  0.00000000000E+00 0. -1.
         35    2    1    2    0    0  0.00000000000E+00  0.00000000000E+00  0.14470554249E+04  0.14731104267E+04  0.27583496208E+03 0.  0.
         25    1    3    3    0    0  0.18902893261E+02 -0.64498732034E+02  0.66911021471E+03  0.68310020146E+03  0.12000000000E+03 0.  0.
         25    1    3    3    0    0 -0.18902893261E+02  0.64498732034E+02  0.77794521023E+03  0.79001022520E+03  0.12000000000E+03 0.  0.
<mgrwt>
<rscale>  0 0.27583496E+03</rscale>
<asrwt>0</asrwt>
<pdfrwt beam="1">  1        2 0.22462801E+00 0.27583496E+03</pdfrwt>
<pdfrwt beam="2">  1       -2 0.20042321E-02 0.27583496E+03</pdfrwt>
<totfact> 0.11048048E+04</totfact>
</mgrwt>
</event>
<event>
 5    1  0.1125356E+001  0.2753529E+03  0.7818608E-02  0.1098255E+00
         -4   -1    0    0    0  501 -0.00000000000E+00  0.00000000000E+00  0.58207952725E+02  0.58207952725E+02  0.00000000000E+00 0.  1.
          4   -1    0    0  501    0  0.00000000000E+00 -0.00000000000E+00 -0.32563937121E+03  0.32563937121E+03  0.00000000000E+00 0.  1.
         35    2    1    2    0    0  0.00000000000E+00  0.00000000000E+00 -0.26743141849E+03  0.38384732394E+03  0.27535287269E+03 0.  0.
         25    1    3    3    0    0  0.48243837280E+02 -0.18185264453E+02 -0.19442569765E+03  0.23422109979E+03  0.12000000000E+03 0.  0.
         25    1    3    3    0    0 -0.48243837280E+02  0.18185264453E+02 -0.73005720842E+02  0.14962622415E+03  0.12000000000E+03 0.  0.
<mgrwt>
<rscale>  0 0.27535287E+03</rscale>
<asrwt>0</asrwt>
<pdfrwt beam="1">  1        4 0.50098367E-01 0.27535287E+03</pdfrwt>
<pdfrwt beam="2">  1       -4 0.89550693E-02 0.27535287E+03</pdfrwt>
<totfact> 0.66214127E+02</totfact>
</mgrwt>
</event>
<event>
 5    1  0.1125356E+001  0.2749496E+03  0.7818608E-02  0.1098480E+00
         -2   -1    0    0    0  501 -0.00000000000E+00  0.00000000000E+00  0.57216923101E+01  0.57216923101E+01  0.00000000000E+00 0. -1.
          2   -1    0    0  501    0  0.00000000000E+00 -0.00000000000E+00 -0.33031002833E+04  0.33031002833E+04  0.00000000000E+00 0. -1.
         35    2    1    2    0    0  0.00000000000E+00  0.00000000000E+00 -0.32973785910E+04  0.33088219756E+04  0.27494962077E+03 0.  0.
         25    1    3    3    0    0 -0.48437828121E+02  0.21236051238E+02 -0.21451863699E+04  0.21491909535E+04  0.12000000000E+03 0.  0.
         25    1    3    3    0    0  0.48437828121E+02 -0.21236051238E+02 -0.11521922211E+04  0.11596310221E+04  0.12000000000E+03 0.  0.
<mgrwt>
<rscale>  0 0.27494962E+03</rscale>
<asrwt>0</asrwt>
<pdfrwt beam="1">  1        2 0.50816954E+00 0.27494962E+03</pdfrwt>
<pdfrwt beam="2">  1       -2 0.88025989E-03 0.27494962E+03</pdfrwt>
<totfact> 0.34889009E+03</totfact>
</mgrwt>
</event>
<event>
 5    1  0.1125356E+001  0.2743903E+03  0.7818608E-02  0.1098793E+00
          2   -1    0    0  501    0  0.00000000000E+00  0.00000000000E+00  0.39776634737E+03  0.39776634737E+03  0.00000000000E+00 0. -1.
         -2   -1    0    0    0  501 -0.00000000000E+00 -0.00000000000E+00 -0.47320523506E+02  0.47320523506E+02  0.00000000000E+00 0. -1.
         35    2    1    2    0    0  0.00000000000E+00  0.00000000000E+00  0.35044582386E+03  0.44508687087E+03  0.27439031900E+03 0.  0.
         25    1    3    3    0    0 -0.88053506364E+00 -0.38688502364E+02  0.26295009823E+03  0.29161675143E+03  0.12000000000E+03 0.  0.
         25    1    3    3    0    0  0.88053506364E+00  0.38688502364E+02  0.87495725631E+02  0.15347011944E+03  0.12000000000E+03 0.  0.
<mgrwt>
<rscale>  0 0.27439032E+03</rscale>
<asrwt>0</asrwt>
<pdfrwt beam="1">  1        2 0.61194820E-01 0.27439032E+03</pdfrwt>
<pdfrwt beam="2">  1       -2 0.72800808E-02 0.27439032E+03</pdfrwt>
<totfact> 0.87447733E+03</totfact>
</mgrwt>
</event>
<event>
 5    1  0.1125356E+001  0.2756645E+03  0.7818608E-02  0.1098081E+00
         -1   -1    0    0    0  501 -0.00000000000E+00  0.00000000000E+00  0.14664367694E+04  0.14664367694E+04  0.00000000000E+00 0. -1.
          1   -1    0    0  501    0  0.00000000000E+00 -0.00000000000E+00 -0.12955025881E+02  0.12955025881E+02  0.00000000000E+00 0. -1.
         35    2    1    2    0    0  0.00000000000E+00  0.00000000000E+00  0.14534817435E+04  0.14793917952E+04  0.27566447939E+03 0.  0.
         25    1    3    3    0    0  0.50191182467E+02  0.36847799988E+02  0.58265773942E+03  0.59813623570E+03  0.12000000000E+03 0.  0.
         25    1    3    3    0    0 -0.50191182467E+02 -0.36847799988E+02  0.87082400406E+03  0.88125555953E+03  0.12000000000E+03 0.  0.
<mgrwt>
<rscale>  0 0.27566448E+03</rscale>
<asrwt>0</asrwt>
<pdfrwt beam="1">  1        1 0.19930821E-02 0.27566448E+03</pdfrwt>
<pdfrwt beam="2">  1       -1 0.22560553E+00 0.27566448E+03</pdfrwt>
<totfact> 0.68966889E+02</totfact>
</mgrwt>
</event>
<event>
 5    1  0.1125356E+001  0.2736499E+03  0.7818608E-02  0.1099209E+00
         -2   -1    0    0    0  501 -0.00000000000E+00  0.00000000000E+00  0.66315731243E+02  0.66315731243E+02  0.00000000000E+00 0. -1.
          2   -1    0    0  501    0  0.00000000000E+00 -0.00000000000E+00 -0.28230201988E+03  0.28230201988E+03  0.00000000000E+00 0. -1.
         35    2    1    2    0    0  0.00000000000E+00  0.00000000000E+00 -0.21598628864E+03  0.34861775112E+03  0.27364988492E+03 0.  0.
         25    1    3    3    0    0 -0.13016725230E+02 -0.59006045838E+02 -0.75019686000E+02  0.15388015424E+03  0.12000000000E+03 0.  0.
         25    1    3    3    0    0  0.13016725230E+02  0.59006045838E+02 -0.14096660264E+03  0.19473759688E+03  0.12000000000E+03 0.  0.
<mgrwt>
<rscale>  0 0.27364988E+03</rscale>
<asrwt>0</asrwt>
<pdfrwt beam="1">  1        2 0.43431079E-01 0.27364988E+03</pdfrwt>
<pdfrwt beam="2">  1       -2 0.10202420E-01 0.27364988E+03</pdfrwt>
<totfact> 0.74478624E+03</totfact>
</mgrwt>
</event>
<event>
 5    1  0.1125356E+001  0.2754413E+03  0.7818608E-02  0.1098205E+00
         -1   -1    0    0    0  501 -0.00000000000E+00  0.00000000000E+00  0.70152116314E+02  0.70152116314E+02  0.00000000000E+00 0. -1.
          1   -1    0    0  501    0  0.00000000000E+00 -0.00000000000E+00 -0.27036936806E+03  0.27036936806E+03  0.00000000000E+00 0. -1.
         35    2    1    2    0    0  0.00000000000E+00  0.00000000000E+00 -0.20021725175E+03  0.34052148437E+03  0.27544134298E+03 0.  0.
         25    1    3    3    0    0  0.50695562314E+02  0.43063557541E+02 -0.11486508562E+03  0.17893713399E+03  0.12000000000E+03 0.  0.
         25    1    3    3    0    0 -0.50695562314E+02 -0.43063557541E+02 -0.85352166131E+02  0.16158435039E+03  0.12000000000E+03 0.  0.
<mgrwt>
<rscale>  0 0.27544134E+03</rscale>
<asrwt>0</asrwt>
<pdfrwt beam="1">  1        1 0.41595287E-01 0.27544134E+03</pdfrwt>
<pdfrwt beam="2">  1       -1 0.10792633E-01 0.27544134E+03</pdfrwt>
<totfact> 0.53743174E+03</totfact>
</mgrwt>
</event>
<event>
 5    1  0.1125356E+001  0.2760350E+03  0.7818608E-02  0.1097874E+00
          2   -1    0    0  501    0  0.00000000000E+00  0.00000000000E+00  0.52908304150E+03  0.52908304150E+03  0.00000000000E+00 0. -1.
         -2   -1    0    0    0  501 -0.00000000000E+00 -0.00000000000E+00 -0.36003484166E+02  0.36003484166E+02  0.00000000000E+00 0. -1.
         35    2    1    2    0    0  0.00000000000E+00  0.00000000000E+00  0.49307955733E+03  0.56508652566E+03  0.27603501884E+03 0.  0.
         25    1    3    3    0    0  0.11245504191E+02  0.29571114098E+02  0.12289565876E+03  0.17465467385E+03  0.12000000000E+03 0.  0.
         25    1    3    3    0    0 -0.11245504191E+02 -0.29571114098E+02  0.37018389857E+03  0.39043185182E+03  0.12000000000E+03 0.  0.
<mgrwt>
<rscale>  0 0.27603502E+03</rscale>
<asrwt>0</asrwt>
<pdfrwt beam="1">  1        2 0.81397385E-01 0.27603502E+03</pdfrwt>
<pdfrwt beam="2">  1       -2 0.55389980E-02 0.27603502E+03</pdfrwt>
<totfact> 0.97194171E+03</totfact>
</mgrwt>
</event>
<event>
 5    1  0.1125356E+001  0.2748923E+03  0.7818608E-02  0.1098512E+00
          2   -1    0    0  501    0  0.00000000000E+00  0.00000000000E+00  0.15920033370E+04  0.15920033370E+04  0.00000000000E+00 0. -1.
         -2   -1    0    0    0  501 -0.00000000000E+00 -0.00000000000E+00 -0.11866456277E+02  0.11866456277E+02  0.00000000000E+00 0. -1.
         35    2    1    2    0    0  0.00000000000E+00  0.00000000000E+00  0.15801368807E+04  0.16038697933E+04  0.27489225519E+03 0.  0.
         25    1    3    3    0    0 -0.65268268849E+02  0.12523496817E+02  0.84048004550E+03  0.85160054707E+03  0.12000000000E+03 0.  0.
         25    1    3    3    0    0  0.65268268849E+02 -0.12523496817E+02  0.73965683521E+03  0.75226924619E+03  0.12000000000E+03 0.  0.
<mgrwt>
<rscale>  0 0.27489226E+03</rscale>
<asrwt>0</asrwt>
<pdfrwt beam="1">  1        2 0.24492342E+00 0.27489226E+03</pdfrwt>
<pdfrwt beam="2">  1       -2 0.18256099E-02 0.27489226E+03</pdfrwt>
<totfact> 0.10774821E+04</totfact>
</mgrwt>
</event>
<event>
 5    1  0.1125356E+001  0.2751324E+03  0.7818608E-02  0.1098378E+00
         -1   -1    0    0    0  501 -0.00000000000E+00  0.00000000000E+00  0.22200253021E+02  0.22200253021E+02  0.00000000000E+00 0.  1.
          1   -1    0    0  501    0  0.00000000000E+00 -0.00000000000E+00 -0.85244319374E+03  0.85244319374E+03  0.00000000000E+00 0.  1.
         35    2    1    2    0    0  0.00000000000E+00  0.00000000000E+00 -0.83024294072E+03  0.87464344676E+03  0.27513236514E+03 0.  0.
         25    1    3    3    0    0 -0.18618148737E+02 -0.29260099888E+02 -0.59833912717E+03  0.61123849683E+03  0.12000000000E+03 0.  0.
         25    1    3    3    0    0  0.18618148737E+02  0.29260099888E+02 -0.23190381355E+03  0.26340494993E+03  0.12000000000E+03 0.  0.
<mgrwt>
<rscale>  0 0.27513237E+03</rscale>
<asrwt>0</asrwt>
<pdfrwt beam="1">  1        1 0.13114511E+00 0.27513237E+03</pdfrwt>
<pdfrwt beam="2">  1       -1 0.34154233E-02 0.27513237E+03</pdfrwt>
<totfact> 0.64785195E+03</totfact>
</mgrwt>
</event>
<event>
 5    1  0.1125356E+001  0.2748705E+03  0.7818608E-02  0.1098524E+00
          2   -1    0    0  501    0  0.00000000000E+00  0.00000000000E+00  0.13629482261E+04  0.13629482261E+04  0.00000000000E+00 0. -1.
         -2   -1    0    0    0  501 -0.00000000000E+00 -0.00000000000E+00 -0.13858517041E+02  0.13858517041E+02  0.00000000000E+00 0. -1.
         35    2    1    2    0    0  0.00000000000E+00  0.00000000000E+00  0.13490897090E+04  0.13768067431E+04  0.27487045106E+03 0.  0.
         25    1    3    3    0    0 -0.11054795668E+02  0.63609655444E+02  0.58493617549E+03  0.60059863983E+03  0.12000000000E+03 0.  0.
         25    1    3    3    0    0  0.11054795668E+02 -0.63609655444E+02  0.76415353353E+03  0.77620810327E+03  0.12000000000E+03 0.  0.
<mgrwt>
<rscale>  0 0.27487045E+03</rscale>
<asrwt>0</asrwt>
<pdfrwt beam="1">  1        2 0.20968424E+00 0.27487045E+03</pdfrwt>
<pdfrwt beam="2">  1       -2 0.21320806E-02 0.27487045E+03</pdfrwt>
<totfact> 0.11385865E+04</totfact>
</mgrwt>
</event>
<event>
 5    1  0.1125356E+001  0.2752490E+03  0.7818608E-02  0.1098312E+00
         -1   -1    0    0    0  501 -0.00000000000E+00  0.00000000000E+00  0.85071657751E+01  0.85071657751E+01  0.00000000000E+00 0.  1.
          1   -1    0    0  501    0  0.00000000000E+00 -0.00000000000E+00 -0.22264175524E+04  0.22264175524E+04  0.00000000000E+00 0.  1.
         35    2    1    2    0    0  0.00000000000E+00  0.00000000000E+00 -0.22179103866E+04  0.22349247182E+04  0.27524900147E+03 0.  0.
         25    1    3    3    0    0  0.23290646025E+02  0.60777803934E+02 -0.96735926835E+03  0.97694439438E+03  0.12000000000E+03 0.  0.
         25    1    3    3    0    0 -0.23290646025E+02 -0.60777803934E+02 -0.12505511183E+04  0.12579803238E+04  0.12000000000E+03 0.  0.
<mgrwt>
<rscale>  0 0.27524900E+03</rscale>
<asrwt>0</asrwt>
<pdfrwt beam="1">  1        1 0.34252583E+00 0.27524900E+03</pdfrwt>
<pdfrwt beam="2">  1       -1 0.13087945E-02 0.27524900E+03</pdfrwt>
<totfact> 0.30576243E+03</totfact>
</mgrwt>
</event>
<event>
 5    1  0.1125356E+001  0.2775363E+03  0.7818608E-02  0.1097042E+00
          2   -1    0    0  501    0  0.00000000000E+00  0.00000000000E+00  0.49254037170E+03  0.49254037170E+03  0.00000000000E+00 0. -1.
         -2   -1    0    0    0  501 -0.00000000000E+00 -0.00000000000E+00 -0.39096491512E+02  0.39096491512E+02  0.00000000000E+00 0. -1.
         35    2    1    2    0    0  0.00000000000E+00  0.00000000000E+00  0.45344388019E+03  0.53163686321E+03  0.27753630726E+03 0.  0.
         25    1    3    3    0    0  0.52007850842E+02  0.39280711382E+02  0.27398654550E+03  0.30613137368E+03  0.12000000000E+03 0.  0.
         25    1    3    3    0    0 -0.52007850842E+02 -0.39280711382E+02  0.17945733469E+03  0.22550548953E+03  0.12000000000E+03 0.  0.
<mgrwt>
<rscale>  0 0.27753631E+03</rscale>
<asrwt>0</asrwt>
<pdfrwt beam="1">  1        2 0.75775437E-01 0.27753631E+03</pdfrwt>
<pdfrwt beam="2">  1       -2 0.60148452E-02 0.27753631E+03</pdfrwt>
<totfact> 0.92862074E+03</totfact>
</mgrwt>
</event>
<event>
 5    1  0.1125356E+001  0.2674959E+03  0.7818608E-02  0.1102721E+00
         -2   -1    0    0    0  501 -0.00000000000E+00  0.00000000000E+00  0.70231771515E+02  0.70231771515E+02  0.00000000000E+00 0. -1.
          2   -1    0    0  501    0  0.00000000000E+00 -0.00000000000E+00 -0.25470686728E+03  0.25470686728E+03  0.00000000000E+00 0. -1.
         35    2    1    2    0    0  0.00000000000E+00  0.00000000000E+00 -0.18447509576E+03  0.32493863879E+03  0.26749590282E+03 0.  0.
         25    1    3    3    0    0  0.11098466744E+02  0.16143835456E+02 -0.15992296360E+03  0.20089587769E+03  0.12000000000E+03 0.  0.
         25    1    3    3    0    0 -0.11098466744E+02 -0.16143835456E+02 -0.24552132162E+02  0.12404276110E+03  0.12000000000E+03 0.  0.
<mgrwt>
<rscale>  0 0.26749590E+03</rscale>
<asrwt>0</asrwt>
<pdfrwt beam="1">  1        2 0.39185672E-01 0.26749590E+03</pdfrwt>
<pdfrwt beam="2">  1       -2 0.10804888E-01 0.26749590E+03</pdfrwt>
<totfact> 0.75854560E+03</totfact>
</mgrwt>
</event>
<event>
 5    1  0.1125356E+001  0.2793613E+03  0.7818608E-02  0.1096038E+00
          2   -1    0    0  501    0  0.00000000000E+00  0.00000000000E+00  0.93847338224E+02  0.93847338224E+02  0.00000000000E+00 0. -1.
         -2   -1    0    0    0  501 -0.00000000000E+00 -0.00000000000E+00 -0.20789813989E+03  0.20789813989E+03  0.00000000000E+00 0. -1.
         35    2    1    2    0    0  0.00000000000E+00  0.00000000000E+00 -0.11405080166E+03  0.30174547811E+03  0.27936132195E+03 0.  0.
         25    1    3    3    0    0  0.44261374815E+01 -0.32752318862E+02  0.11444563482E+02  0.12499313228E+03  0.12000000000E+03 0.  0.
         25    1    3    3    0    0 -0.44261374815E+01  0.32752318862E+02 -0.12549536515E+03  0.17675234583E+03  0.12000000000E+03 0.  0.
<mgrwt>
<rscale>  0 0.27936132E+03</rscale>
<asrwt>0</asrwt>
<pdfrwt beam="1">  1        2 0.14438052E-01 0.27936132E+03</pdfrwt>
<pdfrwt beam="2">  1       -2 0.31984329E-01 0.27936132E+03</pdfrwt>
<totfact> 0.36915011E+03</totfact>
</mgrwt>
</event>
<event>
 5    1  0.1125356E+001  0.2750328E+03  0.7818608E-02  0.1098433E+00
         -2   -1    0    0    0  501 -0.00000000000E+00  0.00000000000E+00  0.23832606302E+02  0.23832606302E+02  0.00000000000E+00 0. -1.
          2   -1    0    0  501    0  0.00000000000E+00 -0.00000000000E+00 -0.79348253418E+03  0.79348253418E+03  0.00000000000E+00 0. -1.
         35    2    1    2    0    0  0.00000000000E+00  0.00000000000E+00 -0.76964992788E+03  0.81731514049E+03  0.27503277510E+03 0.  0.
         25    1    3    3    0    0  0.52285714122E+01  0.35849367132E+02 -0.55288356271E+03  0.56691511622E+03  0.12000000000E+03 0.  0.
         25    1    3    3    0    0 -0.52285714122E+01 -0.35849367132E+02 -0.21676636517E+03  0.25040002426E+03  0.12000000000E+03 0.  0.
<mgrwt>
<rscale>  0 0.27503278E+03</rscale>
<asrwt>0</asrwt>
<pdfrwt beam="1">  1        2 0.12207423E+00 0.27503278E+03</pdfrwt>
<pdfrwt beam="2">  1       -2 0.36665550E-02 0.27503278E+03</pdfrwt>
<totfact> 0.11197329E+04</totfact>
</mgrwt>
</event>
<event>
 5    1  0.1125356E+001  0.2749338E+03  0.7818608E-02  0.1098489E+00
          3   -1    0    0  501    0  0.00000000000E+00  0.00000000000E+00  0.15243908728E+03  0.15243908728E+03  0.00000000000E+00 0.  1.
         -3   -1    0    0    0  501 -0.00000000000E+00 -0.00000000000E+00 -0.12396526247E+03  0.12396526247E+03  0.00000000000E+00 0.  1.
         35    2    1    2    0    0  0.00000000000E+00  0.00000000000E+00  0.28473824804E+02  0.27640434975E+03  0.27493382088E+03 0.  0.
         25    1    3    3    0    0  0.56256711193E+02 -0.20541912575E+02  0.44570528146E+02  0.14132699567E+03  0.12000000000E+03 0.  0.
         25    1    3    3    0    0 -0.56256711193E+02  0.20541912575E+02 -0.16096703342E+02  0.13507735408E+03  0.12000000000E+03 0.  0.
<mgrwt>
<rscale>  0 0.27493382E+03</rscale>
<asrwt>0</asrwt>
<pdfrwt beam="1">  1        3 0.23452167E-01 0.27493382E+03</pdfrwt>
<pdfrwt beam="2">  1       -3 0.19071579E-01 0.27493382E+03</pdfrwt>
<totfact> 0.10475597E+03</totfact>
</mgrwt>
</event>
<event>
 5    1  0.1125356E+001  0.2736642E+03  0.7818608E-02  0.1099201E+00
          2   -1    0    0  501    0  0.00000000000E+00  0.00000000000E+00  0.33146945908E+03  0.33146945908E+03  0.00000000000E+00 0. -1.
         -2   -1    0    0    0  501 -0.00000000000E+00 -0.00000000000E+00 -0.56484926904E+02  0.56484926904E+02  0.00000000000E+00 0. -1.
         35    2    1    2    0    0  0.00000000000E+00  0.00000000000E+00  0.27498453218E+03  0.38795438599E+03  0.27366423345E+03 0.  0.
         25    1    3    3    0    0 -0.64816284881E+02  0.35079151415E-01  0.12184199050E+03  0.18288417828E+03  0.12000000000E+03 0.  0.
         25    1    3    3    0    0  0.64816284881E+02 -0.35079151415E-01  0.15314254168E+03  0.20507020771E+03  0.12000000000E+03 0.  0.
<mgrwt>
<rscale>  0 0.27366423E+03</rscale>
<asrwt>0</asrwt>
<pdfrwt beam="1">  1        2 0.50995300E-01 0.27366423E+03</pdfrwt>
<pdfrwt beam="2">  1       -2 0.86899890E-02 0.27366423E+03</pdfrwt>
<totfact> 0.80768345E+03</totfact>
</mgrwt>
</event>
<event>
 5    1  0.1125356E+001  0.2728304E+03  0.7818608E-02  0.1099671E+00
          1   -1    0    0  501    0  0.00000000000E+00  0.00000000000E+00  0.64385891758E+03  0.64385891758E+03  0.00000000000E+00 0. -1.
         -1   -1    0    0    0  501 -0.00000000000E+00 -0.00000000000E+00 -0.28902463627E+02  0.28902463627E+02  0.00000000000E+00 0. -1.
         35    2    1    2    0    0  0.00000000000E+00  0.00000000000E+00  0.61495645395E+03  0.67276138121E+03  0.27283041580E+03 0.  0.
         25    1    3    3    0    0 -0.60215401780E+02  0.24119911367E+02  0.30451487299E+03  0.33367195359E+03  0.12000000000E+03 0.  0.
         25    1    3    3    0    0  0.60215401780E+02 -0.24119911367E+02  0.31044158096E+03  0.33908942762E+03  0.12000000000E+03 0.  0.
<mgrwt>
<rscale>  0 0.27283042E+03</rscale>
<asrwt>0</asrwt>
<pdfrwt beam="1">  1        1 0.99055207E-01 0.27283042E+03</pdfrwt>
<pdfrwt beam="2">  1       -1 0.44465333E-02 0.27283042E+03</pdfrwt>
<totfact> 0.66568739E+03</totfact>
</mgrwt>
</event>
<event>
 5    1  0.1125356E+001  0.2755163E+03  0.7818608E-02  0.1098163E+00
          1   -1    0    0  501    0  0.00000000000E+00  0.00000000000E+00  0.46268796881E+03  0.46268796881E+03  0.00000000000E+00 0.  1.
         -1   -1    0    0    0  501 -0.00000000000E+00 -0.00000000000E+00 -0.41015349205E+02  0.41015349205E+02  0.00000000000E+00 0.  1.
         35    2    1    2    0    0  0.00000000000E+00  0.00000000000E+00  0.42167261961E+03  0.50370331802E+03  0.27551630524E+03 0.  0.
         25    1    3    3    0    0  0.11777570967E+02  0.66525896068E+02  0.21740329329E+03  0.25734917517E+03  0.12000000000E+03 0.  0.
         25    1    3    3    0    0 -0.11777570967E+02 -0.66525896068E+02  0.20426932632E+03  0.24635414285E+03  0.12000000000E+03 0.  0.
<mgrwt>
<rscale>  0 0.27551631E+03</rscale>
<asrwt>0</asrwt>
<pdfrwt beam="1">  1        1 0.71182761E-01 0.27551631E+03</pdfrwt>
<pdfrwt beam="2">  1       -1 0.63100540E-02 0.27551631E+03</pdfrwt>
<totfact> 0.61662210E+03</totfact>
</mgrwt>
</event>
<event>
 5    1  0.1125356E+001  0.2763223E+03  0.7818608E-02  0.1097715E+00
         -1   -1    0    0    0  501 -0.00000000000E+00  0.00000000000E+00  0.29728026737E+02  0.29728026737E+02  0.00000000000E+00 0.  1.
          1   -1    0    0  501    0  0.00000000000E+00 -0.00000000000E+00 -0.64210442122E+03  0.64210442122E+03  0.00000000000E+00 0.  1.
         35    2    1    2    0    0  0.00000000000E+00  0.00000000000E+00 -0.61237639449E+03  0.67183244796E+03  0.27632225681E+03 0.  0.
         25    1    3    3    0    0 -0.39137713031E+02  0.27817829189E+02 -0.42487392323E+03  0.44409846075E+03  0.12000000000E+03 0.  0.
         25    1    3    3    0    0  0.39137713031E+02 -0.27817829189E+02 -0.18750247126E+03  0.22773398721E+03  0.12000000000E+03 0.  0.
<mgrwt>
<rscale>  0 0.27632226E+03</rscale>
<asrwt>0</asrwt>
<pdfrwt beam="1">  1        1 0.98785296E-01 0.27632226E+03</pdfrwt>
<pdfrwt beam="2">  1       -1 0.45735425E-02 0.27632226E+03</pdfrwt>
<totfact> 0.64098350E+03</totfact>
</mgrwt>
</event>
<event>
 5    1  0.1125356E+001  0.2764501E+03  0.7818608E-02  0.1097644E+00
         -1   -1    0    0    0  501 -0.00000000000E+00  0.00000000000E+00  0.89241711031E+02  0.89241711031E+02  0.00000000000E+00 0.  1.
          1   -1    0    0  501    0  0.00000000000E+00 -0.00000000000E+00 -0.21409452986E+03  0.21409452986E+03  0.00000000000E+00 0.  1.
         35    2    1    2    0    0  0.00000000000E+00  0.00000000000E+00 -0.12485281883E+03  0.30333624089E+03  0.27645008350E+03 0.  0.
         25    1    3    3    0    0  0.33454555760E+02  0.45949713391E+02 -0.10457555396E+03  0.16901665583E+03  0.12000000000E+03 0.  0.
         25    1    3    3    0    0 -0.33454555760E+02 -0.45949713391E+02 -0.20277264876E+02  0.13431958507E+03  0.12000000000E+03 0.  0.
<mgrwt>
<rscale>  0 0.27645008E+03</rscale>
<asrwt>0</asrwt>
<pdfrwt beam="1">  1        1 0.32937620E-01 0.27645008E+03</pdfrwt>
<pdfrwt beam="2">  1       -1 0.13729494E-01 0.27645008E+03</pdfrwt>
<totfact> 0.49454014E+03</totfact>
</mgrwt>
</event>
<event>
 5    1  0.1125356E+001  0.2751985E+03  0.7818608E-02  0.1098341E+00
          2   -1    0    0  501    0  0.00000000000E+00  0.00000000000E+00  0.14653580829E+04  0.14653580829E+04  0.00000000000E+00 0.  1.
         -2   -1    0    0    0  501 -0.00000000000E+00 -0.00000000000E+00 -0.12920768248E+02  0.12920768248E+02  0.00000000000E+00 0.  1.
         35    2    1    2    0    0  0.00000000000E+00  0.00000000000E+00  0.14524373146E+04  0.14782788511E+04  0.27519848974E+03 0.  0.
         25    1    3    3    0    0  0.67064530284E+02  0.37429194253E+01  0.70108542881E+03  0.71444554667E+03  0.12000000000E+03 0.  0.
         25    1    3    3    0    0 -0.67064530284E+02 -0.37429194253E+01  0.75135188581E+03  0.76383330444E+03  0.12000000000E+03 0.  0.
<mgrwt>
<rscale>  0 0.27519849E+03</rscale>
<asrwt>0</asrwt>
<pdfrwt beam="1">  1        2 0.22543957E+00 0.27519849E+03</pdfrwt>
<pdfrwt beam="2">  1       -2 0.19878117E-02 0.27519849E+03</pdfrwt>
<totfact> 0.11109190E+04</totfact>
</mgrwt>
</event>
<event>
 5    1  0.1125356E+001  0.2748774E+03  0.7818608E-02  0.1098520E+00
          2   -1    0    0  501    0  0.00000000000E+00  0.00000000000E+00  0.18355689232E+03  0.18355689232E+03  0.00000000000E+00 0. -1.
         -2   -1    0    0    0  501 -0.00000000000E+00 -0.00000000000E+00 -0.10290755381E+03  0.10290755381E+03  0.00000000000E+00 0. -1.
         35    2    1    2    0    0  0.00000000000E+00  0.00000000000E+00  0.80649338508E+02  0.28646444613E+03  0.27487736010E+03 0.  0.
         25    1    3    3    0    0  0.42830952380E+02 -0.26578438250E+02  0.86327070682E+02  0.15618344020E+03  0.12000000000E+03 0.  0.
         25    1    3    3    0    0 -0.42830952380E+02  0.26578438250E+02 -0.56777321734E+01  0.13028100592E+03  0.12000000000E+03 0.  0.
<mgrwt>
<rscale>  0 0.27487736E+03</rscale>
<asrwt>0</asrwt>
<pdfrwt beam="1">  1        2 0.28239522E-01 0.27487736E+03</pdfrwt>
<pdfrwt beam="2">  1       -2 0.15831931E-01 0.27487736E+03</pdfrwt>
<totfact> 0.58238532E+03</totfact>
</mgrwt>
</event>
<event>
 5    1  0.1125356E+001  0.2748923E+03  0.7818608E-02  0.1098512E+00
         -2   -1    0    0    0  501 -0.00000000000E+00  0.00000000000E+00  0.97698654744E+01  0.97698654744E+01  0.00000000000E+00 0. -1.
          2   -1    0    0  501    0  0.00000000000E+00 -0.00000000000E+00 -0.19336449261E+04  0.19336449261E+04  0.00000000000E+00 0. -1.
         35    2    1    2    0    0  0.00000000000E+00  0.00000000000E+00 -0.19238750606E+04  0.19434147916E+04  0.27489234841E+03 0.  0.
         25    1    3    3    0    0  0.63934186278E+02 -0.85700419602E+00 -0.11038853533E+04  0.11122280287E+04  0.12000000000E+03 0.  0.
         25    1    3    3    0    0 -0.63934186278E+02  0.85700419602E+00 -0.81998970735E+03  0.83118676289E+03  0.12000000000E+03 0.  0.
<mgrwt>
<rscale>  0 0.27489235E+03</rscale>
<asrwt>0</asrwt>
<pdfrwt beam="1">  1        2 0.29748381E+00 0.27489235E+03</pdfrwt>
<pdfrwt beam="2">  1       -2 0.15030564E-02 0.27489235E+03</pdfrwt>
<totfact> 0.94704091E+03</totfact>
</mgrwt>
</event>
<event>
 5    1  0.1125356E+001  0.2748294E+03  0.7818608E-02  0.1098547E+00
          2   -1    0    0  501    0  0.00000000000E+00  0.00000000000E+00  0.15780103470E+04  0.15780103470E+04  0.00000000000E+00 0.  1.
         -2   -1    0    0    0  501 -0.00000000000E+00 -0.00000000000E+00 -0.11966205190E+02  0.11966205190E+02  0.00000000000E+00 0.  1.
         35    2    1    2    0    0  0.00000000000E+00  0.00000000000E+00  0.15660441418E+04  0.15899765522E+04  0.27482936964E+03 0.  0.
         25    1    3    3    0    0 -0.50346067374E+02  0.19105623722E+02  0.10132055261E+04  0.10217069979E+04  0.12000000000E+03 0.  0.
         25    1    3    3    0    0  0.50346067374E+02 -0.19105623722E+02  0.55283861574E+03  0.56826955436E+03  0.12000000000E+03 0.  0.
<mgrwt>
<rscale>  0 0.27482937E+03</rscale>
<asrwt>0</asrwt>
<pdfrwt beam="1">  1        2 0.24277066E+00 0.27482937E+03</pdfrwt>
<pdfrwt beam="2">  1       -2 0.18409559E-02 0.27482937E+03</pdfrwt>
<totfact> 0.10826676E+04</totfact>
</mgrwt>
</event>
<event>
 5    1  0.1125356E+001  0.2745125E+03  0.7818608E-02  0.1098724E+00
          2   -1    0    0  501    0  0.00000000000E+00  0.00000000000E+00  0.77804675390E+03  0.77804675390E+03  0.00000000000E+00 0. -1.
         -2   -1    0    0    0  501 -0.00000000000E+00 -0.00000000000E+00 -0.24213556385E+02  0.24213556385E+02  0.00000000000E+00 0. -1.
         35    2    1    2    0    0  0.00000000000E+00  0.00000000000E+00  0.75383319752E+03  0.80226031029E+03  0.27451250570E+03 0.  0.
         25    1    3    3    0    0  0.48776051672E+02 -0.49014719817E+01  0.50879030024E+03  0.52504351940E+03  0.12000000000E+03 0.  0.
         25    1    3    3    0    0 -0.48776051672E+02  0.49014719817E+01  0.24504289727E+03  0.27721679088E+03  0.12000000000E+03 0.  0.
<mgrwt>
<rscale>  0 0.27451251E+03</rscale>
<asrwt>0</asrwt>
<pdfrwt beam="1">  1        2 0.11969948E+00 0.27451251E+03</pdfrwt>
<pdfrwt beam="2">  1       -2 0.37251631E-02 0.27451251E+03</pdfrwt>
<totfact> 0.11208392E+04</totfact>
</mgrwt>
</event>
<event>
 5    1  0.1125356E+001  0.2748515E+03  0.7818608E-02  0.1098535E+00
         -2   -1    0    0    0  501 -0.00000000000E+00  0.00000000000E+00  0.25509968624E+03  0.25509968624E+03  0.00000000000E+00 0. -1.
          2   -1    0    0  501    0  0.00000000000E+00 -0.00000000000E+00 -0.74033149452E+02  0.74033149452E+02  0.00000000000E+00 0. -1.
         35    2    1    2    0    0  0.00000000000E+00  0.00000000000E+00  0.18106653678E+03  0.32913283569E+03  0.27485147405E+03 0.  0.
         25    1    3    3    0    0  0.50507847467E+02  0.83042617843E+00  0.14319713090E+03  0.19353849891E+03  0.12000000000E+03 0.  0.
         25    1    3    3    0    0 -0.50507847467E+02 -0.83042617843E+00  0.37869405883E+02  0.13559433677E+03  0.12000000000E+03 0.  0.
<mgrwt>
<rscale>  0 0.27485147E+03</rscale>
<asrwt>0</asrwt>
<pdfrwt beam="1">  1        2 0.11389715E-01 0.27485147E+03</pdfrwt>
<pdfrwt beam="2">  1       -2 0.39246105E-01 0.27485147E+03</pdfrwt>
<totfact> 0.33522620E+03</totfact>
</mgrwt>
</event>
<event>
 5    1  0.1125356E+001  0.2740289E+03  0.7818608E-02  0.1098996E+00
          3   -1    0    0  501    0  0.00000000000E+00  0.00000000000E+00  0.13534678570E+04  0.13534678570E+04  0.00000000000E+00 0. -1.
         -3   -1    0    0    0  501 -0.00000000000E+00 -0.00000000000E+00 -0.13870268150E+02  0.13870268150E+02  0.00000000000E+00 0. -1.
         35    2    1    2    0    0  0.00000000000E+00  0.00000000000E+00  0.13395975888E+04  0.13673381251E+04  0.27402891898E+03 0.  0.
         25    1    3    3    0    0  0.15751970666E+02  0.35854668065E+02  0.40392002444E+03  0.42318443727E+03  0.12000000000E+03 0.  0.
         25    1    3    3    0    0 -0.15751970666E+02 -0.35854668065E+02  0.93567756439E+03  0.94415368786E+03  0.12000000000E+03 0.  0.
<mgrwt>
<rscale>  0 0.27402892E+03</rscale>
<asrwt>0</asrwt>
<pdfrwt beam="1">  1        3 0.20822572E+00 0.27402892E+03</pdfrwt>
<pdfrwt beam="2">  1       -3 0.21338885E-02 0.27402892E+03</pdfrwt>
<totfact> 0.31276041E+02</totfact>
</mgrwt>
</event>
<event>
 5    1  0.1125356E+001  0.2753936E+03  0.7818608E-02  0.1098232E+00
          2   -1    0    0  501    0  0.00000000000E+00  0.00000000000E+00  0.21829196173E+03  0.21829196173E+03  0.00000000000E+00 0. -1.
         -2   -1    0    0    0  501 -0.00000000000E+00 -0.00000000000E+00 -0.86858022906E+02  0.86858022906E+02  0.00000000000E+00 0. -1.
         35    2    1    2    0    0  0.00000000000E+00  0.00000000000E+00  0.13143393882E+03  0.30514998463E+03  0.27539359623E+03 0.  0.
         25    1    3    3    0    0 -0.51941337269E+02 -0.30566244201E+02  0.31958501188E+02  0.13803457393E+03  0.12000000000E+03 0.  0.
         25    1    3    3    0    0  0.51941337269E+02  0.30566244201E+02  0.99475437633E+02  0.16711541070E+03  0.12000000000E+03 0.  0.
<mgrwt>
<rscale>  0 0.27539360E+03</rscale>
<asrwt>0</asrwt>
<pdfrwt beam="1">  1        2 0.33583379E-01 0.27539360E+03</pdfrwt>
<pdfrwt beam="2">  1       -2 0.13362773E-01 0.27539360E+03</pdfrwt>
<totfact> 0.63687789E+03</totfact>
</mgrwt>
</event>
<event>
 5    1  0.1125356E+001  0.2758568E+03  0.7818608E-02  0.1097974E+00
          2   -1    0    0  501    0  0.00000000000E+00  0.00000000000E+00  0.64868500761E+03  0.64868500761E+03  0.00000000000E+00 0. -1.
         -2   -1    0    0    0  501 -0.00000000000E+00 -0.00000000000E+00 -0.29327391241E+02  0.29327391241E+02  0.00000000000E+00 0. -1.
         35    2    1    2    0    0  0.00000000000E+00  0.00000000000E+00  0.61935761637E+03  0.67801239885E+03  0.27585676726E+03 0.  0.
         25    1    3    3    0    0 -0.32909887343E+02  0.23104188176E+02  0.44446573539E+03  0.46213272351E+03  0.12000000000E+03 0.  0.
         25    1    3    3    0    0  0.32909887343E+02 -0.23104188176E+02  0.17489188098E+03  0.21587967535E+03  0.12000000000E+03 0.  0.
<mgrwt>
<rscale>  0 0.27585677E+03</rscale>
<asrwt>0</asrwt>
<pdfrwt beam="1">  1        2 0.99797682E-01 0.27585677E+03</pdfrwt>
<pdfrwt beam="2">  1       -2 0.45119069E-02 0.27585677E+03</pdfrwt>
<totfact> 0.10487855E+04</totfact>
</mgrwt>
</event>
<event>
 5    1  0.1125356E+001  0.2751171E+03  0.7818608E-02  0.1098386E+00
         -2   -1    0    0    0  501 -0.00000000000E+00  0.00000000000E+00  0.39871507104E+03  0.39871507104E+03  0.00000000000E+00 0.  1.
          2   -1    0    0  501    0  0.00000000000E+00 -0.00000000000E+00 -0.47458347539E+02  0.47458347539E+02  0.00000000000E+00 0.  1.
         35    2    1    2    0    0  0.00000000000E+00  0.00000000000E+00  0.35125672350E+03  0.44617341858E+03  0.27511712713E+03 0.  0.
         25    1    3    3    0    0 -0.34379404019E+02  0.11512734103E+02  0.83775101295E+02  0.15077385073E+03  0.12000000000E+03 0.  0.
         25    1    3    3    0    0  0.34379404019E+02 -0.11512734103E+02  0.26748162220E+03  0.29539956784E+03  0.12000000000E+03 0.  0.
<mgrwt>
<rscale>  0 0.27511713E+03</rscale>
<asrwt>0</asrwt>
<pdfrwt beam="1">  1        2 0.73012845E-02 0.27511713E+03</pdfrwt>
<pdfrwt beam="2">  1       -2 0.61340778E-01 0.27511713E+03</pdfrwt>
<totfact> 0.24086752E+03</totfact>
</mgrwt>
</event>
<event>
 5    1  0.1125356E+001  0.2752464E+03  0.7818608E-02  0.1098314E+00
         -2   -1    0    0    0  501 -0.00000000000E+00  0.00000000000E+00  0.14375799560E+02  0.14375799560E+02  0.00000000000E+00 0. -1.
          2   -1    0    0  501    0  0.00000000000E+00 -0.00000000000E+00 -0.13175021472E+04  0.13175021472E+04  0.00000000000E+00 0. -1.
         35    2    1    2    0    0  0.00000000000E+00  0.00000000000E+00 -0.13031263477E+04  0.13318779468E+04  0.27524641170E+03 0.  0.
         25    1    3    3    0    0 -0.59277041983E+02 -0.22140573618E+02 -0.76360899668E+03  0.77556603363E+03  0.12000000000E+03 0.  0.
         25    1    3    3    0    0  0.59277041983E+02  0.22140573618E+02 -0.53951735099E+03  0.55631191317E+03  0.12000000000E+03 0.  0.
<mgrwt>
<rscale>  0 0.27524641E+03</rscale>
<asrwt>0</asrwt>
<pdfrwt beam="1">  1        2 0.20269271E+00 0.27524641E+03</pdfrwt>
<pdfrwt beam="2">  1       -2 0.22116607E-02 0.27524641E+03</pdfrwt>
<totfact> 0.11425420E+04</totfact>
</mgrwt>
</event>
<event>
 5    1  0.1125356E+001  0.2751515E+03  0.7818608E-02  0.1098367E+00
          2   -1    0    0  501    0  0.00000000000E+00  0.00000000000E+00  0.42273523534E+03  0.42273523534E+03  0.00000000000E+00 0.  1.
         -2   -1    0    0    0  501 -0.00000000000E+00 -0.00000000000E+00 -0.44772906424E+02  0.44772906424E+02  0.00000000000E+00 0.  1.
         35    2    1    2    0    0  0.00000000000E+00  0.00000000000E+00  0.37796232891E+03  0.46750814176E+03  0.27515148652E+03 0.  0.
         25    1    3    3    0    0  0.36986829866E+02  0.50290718675E+02  0.23162479878E+03  0.26822980702E+03  0.12000000000E+03 0.  0.
         25    1    3    3    0    0 -0.36986829866E+02 -0.50290718675E+02  0.14633753014E+03  0.19927833473E+03  0.12000000000E+03 0.  0.
<mgrwt>
<rscale>  0 0.27515149E+03</rscale>
<asrwt>0</asrwt>
<pdfrwt beam="1">  1        2 0.65036187E-01 0.27515149E+03</pdfrwt>
<pdfrwt beam="2">  1       -2 0.68881398E-02 0.27515149E+03</pdfrwt>
<totfact> 0.89173043E+03</totfact>
</mgrwt>
</event>
<event>
 5    1  0.1125356E+001  0.2774494E+03  0.7818608E-02  0.1097090E+00
         -1   -1    0    0    0  501 -0.00000000000E+00  0.00000000000E+00  0.11212501803E+03  0.11212501803E+03  0.00000000000E+00 0.  1.
          1   -1    0    0  501    0  0.00000000000E+00 -0.00000000000E+00 -0.17163464809E+03  0.17163464809E+03  0.00000000000E+00 0.  1.
         35    2    1    2    0    0  0.00000000000E+00  0.00000000000E+00 -0.59509630062E+02  0.28375966612E+03  0.27744936844E+03 0.  0.
         25    1    3    3    0    0  0.98730366679E+01  0.24272038625E+02 -0.95703398881E+02  0.15571046615E+03  0.12000000000E+03 0.  0.
         25    1    3    3    0    0 -0.98730366679E+01 -0.24272038625E+02  0.36193768818E+02  0.12804919997E+03  0.12000000000E+03 0.  0.
<mgrwt>
<rscale>  0 0.27744937E+03</rscale>
<asrwt>0</asrwt>
<pdfrwt beam="1">  1        1 0.26405330E-01 0.27744937E+03</pdfrwt>
<pdfrwt beam="2">  1       -1 0.17250003E-01 0.27744937E+03</pdfrwt>
<totfact> 0.45485416E+03</totfact>
</mgrwt>
</event>
<event>
 5    1  0.1125356E+001  0.2755757E+03  0.7818608E-02  0.1098130E+00
          3   -1    0    0  501    0  0.00000000000E+00  0.00000000000E+00  0.14346767701E+02  0.14346767701E+02  0.00000000000E+00 0. -1.
         -3   -1    0    0    0  501 -0.00000000000E+00 -0.00000000000E+00 -0.13233290725E+04  0.13233290725E+04  0.00000000000E+00 0. -1.
         35    2    1    2    0    0  0.00000000000E+00  0.00000000000E+00 -0.13089823048E+04  0.13376758402E+04  0.27557572313E+03 0.  0.
         25    1    3    3    0    0 -0.35777406559E+02 -0.55024425882E+02 -0.73539402771E+03  0.74800540523E+03  0.12000000000E+03 0.  0.
         25    1    3    3    0    0  0.35777406559E+02  0.55024425882E+02 -0.57358827710E+03  0.58967043498E+03  0.12000000000E+03 0.  0.
<mgrwt>
<rscale>  0 0.27557572E+03</rscale>
<asrwt>0</asrwt>
<pdfrwt beam="1">  1        3 0.22071945E-02 0.27557572E+03</pdfrwt>
<pdfrwt beam="2">  1       -3 0.20358913E+00 0.27557572E+03</pdfrwt>
<totfact> 0.31450563E+02</totfact>
</mgrwt>
</event>
<event>
 5    1  0.1125356E+001  0.2752291E+03  0.7818608E-02  0.1098324E+00
         -2   -1    0    0    0  501 -0.00000000000E+00  0.00000000000E+00  0.60540004645E+02  0.60540004645E+02  0.00000000000E+00 0. -1.
          2   -1    0    0  501    0  0.00000000000E+00 -0.00000000000E+00 -0.31281396919E+03  0.31281396919E+03  0.00000000000E+00 0. -1.
         35    2    1    2    0    0  0.00000000000E+00  0.00000000000E+00 -0.25227396454E+03  0.37335397383E+03  0.27522906204E+03 0.  0.
         25    1    3    3    0    0 -0.64151398618E+02 -0.63965280831E+01 -0.15263055535E+03  0.20457860089E+03  0.12000000000E+03 0.  0.
         25    1    3    3    0    0  0.64151398618E+02  0.63965280831E+01 -0.99643409191E+02  0.16877537294E+03  0.12000000000E+03 0.  0.
<mgrwt>
<rscale>  0 0.27522906E+03</rscale>
<asrwt>0</asrwt>
<pdfrwt beam="1">  1        2 0.48125225E-01 0.27522906E+03</pdfrwt>
<pdfrwt beam="2">  1       -2 0.93138471E-02 0.27522906E+03</pdfrwt>
<totfact> 0.77083730E+03</totfact>
</mgrwt>
</event>
<event>
 5    1  0.1125356E+001  0.2752231E+03  0.7818608E-02  0.1098327E+00
         -3   -1    0    0    0  501 -0.00000000000E+00  0.00000000000E+00  0.30623349881E+02  0.30623349881E+02  0.00000000000E+00 0. -1.
          3   -1    0    0  501    0  0.00000000000E+00 -0.00000000000E+00 -0.61838220743E+03  0.61838220743E+03  0.00000000000E+00 0. -1.
         35    2    1    2    0    0  0.00000000000E+00  0.00000000000E+00 -0.58775885755E+03  0.64900555732E+03  0.27522307097E+03 0.  0.
         25    1    3    3    0    0  0.53268387918E+01  0.14717399573E+02 -0.44836619857E+03  0.46441062120E+03  0.12000000000E+03 0.  0.
         25    1    3    3    0    0 -0.53268387918E+01 -0.14717399573E+02 -0.13939265898E+03  0.18459493612E+03  0.12000000000E+03 0.  0.
<mgrwt>
<rscale>  0 0.27522307E+03</rscale>
<asrwt>0</asrwt>
<pdfrwt beam="1">  1        3 0.95135719E-01 0.27522307E+03</pdfrwt>
<pdfrwt beam="2">  1       -3 0.47112849E-02 0.27522307E+03</pdfrwt>
<totfact> 0.64613049E+02</totfact>
</mgrwt>
</event>
<event>
 5    1  0.1125356E+001  0.2700629E+03  0.7818608E-02  0.1101244E+00
          2   -1    0    0  501    0  0.00000000000E+00  0.00000000000E+00  0.11691979948E+04  0.11691979948E+04  0.00000000000E+00 0. -1.
         -2   -1    0    0    0  501 -0.00000000000E+00 -0.00000000000E+00 -0.15594877202E+02  0.15594877202E+02  0.00000000000E+00 0. -1.
         35    2    1    2    0    0  0.00000000000E+00  0.00000000000E+00  0.11536031176E+04  0.11847928720E+04  0.27006294936E+03 0.  0.
         25    1    3    3    0    0 -0.36372032476E+02  0.49690432113E+02  0.54856166842E+03  0.56489996269E+03  0.12000000000E+03 0.  0.
         25    1    3    3    0    0  0.36372032476E+02 -0.49690432113E+02  0.60504144918E+03  0.61989290931E+03  0.12000000000E+03 0.  0.
<mgrwt>
<rscale>  0 0.27006295E+03</rscale>
<asrwt>0</asrwt>
<pdfrwt beam="1">  1        2 0.17987655E+00 0.27006295E+03</pdfrwt>
<pdfrwt beam="2">  1       -2 0.23992128E-02 0.27006295E+03</pdfrwt>
<totfact> 0.12267607E+04</totfact>
</mgrwt>
</event>
<event>
 5    1  0.1125356E+001  0.2744910E+03  0.7818608E-02  0.1098736E+00
          2   -1    0    0  501    0  0.00000000000E+00  0.00000000000E+00  0.11938394241E+04  0.11938394241E+04  0.00000000000E+00 0. -1.
         -2   -1    0    0    0  501 -0.00000000000E+00 -0.00000000000E+00 -0.15777941201E+02  0.15777941201E+02  0.00000000000E+00 0. -1.
         35    2    1    2    0    0  0.00000000000E+00  0.00000000000E+00  0.11780614829E+04  0.12096173653E+04  0.27449100705E+03 0.  0.
         25    1    3    3    0    0  0.25841862335E+02 -0.57216371308E+01  0.85837708044E+03  0.86712845138E+03  0.12000000000E+03 0.  0.
         25    1    3    3    0    0 -0.25841862335E+02  0.57216371308E+01  0.31968440250E+03  0.34248891396E+03  0.12000000000E+03 0.  0.
<mgrwt>
<rscale>  0 0.27449101E+03</rscale>
<asrwt>0</asrwt>
<pdfrwt beam="1">  1        2 0.18366753E+00 0.27449101E+03</pdfrwt>
<pdfrwt beam="2">  1       -2 0.24273765E-02 0.27449101E+03</pdfrwt>
<totfact> 0.11678764E+04</totfact>
</mgrwt>
</event>
<event>
 5    1  0.1125356E+001  0.2754731E+03  0.7818608E-02  0.1098187E+00
          2   -1    0    0  501    0  0.00000000000E+00  0.00000000000E+00  0.70784420477E+03  0.70784420477E+03  0.00000000000E+00 0.  1.
         -2   -1    0    0    0  501 -0.00000000000E+00 -0.00000000000E+00 -0.26801597312E+02  0.26801597312E+02  0.00000000000E+00 0.  1.
         35    2    1    2    0    0  0.00000000000E+00  0.00000000000E+00  0.68104260745E+03  0.73464580208E+03  0.27547308642E+03 0.  0.
         25    1    3    3    0    0 -0.58509367529E+02  0.33859691276E+02  0.33722199408E+03  0.36426432446E+03  0.12000000000E+03 0.  0.
         25    1    3    3    0    0  0.58509367529E+02 -0.33859691276E+02  0.34382061337E+03  0.37038147761E+03  0.12000000000E+03 0.  0.
<mgrwt>
<rscale>  0 0.27547309E+03</rscale>
<asrwt>0</asrwt>
<pdfrwt beam="1">  1        2 0.10889909E+00 0.27547309E+03</pdfrwt>
<pdfrwt beam="2">  1       -2 0.41233232E-02 0.27547309E+03</pdfrwt>
<totfact> 0.10818139E+04</totfact>
</mgrwt>
</event>
<event>
 5    1  0.1125356E+001  0.2749747E+03  0.7818608E-02  0.1098466E+00
          2   -1    0    0  501    0  0.00000000000E+00  0.00000000000E+00  0.12473082617E+04  0.12473082617E+04  0.00000000000E+00 0. -1.
         -2   -1    0    0    0  501 -0.00000000000E+00 -0.00000000000E+00 -0.15154846119E+02  0.15154846119E+02  0.00000000000E+00 0. -1.
         35    2    1    2    0    0  0.00000000000E+00  0.00000000000E+00  0.12321534156E+04  0.12624631078E+04  0.27497465170E+03 0.  0.
         25    1    3    3    0    0 -0.74785671694E+01 -0.55348323069E+02  0.78684205826E+03  0.79789710520E+03  0.12000000000E+03 0.  0.
         25    1    3    3    0    0  0.74785671694E+01  0.55348323069E+02  0.44531135730E+03  0.46456600260E+03  0.12000000000E+03 0.  0.
<mgrwt>
<rscale>  0 0.27497465E+03</rscale>
<asrwt>0</asrwt>
<pdfrwt beam="1">  1        2 0.19189350E+00 0.27497465E+03</pdfrwt>
<pdfrwt beam="2">  1       -2 0.23315158E-02 0.27497465E+03</pdfrwt>
<totfact> 0.11562946E+04</totfact>
</mgrwt>
</event>
<event>
 5    1  0.1125356E+001  0.2753485E+03  0.7818608E-02  0.1098257E+00
          1   -1    0    0  501    0  0.00000000000E+00  0.00000000000E+00  0.84388851097E+03  0.84388851097E+03  0.00000000000E+00 0. -1.
         -1   -1    0    0    0  501 -0.00000000000E+00 -0.00000000000E+00 -0.22460554181E+02  0.22460554181E+02  0.00000000000E+00 0. -1.
         35    2    1    2    0    0  0.00000000000E+00  0.00000000000E+00  0.82142795679E+03  0.86634906515E+03  0.27534853276E+03 0.  0.
         25    1    3    3    0    0  0.27796533061E+02  0.52572405078E+02  0.31034032488E+03  0.33800535835E+03  0.12000000000E+03 0.  0.
         25    1    3    3    0    0 -0.27796533061E+02 -0.52572405078E+02  0.51108763191E+03  0.52834370680E+03  0.12000000000E+03 0.  0.
<mgrwt>
<rscale>  0 0.27534853E+03</rscale>
<asrwt>0</asrwt>
<pdfrwt beam="1">  1        1 0.12982898E+00 0.27534853E+03</pdfrwt>
<pdfrwt beam="2">  1       -1 0.34554705E-02 0.27534853E+03</pdfrwt>
<totfact> 0.64701489E+03</totfact>
</mgrwt>
</event>
<event>
 5    1  0.1125356E+001  0.2740485E+03  0.7818608E-02  0.1098985E+00
         -1   -1    0    0    0  501 -0.00000000000E+00  0.00000000000E+00  0.37799855647E+02  0.37799855647E+02  0.00000000000E+00 0.  1.
          1   -1    0    0  501    0  0.00000000000E+00 -0.00000000000E+00 -0.49671198370E+03  0.49671198370E+03  0.00000000000E+00 0.  1.
         35    2    1    2    0    0  0.00000000000E+00  0.00000000000E+00 -0.45891212805E+03  0.53451183935E+03  0.27404847222E+03 0.  0.
         25    1    3    3    0    0  0.14547093054E+02  0.28784309666E+02 -0.34210045271E+03  0.36396823233E+03  0.12000000000E+03 0.  0.
         25    1    3    3    0    0 -0.14547093054E+02 -0.28784309666E+02 -0.11681167535E+03  0.17054360702E+03  0.12000000000E+03 0.  0.
<mgrwt>
<rscale>  0 0.27404847E+03</rscale>
<asrwt>0</asrwt>
<pdfrwt beam="1">  1        1 0.76417228E-01 0.27404847E+03</pdfrwt>
<pdfrwt beam="2">  1       -1 0.58153625E-02 0.27404847E+03</pdfrwt>
<totfact> 0.63508430E+03</totfact>
</mgrwt>
</event>
<event>
 5    1  0.1125356E+001  0.2752853E+03  0.7818608E-02  0.1098292E+00
          2   -1    0    0  501    0  0.00000000000E+00  0.00000000000E+00  0.92863365719E+01  0.92863365719E+01  0.00000000000E+00 0. -1.
         -2   -1    0    0    0  501 -0.00000000000E+00 -0.00000000000E+00 -0.20401479755E+04  0.20401479755E+04  0.00000000000E+00 0. -1.
         35    2    1    2    0    0  0.00000000000E+00  0.00000000000E+00 -0.20308616389E+04  0.20494343121E+04  0.27528531205E+03 0.  0.
         25    1    3    3    0    0  0.18979655792E+02 -0.63558135672E+02 -0.11052742954E+04  0.11137464398E+04  0.12000000000E+03 0.  0.
         25    1    3    3    0    0 -0.18979655792E+02  0.63558135672E+02 -0.92558734349E+03  0.93568787231E+03  0.12000000000E+03 0.  0.
<mgrwt>
<rscale>  0 0.27528531E+03</rscale>
<asrwt>0</asrwt>
<pdfrwt beam="1">  1        2 0.14286654E-02 0.27528531E+03</pdfrwt>
<pdfrwt beam="2">  1       -2 0.31386930E+00 0.27528531E+03</pdfrwt>
<totfact> 0.26545015E+02</totfact>
</mgrwt>
</event>
<event>
 5    1  0.1125356E+001  0.2736575E+03  0.7818608E-02  0.1099204E+00
         -2   -1    0    0    0  501 -0.00000000000E+00  0.00000000000E+00  0.23417467968E+02  0.23417467968E+02  0.00000000000E+00 0. -1.
          2   -1    0    0  501    0  0.00000000000E+00 -0.00000000000E+00 -0.79949341169E+03  0.79949341169E+03  0.00000000000E+00 0. -1.
         35    2    1    2    0    0  0.00000000000E+00  0.00000000000E+00 -0.77607594372E+03  0.82291087965E+03  0.27365753312E+03 0.  0.
         25    1    3    3    0    0  0.28245155219E+02 -0.17418678600E+02 -0.21737675431E+03  0.25050719046E+03  0.12000000000E+03 0.  0.
         25    1    3    3    0    0 -0.28245155219E+02  0.17418678600E+02 -0.55869918941E+03  0.57240368920E+03  0.12000000000E+03 0.  0.
<mgrwt>
<rscale>  0 0.27365753E+03</rscale>
<asrwt>0</asrwt>
<pdfrwt beam="1">  1        2 0.12299896E+00 0.27365753E+03</pdfrwt>
<pdfrwt beam="2">  1       -2 0.36026881E-02 0.27365753E+03</pdfrwt>
<totfact> 0.11384350E+04</totfact>
</mgrwt>
</event>
<event>
 5    1  0.1125356E+001  0.2755472E+03  0.7818608E-02  0.1098146E+00
          2   -1    0    0  501    0  0.00000000000E+00  0.00000000000E+00  0.93258982044E+03  0.93258982044E+03  0.00000000000E+00 0.  1.
         -2   -1    0    0    0  501 -0.00000000000E+00 -0.00000000000E+00 -0.20353598172E+02  0.20353598172E+02  0.00000000000E+00 0.  1.
         35    2    1    2    0    0  0.00000000000E+00  0.00000000000E+00  0.91223622226E+03  0.95294341861E+03  0.27554715360E+03 0.  0.
         25    1    3    3    0    0 -0.50564561453E+02  0.27133304793E+01  0.61145317504E+03  0.62517127438E+03  0.12000000000E+03 0.  0.
         25    1    3    3    0    0  0.50564561453E+02 -0.27133304793E+01  0.30078304722E+03  0.32777214423E+03  0.12000000000E+03 0.  0.
<mgrwt>
<rscale>  0 0.27554715E+03</rscale>
<asrwt>0</asrwt>
<pdfrwt beam="1">  1        2 0.14347532E+00 0.27554715E+03</pdfrwt>
<pdfrwt beam="2">  1       -2 0.31313235E-02 0.27554715E+03</pdfrwt>
<totfact> 0.11467323E+04</totfact>
</mgrwt>
</event>
<event>
 5    1  0.1125356E+001  0.2748271E+03  0.7818608E-02  0.1098548E+00
          1   -1    0    0  501    0  0.00000000000E+00  0.00000000000E+00  0.20503433201E+02  0.20503433201E+02  0.00000000000E+00 0.  1.
         -1   -1    0    0    0  501 -0.00000000000E+00 -0.00000000000E+00 -0.92094245353E+03  0.92094245353E+03  0.00000000000E+00 0.  1.
         35    2    1    2    0    0  0.00000000000E+00  0.00000000000E+00 -0.90043902033E+03  0.94144588674E+03  0.27482708802E+03 0.  0.
         25    1    3    3    0    0 -0.58660173950E+02 -0.26523732984E+02 -0.38724468473E+03  0.41049113300E+03  0.12000000000E+03 0.  0.
         25    1    3    3    0    0  0.58660173950E+02  0.26523732984E+02 -0.51319433561E+03  0.53095475374E+03  0.12000000000E+03 0.  0.
<mgrwt>
<rscale>  0 0.27482709E+03</rscale>
<asrwt>0</asrwt>
<pdfrwt beam="1">  1        1 0.31543744E-02 0.27482709E+03</pdfrwt>
<pdfrwt beam="2">  1       -1 0.14168345E+00 0.27482709E+03</pdfrwt>
<totfact> 0.13917778E+03</totfact>
</mgrwt>
</event>
<event>
 5    1  0.1125356E+001  0.2744713E+03  0.7818608E-02  0.1098747E+00
         -1   -1    0    0    0  501 -0.00000000000E+00  0.00000000000E+00  0.12789043473E+02  0.12789043473E+02  0.00000000000E+00 0.  1.
          1   -1    0    0  501    0  0.00000000000E+00 -0.00000000000E+00 -0.14726379203E+04  0.14726379203E+04  0.00000000000E+00 0.  1.
         35    2    1    2    0    0  0.00000000000E+00  0.00000000000E+00 -0.14598488768E+04  0.14854269638E+04  0.27447134920E+03 0.  0.
         25    1    3    3    0    0  0.48965605944E+02 -0.88402515008E+01 -0.96939049816E+03  0.97805609172E+03  0.12000000000E+03 0.  0.
         25    1    3    3    0    0 -0.48965605944E+02  0.88402515008E+01 -0.49045837866E+03  0.50737087206E+03  0.12000000000E+03 0.  0.
<mgrwt>
<rscale>  0 0.27447135E+03</rscale>
<asrwt>0</asrwt>
<pdfrwt beam="1">  1        1 0.22655966E+00 0.27447135E+03</pdfrwt>
<pdfrwt beam="2">  1       -1 0.19675453E-02 0.27447135E+03</pdfrwt>
<totfact> 0.52408489E+03</totfact>
</mgrwt>
</event>
<event>
 5    1  0.1125356E+001  0.2754762E+03  0.7818608E-02  0.1098186E+00
          1   -1    0    0  501    0  0.00000000000E+00  0.00000000000E+00  0.71464288349E+03  0.71464288349E+03  0.00000000000E+00 0. -1.
         -1   -1    0    0    0  501 -0.00000000000E+00 -0.00000000000E+00 -0.26547218789E+02  0.26547218789E+02  0.00000000000E+00 0. -1.
         35    2    1    2    0    0  0.00000000000E+00  0.00000000000E+00  0.68809566470E+03  0.74119010228E+03  0.27547617671E+03 0.  0.
         25    1    3    3    0    0 -0.43872231370E+02 -0.17797498175E+02  0.47392939594E+03  0.49117267428E+03  0.12000000000E+03 0.  0.
         25    1    3    3    0    0  0.43872231370E+02  0.17797498175E+02  0.21416626876E+03  0.25001742800E+03  0.12000000000E+03 0.  0.
<mgrwt>
<rscale>  0 0.27547618E+03</rscale>
<asrwt>0</asrwt>
<pdfrwt beam="1">  1        1 0.10994504E+00 0.27547618E+03</pdfrwt>
<pdfrwt beam="2">  1       -1 0.40841880E-02 0.27547618E+03</pdfrwt>
<totfact> 0.65011287E+03</totfact>
</mgrwt>
</event>
<event>
 5    1  0.1125356E+001  0.2802617E+03  0.7818608E-02  0.1095546E+00
          2   -1    0    0  501    0  0.00000000000E+00  0.00000000000E+00  0.34150270862E+03  0.34150270862E+03  0.00000000000E+00 0.  1.
         -2   -1    0    0    0  501 -0.00000000000E+00 -0.00000000000E+00 -0.57500715517E+02  0.57500715517E+02  0.00000000000E+00 0.  1.
         35    2    1    2    0    0  0.00000000000E+00  0.00000000000E+00  0.28400199310E+03  0.39900342414E+03  0.28026166414E+03 0.  0.
         25    1    3    3    0    0  0.37620759898E+02 -0.50583194343E+02  0.91411811840E+02  0.16349342638E+03  0.12000000000E+03 0.  0.
         25    1    3    3    0    0 -0.37620759898E+02  0.50583194343E+02  0.19259018126E+03  0.23550999776E+03  0.12000000000E+03 0.  0.
<mgrwt>
<rscale>  0 0.28026166E+03</rscale>
<asrwt>0</asrwt>
<pdfrwt beam="1">  1        2 0.52538877E-01 0.28026166E+03</pdfrwt>
<pdfrwt beam="2">  1       -2 0.88462641E-02 0.28026166E+03</pdfrwt>
<totfact> 0.76120153E+03</totfact>
</mgrwt>
</event>
<event>
 5    1  0.1125356E+001  0.2762327E+03  0.7818608E-02  0.1097765E+00
          4   -1    0    0  501    0  0.00000000000E+00  0.00000000000E+00  0.71332396795E+02  0.71332396795E+02  0.00000000000E+00 0. -1.
         -4   -1    0    0    0  501 -0.00000000000E+00 -0.00000000000E+00 -0.26742580098E+03  0.26742580098E+03  0.00000000000E+00 0. -1.
         35    2    1    2    0    0  0.00000000000E+00  0.00000000000E+00 -0.19609340418E+03  0.33875819777E+03  0.27623267981E+03 0.  0.
         25    1    3    3    0    0  0.99685708067E+01  0.29564658321E+02 -0.17266974597E+03  0.21257535746E+03  0.12000000000E+03 0.  0.
         25    1    3    3    0    0 -0.99685708067E+01 -0.29564658321E+02 -0.23423658211E+02  0.12618284031E+03  0.12000000000E+03 0.  0.
<mgrwt>
<rscale>  0 0.27623268E+03</rscale>
<asrwt>0</asrwt>
<pdfrwt beam="1">  1        4 0.10974215E-01 0.27623268E+03</pdfrwt>
<pdfrwt beam="2">  1       -4 0.41142431E-01 0.27623268E+03</pdfrwt>
<totfact> 0.69890200E+02</totfact>
</mgrwt>
</event>
<event>
 5    1  0.1125356E+001  0.2773968E+03  0.7818608E-02  0.1097119E+00
         -2   -1    0    0    0  501 -0.00000000000E+00  0.00000000000E+00  0.18597081675E+03  0.18597081675E+03  0.00000000000E+00 0. -1.
          2   -1    0    0  501    0  0.00000000000E+00 -0.00000000000E+00 -0.10344231226E+03  0.10344231226E+03  0.00000000000E+00 0. -1.
         35    2    1    2    0    0  0.00000000000E+00  0.00000000000E+00  0.82528504492E+02  0.28941312902E+03  0.27739683703E+03 0.  0.
         25    1    3    3    0    0  0.12131147797E+02  0.62070200555E+02  0.71455229730E+02  0.15331576696E+03  0.12000000000E+03 0.  0.
         25    1    3    3    0    0 -0.12131147797E+02 -0.62070200555E+02  0.11073274762E+02  0.13609736205E+03  0.12000000000E+03 0.  0.
<mgrwt>
<rscale>  0 0.27739684E+03</rscale>
<asrwt>0</asrwt>
<pdfrwt beam="1">  1        2 0.15914202E-01 0.27739684E+03</pdfrwt>
<pdfrwt beam="2">  1       -2 0.28610895E-01 0.27739684E+03</pdfrwt>
<totfact> 0.40280644E+03</totfact>
</mgrwt>
</event>
<event>
 5    1  0.1125356E+001  0.2720781E+03  0.7818608E-02  0.1100096E+00
          2   -1    0    0  501    0  0.00000000000E+00  0.00000000000E+00  0.46037425695E+03  0.46037425695E+03  0.00000000000E+00 0.  1.
         -2   -1    0    0    0  501 -0.00000000000E+00 -0.00000000000E+00 -0.40199097376E+02  0.40199097376E+02  0.00000000000E+00 0.  1.
         35    2    1    2    0    0  0.00000000000E+00  0.00000000000E+00  0.42017515958E+03  0.50057335433E+03  0.27207814748E+03 0.  0.
         25    1    3    3    0    0  0.17811441045E+02 -0.12010407371E+02  0.99008899271E+02  0.15704858946E+03  0.12000000000E+03 0.  0.
         25    1    3    3    0    0 -0.17811441045E+02  0.12010407371E+02  0.32116626031E+03  0.34352476487E+03  0.12000000000E+03 0.  0.
<mgrwt>
<rscale>  0 0.27207815E+03</rscale>
<asrwt>0</asrwt>
<pdfrwt beam="1">  1        2 0.70826805E-01 0.27207815E+03</pdfrwt>
<pdfrwt beam="2">  1       -2 0.61844768E-02 0.27207815E+03</pdfrwt>
<totfact> 0.95833258E+03</totfact>
</mgrwt>
</event>
<event>
 5    1  0.1125356E+001  0.2750037E+03  0.7818608E-02  0.1098450E+00
         -2   -1    0    0    0  501 -0.00000000000E+00  0.00000000000E+00  0.81573482445E+02  0.81573482445E+02  0.00000000000E+00 0.  1.
          2   -1    0    0  501    0  0.00000000000E+00 -0.00000000000E+00 -0.23177578454E+03  0.23177578454E+03  0.00000000000E+00 0.  1.
         35    2    1    2    0    0  0.00000000000E+00  0.00000000000E+00 -0.15020230209E+03  0.31334926698E+03  0.27500369373E+03 0.  0.
         25    1    3    3    0    0  0.45036370513E+02  0.18159356565E+02 -0.22283367890E+02  0.13135671047E+03  0.12000000000E+03 0.  0.
         25    1    3    3    0    0 -0.45036370513E+02 -0.18159356565E+02 -0.12791893420E+03  0.18199255652E+03  0.12000000000E+03 0.  0.
<mgrwt>
<rscale>  0 0.27500369E+03</rscale>
<asrwt>0</asrwt>
<pdfrwt beam="1">  1        2 0.35657812E-01 0.27500369E+03</pdfrwt>
<pdfrwt beam="2">  1       -2 0.12549767E-01 0.27500369E+03</pdfrwt>
<totfact> 0.66084613E+03</totfact>
</mgrwt>
</event>
<event>
 5    1  0.1125356E+001  0.2749658E+03  0.7818608E-02  0.1098471E+00
         -2   -1    0    0    0  501 -0.00000000000E+00  0.00000000000E+00  0.54379511756E+01  0.54379511756E+01  0.00000000000E+00 0.  1.
          2   -1    0    0  501    0  0.00000000000E+00 -0.00000000000E+00 -0.34758573173E+04  0.34758573173E+04  0.00000000000E+00 0.  1.
         35    2    1    2    0    0  0.00000000000E+00  0.00000000000E+00 -0.34704193661E+04  0.34812952684E+04  0.27496576066E+03 0.  0.
         25    1    3    3    0    0  0.15318878798E+02 -0.22540236223E+02 -0.25114345460E+04  0.25144474958E+04  0.12000000000E+03 0.  0.
         25    1    3    3    0    0 -0.15318878798E+02  0.22540236223E+02 -0.95898482010E+03  0.96684777265E+03  0.12000000000E+03 0.  0.
<mgrwt>
<rscale>  0 0.27496576E+03</rscale>
<asrwt>0</asrwt>
<pdfrwt beam="1">  1        2 0.53474659E+00 0.27496576E+03</pdfrwt>
<pdfrwt beam="2">  1       -2 0.83660895E-03 0.27496576E+03</pdfrwt>
<totfact> 0.29061838E+03</totfact>
</mgrwt>
</event>
<event>
 5    1  0.1125356E+001  0.2746925E+03  0.7818608E-02  0.1098624E+00
          3   -1    0    0  501    0  0.00000000000E+00  0.00000000000E+00  0.11412162972E+03  0.11412162972E+03  0.00000000000E+00 0. -1.
         -3   -1    0    0    0  501 -0.00000000000E+00 -0.00000000000E+00 -0.16529731308E+03  0.16529731308E+03  0.00000000000E+00 0. -1.
         35    2    1    2    0    0  0.00000000000E+00  0.00000000000E+00 -0.51175683352E+02  0.27941894280E+03  0.27469254637E+03 0.  0.
         25    1    3    3    0    0  0.57708223039E+02 -0.33628000599E+02 -0.27325248431E+02  0.14002767809E+03  0.12000000000E+03 0.  0.
         25    1    3    3    0    0 -0.57708223039E+02  0.33628000599E+02 -0.23850434921E+02  0.13939126471E+03  0.12000000000E+03 0.  0.
<mgrwt>
<rscale>  0 0.27469255E+03</rscale>
<asrwt>0</asrwt>
<pdfrwt beam="1">  1        3 0.17557174E-01 0.27469255E+03</pdfrwt>
<pdfrwt beam="2">  1       -3 0.25430356E-01 0.27469255E+03</pdfrwt>
<totfact> 0.10457146E+03</totfact>
</mgrwt>
</event>
<event>
 5    1  0.1125356E+001  0.2746649E+03  0.7818608E-02  0.1098639E+00
         -1   -1    0    0    0  501 -0.00000000000E+00  0.00000000000E+00  0.19484128486E+03  0.19484128486E+03  0.00000000000E+00 0. -1.
          1   -1    0    0  501    0  0.00000000000E+00 -0.00000000000E+00 -0.96797776546E+02  0.96797776546E+02  0.00000000000E+00 0. -1.
         35    2    1    2    0    0  0.00000000000E+00  0.00000000000E+00  0.98043508311E+02  0.29163906140E+03  0.27466490969E+03 0.  0.
         25    1    3    3    0    0  0.41684683187E+02 -0.38341492012E+01 -0.62315168439E+01  0.12724443137E+03  0.12000000000E+03 0.  0.
         25    1    3    3    0    0 -0.41684683187E+02  0.38341492012E+01  0.10427502516E+03  0.16439463003E+03  0.12000000000E+03 0.  0.
<mgrwt>
<rscale>  0 0.27466491E+03</rscale>
<asrwt>0</asrwt>
<pdfrwt beam="1">  1        1 0.14891966E-01 0.27466491E+03</pdfrwt>
<pdfrwt beam="2">  1       -1 0.29975582E-01 0.27466491E+03</pdfrwt>
<totfact> 0.38282475E+03</totfact>
</mgrwt>
</event>
<event>
 5    1  0.1125356E+001  0.2756238E+03  0.7818608E-02  0.1098103E+00
          2   -1    0    0  501    0  0.00000000000E+00  0.00000000000E+00  0.15755709740E+02  0.15755709740E+02  0.00000000000E+00 0.  1.
         -2   -1    0    0    0  501 -0.00000000000E+00 -0.00000000000E+00 -0.12054115784E+04  0.12054115784E+04  0.00000000000E+00 0.  1.
         35    2    1    2    0    0  0.00000000000E+00  0.00000000000E+00 -0.11896558686E+04  0.12211672881E+04  0.27562376491E+03 0.  0.
         25    1    3    3    0    0 -0.61944841850E+02 -0.23023058106E+02 -0.52838575443E+03  0.54585596097E+03  0.12000000000E+03 0.  0.
         25    1    3    3    0    0  0.61944841850E+02  0.23023058106E+02 -0.66127011420E+03  0.67531132715E+03  0.12000000000E+03 0.  0.
<mgrwt>
<rscale>  0 0.27562376E+03</rscale>
<asrwt>0</asrwt>
<pdfrwt beam="1">  1        2 0.24239563E-02 0.27562376E+03</pdfrwt>
<pdfrwt beam="2">  1       -2 0.18544787E+00 0.27562376E+03</pdfrwt>
<totfact> 0.75181827E+02</totfact>
</mgrwt>
</event>
<event>
 5    1  0.1125356E+001  0.2752246E+03  0.7818608E-02  0.1098326E+00
          2   -1    0    0  501    0  0.00000000000E+00  0.00000000000E+00  0.33437762591E+03  0.33437762591E+03  0.00000000000E+00 0. -1.
         -2   -1    0    0    0  501 -0.00000000000E+00 -0.00000000000E+00 -0.56634025511E+02  0.56634025511E+02  0.00000000000E+00 0. -1.
         35    2    1    2    0    0  0.00000000000E+00  0.00000000000E+00  0.27774360040E+03  0.39101165142E+03  0.27522464276E+03 0.  0.
         25    1    3    3    0    0  0.41412882007E+02  0.53110631469E+02  0.14054378070E+03  0.19669346777E+03  0.12000000000E+03 0.  0.
         25    1    3    3    0    0 -0.41412882007E+02 -0.53110631469E+02  0.13719981971E+03  0.19431818365E+03  0.12000000000E+03 0.  0.
<mgrwt>
<rscale>  0 0.27522464E+03</rscale>
<asrwt>0</asrwt>
<pdfrwt beam="1">  1        2 0.51442710E-01 0.27522464E+03</pdfrwt>
<pdfrwt beam="2">  1       -2 0.87129272E-02 0.27522464E+03</pdfrwt>
<totfact> 0.79698568E+03</totfact>
</mgrwt>
</event>
<event>
 5    1  0.1125356E+001  0.2744572E+03  0.7818608E-02  0.1098755E+00
         -2   -1    0    0    0  501 -0.00000000000E+00  0.00000000000E+00  0.66567486784E+02  0.66567486784E+02  0.00000000000E+00 0. -1.
          2   -1    0    0  501    0  0.00000000000E+00 -0.00000000000E+00 -0.28289621293E+03  0.28289621293E+03  0.00000000000E+00 0. -1.
         35    2    1    2    0    0  0.00000000000E+00  0.00000000000E+00 -0.21632872615E+03  0.34946369971E+03  0.27445720916E+03 0.  0.
         25    1    3    3    0    0 -0.18868048774E+02 -0.62187299632E+02 -0.89781895550E+02  0.16335253983E+03  0.12000000000E+03 0.  0.
         25    1    3    3    0    0  0.18868048774E+02  0.62187299632E+02 -0.12654683060E+03  0.18611115989E+03  0.12000000000E+03 0.  0.
<mgrwt>
<rscale>  0 0.27445721E+03</rscale>
<asrwt>0</asrwt>
<pdfrwt beam="1">  1        2 0.43522494E-01 0.27445721E+03</pdfrwt>
<pdfrwt beam="2">  1       -2 0.10241152E-01 0.27445721E+03</pdfrwt>
<totfact> 0.73871783E+03</totfact>
</mgrwt>
</event>
<event>
 5    1  0.1125356E+001  0.2765270E+03  0.7818608E-02  0.1097601E+00
         -2   -1    0    0    0  501 -0.00000000000E+00  0.00000000000E+00  0.16609037693E+02  0.16609037693E+02  0.00000000000E+00 0.  1.
          2   -1    0    0  501    0  0.00000000000E+00 -0.00000000000E+00 -0.11509871668E+04  0.11509871668E+04  0.00000000000E+00 0.  1.
         35    2    1    2    0    0  0.00000000000E+00  0.00000000000E+00 -0.11343781291E+04  0.11675962045E+04  0.27652695520E+03 0.  0.
         25    1    3    3    0    0 -0.56231543495E+02  0.22962303212E+02 -0.70253761100E+03  0.71529598679E+03  0.12000000000E+03 0.  0.
         25    1    3    3    0    0  0.56231543495E+02 -0.22962303212E+02 -0.43184051811E+03  0.45230021770E+03  0.12000000000E+03 0.  0.
<mgrwt>
<rscale>  0 0.27652696E+03</rscale>
<asrwt>0</asrwt>
<pdfrwt beam="1">  1        2 0.17707497E+00 0.27652696E+03</pdfrwt>
<pdfrwt beam="2">  1       -2 0.25552363E-02 0.27652696E+03</pdfrwt>
<totfact> 0.11456552E+04</totfact>
</mgrwt>
</event>
<event>
 5    1  0.1125356E+001  0.2762604E+03  0.7818608E-02  0.1097749E+00
          2   -1    0    0  501    0  0.00000000000E+00  0.00000000000E+00  0.66668681322E+03  0.66668681322E+03  0.00000000000E+00 0.  1.
         -2   -1    0    0    0  501 -0.00000000000E+00 -0.00000000000E+00 -0.28619063965E+02  0.28619063965E+02  0.00000000000E+00 0.  1.
         35    2    1    2    0    0  0.00000000000E+00  0.00000000000E+00  0.63806774926E+03  0.69530587719E+03  0.27626040290E+03 0.  0.
         25    1    3    3    0    0 -0.50513341438E+02  0.43901619683E+02  0.35471661350E+03  0.38039824627E+03  0.12000000000E+03 0.  0.
         25    1    3    3    0    0  0.50513341438E+02 -0.43901619683E+02  0.28335113576E+03  0.31490763092E+03  0.12000000000E+03 0.  0.
<mgrwt>
<rscale>  0 0.27626040E+03</rscale>
<asrwt>0</asrwt>
<pdfrwt beam="1">  1        2 0.10256719E+00 0.27626040E+03</pdfrwt>
<pdfrwt beam="2">  1       -2 0.44029334E-02 0.27626040E+03</pdfrwt>
<totfact> 0.10534258E+04</totfact>
</mgrwt>
</event>
<event>
 5    1  0.1125356E+001  0.2746910E+03  0.7818608E-02  0.1098624E+00
          2   -1    0    0  501    0  0.00000000000E+00  0.00000000000E+00  0.99475780799E+03  0.99475780799E+03  0.00000000000E+00 0.  1.
         -2   -1    0    0    0  501 -0.00000000000E+00 -0.00000000000E+00 -0.18963190890E+02  0.18963190890E+02  0.00000000000E+00 0.  1.
         35    2    1    2    0    0  0.00000000000E+00  0.00000000000E+00  0.97579461710E+03  0.10137209989E+04  0.27469096966E+03 0.  0.
         25    1    3    3    0    0 -0.28783799609E+02 -0.10491143671E+02  0.70700953808E+03  0.71777507491E+03  0.12000000000E+03 0.  0.
         25    1    3    3    0    0  0.28783799609E+02  0.10491143671E+02  0.26878507902E+03  0.29594592398E+03  0.12000000000E+03 0.  0.
<mgrwt>
<rscale>  0 0.27469097E+03</rscale>
<asrwt>0</asrwt>
<pdfrwt beam="1">  1        2 0.15303962E+00 0.27469097E+03</pdfrwt>
<pdfrwt beam="2">  1       -2 0.29174147E-02 0.27469097E+03</pdfrwt>
<totfact> 0.11651675E+04</totfact>
</mgrwt>
</event>
<event>
 5    1  0.1125356E+001  0.2773131E+03  0.7818608E-02  0.1097166E+00
         -1   -1    0    0    0  501 -0.00000000000E+00  0.00000000000E+00  0.65426732988E+02  0.65426732988E+02  0.00000000000E+00 0. -1.
          1   -1    0    0  501    0  0.00000000000E+00 -0.00000000000E+00 -0.29384980324E+03  0.29384980324E+03  0.00000000000E+00 0. -1.
         35    2    1    2    0    0  0.00000000000E+00  0.00000000000E+00 -0.22842307025E+03  0.35927653622E+03  0.27731305497E+03 0.  0.
         25    1    3    3    0    0  0.50419532974E+01  0.42988966338E+02 -0.18460437600E+03  0.22439306620E+03  0.12000000000E+03 0.  0.
         25    1    3    3    0    0 -0.50419532974E+01 -0.42988966338E+02 -0.43818694245E+02  0.13488347002E+03  0.12000000000E+03 0.  0.
<mgrwt>
<rscale>  0 0.27731305E+03</rscale>
<asrwt>0</asrwt>
<pdfrwt beam="1">  1        1 0.45207661E-01 0.27731305E+03</pdfrwt>
<pdfrwt beam="2">  1       -1 0.10065651E-01 0.27731305E+03</pdfrwt>
<totfact> 0.53941155E+03</totfact>
</mgrwt>
</event>
<event>
 5    1  0.1125356E+001  0.2741927E+03  0.7818608E-02  0.1098904E+00
          2   -1    0    0  501    0  0.00000000000E+00  0.00000000000E+00  0.29817952937E+04  0.29817952937E+04  0.00000000000E+00 0. -1.
         -2   -1    0    0    0  501 -0.00000000000E+00 -0.00000000000E+00 -0.63033865109E+01  0.63033865109E+01  0.00000000000E+00 0. -1.
         35    2    1    2    0    0  0.00000000000E+00  0.00000000000E+00  0.29754919072E+04  0.29880986803E+04  0.27419269307E+03 0.  0.
         25    1    3    3    0    0 -0.58931793691E+02  0.28559606237E+02  0.16003687601E+04  0.16061969915E+04  0.12000000000E+03 0.  0.
         25    1    3    3    0    0  0.58931793691E+02 -0.28559606237E+02  0.13751231472E+04  0.13819016887E+04  0.12000000000E+03 0.  0.
<mgrwt>
<rscale>  0 0.27419269E+03</rscale>
<asrwt>0</asrwt>
<pdfrwt beam="1">  1        2 0.45873661E+00 0.27419269E+03</pdfrwt>
<pdfrwt beam="2">  1       -2 0.96975415E-03 0.27419269E+03</pdfrwt>
<totfact> 0.47622271E+03</totfact>
</mgrwt>
</event>
<event>
 5    1  0.1125356E+001  0.2743447E+03  0.7818608E-02  0.1098818E+00
          1   -1    0    0  501    0  0.00000000000E+00  0.00000000000E+00  0.14270491071E+03  0.14270491071E+03  0.00000000000E+00 0. -1.
         -1   -1    0    0    0  501 -0.00000000000E+00 -0.00000000000E+00 -0.13185430675E+03  0.13185430675E+03  0.00000000000E+00 0. -1.
         35    2    1    2    0    0  0.00000000000E+00  0.00000000000E+00  0.10850603960E+02  0.27455921746E+03  0.27434472528E+03 0.  0.
         25    1    3    3    0    0  0.14581955148E+02  0.11997884807E+02  0.69190691380E+02  0.13979962242E+03  0.12000000000E+03 0.  0.
         25    1    3    3    0    0 -0.14581955148E+02 -0.11997884807E+02 -0.58340087419E+02  0.13475959504E+03  0.12000000000E+03 0.  0.
<mgrwt>
<rscale>  0 0.27434473E+03</rscale>
<asrwt>0</asrwt>
<pdfrwt beam="1">  1        1 0.21954601E-01 0.27434473E+03</pdfrwt>
<pdfrwt beam="2">  1       -1 0.20285278E-01 0.27434473E+03</pdfrwt>
<totfact> 0.44281297E+03</totfact>
</mgrwt>
</event>
<event>
 5    1  0.1125356E+001  0.2749766E+03  0.7818608E-02  0.1098465E+00
         -1   -1    0    0    0  501 -0.00000000000E+00  0.00000000000E+00  0.67291688497E+03  0.67291688497E+03  0.00000000000E+00 0.  1.
          1   -1    0    0  501    0  0.00000000000E+00 -0.00000000000E+00 -0.28091190328E+02  0.28091190328E+02  0.00000000000E+00 0.  1.
         35    2    1    2    0    0  0.00000000000E+00  0.00000000000E+00  0.64482569464E+03  0.70100807529E+03  0.27497662658E+03 0.  0.
         25    1    3    3    0    0  0.71504736626E+00 -0.54742670560E+02  0.42133779809E+03  0.44150063576E+03  0.12000000000E+03 0.  0.
         25    1    3    3    0    0 -0.71504736626E+00  0.54742670560E+02  0.22348789655E+03  0.25950743954E+03  0.12000000000E+03 0.  0.
<mgrwt>
<rscale>  0 0.27497663E+03</rscale>
<asrwt>0</asrwt>
<pdfrwt beam="1">  1        1 0.43217221E-02 0.27497663E+03</pdfrwt>
<pdfrwt beam="2">  1       -1 0.10352566E+00 0.27497663E+03</pdfrwt>
<totfact> 0.19002098E+03</totfact>
</mgrwt>
</event>
<event>
 5    1  0.1125356E+001  0.2830635E+03  0.7818608E-02  0.1094027E+00
          1   -1    0    0  501    0  0.00000000000E+00  0.00000000000E+00  0.38012596043E+02  0.38012596043E+02  0.00000000000E+00 0.  1.
         -1   -1    0    0    0  501 -0.00000000000E+00 -0.00000000000E+00 -0.52696302016E+03  0.52696302016E+03  0.00000000000E+00 0.  1.
         35    2    1    2    0    0  0.00000000000E+00  0.00000000000E+00 -0.48895042411E+03  0.56497561620E+03  0.28306347285E+03 0.  0.
         25    1    3    3    0    0  0.57093821050E+02  0.26986416209E+02 -0.16356577219E+03  0.21246583936E+03  0.12000000000E+03 0.  0.
         25    1    3    3    0    0 -0.57093821050E+02 -0.26986416209E+02 -0.32538465192E+03  0.35250977684E+03  0.12000000000E+03 0.  0.
<mgrwt>
<rscale>  0 0.28306347E+03</rscale>
<asrwt>0</asrwt>
<pdfrwt beam="1">  1        1 0.58480918E-02 0.28306347E+03</pdfrwt>
<pdfrwt beam="2">  1       -1 0.81071233E-01 0.28306347E+03</pdfrwt>
<totfact> 0.21225548E+03</totfact>
</mgrwt>
</event>
<event>
 5    1  0.1125356E+001  0.2756224E+03  0.7818608E-02  0.1098104E+00
         -2   -1    0    0    0  501 -0.00000000000E+00  0.00000000000E+00  0.11222669527E+02  0.11222669527E+02  0.00000000000E+00 0. -1.
          2   -1    0    0  501    0  0.00000000000E+00 -0.00000000000E+00 -0.16922823296E+04  0.16922823296E+04  0.00000000000E+00 0. -1.
         35    2    1    2    0    0  0.00000000000E+00  0.00000000000E+00 -0.16810596601E+04  0.17035049991E+04  0.27562238902E+03 0.  0.
         25    1    3    3    0    0 -0.32815196094E+02  0.35622744282E+02 -0.11334466217E+04  0.11408098269E+04  0.12000000000E+03 0.  0.
         25    1    3    3    0    0  0.32815196094E+02 -0.35622744282E+02 -0.54761303840E+03  0.56269517221E+03  0.12000000000E+03 0.  0.
<mgrwt>
<rscale>  0 0.27562239E+03</rscale>
<asrwt>0</asrwt>
<pdfrwt beam="1">  1        2 0.26035097E+00 0.27562239E+03</pdfrwt>
<pdfrwt beam="2">  1       -2 0.17265656E-02 0.27562239E+03</pdfrwt>
<totfact> 0.10351168E+04</totfact>
</mgrwt>
</event>
<event>
 5    1  0.1125356E+001  0.2771760E+03  0.7818608E-02  0.1097241E+00
          2   -1    0    0  501    0  0.00000000000E+00  0.00000000000E+00  0.14981169779E+03  0.14981169779E+03  0.00000000000E+00 0.  1.
         -2   -1    0    0    0  501 -0.00000000000E+00 -0.00000000000E+00 -0.12820512172E+03  0.12820512172E+03  0.00000000000E+00 0.  1.
         35    2    1    2    0    0  0.00000000000E+00  0.00000000000E+00  0.21606576063E+02  0.27801681951E+03  0.27717595098E+03 0.  0.
         25    1    3    3    0    0 -0.99822210981E+01  0.59307480005E+02  0.45398573607E+02  0.14169704446E+03  0.12000000000E+03 0.  0.
         25    1    3    3    0    0  0.99822210981E+01 -0.59307480005E+02 -0.23791997544E+02  0.13631977505E+03  0.12000000000E+03 0.  0.
<mgrwt>
<rscale>  0 0.27717595E+03</rscale>
<asrwt>0</asrwt>
<pdfrwt beam="1">  1        2 0.23047954E-01 0.27717595E+03</pdfrwt>
<pdfrwt beam="2">  1       -2 0.19723865E-01 0.27717595E+03</pdfrwt>
<totfact> 0.50464395E+03</totfact>
</mgrwt>
</event>
<event>
 5    1  0.1125356E+001  0.2734302E+03  0.7818608E-02  0.1099332E+00
          3   -1    0    0  501    0  0.00000000000E+00  0.00000000000E+00  0.44122544262E+02  0.44122544262E+02  0.00000000000E+00 0. -1.
         -3   -1    0    0    0  501 -0.00000000000E+00 -0.00000000000E+00 -0.42361600156E+03  0.42361600156E+03  0.00000000000E+00 0. -1.
         35    2    1    2    0    0  0.00000000000E+00  0.00000000000E+00 -0.37949345730E+03  0.46773854582E+03  0.27343017960E+03 0.  0.
         25    1    3    3    0    0 -0.35233064083E+02 -0.52261308303E+02 -0.15922247628E+03  0.20910382613E+03  0.12000000000E+03 0.  0.
         25    1    3    3    0    0  0.35233064083E+02  0.52261308303E+02 -0.22027098102E+03  0.25863471969E+03  0.12000000000E+03 0.  0.
<mgrwt>
<rscale>  0 0.27343018E+03</rscale>
<asrwt>0</asrwt>
<pdfrwt beam="1">  1        3 0.67880836E-02 0.27343018E+03</pdfrwt>
<pdfrwt beam="2">  1       -3 0.65171694E-01 0.27343018E+03</pdfrwt>
<totfact> 0.81997703E+02</totfact>
</mgrwt>
</event>
<event>
 5    1  0.1125356E+001  0.2747188E+03  0.7818608E-02  0.1098609E+00
         -1   -1    0    0    0  501 -0.00000000000E+00  0.00000000000E+00  0.32088950224E+02  0.32088950224E+02  0.00000000000E+00 0. -1.
          1   -1    0    0  501    0  0.00000000000E+00 -0.00000000000E+00 -0.58797828439E+03  0.58797828439E+03  0.00000000000E+00 0. -1.
         35    2    1    2    0    0  0.00000000000E+00  0.00000000000E+00 -0.55588933417E+03  0.62006723462E+03  0.27471880824E+03 0.  0.
         25    1    3    3    0    0  0.17446866214E+02 -0.53982672052E+02 -0.35771587912E+03  0.38154838776E+03  0.12000000000E+03 0.  0.
         25    1    3    3    0    0 -0.17446866214E+02  0.53982672052E+02 -0.19817345505E+03  0.23851884686E+03  0.12000000000E+03 0.  0.
<mgrwt>
<rscale>  0 0.27471881E+03</rscale>
<asrwt>0</asrwt>
<pdfrwt beam="1">  1        1 0.90458195E-01 0.27471881E+03</pdfrwt>
<pdfrwt beam="2">  1       -1 0.49367617E-02 0.27471881E+03</pdfrwt>
<totfact> 0.64658765E+03</totfact>
</mgrwt>
</event>
<event>
 5    1  0.1125356E+001  0.2756464E+03  0.7818608E-02  0.1098091E+00
          2   -1    0    0  501    0  0.00000000000E+00  0.00000000000E+00  0.59357551626E+03  0.59357551626E+03  0.00000000000E+00 0. -1.
         -2   -1    0    0    0  501 -0.00000000000E+00 -0.00000000000E+00 -0.32001384548E+02  0.32001384548E+02  0.00000000000E+00 0. -1.
         35    2    1    2    0    0  0.00000000000E+00  0.00000000000E+00  0.56157413171E+03  0.62557690080E+03  0.27564642827E+03 0.  0.
         25    1    3    3    0    0  0.49772307229E+02  0.21002801498E+02  0.18785322135E+03  0.22936266699E+03  0.12000000000E+03 0.  0.
         25    1    3    3    0    0 -0.49772307229E+02 -0.21002801498E+02  0.37372091035E+03  0.39621423381E+03  0.12000000000E+03 0.  0.
<mgrwt>
<rscale>  0 0.27564643E+03</rscale>
<asrwt>0</asrwt>
<pdfrwt beam="1">  1        2 0.91319303E-01 0.27564643E+03</pdfrwt>
<pdfrwt beam="2">  1       -2 0.49232903E-02 0.27564643E+03</pdfrwt>
<totfact> 0.10196027E+04</totfact>
</mgrwt>
</event>
<event>
 5    1  0.1125356E+001  0.2751394E+03  0.7818608E-02  0.1098374E+00
          1   -1    0    0  501    0  0.00000000000E+00  0.00000000000E+00  0.10826125774E+03  0.10826125774E+03  0.00000000000E+00 0. -1.
         -1   -1    0    0    0  501 -0.00000000000E+00 -0.00000000000E+00 -0.17481251560E+03  0.17481251560E+03  0.00000000000E+00 0. -1.
         35    2    1    2    0    0  0.00000000000E+00  0.00000000000E+00 -0.66551257863E+02  0.28307377335E+03  0.27513940327E+03 0.  0.
         25    1    3    3    0    0 -0.74579575050E+01 -0.59983604134E+02 -0.63652814353E+02  0.14867862883E+03  0.12000000000E+03 0.  0.
         25    1    3    3    0    0  0.74579575050E+01  0.59983604134E+02 -0.28984435102E+01  0.13439514452E+03  0.12000000000E+03 0.  0.
<mgrwt>
<rscale>  0 0.27513940E+03</rscale>
<asrwt>0</asrwt>
<pdfrwt beam="1">  1        1 0.16655578E-01 0.27513940E+03</pdfrwt>
<pdfrwt beam="2">  1       -1 0.26894233E-01 0.27513940E+03</pdfrwt>
<totfact> 0.39720515E+03</totfact>
</mgrwt>
</event>
<event>
 5    1  0.1125356E+001  0.2748477E+03  0.7818608E-02  0.1098537E+00
         -2   -1    0    0    0  501 -0.00000000000E+00  0.00000000000E+00  0.27252825941E+02  0.27252825941E+02  0.00000000000E+00 0. -1.
          2   -1    0    0  501    0  0.00000000000E+00 -0.00000000000E+00 -0.69296744274E+03  0.69296744274E+03  0.00000000000E+00 0. -1.
         35    2    1    2    0    0  0.00000000000E+00  0.00000000000E+00 -0.66571461680E+03  0.72022026868E+03  0.27484774767E+03 0.  0.
         25    1    3    3    0    0  0.61317130082E+02  0.25367760175E+02 -0.30912720213E+03  0.33817590215E+03  0.12000000000E+03 0.  0.
         25    1    3    3    0    0 -0.61317130082E+02 -0.25367760175E+02 -0.35658741467E+03  0.38204436653E+03  0.12000000000E+03 0.  0.
<mgrwt>
<rscale>  0 0.27484775E+03</rscale>
<asrwt>0</asrwt>
<pdfrwt beam="1">  1        2 0.10661038E+00 0.27484775E+03</pdfrwt>
<pdfrwt beam="2">  1       -2 0.41927423E-02 0.27484775E+03</pdfrwt>
<totfact> 0.10824032E+04</totfact>
</mgrwt>
</event>
<event>
 5    1  0.1125356E+001  0.2750464E+03  0.7818608E-02  0.1098426E+00
          2   -1    0    0  501    0  0.00000000000E+00  0.00000000000E+00  0.52069154999E+03  0.52069154999E+03  0.00000000000E+00 0.  1.
         -2   -1    0    0    0  501 -0.00000000000E+00 -0.00000000000E+00 -0.36322138809E+02  0.36322138809E+02  0.00000000000E+00 0.  1.
         35    2    1    2    0    0  0.00000000000E+00  0.00000000000E+00  0.48436941118E+03  0.55701368880E+03  0.27504640158E+03 0.  0.
         25    1    3    3    0    0 -0.64050453545E+02 -0.95410381564E+01  0.27836313162E+03  0.30996697413E+03  0.12000000000E+03 0.  0.
         25    1    3    3    0    0  0.64050453545E+02  0.95410381564E+01  0.20600627956E+03  0.24704671467E+03  0.12000000000E+03 0.  0.
<mgrwt>
<rscale>  0 0.27504640E+03</rscale>
<asrwt>0</asrwt>
<pdfrwt beam="1">  1        2 0.80106387E-01 0.27504640E+03</pdfrwt>
<pdfrwt beam="2">  1       -2 0.55880217E-02 0.27504640E+03</pdfrwt>
<totfact> 0.97627081E+03</totfact>
</mgrwt>
</event>
<event>
 5    1  0.1125356E+001  0.2751743E+03  0.7818608E-02  0.1098354E+00
         -2   -1    0    0    0  501 -0.00000000000E+00  0.00000000000E+00  0.60834502623E+02  0.60834502623E+02  0.00000000000E+00 0.  1.
          2   -1    0    0  501    0  0.00000000000E+00 -0.00000000000E+00 -0.31117573235E+03  0.31117573235E+03  0.00000000000E+00 0.  1.
         35    2    1    2    0    0  0.00000000000E+00  0.00000000000E+00 -0.25034122972E+03  0.37201023497E+03  0.27517427864E+03 0.  0.
         25    1    3    3    0    0  0.21079681541E+02 -0.20177880607E+02 -0.20716714631E+03  0.24118400932E+03  0.12000000000E+03 0.  0.
         25    1    3    3    0    0 -0.21079681541E+02  0.20177880607E+02 -0.43174083409E+02  0.13082622565E+03  0.12000000000E+03 0.  0.
<mgrwt>
<rscale>  0 0.27517428E+03</rscale>
<asrwt>0</asrwt>
<pdfrwt beam="1">  1        2 0.47873191E-01 0.27517428E+03</pdfrwt>
<pdfrwt beam="2">  1       -2 0.93591540E-02 0.27517428E+03</pdfrwt>
<totfact> 0.76927423E+03</totfact>
</mgrwt>
</event>
<event>
 5    1  0.1125356E+001  0.2748561E+03  0.7818608E-02  0.1098532E+00
         -2   -1    0    0    0  501 -0.00000000000E+00  0.00000000000E+00  0.63007915923E+03  0.63007915923E+03  0.00000000000E+00 0. -1.
          2   -1    0    0  501    0  0.00000000000E+00 -0.00000000000E+00 -0.29974745918E+02  0.29974745918E+02  0.00000000000E+00 0. -1.
         35    2    1    2    0    0  0.00000000000E+00  0.00000000000E+00  0.60010441331E+03  0.66005390515E+03  0.27485605474E+03 0.  0.
         25    1    3    3    0    0  0.54540104479E+02 -0.32891031251E+02  0.34985094147E+03  0.37530271007E+03  0.12000000000E+03 0.  0.
         25    1    3    3    0    0 -0.54540104479E+02  0.32891031251E+02  0.25025347184E+03  0.28475119508E+03  0.12000000000E+03 0.  0.
<mgrwt>
<rscale>  0 0.27485605E+03</rscale>
<asrwt>0</asrwt>
<pdfrwt beam="1">  1        2 0.46114998E-02 0.27485605E+03</pdfrwt>
<pdfrwt beam="2">  1       -2 0.96935245E-01 0.27485605E+03</pdfrwt>
<totfact> 0.16128435E+03</totfact>
</mgrwt>
</event>
<event>
 5    1  0.1125356E+001  0.2751357E+03  0.7818608E-02  0.1098376E+00
          1   -1    0    0  501    0  0.00000000000E+00  0.00000000000E+00  0.95649222264E+02  0.95649222264E+02  0.00000000000E+00 0. -1.
         -1   -1    0    0    0  501 -0.00000000000E+00 -0.00000000000E+00 -0.19785744997E+03  0.19785744997E+03  0.00000000000E+00 0. -1.
         35    2    1    2    0    0  0.00000000000E+00  0.00000000000E+00 -0.10220822771E+03  0.29350667224E+03  0.27513568441E+03 0.  0.
         25    1    3    3    0    0 -0.11740165905E+02 -0.26869019961E+02  0.13478567752E+02  0.12426362106E+03  0.12000000000E+03 0.  0.
         25    1    3    3    0    0  0.11740165905E+02  0.26869019961E+02 -0.11568679546E+03  0.16924305118E+03  0.12000000000E+03 0.  0.
<mgrwt>
<rscale>  0 0.27513568E+03</rscale>
<asrwt>0</asrwt>
<pdfrwt beam="1">  1        1 0.14715265E-01 0.27513568E+03</pdfrwt>
<pdfrwt beam="2">  1       -1 0.30439608E-01 0.27513568E+03</pdfrwt>
<totfact> 0.37885238E+03</totfact>
</mgrwt>
</event>
<event>
 5    1  0.1125356E+001  0.2631812E+03  0.7818608E-02  0.1105247E+00
         -2   -1    0    0    0  501 -0.00000000000E+00  0.00000000000E+00  0.33343941604E+02  0.33343941604E+02  0.00000000000E+00 0.  1.
          2   -1    0    0  501    0  0.00000000000E+00 -0.00000000000E+00 -0.51931716121E+03  0.51931716121E+03  0.00000000000E+00 0.  1.
         35    2    1    2    0    0  0.00000000000E+00  0.00000000000E+00 -0.48597321960E+03  0.55266110281E+03  0.26318116268E+03 0.  0.
         25    1    3    3    0    0  0.10477480783E+02  0.44766834634E+02 -0.30246437376E+03  0.32863131999E+03  0.12000000000E+03 0.  0.
         25    1    3    3    0    0 -0.10477480783E+02 -0.44766834634E+02 -0.18350884584E+03  0.22402978282E+03  0.12000000000E+03 0.  0.
<mgrwt>
<rscale>  0 0.26318116E+03</rscale>
<asrwt>0</asrwt>
<pdfrwt beam="1">  1        2 0.79894947E-01 0.26318116E+03</pdfrwt>
<pdfrwt beam="2">  1       -2 0.51298372E-02 0.26318116E+03</pdfrwt>
<totfact> 0.11135794E+04</totfact>
</mgrwt>
</event>
<event>
 5    1  0.1125356E+001  0.2750553E+03  0.7818608E-02  0.1098421E+00
          1   -1    0    0  501    0  0.00000000000E+00  0.00000000000E+00  0.21902027571E+03  0.21902027571E+03  0.00000000000E+00 0.  1.
         -1   -1    0    0    0  501 -0.00000000000E+00 -0.00000000000E+00 -0.86356656785E+02  0.86356656785E+02  0.00000000000E+00 0.  1.
         35    2    1    2    0    0  0.00000000000E+00  0.00000000000E+00  0.13266361893E+03  0.30537693250E+03  0.27505533101E+03 0.  0.
         25    1    3    3    0    0  0.40066373476E+02 -0.53207303653E+02  0.76107413103E+02  0.15693524070E+03  0.12000000000E+03 0.  0.
         25    1    3    3    0    0 -0.40066373476E+02  0.53207303653E+02  0.56556205827E+02  0.14844169180E+03  0.12000000000E+03 0.  0.
<mgrwt>
<rscale>  0 0.27505533E+03</rscale>
<asrwt>0</asrwt>
<pdfrwt beam="1">  1        1 0.33695427E-01 0.27505533E+03</pdfrwt>
<pdfrwt beam="2">  1       -1 0.13285640E-01 0.27505533E+03</pdfrwt>
<totfact> 0.50603441E+03</totfact>
</mgrwt>
</event>
<event>
 5    1  0.1125356E+001  0.2768864E+03  0.7818608E-02  0.1097402E+00
         -4   -1    0    0    0  501 -0.00000000000E+00  0.00000000000E+00  0.60518620148E+02  0.60518620148E+02  0.00000000000E+00 0.  1.
          4   -1    0    0  501    0  0.00000000000E+00 -0.00000000000E+00 -0.31670444908E+03  0.31670444908E+03  0.00000000000E+00 0.  1.
         35    2    1    2    0    0  0.00000000000E+00  0.00000000000E+00 -0.25618582893E+03  0.37722306923E+03  0.27688637564E+03 0.  0.
         25    1    3    3    0    0 -0.16038477022E+02  0.46152444180E+02 -0.61639796208E+02  0.14348081867E+03  0.12000000000E+03 0.  0.
         25    1    3    3    0    0  0.16038477022E+02 -0.46152444180E+02 -0.19454603273E+03  0.23374225056E+03  0.12000000000E+03 0.  0.
<mgrwt>
<rscale>  0 0.27688638E+03</rscale>
<asrwt>0</asrwt>
<pdfrwt beam="1">  1        4 0.48723762E-01 0.27688638E+03</pdfrwt>
<pdfrwt beam="2">  1       -4 0.93105568E-02 0.27688638E+03</pdfrwt>
<totfact> 0.65698071E+02</totfact>
</mgrwt>
</event>
<event>
 5    1  0.1125356E+001  0.2748943E+03  0.7818608E-02  0.1098511E+00
         -3   -1    0    0    0  501 -0.00000000000E+00  0.00000000000E+00  0.11451254009E+03  0.11451254009E+03  0.00000000000E+00 0.  1.
          3   -1    0    0  501    0  0.00000000000E+00 -0.00000000000E+00 -0.16497510149E+03  0.16497510149E+03  0.00000000000E+00 0.  1.
         35    2    1    2    0    0  0.00000000000E+00  0.00000000000E+00 -0.50462561401E+02  0.27948764158E+03  0.27489429185E+03 0.  0.
         25    1    3    3    0    0 -0.45490081066E+02  0.46754198267E+02 -0.95985530627E+01  0.13692127209E+03  0.12000000000E+03 0.  0.
         25    1    3    3    0    0  0.45490081066E+02 -0.46754198267E+02 -0.40864008338E+02  0.14256636949E+03  0.12000000000E+03 0.  0.
<mgrwt>
<rscale>  0 0.27489429E+03</rscale>
<asrwt>0</asrwt>
<pdfrwt beam="1">  1        3 0.25380785E-01 0.27489429E+03</pdfrwt>
<pdfrwt beam="2">  1       -3 0.17617314E-01 0.27489429E+03</pdfrwt>
<totfact> 0.10433334E+03</totfact>
</mgrwt>
</event>
<event>
 5    1  0.1125356E+001  0.2746605E+03  0.7818608E-02  0.1098642E+00
          3   -1    0    0  501    0  0.00000000000E+00  0.00000000000E+00  0.65406605492E+02  0.65406605492E+02  0.00000000000E+00 0. -1.
         -3   -1    0    0    0  501 -0.00000000000E+00 -0.00000000000E+00 -0.28834393156E+03  0.28834393156E+03  0.00000000000E+00 0. -1.
         35    2    1    2    0    0  0.00000000000E+00  0.00000000000E+00 -0.22293732607E+03  0.35375053705E+03  0.27466050155E+03 0.  0.
         25    1    3    3    0    0 -0.38449010535E+02  0.54493445105E+02 -0.10705644074E+03  0.17409463942E+03  0.12000000000E+03 0.  0.
         25    1    3    3    0    0  0.38449010535E+02 -0.54493445105E+02 -0.11588088533E+03  0.17965589764E+03  0.12000000000E+03 0.  0.
<mgrwt>
<rscale>  0 0.27466050E+03</rscale>
<asrwt>0</asrwt>
<pdfrwt beam="1">  1        3 0.10062555E-01 0.27466050E+03</pdfrwt>
<pdfrwt beam="2">  1       -3 0.44360604E-01 0.27466050E+03</pdfrwt>
<totfact> 0.94130758E+02</totfact>
</mgrwt>
</event>
<event>
 5    1  0.1125356E+001  0.2740344E+03  0.7818608E-02  0.1098993E+00
         -2   -1    0    0    0  501 -0.00000000000E+00  0.00000000000E+00  0.56684898268E+02  0.56684898268E+02  0.00000000000E+00 0.  1.
          2   -1    0    0  501    0  0.00000000000E+00 -0.00000000000E+00 -0.33119415925E+03  0.33119415925E+03  0.00000000000E+00 0.  1.
         35    2    1    2    0    0  0.00000000000E+00  0.00000000000E+00 -0.27450926098E+03  0.38787905752E+03  0.27403435714E+03 0.  0.
         25    1    3    3    0    0 -0.27306304825E+02 -0.56340450177E+02 -0.16740803101E+03  0.21527965407E+03  0.12000000000E+03 0.  0.
         25    1    3    3    0    0  0.27306304825E+02  0.56340450177E+02 -0.10710122997E+03  0.17259940345E+03  0.12000000000E+03 0.  0.
<mgrwt>
<rscale>  0 0.27403436E+03</rscale>
<asrwt>0</asrwt>
<pdfrwt beam="1">  1        2 0.50952948E-01 0.27403436E+03</pdfrwt>
<pdfrwt beam="2">  1       -2 0.87207535E-02 0.27403436E+03</pdfrwt>
<totfact> 0.80397121E+03</totfact>
</mgrwt>
</event>
<event>
 5    1  0.1125356E+001  0.2751015E+03  0.7818608E-02  0.1098395E+00
         -2   -1    0    0    0  501 -0.00000000000E+00  0.00000000000E+00  0.90376098169E+01  0.90376098169E+01  0.00000000000E+00 0.  1.
          2   -1    0    0  501    0  0.00000000000E+00 -0.00000000000E+00 -0.20934967933E+04  0.20934967933E+04  0.00000000000E+00 0.  1.
         35    2    1    2    0    0  0.00000000000E+00  0.00000000000E+00 -0.20844591835E+04  0.21025344031E+04  0.27510148797E+03 0.  0.
         25    1    3    3    0    0  0.52941878492E+02  0.50953856276E+01 -0.72790847775E+03  0.73964826603E+03  0.12000000000E+03 0.  0.
         25    1    3    3    0    0 -0.52941878492E+02 -0.50953856276E+01 -0.13565507057E+04  0.13628861371E+04  0.12000000000E+03 0.  0.
<mgrwt>
<rscale>  0 0.27510149E+03</rscale>
<asrwt>0</asrwt>
<pdfrwt beam="1">  1        2 0.32207642E+00 0.27510149E+03</pdfrwt>
<pdfrwt beam="2">  1       -2 0.13904015E-02 0.27510149E+03</pdfrwt>
<totfact> 0.87431834E+03</totfact>
</mgrwt>
</event>
<event>
 5    1  0.1125356E+001  0.2749184E+03  0.7818608E-02  0.1098497E+00
          3   -1    0    0  501    0  0.00000000000E+00  0.00000000000E+00  0.10032888781E+03  0.10032888781E+03  0.00000000000E+00 0. -1.
         -3   -1    0    0    0  501 -0.00000000000E+00 -0.00000000000E+00 -0.18833092283E+03  0.18833092283E+03  0.00000000000E+00 0. -1.
         35    2    1    2    0    0  0.00000000000E+00  0.00000000000E+00 -0.88002035024E+02  0.28865981064E+03  0.27491840264E+03 0.  0.
         25    1    3    3    0    0 -0.19597748336E+02 -0.31447461057E+02 -0.10266886789E+03  0.16221563112E+03  0.12000000000E+03 0.  0.
         25    1    3    3    0    0  0.19597748336E+02  0.31447461057E+02  0.14666832867E+02  0.12644417951E+03  0.12000000000E+03 0.  0.
<mgrwt>
<rscale>  0 0.27491840E+03</rscale>
<asrwt>0</asrwt>
<pdfrwt beam="1">  1        3 0.15435214E-01 0.27491840E+03</pdfrwt>
<pdfrwt beam="2">  1       -3 0.28973988E-01 0.27491840E+03</pdfrwt>
<totfact> 0.10291386E+03</totfact>
</mgrwt>
</event>
<event>
 5    1  0.1125356E+001  0.2763116E+03  0.7818608E-02  0.1097721E+00
          3   -1    0    0  501    0  0.00000000000E+00  0.00000000000E+00  0.86640468764E+02  0.86640468764E+02  0.00000000000E+00 0. -1.
         -3   -1    0    0    0  501 -0.00000000000E+00 -0.00000000000E+00 -0.22030151087E+03  0.22030151087E+03  0.00000000000E+00 0. -1.
         35    2    1    2    0    0  0.00000000000E+00  0.00000000000E+00 -0.13366104211E+03  0.30694197963E+03  0.27631160794E+03 0.  0.
         25    1    3    3    0    0 -0.56056211747E+02 -0.37872730257E+02 -0.78501557731E+02  0.15855326278E+03  0.12000000000E+03 0.  0.
         25    1    3    3    0    0  0.56056211747E+02  0.37872730257E+02 -0.55159484377E+02  0.14838871685E+03  0.12000000000E+03 0.  0.
<mgrwt>
<rscale>  0 0.27631161E+03</rscale>
<asrwt>0</asrwt>
<pdfrwt beam="1">  1        3 0.13329303E-01 0.27631161E+03</pdfrwt>
<pdfrwt beam="2">  1       -3 0.33892540E-01 0.27631161E+03</pdfrwt>
<totfact> 0.98701713E+02</totfact>
</mgrwt>
</event>
<event>
 5    1  0.1125356E+001  0.2752483E+03  0.7818608E-02  0.1098313E+00
         -2   -1    0    0    0  501 -0.00000000000E+00  0.00000000000E+00  0.78795876140E+01  0.78795876140E+01  0.00000000000E+00 0. -1.
          2   -1    0    0  501    0  0.00000000000E+00 -0.00000000000E+00 -0.24037303916E+04  0.24037303916E+04  0.00000000000E+00 0. -1.
         35    2    1    2    0    0  0.00000000000E+00  0.00000000000E+00 -0.23958508040E+04  0.24116099793E+04  0.27524828226E+03 0.  0.
         25    1    3    3    0    0 -0.38047514814E+02  0.18554553952E+02 -0.73858795149E+03  0.74946917678E+03  0.12000000000E+03 0.  0.
         25    1    3    3    0    0  0.38047514814E+02 -0.18554553952E+02 -0.16572628525E+04  0.16621408025E+04  0.12000000000E+03 0.  0.
<mgrwt>
<rscale>  0 0.27524828E+03</rscale>
<asrwt>0</asrwt>
<pdfrwt beam="1">  1        2 0.36980500E+00 0.27524828E+03</pdfrwt>
<pdfrwt beam="2">  1       -2 0.12122432E-02 0.27524828E+03</pdfrwt>
<totfact> 0.72906291E+03</totfact>
</mgrwt>
</event>
<event>
 5    1  0.1125356E+001  0.2763438E+03  0.7818608E-02  0.1097703E+00
         -3   -1    0    0    0  501 -0.00000000000E+00  0.00000000000E+00  0.14904139798E+03  0.14904139798E+03  0.00000000000E+00 0. -1.
          3   -1    0    0  501    0  0.00000000000E+00 -0.00000000000E+00 -0.12809511144E+03  0.12809511144E+03  0.00000000000E+00 0. -1.
         35    2    1    2    0    0  0.00000000000E+00  0.00000000000E+00  0.20946286548E+02  0.27713650942E+03  0.27634380386E+03 0.  0.
         25    1    3    3    0    0 -0.48558470235E+02 -0.27909301938E+02 -0.29068633577E+02  0.13557964310E+03  0.12000000000E+03 0.  0.
         25    1    3    3    0    0  0.48558470235E+02  0.27909301938E+02  0.50014920125E+02  0.14155686632E+03  0.12000000000E+03 0.  0.
<mgrwt>
<rscale>  0 0.27634380E+03</rscale>
<asrwt>0</asrwt>
<pdfrwt beam="1">  1        3 0.19706940E-01 0.27634380E+03</pdfrwt>
<pdfrwt beam="2">  1       -3 0.22929446E-01 0.27634380E+03</pdfrwt>
<totfact> 0.10300901E+03</totfact>
</mgrwt>
</event>
<event>
 5    1  0.1125356E+001  0.2749980E+03  0.7818608E-02  0.1098453E+00
          4   -1    0    0  501    0  0.00000000000E+00  0.00000000000E+00  0.14697273521E+03  0.14697273521E+03  0.00000000000E+00 0. -1.
         -4   -1    0    0    0  501 -0.00000000000E+00 -0.00000000000E+00 -0.12863593470E+03  0.12863593470E+03  0.00000000000E+00 0. -1.
         35    2    1    2    0    0  0.00000000000E+00  0.00000000000E+00  0.18336800506E+02  0.27560866991E+03  0.27499800122E+03 0.  0.
         25    1    3    3    0    0 -0.97290235911E+01 -0.59401078893E+02  0.38946888112E+02  0.13978555779E+03  0.12000000000E+03 0.  0.
         25    1    3    3    0    0  0.97290235911E+01  0.59401078893E+02 -0.20610087605E+02  0.13582311212E+03  0.12000000000E+03 0.  0.
<mgrwt>
<rscale>  0 0.27499800E+03</rscale>
<asrwt>0</asrwt>
<pdfrwt beam="1">  1        4 0.22611190E-01 0.27499800E+03</pdfrwt>
<pdfrwt beam="2">  1       -4 0.19790144E-01 0.27499800E+03</pdfrwt>
<totfact> 0.77793754E+02</totfact>
</mgrwt>
</event>
<event>
 5    1  0.1125356E+001  0.2744646E+03  0.7818608E-02  0.1098751E+00
          1   -1    0    0  501    0  0.00000000000E+00  0.00000000000E+00  0.82493115974E+02  0.82493115974E+02  0.00000000000E+00 0.  1.
         -1   -1    0    0    0  501 -0.00000000000E+00 -0.00000000000E+00 -0.22829422952E+03  0.22829422952E+03  0.00000000000E+00 0.  1.
         35    2    1    2    0    0  0.00000000000E+00  0.00000000000E+00 -0.14580111355E+03  0.31078734550E+03  0.27446458680E+03 0.  0.
         25    1    3    3    0    0 -0.39928315796E+02 -0.53182656291E+02 -0.69313160117E+02  0.15371070066E+03  0.12000000000E+03 0.  0.
         25    1    3    3    0    0  0.39928315796E+02  0.53182656291E+02 -0.76487953431E+02  0.15707664483E+03  0.12000000000E+03 0.  0.
<mgrwt>
<rscale>  0 0.27446459E+03</rscale>
<asrwt>0</asrwt>
<pdfrwt beam="1">  1        1 0.12691249E-01 0.27446459E+03</pdfrwt>
<pdfrwt beam="2">  1       -1 0.35122188E-01 0.27446459E+03</pdfrwt>
<totfact> 0.35998928E+03</totfact>
</mgrwt>
</event>
<event>
 5    1  0.1125356E+001  0.2753120E+03  0.7818608E-02  0.1098277E+00
         -2   -1    0    0    0  501 -0.00000000000E+00  0.00000000000E+00  0.38991302050E+02  0.38991302050E+02  0.00000000000E+00 0.  1.
          2   -1    0    0  501    0  0.00000000000E+00 -0.00000000000E+00 -0.48598448584E+03  0.48598448584E+03  0.00000000000E+00 0.  1.
         35    2    1    2    0    0  0.00000000000E+00  0.00000000000E+00 -0.44699318379E+03  0.52497578789E+03  0.27531195309E+03 0.  0.
         25    1    3    3    0    0  0.23187531302E+02  0.61447365488E+02 -0.19422007718E+03  0.23756026333E+03  0.12000000000E+03 0.  0.
         25    1    3    3    0    0 -0.23187531302E+02 -0.61447365488E+02 -0.25277310661E+03  0.28741552456E+03  0.12000000000E+03 0.  0.
<mgrwt>
<rscale>  0 0.27531195E+03</rscale>
<asrwt>0</asrwt>
<pdfrwt beam="1">  1        2 0.74766843E-01 0.27531195E+03</pdfrwt>
<pdfrwt beam="2">  1       -2 0.59986619E-02 0.27531195E+03</pdfrwt>
<totfact> 0.94621230E+03</totfact>
</mgrwt>
</event>
<event>
 5    1  0.1125356E+001  0.2751361E+03  0.7818608E-02  0.1098376E+00
          1   -1    0    0  501    0  0.00000000000E+00  0.00000000000E+00  0.32625622466E+03  0.32625622466E+03  0.00000000000E+00 0. -1.
         -1   -1    0    0    0  501 -0.00000000000E+00 -0.00000000000E+00 -0.58006465661E+02  0.58006465661E+02  0.00000000000E+00 0. -1.
         35    2    1    2    0    0  0.00000000000E+00  0.00000000000E+00  0.26824975900E+03  0.38426269032E+03  0.27513611535E+03 0.  0.
         25    1    3    3    0    0  0.23741279313E+01  0.66659957230E+02  0.14628309109E+03  0.20061886532E+03  0.12000000000E+03 0.  0.
         25    1    3    3    0    0 -0.23741279313E+01 -0.66659957230E+02  0.12196666790E+03  0.18364382500E+03  0.12000000000E+03 0.  0.
<mgrwt>
<rscale>  0 0.27513612E+03</rscale>
<asrwt>0</asrwt>
<pdfrwt beam="1">  1        1 0.50193264E-01 0.27513612E+03</pdfrwt>
<pdfrwt beam="2">  1       -1 0.89240718E-02 0.27513612E+03</pdfrwt>
<totfact> 0.56905438E+03</totfact>
</mgrwt>
</event>
<event>
 5    1  0.1125356E+001  0.2751299E+03  0.7818608E-02  0.1098379E+00
          2   -1    0    0  501    0  0.00000000000E+00  0.00000000000E+00  0.53203376767E+03  0.53203376767E+03  0.00000000000E+00 0. -1.
         -2   -1    0    0    0  501 -0.00000000000E+00 -0.00000000000E+00 -0.35569395932E+02  0.35569395932E+02  0.00000000000E+00 0. -1.
         35    2    1    2    0    0  0.00000000000E+00  0.00000000000E+00  0.49646437174E+03  0.56760316360E+03  0.27512993099E+03 0.  0.
         25    1    3    3    0    0 -0.25097921164E+02 -0.62366672332E+02  0.25266280278E+03  0.28767690101E+03  0.12000000000E+03 0.  0.
         25    1    3    3    0    0  0.25097921164E+02  0.62366672332E+02  0.24380156896E+03  0.27992626260E+03  0.12000000000E+03 0.  0.
<mgrwt>
<rscale>  0 0.27512993E+03</rscale>
<asrwt>0</asrwt>
<pdfrwt beam="1">  1        2 0.81851343E-01 0.27512993E+03</pdfrwt>
<pdfrwt beam="2">  1       -2 0.54722152E-02 0.27512993E+03</pdfrwt>
<totfact> 0.98378148E+03</totfact>
</mgrwt>
</event>
<event>
 5    1  0.1125356E+001  0.2753630E+03  0.7818608E-02  0.1098249E+00
          4   -1    0    0  501    0  0.00000000000E+00  0.00000000000E+00  0.57976237381E+03  0.57976237381E+03  0.00000000000E+00 0.  1.
         -4   -1    0    0    0  501 -0.00000000000E+00 -0.00000000000E+00 -0.32696496511E+02  0.32696496511E+02  0.00000000000E+00 0.  1.
         35    2    1    2    0    0  0.00000000000E+00  0.00000000000E+00  0.54706587730E+03  0.61245887032E+03  0.27536302172E+03 0.  0.
         25    1    3    3    0    0 -0.21328729143E+02 -0.63250726729E+02  0.25122119221E+03  0.28629994155E+03  0.12000000000E+03 0.  0.
         25    1    3    3    0    0  0.21328729143E+02  0.63250726729E+02  0.29584468509E+03  0.32615892877E+03  0.12000000000E+03 0.  0.
<mgrwt>
<rscale>  0 0.27536302E+03</rscale>
<asrwt>0</asrwt>
<pdfrwt beam="1">  1        4 0.89194204E-01 0.27536302E+03</pdfrwt>
<pdfrwt beam="2">  1       -4 0.50302306E-02 0.27536302E+03</pdfrwt>
<totfact> 0.49244069E+02</totfact>
</mgrwt>
</event>
<event>
 5    1  0.1125356E+001  0.2739643E+03  0.7818608E-02  0.1099032E+00
         -2   -1    0    0    0  501 -0.00000000000E+00  0.00000000000E+00  0.15452212630E+02  0.15452212630E+02  0.00000000000E+00 0.  1.
          2   -1    0    0  501    0  0.00000000000E+00 -0.00000000000E+00 -0.12143313720E+04  0.12143313720E+04  0.00000000000E+00 0.  1.
         35    2    1    2    0    0  0.00000000000E+00  0.00000000000E+00 -0.11988791594E+04  0.12297835846E+04  0.27396427915E+03 0.  0.
         25    1    3    3    0    0 -0.35368841375E+02 -0.12930320471E+02 -0.35579987847E+03  0.37737474961E+03  0.12000000000E+03 0.  0.
         25    1    3    3    0    0  0.35368841375E+02  0.12930320471E+02 -0.84307928090E+03  0.85240883502E+03  0.12000000000E+03 0.  0.
<mgrwt>
<rscale>  0 0.27396428E+03</rscale>
<asrwt>0</asrwt>
<pdfrwt beam="1">  1        2 0.18682022E+00 0.27396428E+03</pdfrwt>
<pdfrwt beam="2">  1       -2 0.23772634E-02 0.27396428E+03</pdfrwt>
<totfact> 0.11725605E+04</totfact>
</mgrwt>
</event>
<event>
 5    1  0.1125356E+001  0.2751933E+03  0.7818608E-02  0.1098344E+00
          2   -1    0    0  501    0  0.00000000000E+00  0.00000000000E+00  0.48577836505E+02  0.48577836505E+02  0.00000000000E+00 0.  1.
         -2   -1    0    0    0  501 -0.00000000000E+00 -0.00000000000E+00 -0.38974231395E+03  0.38974231395E+03  0.00000000000E+00 0.  1.
         35    2    1    2    0    0  0.00000000000E+00  0.00000000000E+00 -0.34116447745E+03  0.43832015046E+03  0.27519330229E+03 0.  0.
         25    1    3    3    0    0 -0.34113758446E+02 -0.37062715341E+02 -0.99432475336E+02  0.16378098344E+03  0.12000000000E+03 0.  0.
         25    1    3    3    0    0  0.34113758446E+02  0.37062715341E+02 -0.24173200211E+03  0.27453916702E+03  0.12000000000E+03 0.  0.
<mgrwt>
<rscale>  0 0.27519330E+03</rscale>
<asrwt>0</asrwt>
<pdfrwt beam="1">  1        2 0.74735132E-02 0.27519330E+03</pdfrwt>
<pdfrwt beam="2">  1       -2 0.59960357E-01 0.27519330E+03</pdfrwt>
<totfact> 0.24509309E+03</totfact>
</mgrwt>
</event>
<event>
 5    1  0.1125356E+001  0.2758797E+03  0.7818608E-02  0.1097961E+00
          4   -1    0    0  501    0  0.00000000000E+00  0.00000000000E+00  0.23991888964E+02  0.23991888964E+02  0.00000000000E+00 0.  1.
         -4   -1    0    0    0  501 -0.00000000000E+00 -0.00000000000E+00 -0.79307663279E+03  0.79307663279E+03  0.00000000000E+00 0.  1.
         35    2    1    2    0    0  0.00000000000E+00  0.00000000000E+00 -0.76908474382E+03  0.81706852175E+03  0.27587973114E+03 0.  0.
         25    1    3    3    0    0  0.27179941768E+02  0.45384958350E+02 -0.51119938804E+03  0.52775312222E+03  0.12000000000E+03 0.  0.
         25    1    3    3    0    0 -0.27179941768E+02 -0.45384958350E+02 -0.25788535578E+03  0.28931539953E+03  0.12000000000E+03 0.  0.
<mgrwt>
<rscale>  0 0.27587973E+03</rscale>
<asrwt>0</asrwt>
<pdfrwt beam="1">  1        4 0.36910599E-02 0.27587973E+03</pdfrwt>
<pdfrwt beam="2">  1       -4 0.12201179E+00 0.27587973E+03</pdfrwt>
<totfact> 0.38652680E+02</totfact>
</mgrwt>
</event>
<event>
 5    1  0.1125356E+001  0.2747584E+03  0.7818608E-02  0.1098587E+00
         -1   -1    0    0    0  501 -0.00000000000E+00  0.00000000000E+00  0.23375379544E+02  0.23375379544E+02  0.00000000000E+00 0.  1.
          1   -1    0    0  501    0  0.00000000000E+00 -0.00000000000E+00 -0.80738986296E+03  0.80738986296E+03  0.00000000000E+00 0.  1.
         35    2    1    2    0    0  0.00000000000E+00  0.00000000000E+00 -0.78401448342E+03  0.83076524251E+03  0.27475839923E+03 0.  0.
         25    1    3    3    0    0  0.11112339613E+02 -0.26324225254E+02 -0.57484496491E+03  0.58793127371E+03  0.12000000000E+03 0.  0.
         25    1    3    3    0    0 -0.11112339613E+02  0.26324225254E+02 -0.20916951851E+03  0.24283396880E+03  0.12000000000E+03 0.  0.
<mgrwt>
<rscale>  0 0.27475840E+03</rscale>
<asrwt>0</asrwt>
<pdfrwt beam="1">  1        1 0.12421383E+00 0.27475840E+03</pdfrwt>
<pdfrwt beam="2">  1       -1 0.35962122E-02 0.27475840E+03</pdfrwt>
<totfact> 0.65341250E+03</totfact>
</mgrwt>
</event>
<event>
 5    1  0.1125356E+001  0.2745001E+03  0.7818608E-02  0.1098731E+00
         -1   -1    0    0    0  501 -0.00000000000E+00  0.00000000000E+00  0.24737748168E+02  0.24737748168E+02  0.00000000000E+00 0. -1.
          1   -1    0    0  501    0  0.00000000000E+00 -0.00000000000E+00 -0.76149098008E+03  0.76149098008E+03  0.00000000000E+00 0. -1.
         35    2    1    2    0    0  0.00000000000E+00  0.00000000000E+00 -0.73675323192E+03  0.78622872825E+03  0.27450006993E+03 0.  0.
         25    1    3    3    0    0  0.28792540085E+02 -0.99579010429E+01 -0.19869960497E+03  0.23411472225E+03  0.12000000000E+03 0.  0.
         25    1    3    3    0    0 -0.28792540085E+02  0.99579010429E+01 -0.53805362694E+03  0.55211400600E+03  0.12000000000E+03 0.  0.
<mgrwt>
<rscale>  0 0.27450007E+03</rscale>
<asrwt>0</asrwt>
<pdfrwt beam="1">  1        1 0.11715246E+00 0.27450007E+03</pdfrwt>
<pdfrwt beam="2">  1       -1 0.38058072E-02 0.27450007E+03</pdfrwt>
<totfact> 0.65687194E+03</totfact>
</mgrwt>
</event>
<event>
 5    1  0.1125356E+001  0.2753194E+03  0.7818608E-02  0.1098273E+00
          3   -1    0    0  501    0  0.00000000000E+00  0.00000000000E+00  0.73932994061E+03  0.73932994061E+03  0.00000000000E+00 0.  1.
         -3   -1    0    0    0  501 -0.00000000000E+00 -0.00000000000E+00 -0.25631578351E+02  0.25631578351E+02  0.00000000000E+00 0.  1.
         35    2    1    2    0    0  0.00000000000E+00  0.00000000000E+00  0.71369836226E+03  0.76496151896E+03  0.27531940215E+03 0.  0.
         25    1    3    3    0    0 -0.21002053400E+02 -0.63252061186E+02  0.32793675530E+03  0.35550587191E+03  0.12000000000E+03 0.  0.
         25    1    3    3    0    0  0.21002053400E+02  0.63252061186E+02  0.38576160696E+03  0.40945564705E+03  0.12000000000E+03 0.  0.
<mgrwt>
<rscale>  0 0.27531940E+03</rscale>
<asrwt>0</asrwt>
<pdfrwt beam="1">  1        3 0.11374305E+00 0.27531940E+03</pdfrwt>
<pdfrwt beam="2">  1       -3 0.39433203E-02 0.27531940E+03</pdfrwt>
<totfact> 0.56664712E+02</totfact>
</mgrwt>
</event>
<event>
 5    1  0.1125356E+001  0.2735719E+03  0.7818608E-02  0.1099253E+00
         -2   -1    0    0    0  501 -0.00000000000E+00  0.00000000000E+00  0.94982276865E+01  0.94982276865E+01  0.00000000000E+00 0.  1.
          2   -1    0    0  501    0  0.00000000000E+00 -0.00000000000E+00 -0.19698831392E+04  0.19698831392E+04  0.00000000000E+00 0.  1.
         35    2    1    2    0    0  0.00000000000E+00  0.00000000000E+00 -0.19603849115E+04  0.19793813669E+04  0.27357191794E+03 0.  0.
         25    1    3    3    0    0 -0.25844642003E+02  0.58923483004E+02 -0.88572334155E+03  0.89612820519E+03  0.12000000000E+03 0.  0.
         25    1    3    3    0    0  0.25844642003E+02 -0.58923483004E+02 -0.10746615699E+04  0.10832531617E+04  0.12000000000E+03 0.  0.
<mgrwt>
<rscale>  0 0.27357192E+03</rscale>
<asrwt>0</asrwt>
<pdfrwt beam="1">  1        2 0.30305879E+00 0.27357192E+03</pdfrwt>
<pdfrwt beam="2">  1       -2 0.14612666E-02 0.27357192E+03</pdfrwt>
<totfact> 0.94453207E+03</totfact>
</mgrwt>
</event>
<event>
 5    1  0.1125356E+001  0.2747345E+03  0.7818608E-02  0.1098600E+00
          2   -1    0    0  501    0  0.00000000000E+00  0.00000000000E+00  0.36979443880E+04  0.36979443880E+04  0.00000000000E+00 0. -1.
         -2   -1    0    0    0  501 -0.00000000000E+00 -0.00000000000E+00 -0.51027696806E+01  0.51027696806E+01  0.00000000000E+00 0. -1.
         35    2    1    2    0    0  0.00000000000E+00  0.00000000000E+00  0.36928416183E+04  0.37030471577E+04  0.27473447912E+03 0.  0.
         25    1    3    3    0    0 -0.66314221020E+02  0.84955519386E+01  0.18452009028E+04  0.18503070345E+04  0.12000000000E+03 0.  0.
         25    1    3    3    0    0  0.66314221020E+02 -0.84955519386E+01  0.18476407155E+04  0.18527401232E+04  0.12000000000E+03 0.  0.
<mgrwt>
<rscale>  0 0.27473448E+03</rscale>
<asrwt>0</asrwt>
<pdfrwt beam="1">  1        2 0.56891238E+00 0.27473448E+03</pdfrwt>
<pdfrwt beam="2">  1       -2 0.78504445E-03 0.27473448E+03</pdfrwt>
<totfact> 0.22531226E+03</totfact>
</mgrwt>
</event>
<event>
 5    1  0.1125356E+001  0.2753642E+03  0.7818608E-02  0.1098248E+00
          1   -1    0    0  501    0  0.00000000000E+00  0.00000000000E+00  0.50668907758E+03  0.50668907758E+03  0.00000000000E+00 0. -1.
         -1   -1    0    0    0  501 -0.00000000000E+00 -0.00000000000E+00 -0.37412226513E+02  0.37412226513E+02  0.00000000000E+00 0. -1.
         35    2    1    2    0    0  0.00000000000E+00  0.00000000000E+00  0.46927685106E+03  0.54410130409E+03  0.27536424272E+03 0.  0.
         25    1    3    3    0    0 -0.61492375447E+02 -0.25867898232E+02  0.21430395812E+03  0.25451256720E+03  0.12000000000E+03 0.  0.
         25    1    3    3    0    0  0.61492375447E+02  0.25867898232E+02  0.25497289294E+03  0.28958873689E+03  0.12000000000E+03 0.  0.
<mgrwt>
<rscale>  0 0.27536424E+03</rscale>
<asrwt>0</asrwt>
<pdfrwt beam="1">  1        1 0.77952161E-01 0.27536424E+03</pdfrwt>
<pdfrwt beam="2">  1       -1 0.57557275E-02 0.27536424E+03</pdfrwt>
<totfact> 0.62828186E+03</totfact>
</mgrwt>
</event>
<event>
 5    1  0.1125356E+001  0.2753357E+03  0.7818608E-02  0.1098264E+00
          1   -1    0    0  501    0  0.00000000000E+00  0.00000000000E+00  0.11636728014E+03  0.11636728014E+03  0.00000000000E+00 0. -1.
         -1   -1    0    0    0  501 -0.00000000000E+00 -0.00000000000E+00 -0.16286740707E+03  0.16286740707E+03  0.00000000000E+00 0. -1.
         35    2    1    2    0    0  0.00000000000E+00  0.00000000000E+00 -0.46500126932E+02  0.27923468721E+03  0.27533570189E+03 0.  0.
         25    1    3    3    0    0 -0.57588763059E+02  0.21440699260E+02 -0.51506192863E+02  0.14432275329E+03  0.12000000000E+03 0.  0.
         25    1    3    3    0    0  0.57588763059E+02 -0.21440699260E+02  0.50060659310E+01  0.13491193391E+03  0.12000000000E+03 0.  0.
<mgrwt>
<rscale>  0 0.27533570E+03</rscale>
<asrwt>0</asrwt>
<pdfrwt beam="1">  1        1 0.17902658E-01 0.27533570E+03</pdfrwt>
<pdfrwt beam="2">  1       -1 0.25056524E-01 0.27533570E+03</pdfrwt>
<totfact> 0.40699114E+03</totfact>
</mgrwt>
</event>
<event>
 5    1  0.1125356E+001  0.2749282E+03  0.7818608E-02  0.1098492E+00
         -2   -1    0    0    0  501 -0.00000000000E+00  0.00000000000E+00  0.69343082726E+01  0.69343082726E+01  0.00000000000E+00 0.  1.
          2   -1    0    0  501    0  0.00000000000E+00 -0.00000000000E+00 -0.27250561293E+04  0.27250561293E+04  0.00000000000E+00 0.  1.
         35    2    1    2    0    0  0.00000000000E+00  0.00000000000E+00 -0.27181218211E+04  0.27319904376E+04  0.27492820343E+03 0.  0.
         25    1    3    3    0    0  0.37481145918E+02 -0.47071765620E+02 -0.10649844052E+04  0.10734115570E+04  0.12000000000E+03 0.  0.
         25    1    3    3    0    0 -0.37481145918E+02  0.47071765620E+02 -0.16531374159E+04  0.16585788806E+04  0.12000000000E+03 0.  0.
<mgrwt>
<rscale>  0 0.27492820E+03</rscale>
<asrwt>0</asrwt>
<pdfrwt beam="1">  1        2 0.41923935E+00 0.27492820E+03</pdfrwt>
<pdfrwt beam="2">  1       -2 0.10668168E-02 0.27492820E+03</pdfrwt>
<totfact> 0.58328333E+03</totfact>
</mgrwt>
</event>
<event>
 5    1  0.1125356E+001  0.2746695E+03  0.7818608E-02  0.1098636E+00
          3   -1    0    0  501    0  0.00000000000E+00  0.00000000000E+00  0.18951578038E+02  0.18951578038E+02  0.00000000000E+00 0. -1.
         -3   -1    0    0    0  501 -0.00000000000E+00 -0.00000000000E+00 -0.99521154905E+03  0.99521154905E+03  0.00000000000E+00 0. -1.
         35    2    1    2    0    0  0.00000000000E+00  0.00000000000E+00 -0.97625997101E+03  0.10141631271E+04  0.27466946926E+03 0.  0.
         25    1    3    3    0    0  0.54658722202E+02 -0.15080494709E+02 -0.61845482144E+03  0.63253566176E+03  0.12000000000E+03 0.  0.
         25    1    3    3    0    0 -0.54658722202E+02  0.15080494709E+02 -0.35780514956E+03  0.38162746532E+03  0.12000000000E+03 0.  0.
<mgrwt>
<rscale>  0 0.27466947E+03</rscale>
<asrwt>0</asrwt>
<pdfrwt beam="1">  1        3 0.29156271E-02 0.27466947E+03</pdfrwt>
<pdfrwt beam="2">  1       -3 0.15310948E+00 0.27466947E+03</pdfrwt>
<totfact> 0.43832662E+02</totfact>
</mgrwt>
</event>
<event>
 5    1  0.1125356E+001  0.2748552E+03  0.7818608E-02  0.1098533E+00
          3   -1    0    0  501    0  0.00000000000E+00  0.00000000000E+00  0.25359855296E+03  0.25359855296E+03  0.00000000000E+00 0. -1.
         -3   -1    0    0    0  501 -0.00000000000E+00 -0.00000000000E+00 -0.74473421809E+02  0.74473421809E+02  0.00000000000E+00 0. -1.
         35    2    1    2    0    0  0.00000000000E+00  0.00000000000E+00  0.17912513115E+03  0.32807197477E+03  0.27485524921E+03 0.  0.
         25    1    3    3    0    0 -0.55793072178E+02 -0.21251251553E+01  0.45399227166E+02  0.13992309633E+03  0.12000000000E+03 0.  0.
         25    1    3    3    0    0  0.55793072178E+02  0.21251251553E+01  0.13372590398E+03  0.18814887843E+03  0.12000000000E+03 0.  0.
<mgrwt>
<rscale>  0 0.27485525E+03</rscale>
<asrwt>0</asrwt>
<pdfrwt beam="1">  1        3 0.39015162E-01 0.27485525E+03</pdfrwt>
<pdfrwt beam="2">  1       -3 0.11457450E-01 0.27485525E+03</pdfrwt>
<totfact> 0.97382136E+02</totfact>
</mgrwt>
</event>
<event>
 5    1  0.1125356E+001  0.2752710E+03  0.7818608E-02  0.1098300E+00
         -2   -1    0    0    0  501 -0.00000000000E+00  0.00000000000E+00  0.12950913344E+02  0.12950913344E+02  0.00000000000E+00 0.  1.
          2   -1    0    0  501    0  0.00000000000E+00 -0.00000000000E+00 -0.14627178385E+04  0.14627178385E+04  0.00000000000E+00 0.  1.
         35    2    1    2    0    0  0.00000000000E+00  0.00000000000E+00 -0.14497669252E+04  0.14756687519E+04  0.27527100809E+03 0.  0.
         25    1    3    3    0    0 -0.17292869921E+02 -0.34654199057E+02 -0.10206305114E+04  0.10283902944E+04  0.12000000000E+03 0.  0.
         25    1    3    3    0    0  0.17292869921E+02  0.34654199057E+02 -0.42913641376E+03  0.44727845742E+03  0.12000000000E+03 0.  0.
<mgrwt>
<rscale>  0 0.27527101E+03</rscale>
<asrwt>0</asrwt>
<pdfrwt beam="1">  1        2 0.22503361E+00 0.27527101E+03</pdfrwt>
<pdfrwt beam="2">  1       -2 0.19924474E-02 0.27527101E+03</pdfrwt>
<totfact> 0.11107489E+04</totfact>
</mgrwt>
</event>
<event>
 5    1  0.1125356E+001  0.2748441E+03  0.7818608E-02  0.1098539E+00
         -2   -1    0    0    0  501 -0.00000000000E+00  0.00000000000E+00  0.79801943778E+03  0.79801943778E+03  0.00000000000E+00 0.  1.
          2   -1    0    0  501    0  0.00000000000E+00 -0.00000000000E+00 -0.23664603182E+02  0.23664603182E+02  0.00000000000E+00 0.  1.
         35    2    1    2    0    0  0.00000000000E+00  0.00000000000E+00  0.77435483460E+03  0.82168404096E+03  0.27484405270E+03 0.  0.
         25    1    3    3    0    0 -0.33570601959E+02  0.20634746619E+02  0.22529372501E+03  0.25828286938E+03  0.12000000000E+03 0.  0.
         25    1    3    3    0    0  0.33570601959E+02 -0.20634746619E+02  0.54906110958E+03  0.56340117158E+03  0.12000000000E+03 0.  0.
<mgrwt>
<rscale>  0 0.27484405E+03</rscale>
<asrwt>0</asrwt>
<pdfrwt beam="1">  1        2 0.36407088E-02 0.27484405E+03</pdfrwt>
<pdfrwt beam="2">  1       -2 0.12277220E+00 0.27484405E+03</pdfrwt>
<totfact> 0.12638907E+03</totfact>
</mgrwt>
</event>
<event>
 5    1  0.1125356E+001  0.2751888E+03  0.7818608E-02  0.1098346E+00
         -2   -1    0    0    0  501 -0.00000000000E+00  0.00000000000E+00  0.33773642625E+02  0.33773642625E+02  0.00000000000E+00 0.  1.
          2   -1    0    0  501    0  0.00000000000E+00 -0.00000000000E+00 -0.56056175470E+03  0.56056175470E+03  0.00000000000E+00 0.  1.
         35    2    1    2    0    0  0.00000000000E+00  0.00000000000E+00 -0.52678811207E+03  0.59433539732E+03  0.27518875248E+03 0.  0.
         25    1    3    3    0    0 -0.11401925726E+02  0.39352112584E+02 -0.14802244309E+03  0.19490827672E+03  0.12000000000E+03 0.  0.
         25    1    3    3    0    0  0.11401925726E+02 -0.39352112584E+02 -0.37876566898E+03  0.39942712060E+03  0.12000000000E+03 0.  0.
<mgrwt>
<rscale>  0 0.27518875E+03</rscale>
<asrwt>0</asrwt>
<pdfrwt beam="1">  1        2 0.86240269E-01 0.27518875E+03</pdfrwt>
<pdfrwt beam="2">  1       -2 0.51959451E-02 0.27518875E+03</pdfrwt>
<totfact> 0.10032460E+04</totfact>
</mgrwt>
</event>
<event>
 5    1  0.1125356E+001  0.2756716E+03  0.7818608E-02  0.1098077E+00
          2   -1    0    0  501    0  0.00000000000E+00  0.00000000000E+00  0.28628975352E+04  0.28628975352E+04  0.00000000000E+00 0. -1.
         -2   -1    0    0    0  501 -0.00000000000E+00 -0.00000000000E+00 -0.66361807978E+01  0.66361807978E+01  0.00000000000E+00 0. -1.
         35    2    1    2    0    0  0.00000000000E+00  0.00000000000E+00  0.28562613544E+04  0.28695337160E+04  0.27567158467E+03 0.  0.
         25    1    3    3    0    0 -0.49794110003E+02  0.30518971804E+02  0.17868866550E+04  0.17918634934E+04  0.12000000000E+03 0.  0.
         25    1    3    3    0    0  0.49794110003E+02 -0.30518971804E+02  0.10693746994E+04  0.10776702226E+04  0.12000000000E+03 0.  0.
<mgrwt>
<rscale>  0 0.27567158E+03</rscale>
<asrwt>0</asrwt>
<pdfrwt beam="1">  1        2 0.44044479E+00 0.27567158E+03</pdfrwt>
<pdfrwt beam="2">  1       -2 0.10209532E-02 0.27567158E+03</pdfrwt>
<totfact> 0.51855783E+03</totfact>
</mgrwt>
</event>
<event>
 5    1  0.1125356E+001  0.2754123E+03  0.7818608E-02  0.1098221E+00
          2   -1    0    0  501    0  0.00000000000E+00  0.00000000000E+00  0.33725294745E+04  0.33725294745E+04  0.00000000000E+00 0.  1.
         -2   -1    0    0    0  501 -0.00000000000E+00 -0.00000000000E+00 -0.56227762785E+01  0.56227762785E+01  0.00000000000E+00 0.  1.
         35    2    1    2    0    0  0.00000000000E+00  0.00000000000E+00  0.33669066982E+04  0.33781522508E+04  0.27541226354E+03 0.  0.
         25    1    3    3    0    0  0.15258221337E+01 -0.28826318013E+02  0.24325408394E+04  0.24356699735E+04  0.12000000000E+03 0.  0.
         25    1    3    3    0    0 -0.15258221337E+01  0.28826318013E+02  0.93436585882E+03  0.94248227722E+03  0.12000000000E+03 0.  0.
<mgrwt>
<rscale>  0 0.27541226E+03</rscale>
<asrwt>0</asrwt>
<pdfrwt beam="1">  1        2 0.51884907E+00 0.27541226E+03</pdfrwt>
<pdfrwt beam="2">  1       -2 0.86504520E-03 0.27541226E+03</pdfrwt>
<totfact> 0.32317512E+03</totfact>
</mgrwt>
</event>
<event>
 5    1  0.1125356E+001  0.2745099E+03  0.7818608E-02  0.1098726E+00
         -2   -1    0    0    0  501 -0.00000000000E+00  0.00000000000E+00  0.22706013523E+02  0.22706013523E+02  0.00000000000E+00 0.  1.
          2   -1    0    0  501    0  0.00000000000E+00 -0.00000000000E+00 -0.82968878179E+03  0.82968878179E+03  0.00000000000E+00 0.  1.
         35    2    1    2    0    0  0.00000000000E+00  0.00000000000E+00 -0.80698276827E+03  0.85239479532E+03  0.27450992477E+03 0.  0.
         25    1    3    3    0    0 -0.54535960144E+02  0.21555709532E+02 -0.50169004550E+03  0.51916444535E+03  0.12000000000E+03 0.  0.
         25    1    3    3    0    0  0.54535960144E+02 -0.21555709532E+02 -0.30529272277E+03  0.33323034997E+03  0.12000000000E+03 0.  0.
<mgrwt>
<rscale>  0 0.27450992E+03</rscale>
<asrwt>0</asrwt>
<pdfrwt beam="1">  1        2 0.12764441E+00 0.27450992E+03</pdfrwt>
<pdfrwt beam="2">  1       -2 0.34932332E-02 0.27450992E+03</pdfrwt>
<totfact> 0.11370357E+04</totfact>
</mgrwt>
</event>
<event>
 5    1  0.1125356E+001  0.2750985E+03  0.7818608E-02  0.1098397E+00
          1   -1    0    0  501    0  0.00000000000E+00  0.00000000000E+00  0.20147924272E+04  0.20147924272E+04  0.00000000000E+00 0. -1.
         -1   -1    0    0    0  501 -0.00000000000E+00 -0.00000000000E+00 -0.93904418356E+01  0.93904418356E+01  0.00000000000E+00 0. -1.
         35    2    1    2    0    0  0.00000000000E+00  0.00000000000E+00  0.20054019853E+04  0.20241828690E+04  0.27509846309E+03 0.  0.
         25    1    3    3    0    0 -0.58320517879E+02  0.11691095655E+02  0.77214364232E+03  0.78367325392E+03  0.12000000000E+03 0.  0.
         25    1    3    3    0    0  0.58320517879E+02 -0.11691095655E+02  0.12332583430E+04  0.12405096151E+04  0.12000000000E+03 0.  0.
<mgrwt>
<rscale>  0 0.27509846E+03</rscale>
<asrwt>0</asrwt>
<pdfrwt beam="1">  1        1 0.30996772E+00 0.27509846E+03</pdfrwt>
<pdfrwt beam="2">  1       -1 0.14446850E-02 0.27509846E+03</pdfrwt>
<totfact> 0.36379644E+03</totfact>
</mgrwt>
</event>
<event>
 5    1  0.1125356E+001  0.2744906E+03  0.7818608E-02  0.1098737E+00
         -1   -1    0    0    0  501 -0.00000000000E+00  0.00000000000E+00  0.13270257092E+02  0.13270257092E+02  0.00000000000E+00 0. -1.
          1   -1    0    0  501    0  0.00000000000E+00 -0.00000000000E+00 -0.14194352965E+04  0.14194352965E+04  0.00000000000E+00 0. -1.
         35    2    1    2    0    0  0.00000000000E+00  0.00000000000E+00 -0.14061650394E+04  0.14327055536E+04  0.27449059226E+03 0.  0.
         25    1    3    3    0    0 -0.62459480442E+02 -0.35533697454E+01 -0.58377845368E+03  0.59925878893E+03  0.12000000000E+03 0.  0.
         25    1    3    3    0    0  0.62459480442E+02  0.35533697454E+01 -0.82238658575E+03  0.83344676468E+03  0.12000000000E+03 0.  0.
<mgrwt>
<rscale>  0 0.27449059E+03</rscale>
<asrwt>0</asrwt>
<pdfrwt beam="1">  1        1 0.21837446E+00 0.27449059E+03</pdfrwt>
<pdfrwt beam="2">  1       -1 0.20415799E-02 0.27449059E+03</pdfrwt>
<totfact> 0.53882763E+03</totfact>
</mgrwt>
</event>
<event>
 5    1  0.1125356E+001  0.2744395E+03  0.7818608E-02  0.1098765E+00
         -2   -1    0    0    0  501 -0.00000000000E+00  0.00000000000E+00  0.16395823793E+02  0.16395823793E+02  0.00000000000E+00 0.  1.
          2   -1    0    0  501    0  0.00000000000E+00 -0.00000000000E+00 -0.11484182341E+04  0.11484182341E+04  0.00000000000E+00 0.  1.
         35    2    1    2    0    0  0.00000000000E+00  0.00000000000E+00 -0.11320224103E+04  0.11648140579E+04  0.27443952344E+03 0.  0.
         25    1    3    3    0    0 -0.14555723504E+02  0.48792579233E+01 -0.29115676118E+03  0.31529024061E+03  0.12000000000E+03 0.  0.
         25    1    3    3    0    0  0.14555723504E+02 -0.48792579233E+01 -0.84086564916E+03  0.84952381731E+03  0.12000000000E+03 0.  0.
<mgrwt>
<rscale>  0 0.27443952E+03</rscale>
<asrwt>0</asrwt>
<pdfrwt beam="1">  1        2 0.17667974E+00 0.27443952E+03</pdfrwt>
<pdfrwt beam="2">  1       -2 0.25224342E-02 0.27443952E+03</pdfrwt>
<totfact> 0.11715235E+04</totfact>
</mgrwt>
</event>
<event>
 5    1  0.1125356E+001  0.2748977E+03  0.7818608E-02  0.1098509E+00
         -2   -1    0    0    0  501 -0.00000000000E+00  0.00000000000E+00  0.82293861914E+01  0.82293861914E+01  0.00000000000E+00 0. -1.
          2   -1    0    0  501    0  0.00000000000E+00 -0.00000000000E+00 -0.22956984358E+04  0.22956984358E+04  0.00000000000E+00 0. -1.
         35    2    1    2    0    0  0.00000000000E+00  0.00000000000E+00 -0.22874690496E+04  0.23039278220E+04  0.27489771921E+03 0.  0.
         25    1    3    3    0    0  0.54254167405E+02  0.27760498415E+02 -0.90996083033E+03  0.91986024628E+03  0.12000000000E+03 0.  0.
         25    1    3    3    0    0 -0.54254167405E+02 -0.27760498415E+02 -0.13775082193E+04  0.13840675757E+04  0.12000000000E+03 0.  0.
<mgrwt>
<rscale>  0 0.27489772E+03</rscale>
<asrwt>0</asrwt>
<pdfrwt beam="1">  1        2 0.35318450E+00 0.27489772E+03</pdfrwt>
<pdfrwt beam="2">  1       -2 0.12660590E-02 0.27489772E+03</pdfrwt>
<totfact> 0.78252093E+03</totfact>
</mgrwt>
</event>
<event>
 5    1  0.1125356E+001  0.2749604E+03  0.7818608E-02  0.1098474E+00
          2   -1    0    0  501    0  0.00000000000E+00  0.00000000000E+00  0.50321738600E+02  0.50321738600E+02  0.00000000000E+00 0.  1.
         -2   -1    0    0    0  501 -0.00000000000E+00 -0.00000000000E+00 -0.37559922028E+03  0.37559922028E+03  0.00000000000E+00 0.  1.
         35    2    1    2    0    0  0.00000000000E+00  0.00000000000E+00 -0.32527748168E+03  0.42592095888E+03  0.27496040283E+03 0.  0.
         25    1    3    3    0    0  0.10270546693E+02 -0.53282756662E+02 -0.10153029220E+03  0.16629172114E+03  0.12000000000E+03 0.  0.
         25    1    3    3    0    0 -0.10270546693E+02  0.53282756662E+02 -0.22374718948E+03  0.25962923774E+03  0.12000000000E+03 0.  0.
<mgrwt>
<rscale>  0 0.27496040E+03</rscale>
<asrwt>0</asrwt>
<pdfrwt beam="1">  1        2 0.77418059E-02 0.27496040E+03</pdfrwt>
<pdfrwt beam="2">  1       -2 0.57784496E-01 0.27496040E+03</pdfrwt>
<totfact> 0.25285124E+03</totfact>
</mgrwt>
</event>
<event>
 5    1  0.1125356E+001  0.2751916E+03  0.7818608E-02  0.1098345E+00
          1   -1    0    0  501    0  0.00000000000E+00  0.00000000000E+00  0.13227042670E+03  0.13227042670E+03  0.00000000000E+00 0.  1.
         -1   -1    0    0    0  501 -0.00000000000E+00 -0.00000000000E+00 -0.14313556284E+03  0.14313556284E+03  0.00000000000E+00 0.  1.
         35    2    1    2    0    0  0.00000000000E+00  0.00000000000E+00 -0.10865136131E+02  0.27540598954E+03  0.27519158398E+03 0.  0.
         25    1    3    3    0    0  0.20394233447E+02 -0.27311990779E+02  0.52670674434E+02  0.13541074383E+03  0.12000000000E+03 0.  0.
         25    1    3    3    0    0 -0.20394233447E+02  0.27311990779E+02 -0.63535810565E+02  0.13999524571E+03  0.12000000000E+03 0.  0.
<mgrwt>
<rscale>  0 0.27519158E+03</rscale>
<asrwt>0</asrwt>
<pdfrwt beam="1">  1        1 0.20349296E-01 0.27519158E+03</pdfrwt>
<pdfrwt beam="2">  1       -1 0.22020856E-01 0.27519158E+03</pdfrwt>
<totfact> 0.42691739E+03</totfact>
</mgrwt>
</event>
<event>
 5    1  0.1125356E+001  0.2752186E+03  0.7818608E-02  0.1098329E+00
         -2   -1    0    0    0  501 -0.00000000000E+00  0.00000000000E+00  0.13184850233E+02  0.13184850233E+02  0.00000000000E+00 0.  1.
          2   -1    0    0  501    0  0.00000000000E+00 -0.00000000000E+00 -0.14362179760E+04  0.14362179760E+04  0.00000000000E+00 0.  1.
         35    2    1    2    0    0  0.00000000000E+00  0.00000000000E+00 -0.14230331257E+04  0.14494028262E+04  0.27521859614E+03 0.  0.
         25    1    3    3    0    0 -0.34751368365E+02  0.49593388899E+02 -0.55625624638E+03  0.57226582413E+03  0.12000000000E+03 0.  0.
         25    1    3    3    0    0  0.34751368365E+02 -0.49593388899E+02 -0.86677687934E+03  0.87713700206E+03  0.12000000000E+03 0.  0.
<mgrwt>
<rscale>  0 0.27521860E+03</rscale>
<asrwt>0</asrwt>
<pdfrwt beam="1">  1        2 0.22095656E+00 0.27521860E+03</pdfrwt>
<pdfrwt beam="2">  1       -2 0.20284389E-02 0.27521860E+03</pdfrwt>
<totfact> 0.11180334E+04</totfact>
</mgrwt>
</event>
<event>
 5    1  0.1125356E+001  0.2752379E+03  0.7818608E-02  0.1098319E+00
         -1   -1    0    0    0  501 -0.00000000000E+00  0.00000000000E+00  0.20740330394E+03  0.20740330394E+03  0.00000000000E+00 0. -1.
          1   -1    0    0  501    0  0.00000000000E+00 -0.00000000000E+00 -0.91314720330E+02  0.91314720330E+02  0.00000000000E+00 0. -1.
         35    2    1    2    0    0  0.00000000000E+00  0.00000000000E+00  0.11608858361E+03  0.29871802427E+03  0.27523789488E+03 0.  0.
         25    1    3    3    0    0 -0.34696749504E+02  0.33533889567E+02  0.10907212835E+03  0.16918958407E+03  0.12000000000E+03 0.  0.
         25    1    3    3    0    0  0.34696749504E+02 -0.33533889567E+02  0.70164552588E+01  0.12952844020E+03  0.12000000000E+03 0.  0.
<mgrwt>
<rscale>  0 0.27523789E+03</rscale>
<asrwt>0</asrwt>
<pdfrwt beam="1">  1        1 0.14048419E-01 0.27523789E+03</pdfrwt>
<pdfrwt beam="2">  1       -1 0.31908201E-01 0.27523789E+03</pdfrwt>
<totfact> 0.37152136E+03</totfact>
</mgrwt>
</event>
<event>
 5    1  0.1125356E+001  0.2744357E+03  0.7818608E-02  0.1098767E+00
          2   -1    0    0  501    0  0.00000000000E+00  0.00000000000E+00  0.53333776318E+03  0.53333776318E+03  0.00000000000E+00 0. -1.
         -2   -1    0    0    0  501 -0.00000000000E+00 -0.00000000000E+00 -0.35303590525E+02  0.35303590525E+02  0.00000000000E+00 0. -1.
         35    2    1    2    0    0  0.00000000000E+00  0.00000000000E+00  0.49803417266E+03  0.56864135371E+03  0.27443569741E+03 0.  0.
         25    1    3    3    0    0 -0.54528139898E+02  0.35469449649E+02  0.27812447957E+03  0.30981385707E+03  0.12000000000E+03 0.  0.
         25    1    3    3    0    0  0.54528139898E+02 -0.35469449649E+02  0.21990969309E+03  0.25882749663E+03  0.12000000000E+03 0.  0.
<mgrwt>
<rscale>  0 0.27443570E+03</rscale>
<asrwt>0</asrwt>
<pdfrwt beam="1">  1        2 0.82051958E-01 0.27443570E+03</pdfrwt>
<pdfrwt beam="2">  1       -2 0.54313220E-02 0.27443570E+03</pdfrwt>
<totfact> 0.99225896E+03</totfact>
</mgrwt>
</event>
<event>
 5    1  0.1125356E+001  0.2745274E+03  0.7818608E-02  0.1098716E+00
         -1   -1    0    0    0  501 -0.00000000000E+00  0.00000000000E+00  0.76626682063E+01  0.76626682063E+01  0.00000000000E+00 0. -1.
          1   -1    0    0  501    0  0.00000000000E+00 -0.00000000000E+00 -0.24588459723E+04  0.24588459723E+04  0.00000000000E+00 0. -1.
         35    2    1    2    0    0  0.00000000000E+00  0.00000000000E+00 -0.24511833041E+04  0.24665086405E+04  0.27452738192E+03 0.  0.
         25    1    3    3    0    0  0.29253840963E+02  0.28924547451E+02 -0.16966522459E+04  0.17013880393E+04  0.12000000000E+03 0.  0.
         25    1    3    3    0    0 -0.29253840963E+02 -0.28924547451E+02 -0.75453105821E+03  0.76512060125E+03  0.12000000000E+03 0.  0.
<mgrwt>
<rscale>  0 0.27452738E+03</rscale>
<asrwt>0</asrwt>
<pdfrwt beam="1">  1        1 0.37828441E+00 0.27452738E+03</pdfrwt>
<pdfrwt beam="2">  1       -1 0.11788707E-02 0.27452738E+03</pdfrwt>
<totfact> 0.25023157E+03</totfact>
</mgrwt>
</event>
<event>
 5    1  0.1125356E+001  0.2759382E+03  0.7818608E-02  0.1097928E+00
         -2   -1    0    0    0  501 -0.00000000000E+00  0.00000000000E+00  0.12883584505E+02  0.12883584505E+02  0.00000000000E+00 0. -1.
          2   -1    0    0  501    0  0.00000000000E+00 -0.00000000000E+00 -0.14774979496E+04  0.14774979496E+04  0.00000000000E+00 0. -1.
         35    2    1    2    0    0  0.00000000000E+00  0.00000000000E+00 -0.14646143651E+04  0.14903815341E+04  0.27593817923E+03 0.  0.
         25    1    3    3    0    0 -0.46118745296E+02  0.35780264486E+02 -0.92160192237E+03  0.93121279486E+03  0.12000000000E+03 0.  0.
         25    1    3    3    0    0  0.46118745296E+02 -0.35780264486E+02 -0.54301244270E+03  0.55916873922E+03  0.12000000000E+03 0.  0.
<mgrwt>
<rscale>  0 0.27593818E+03</rscale>
<asrwt>0</asrwt>
<pdfrwt beam="1">  1        2 0.22730728E+00 0.27593818E+03</pdfrwt>
<pdfrwt beam="2">  1       -2 0.19820908E-02 0.27593818E+03</pdfrwt>
<totfact> 0.10990706E+04</totfact>
</mgrwt>
</event>
<event>
 5    1  0.1125356E+001  0.2751544E+03  0.7818608E-02  0.1098365E+00
          1   -1    0    0  501    0  0.00000000000E+00  0.00000000000E+00  0.23701064782E+04  0.23701064782E+04  0.00000000000E+00 0.  1.
         -1   -1    0    0    0  501 -0.00000000000E+00 -0.00000000000E+00 -0.79859230381E+01  0.79859230381E+01  0.00000000000E+00 0.  1.
         35    2    1    2    0    0  0.00000000000E+00  0.00000000000E+00  0.23621205552E+04  0.23780924013E+04  0.27515441430E+03 0.  0.
         25    1    3    3    0    0  0.61863715964E+02  0.15509519299E+02  0.13663911490E+04  0.13731323449E+04  0.12000000000E+03 0.  0.
         25    1    3    3    0    0 -0.61863715964E+02 -0.15509519299E+02  0.99572940615E+03  0.10049600563E+04  0.12000000000E+03 0.  0.
<mgrwt>
<rscale>  0 0.27515441E+03</rscale>
<asrwt>0</asrwt>
<pdfrwt beam="1">  1        1 0.36463121E+00 0.27515441E+03</pdfrwt>
<pdfrwt beam="2">  1       -1 0.12286054E-02 0.27515441E+03</pdfrwt>
<totfact> 0.26974375E+03</totfact>
</mgrwt>
</event>
<event>
 5    1  0.1125356E+001  0.2749715E+03  0.7818608E-02  0.1098468E+00
         -1   -1    0    0    0  501 -0.00000000000E+00  0.00000000000E+00  0.37326780744E+02  0.37326780744E+02  0.00000000000E+00 0. -1.
          1   -1    0    0  501    0  0.00000000000E+00 -0.00000000000E+00 -0.50640139570E+03  0.50640139570E+03  0.00000000000E+00 0. -1.
         35    2    1    2    0    0  0.00000000000E+00  0.00000000000E+00 -0.46907461495E+03  0.54372817644E+03  0.27497151755E+03 0.  0.
         25    1    3    3    0    0  0.13704457495E+02  0.30910982522E+02 -0.34914169787E+03  0.37073336266E+03  0.12000000000E+03 0.  0.
         25    1    3    3    0    0 -0.13704457495E+02 -0.30910982522E+02 -0.11993291708E+03  0.17299481378E+03  0.12000000000E+03 0.  0.
<mgrwt>
<rscale>  0 0.27497152E+03</rscale>
<asrwt>0</asrwt>
<pdfrwt beam="1">  1        1 0.77907903E-01 0.27497152E+03</pdfrwt>
<pdfrwt beam="2">  1       -1 0.57425819E-02 0.27497152E+03</pdfrwt>
<totfact> 0.63089847E+03</totfact>
</mgrwt>
</event>
<event>
 5    1  0.1125356E+001  0.2729963E+03  0.7818608E-02  0.1099577E+00
         -2   -1    0    0    0  501 -0.00000000000E+00  0.00000000000E+00  0.70729467148E+02  0.70729467148E+02  0.00000000000E+00 0. -1.
          2   -1    0    0  501    0  0.00000000000E+00 -0.00000000000E+00 -0.26342264000E+03  0.26342264000E+03  0.00000000000E+00 0. -1.
         35    2    1    2    0    0  0.00000000000E+00  0.00000000000E+00 -0.19269317285E+03  0.33415210714E+03  0.27299628541E+03 0.  0.
         25    1    3    3    0    0 -0.23132892233E+02 -0.38405979834E+01 -0.22075252570E+02  0.12424651976E+03  0.12000000000E+03 0.  0.
         25    1    3    3    0    0  0.23132892233E+02  0.38405979834E+01 -0.17061792028E+03  0.20990558739E+03  0.12000000000E+03 0.  0.
<mgrwt>
<rscale>  0 0.27299629E+03</rscale>
<asrwt>0</asrwt>
<pdfrwt beam="1">  1        2 0.40526559E-01 0.27299629E+03</pdfrwt>
<pdfrwt beam="2">  1       -2 0.10881457E-01 0.27299629E+03</pdfrwt>
<totfact> 0.72389424E+03</totfact>
</mgrwt>
</event>
<event>
 5    1  0.1125356E+001  0.2754381E+03  0.7818608E-02  0.1098207E+00
         -2   -1    0    0    0  501 -0.00000000000E+00  0.00000000000E+00  0.38732025316E+02  0.38732025316E+02  0.00000000000E+00 0.  1.
          2   -1    0    0  501    0  0.00000000000E+00 -0.00000000000E+00 -0.48968630049E+03  0.48968630049E+03  0.00000000000E+00 0.  1.
         35    2    1    2    0    0  0.00000000000E+00  0.00000000000E+00 -0.45095427518E+03  0.52841832581E+03  0.27543813961E+03 0.  0.
         25    1    3    3    0    0 -0.17046452040E+02 -0.64613124174E+02 -0.20618680222E+03  0.24774671492E+03  0.12000000000E+03 0.  0.
         25    1    3    3    0    0  0.17046452040E+02  0.64613124174E+02 -0.24476747295E+03  0.28067161089E+03  0.12000000000E+03 0.  0.
<mgrwt>
<rscale>  0 0.27543814E+03</rscale>
<asrwt>0</asrwt>
<pdfrwt beam="1">  1        2 0.75336353E-01 0.27543814E+03</pdfrwt>
<pdfrwt beam="2">  1       -2 0.59587732E-02 0.27543814E+03</pdfrwt>
<totfact> 0.94791293E+03</totfact>
</mgrwt>
</event>
<event>
 5    1  0.1125356E+001  0.2752038E+03  0.7818608E-02  0.1098338E+00
          2   -1    0    0  501    0  0.00000000000E+00  0.00000000000E+00  0.16900527508E+04  0.16900527508E+04  0.00000000000E+00 0. -1.
         -2   -1    0    0    0  501 -0.00000000000E+00 -0.00000000000E+00 -0.11203364848E+02  0.11203364848E+02  0.00000000000E+00 0. -1.
         35    2    1    2    0    0  0.00000000000E+00  0.00000000000E+00  0.16788493860E+04  0.17012561157E+04  0.27520376146E+03 0.  0.
         25    1    3    3    0    0  0.59607378970E+02 -0.30428575051E+02  0.88541158079E+03  0.89600926625E+03  0.12000000000E+03 0.  0.
         25    1    3    3    0    0 -0.59607378970E+02  0.30428575051E+02  0.79343780518E+03  0.80524684942E+03  0.12000000000E+03 0.  0.
<mgrwt>
<rscale>  0 0.27520376E+03</rscale>
<asrwt>0</asrwt>
<pdfrwt beam="1">  1        2 0.26000791E+00 0.27520376E+03</pdfrwt>
<pdfrwt beam="2">  1       -2 0.17235959E-02 0.27520376E+03</pdfrwt>
<totfact> 0.10405187E+04</totfact>
</mgrwt>
</event>
<event>
 5    1  0.1125356E+001  0.2735135E+03  0.7818608E-02  0.1099285E+00
          2   -1    0    0  501    0  0.00000000000E+00  0.00000000000E+00  0.18052647776E+04  0.18052647776E+04  0.00000000000E+00 0.  1.
         -2   -1    0    0    0  501 -0.00000000000E+00 -0.00000000000E+00 -0.10359924162E+02  0.10359924162E+02  0.00000000000E+00 0.  1.
         35    2    1    2    0    0  0.00000000000E+00  0.00000000000E+00  0.17949048534E+04  0.18156247017E+04  0.27351348185E+03 0.  0.
         25    1    3    3    0    0 -0.33393493773E+01  0.34260882394E+02  0.52681704562E+03  0.54140664834E+03  0.12000000000E+03 0.  0.
         25    1    3    3    0    0  0.33393493773E+01 -0.34260882394E+02  0.12680878078E+04  0.12742180534E+04  0.12000000000E+03 0.  0.
<mgrwt>
<rscale>  0 0.27351348E+03</rscale>
<asrwt>0</asrwt>
<pdfrwt beam="1">  1        2 0.27773279E+00 0.27351348E+03</pdfrwt>
<pdfrwt beam="2">  1       -2 0.15938359E-02 0.27351348E+03</pdfrwt>
<totfact> 0.10149619E+04</totfact>
</mgrwt>
</event>
<event>
 5    1  0.1125356E+001  0.2746060E+03  0.7818608E-02  0.1098672E+00
         -2   -1    0    0    0  501 -0.00000000000E+00  0.00000000000E+00  0.95940347870E+02  0.95940347870E+02  0.00000000000E+00 0. -1.
          2   -1    0    0  501    0  0.00000000000E+00 -0.00000000000E+00 -0.19649826515E+03  0.19649826515E+03  0.00000000000E+00 0. -1.
         35    2    1    2    0    0  0.00000000000E+00  0.00000000000E+00 -0.10055791728E+03  0.29243861302E+03  0.27460598620E+03 0.  0.
         25    1    3    3    0    0 -0.39189571311E+02 -0.13163714932E+02 -0.10605376817E+03  0.16539802790E+03  0.12000000000E+03 0.  0.
         25    1    3    3    0    0  0.39189571311E+02  0.13163714932E+02  0.54958508917E+01  0.12704058512E+03  0.12000000000E+03 0.  0.
<mgrwt>
<rscale>  0 0.27460599E+03</rscale>
<asrwt>0</asrwt>
<pdfrwt beam="1">  1        2 0.30230502E-01 0.27460599E+03</pdfrwt>
<pdfrwt beam="2">  1       -2 0.14760054E-01 0.27460599E+03</pdfrwt>
<totfact> 0.60681121E+03</totfact>
</mgrwt>
</event>
<event>
 5    1  0.1125356E+001  0.2749727E+03  0.7818608E-02  0.1098467E+00
         -1   -1    0    0    0  501 -0.00000000000E+00  0.00000000000E+00  0.96580195492E+01  0.96580195492E+01  0.00000000000E+00 0. -1.
          1   -1    0    0  501    0  0.00000000000E+00 -0.00000000000E+00 -0.19571817627E+04  0.19571817627E+04  0.00000000000E+00 0. -1.
         35    2    1    2    0    0  0.00000000000E+00  0.00000000000E+00 -0.19475237432E+04  0.19668397823E+04  0.27497272392E+03 0.  0.
         25    1    3    3    0    0 -0.42566124442E+02  0.25530425113E+02 -0.12967369718E+04  0.13032231013E+04  0.12000000000E+03 0.  0.
         25    1    3    3    0    0  0.42566124442E+02 -0.25530425113E+02 -0.65078677134E+03  0.66361668100E+03  0.12000000000E+03 0.  0.
<mgrwt>
<rscale>  0 0.27497272E+03</rscale>
<asrwt>0</asrwt>
<pdfrwt beam="1">  1        1 0.30110460E+00 0.27497272E+03</pdfrwt>
<pdfrwt beam="2">  1       -1 0.14858506E-02 0.27497272E+03</pdfrwt>
<totfact> 0.38063436E+03</totfact>
</mgrwt>
</event>
<event>
 5    1  0.1125356E+001  0.2749915E+03  0.7818608E-02  0.1098456E+00
          4   -1    0    0  501    0  0.00000000000E+00  0.00000000000E+00  0.15892684502E+03  0.15892684502E+03  0.00000000000E+00 0.  1.
         -4   -1    0    0    0  501 -0.00000000000E+00 -0.00000000000E+00 -0.11895464530E+03  0.11895464530E+03  0.00000000000E+00 0.  1.
         35    2    1    2    0    0  0.00000000000E+00  0.00000000000E+00  0.39972199713E+02  0.27788149032E+03  0.27499153790E+03 0.  0.
         25    1    3    3    0    0  0.37061564001E+02  0.31569338630E+02  0.66676698879E+02  0.14565701096E+03  0.12000000000E+03 0.  0.
         25    1    3    3    0    0 -0.37061564001E+02 -0.31569338630E+02 -0.26704499166E+02  0.13222447937E+03  0.12000000000E+03 0.  0.
<mgrwt>
<rscale>  0 0.27499154E+03</rscale>
<asrwt>0</asrwt>
<pdfrwt beam="1">  1        4 0.24450284E-01 0.27499154E+03</pdfrwt>
<pdfrwt beam="2">  1       -4 0.18300715E-01 0.27499154E+03</pdfrwt>
<totfact> 0.77532883E+02</totfact>
</mgrwt>
</event>
<event>
 5    1  0.1125356E+001  0.2752873E+03  0.7818608E-02  0.1098291E+00
          1   -1    0    0  501    0  0.00000000000E+00  0.00000000000E+00  0.29185429371E+04  0.29185429371E+04  0.00000000000E+00 0.  1.
         -1   -1    0    0    0  501 -0.00000000000E+00 -0.00000000000E+00 -0.64915192763E+01  0.64915192763E+01  0.00000000000E+00 0.  1.
         35    2    1    2    0    0  0.00000000000E+00  0.00000000000E+00  0.29120514178E+04  0.29250344564E+04  0.27528732433E+03 0.  0.
         25    1    3    3    0    0  0.26957380521E+02  0.17525767881E+02  0.82634936534E+03  0.83563576186E+03  0.12000000000E+03 0.  0.
         25    1    3    3    0    0 -0.26957380521E+02 -0.17525767881E+02  0.20857020525E+04  0.20893986945E+04  0.12000000000E+03 0.  0.
<mgrwt>
<rscale>  0 0.27528732E+03</rscale>
<asrwt>0</asrwt>
<pdfrwt beam="1">  1        1 0.44900556E+00 0.27528732E+03</pdfrwt>
<pdfrwt beam="2">  1       -1 0.99869760E-03 0.27528732E+03</pdfrwt>
<totfact> 0.15543732E+03</totfact>
</mgrwt>
</event>
<event>
 5    1  0.1125356E+001  0.2746987E+03  0.7818608E-02  0.1098620E+00
          2   -1    0    0  501    0  0.00000000000E+00  0.00000000000E+00  0.16720902414E+03  0.16720902414E+03  0.00000000000E+00 0.  1.
         -2   -1    0    0    0  501 -0.00000000000E+00 -0.00000000000E+00 -0.11282196385E+03  0.11282196385E+03  0.00000000000E+00 0.  1.
         35    2    1    2    0    0  0.00000000000E+00  0.00000000000E+00  0.54387060285E+02  0.28003098799E+03  0.27469874755E+03 0.  0.
         25    1    3    3    0    0 -0.33926941215E+01 -0.65811868997E+02  0.15927398547E+02  0.13782740837E+03  0.12000000000E+03 0.  0.
         25    1    3    3    0    0  0.33926941215E+01  0.65811868997E+02  0.38459661737E+02  0.14220357961E+03  0.12000000000E+03 0.  0.
<mgrwt>
<rscale>  0 0.27469875E+03</rscale>
<asrwt>0</asrwt>
<pdfrwt beam="1">  1        2 0.25724465E-01 0.27469875E+03</pdfrwt>
<pdfrwt beam="2">  1       -2 0.17357225E-01 0.27469875E+03</pdfrwt>
<totfact> 0.55383356E+03</totfact>
</mgrwt>
</event>
<event>
 5    1  0.1125356E+001  0.2747368E+03  0.7818608E-02  0.1098599E+00
          2   -1    0    0  501    0  0.00000000000E+00  0.00000000000E+00  0.21964051448E+04  0.21964051448E+04  0.00000000000E+00 0.  1.
         -2   -1    0    0    0  501 -0.00000000000E+00 -0.00000000000E+00 -0.85913490656E+01  0.85913490656E+01  0.00000000000E+00 0.  1.
         35    2    1    2    0    0  0.00000000000E+00  0.00000000000E+00  0.21878137957E+04  0.22049964939E+04  0.27473684346E+03 0.  0.
         25    1    3    3    0    0 -0.35256566761E+02 -0.43457509401E+02  0.80027676665E+03  0.81115626353E+03  0.12000000000E+03 0.  0.
         25    1    3    3    0    0  0.35256566761E+02  0.43457509401E+02  0.13875370291E+04  0.13938402303E+04  0.12000000000E+03 0.  0.
<mgrwt>
<rscale>  0 0.27473684E+03</rscale>
<asrwt>0</asrwt>
<pdfrwt beam="1">  1        2 0.33790804E+00 0.27473684E+03</pdfrwt>
<pdfrwt beam="2">  1       -2 0.13217478E-02 0.27473684E+03</pdfrwt>
<totfact> 0.83030582E+03</totfact>
</mgrwt>
</event>
<event>
 5    1  0.1125356E+001  0.2726095E+03  0.7818608E-02  0.1099795E+00
         -2   -1    0    0    0  501 -0.00000000000E+00  0.00000000000E+00  0.21757670982E+02  0.21757670982E+02  0.00000000000E+00 0. -1.
          2   -1    0    0  501    0  0.00000000000E+00 -0.00000000000E+00 -0.85390532392E+03  0.85390532392E+03  0.00000000000E+00 0. -1.
         35    2    1    2    0    0  0.00000000000E+00  0.00000000000E+00 -0.83214765293E+03  0.87566299490E+03  0.27260954560E+03 0.  0.
         25    1    3    3    0    0 -0.43425273319E+02  0.25150526586E+02 -0.54697391117E+03  0.56222661165E+03  0.12000000000E+03 0.  0.
         25    1    3    3    0    0  0.43425273319E+02 -0.25150526586E+02 -0.28517374176E+03  0.31343638324E+03  0.12000000000E+03 0.  0.
<mgrwt>
<rscale>  0 0.27260955E+03</rscale>
<asrwt>0</asrwt>
<pdfrwt beam="1">  1        2 0.13137004E+00 0.27260955E+03</pdfrwt>
<pdfrwt beam="2">  1       -2 0.33473342E-02 0.27260955E+03</pdfrwt>
<totfact> 0.11671654E+04</totfact>
</mgrwt>
</event>
<event>
 5    1  0.1125356E+001  0.2754376E+03  0.7818608E-02  0.1098207E+00
          2   -1    0    0  501    0  0.00000000000E+00  0.00000000000E+00  0.14283564711E+03  0.14283564711E+03  0.00000000000E+00 0.  1.
         -2   -1    0    0    0  501 -0.00000000000E+00 -0.00000000000E+00 -0.13278522479E+03  0.13278522479E+03  0.00000000000E+00 0.  1.
         35    2    1    2    0    0  0.00000000000E+00  0.00000000000E+00  0.10050422323E+02  0.27562087190E+03  0.27543756831E+03 0.  0.
         25    1    3    3    0    0  0.71150029587E+01 -0.16686583724E+00 -0.62219304901E+02  0.13535838730E+03  0.12000000000E+03 0.  0.
         25    1    3    3    0    0 -0.71150029587E+01  0.16686583724E+00  0.72269727224E+02  0.14026248459E+03  0.12000000000E+03 0.  0.
<mgrwt>
<rscale>  0 0.27543757E+03</rscale>
<asrwt>0</asrwt>
<pdfrwt beam="1">  1        2 0.21974715E-01 0.27543757E+03</pdfrwt>
<pdfrwt beam="2">  1       -2 0.20428496E-01 0.27543757E+03</pdfrwt>
<totfact> 0.50141992E+03</totfact>
</mgrwt>
</event>
<event>
 5    1  0.1125356E+001  0.2756705E+03  0.7818608E-02  0.1098077E+00
          2   -1    0    0  501    0  0.00000000000E+00  0.00000000000E+00  0.24596280249E+04  0.24596280249E+04  0.00000000000E+00 0. -1.
         -2   -1    0    0    0  501 -0.00000000000E+00 -0.00000000000E+00 -0.77241582660E+01  0.77241582660E+01  0.00000000000E+00 0. -1.
         35    2    1    2    0    0  0.00000000000E+00  0.00000000000E+00  0.24519038666E+04  0.24673521831E+04  0.27567049998E+03 0.  0.
         25    1    3    3    0    0  0.44146003747E+02  0.15903184653E+02  0.16641339019E+04  0.16691145630E+04  0.12000000000E+03 0.  0.
         25    1    3    3    0    0 -0.44146003747E+02 -0.15903184653E+02  0.78776996474E+03  0.79823762018E+03  0.12000000000E+03 0.  0.
<mgrwt>
<rscale>  0 0.27567050E+03</rscale>
<asrwt>0</asrwt>
<pdfrwt beam="1">  1        2 0.37840369E+00 0.27567050E+03</pdfrwt>
<pdfrwt beam="2">  1       -2 0.11883340E-02 0.27567050E+03</pdfrwt>
<totfact> 0.69980771E+03</totfact>
</mgrwt>
</event>
<event>
 5    1  0.1125356E+001  0.2752268E+03  0.7818608E-02  0.1098325E+00
          1   -1    0    0  501    0  0.00000000000E+00  0.00000000000E+00  0.13703196751E+03  0.13703196751E+03  0.00000000000E+00 0.  1.
         -1   -1    0    0    0  501 -0.00000000000E+00 -0.00000000000E+00 -0.13819728502E+03  0.13819728502E+03  0.00000000000E+00 0.  1.
         35    2    1    2    0    0  0.00000000000E+00  0.00000000000E+00 -0.11653175067E+01  0.27522925253E+03  0.27522678555E+03 0.  0.
         25    1    3    3    0    0 -0.55869782032E+02  0.10675161719E+01 -0.38197803320E+02  0.13777388836E+03  0.12000000000E+03 0.  0.
         25    1    3    3    0    0  0.55869782032E+02 -0.10675161719E+01  0.37032485813E+02  0.13745536418E+03  0.12000000000E+03 0.  0.
<mgrwt>
<rscale>  0 0.27522679E+03</rscale>
<asrwt>0</asrwt>
<pdfrwt beam="1">  1        1 0.21081841E-01 0.27522679E+03</pdfrwt>
<pdfrwt beam="2">  1       -1 0.21261121E-01 0.27522679E+03</pdfrwt>
<totfact> 0.43208997E+03</totfact>
</mgrwt>
</event>
<event>
 5    1  0.1125356E+001  0.2753695E+03  0.7818608E-02  0.1098245E+00
         -2   -1    0    0    0  501 -0.00000000000E+00  0.00000000000E+00  0.63287243119E+02  0.63287243119E+02  0.00000000000E+00 0.  1.
          2   -1    0    0  501    0  0.00000000000E+00 -0.00000000000E+00 -0.29954047793E+03  0.29954047793E+03  0.00000000000E+00 0.  1.
         35    2    1    2    0    0  0.00000000000E+00  0.00000000000E+00 -0.23625323481E+03  0.36282772105E+03  0.27536950486E+03 0.  0.
         25    1    3    3    0    0  0.44055406630E+02 -0.26652737658E+02 -0.60605373912E+02  0.14395922556E+03  0.12000000000E+03 0.  0.
         25    1    3    3    0    0 -0.44055406630E+02  0.26652737658E+02 -0.17564786090E+03  0.21886849549E+03  0.12000000000E+03 0.  0.
<mgrwt>
<rscale>  0 0.27536950E+03</rscale>
<asrwt>0</asrwt>
<pdfrwt beam="1">  1        2 0.46083150E-01 0.27536950E+03</pdfrwt>
<pdfrwt beam="2">  1       -2 0.97364991E-02 0.27536950E+03</pdfrwt>
<totfact> 0.75285301E+03</totfact>
</mgrwt>
</event>
<event>
 5    1  0.1125356E+001  0.2759731E+03  0.7818608E-02  0.1097909E+00
          1   -1    0    0  501    0  0.00000000000E+00  0.00000000000E+00  0.42881095770E+03  0.42881095770E+03  0.00000000000E+00 0. -1.
         -1   -1    0    0    0  501 -0.00000000000E+00 -0.00000000000E+00 -0.44402508813E+02  0.44402508813E+02  0.00000000000E+00 0. -1.
         35    2    1    2    0    0  0.00000000000E+00  0.00000000000E+00  0.38440844889E+03  0.47321346651E+03  0.27597305903E+03 0.  0.
         25    1    3    3    0    0  0.53283090735E+02 -0.32641406501E+02  0.14569377135E+03  0.19882460660E+03  0.12000000000E+03 0.  0.
         25    1    3    3    0    0 -0.53283090735E+02  0.32641406501E+02  0.23871467754E+03  0.27438885992E+03  0.12000000000E+03 0.  0.
<mgrwt>
<rscale>  0 0.27597306E+03</rscale>
<asrwt>0</asrwt>
<pdfrwt beam="1">  1        1 0.65970914E-01 0.27597306E+03</pdfrwt>
<pdfrwt beam="2">  1       -1 0.68311555E-02 0.27597306E+03</pdfrwt>
<totfact> 0.60374227E+03</totfact>
</mgrwt>
</event>
<event>
 5    1  0.1125356E+001  0.2760234E+03  0.7818608E-02  0.1097881E+00
          3   -1    0    0  501    0  0.00000000000E+00  0.00000000000E+00  0.14813612951E+03  0.14813612951E+03  0.00000000000E+00 0. -1.
         -3   -1    0    0    0  501 -0.00000000000E+00 -0.00000000000E+00 -0.12857925381E+03  0.12857925381E+03  0.00000000000E+00 0. -1.
         35    2    1    2    0    0  0.00000000000E+00  0.00000000000E+00  0.19556875695E+02  0.27671538332E+03  0.27602342650E+03 0.  0.
         25    1    3    3    0    0  0.39702606895E+02  0.41215562562E+02 -0.27357824318E+02  0.13573308419E+03  0.12000000000E+03 0.  0.
         25    1    3    3    0    0 -0.39702606895E+02 -0.41215562562E+02  0.46914700013E+02  0.14098229913E+03  0.12000000000E+03 0.  0.
<mgrwt>
<rscale>  0 0.27602343E+03</rscale>
<asrwt>0</asrwt>
<pdfrwt beam="1">  1        3 0.22790174E-01 0.27602343E+03</pdfrwt>
<pdfrwt beam="2">  1       -3 0.19781424E-01 0.27602343E+03</pdfrwt>
<totfact> 0.10344297E+03</totfact>
</mgrwt>
</event>
<event>
 5    1  0.1125356E+001  0.2722845E+03  0.7818608E-02  0.1099979E+00
         -2   -1    0    0    0  501 -0.00000000000E+00  0.00000000000E+00  0.58018932562E+02  0.58018932562E+02  0.00000000000E+00 0. -1.
          2   -1    0    0  501    0  0.00000000000E+00 -0.00000000000E+00 -0.31945976402E+03  0.31945976402E+03  0.00000000000E+00 0. -1.
         35    2    1    2    0    0  0.00000000000E+00  0.00000000000E+00 -0.26144083145E+03  0.37747869658E+03  0.27228451667E+03 0.  0.
         25    1    3    3    0    0  0.64321391594E+01 -0.60406648290E+02 -0.15994485799E+03  0.20898012626E+03  0.12000000000E+03 0.  0.
         25    1    3    3    0    0 -0.64321391594E+01  0.60406648290E+02 -0.10149597346E+03  0.16849857032E+03  0.12000000000E+03 0.  0.
<mgrwt>
<rscale>  0 0.27228452E+03</rscale>
<asrwt>0</asrwt>
<pdfrwt beam="1">  1        2 0.49147656E-01 0.27228452E+03</pdfrwt>
<pdfrwt beam="2">  1       -2 0.89259897E-02 0.27228452E+03</pdfrwt>
<totfact> 0.80556967E+03</totfact>
</mgrwt>
</event>
<event>
 5    1  0.1125356E+001  0.2744672E+03  0.7818608E-02  0.1098750E+00
         -1   -1    0    0    0  501 -0.00000000000E+00  0.00000000000E+00  0.72560150786E+02  0.72560150786E+02  0.00000000000E+00 0.  1.
          1   -1    0    0  501    0  0.00000000000E+00 -0.00000000000E+00 -0.25955103245E+03  0.25955103245E+03  0.00000000000E+00 0.  1.
         35    2    1    2    0    0  0.00000000000E+00  0.00000000000E+00 -0.18699088166E+03  0.33211118323E+03  0.27446720788E+03 0.  0.
         25    1    3    3    0    0  0.56022017779E+01  0.20262900405E+02 -0.16993865140E+03  0.20909594696E+03  0.12000000000E+03 0.  0.
         25    1    3    3    0    0 -0.56022017779E+01 -0.20262900405E+02 -0.17052230264E+02  0.12301523627E+03  0.12000000000E+03 0.  0.
<mgrwt>
<rscale>  0 0.27446721E+03</rscale>
<asrwt>0</asrwt>
<pdfrwt beam="1">  1        1 0.39930928E-01 0.27446721E+03</pdfrwt>
<pdfrwt beam="2">  1       -1 0.11163100E-01 0.27446721E+03</pdfrwt>
<totfact> 0.53671825E+03</totfact>
</mgrwt>
</event>
<event>
 5    1  0.1125356E+001  0.2753056E+03  0.7818608E-02  0.1098281E+00
          1   -1    0    0  501    0  0.00000000000E+00  0.00000000000E+00  0.74310672742E+03  0.74310672742E+03  0.00000000000E+00 0. -1.
         -1   -1    0    0    0  501 -0.00000000000E+00 -0.00000000000E+00 -0.25498759987E+02  0.25498759987E+02  0.00000000000E+00 0. -1.
         35    2    1    2    0    0  0.00000000000E+00  0.00000000000E+00  0.71760796743E+03  0.76860548740E+03  0.27530564896E+03 0.  0.
         25    1    3    3    0    0 -0.12462595113E+02 -0.12021848345E+02  0.17683219153E+03  0.21440490917E+03  0.12000000000E+03 0.  0.
         25    1    3    3    0    0  0.12462595113E+02  0.12021848345E+02  0.54077577590E+03  0.55420057823E+03  0.12000000000E+03 0.  0.
<mgrwt>
<rscale>  0 0.27530565E+03</rscale>
<asrwt>0</asrwt>
<pdfrwt beam="1">  1        1 0.11432410E+00 0.27530565E+03</pdfrwt>
<pdfrwt beam="2">  1       -1 0.39228867E-02 0.27530565E+03</pdfrwt>
<totfact> 0.65144966E+03</totfact>
</mgrwt>
</event>
<event>
 5    1  0.1125356E+001  0.2740282E+03  0.7818608E-02  0.1098996E+00
          2   -1    0    0  501    0  0.00000000000E+00  0.00000000000E+00  0.58084557038E+03  0.58084557038E+03  0.00000000000E+00 0.  1.
         -2   -1    0    0    0  501 -0.00000000000E+00 -0.00000000000E+00 -0.32319877526E+02  0.32319877526E+02  0.00000000000E+00 0.  1.
         35    2    1    2    0    0  0.00000000000E+00  0.00000000000E+00  0.54852569286E+03  0.61316544791E+03  0.27402815692E+03 0.  0.
         25    1    3    3    0    0  0.64697164069E+02  0.28228578457E+01  0.30421378542E+03  0.33337624211E+03  0.12000000000E+03 0.  0.
         25    1    3    3    0    0 -0.64697164069E+02 -0.28228578457E+01  0.24431190744E+03  0.27978920580E+03  0.12000000000E+03 0.  0.
<mgrwt>
<rscale>  0 0.27402816E+03</rscale>
<asrwt>0</asrwt>
<pdfrwt beam="1">  1        2 0.89360849E-01 0.27402816E+03</pdfrwt>
<pdfrwt beam="2">  1       -2 0.49722893E-02 0.27402816E+03</pdfrwt>
<totfact> 0.10296271E+04</totfact>
</mgrwt>
</event>
<event>
 5    1  0.1125356E+001  0.2742845E+03  0.7818608E-02  0.1098852E+00
         -2   -1    0    0    0  501 -0.00000000000E+00  0.00000000000E+00  0.32942118089E+02  0.32942118089E+02  0.00000000000E+00 0. -1.
          2   -1    0    0  501    0  0.00000000000E+00 -0.00000000000E+00 -0.57094061201E+03  0.57094061201E+03  0.00000000000E+00 0. -1.
         35    2    1    2    0    0  0.00000000000E+00  0.00000000000E+00 -0.53799849392E+03  0.60388273009E+03  0.27428447322E+03 0.  0.
         25    1    3    3    0    0  0.21277755173E+02  0.21525541719E+02 -0.39910076469E+03  0.41784867139E+03  0.12000000000E+03 0.  0.
         25    1    3    3    0    0 -0.21277755173E+02 -0.21525541719E+02 -0.13889772923E+03  0.18603405870E+03  0.12000000000E+03 0.  0.
<mgrwt>
<rscale>  0 0.27428447E+03</rscale>
<asrwt>0</asrwt>
<pdfrwt beam="1">  1        2 0.87837013E-01 0.27428447E+03</pdfrwt>
<pdfrwt beam="2">  1       -2 0.50680184E-02 0.27428447E+03</pdfrwt>
<totfact> 0.10202322E+04</totfact>
</mgrwt>
</event>
<event>
 5    1  0.1125356E+001  0.2713993E+03  0.7818608E-02  0.1100481E+00
         -1   -1    0    0    0  501 -0.00000000000E+00  0.00000000000E+00  0.49444108663E+02  0.49444108663E+02  0.00000000000E+00 0.  1.
          1   -1    0    0  501    0  0.00000000000E+00 -0.00000000000E+00 -0.37242846844E+03  0.37242846844E+03  0.00000000000E+00 0.  1.
         35    2    1    2    0    0  0.00000000000E+00  0.00000000000E+00 -0.32298435978E+03  0.42187257710E+03  0.27139929007E+03 0.  0.
         25    1    3    3    0    0 -0.57426598439E+02 -0.21239995600E+02 -0.18681764576E+03  0.23032538807E+03  0.12000000000E+03 0.  0.
         25    1    3    3    0    0  0.57426598439E+02  0.21239995600E+02 -0.13616671402E+03  0.19154718904E+03  0.12000000000E+03 0.  0.
<mgrwt>
<rscale>  0 0.27139929E+03</rscale>
<asrwt>0</asrwt>
<pdfrwt beam="1">  1        1 0.57296690E-01 0.27139929E+03</pdfrwt>
<pdfrwt beam="2">  1       -1 0.76067856E-02 0.27139929E+03</pdfrwt>
<totfact> 0.61399749E+03</totfact>
</mgrwt>
</event>
<event>
 5    1  0.1125356E+001  0.2755562E+03  0.7818608E-02  0.1098141E+00
         -3   -1    0    0    0  501 -0.00000000000E+00  0.00000000000E+00  0.13401279940E+03  0.13401279940E+03  0.00000000000E+00 0. -1.
          3   -1    0    0  501    0  0.00000000000E+00 -0.00000000000E+00 -0.14164919143E+03  0.14164919143E+03  0.00000000000E+00 0. -1.
         35    2    1    2    0    0  0.00000000000E+00  0.00000000000E+00 -0.76363920355E+01  0.27566199083E+03  0.27555619882E+03 0.  0.
         25    1    3    3    0    0  0.35256360803E+02  0.47816499471E+02  0.28650020151E+02  0.13693156047E+03  0.12000000000E+03 0.  0.
         25    1    3    3    0    0 -0.35256360803E+02 -0.47816499471E+02 -0.36286412187E+02  0.13873043036E+03  0.12000000000E+03 0.  0.
<mgrwt>
<rscale>  0 0.27555620E+03</rscale>
<asrwt>0</asrwt>
<pdfrwt beam="1">  1        3 0.21792183E-01 0.27555620E+03</pdfrwt>
<pdfrwt beam="2">  1       -3 0.20617354E-01 0.27555620E+03</pdfrwt>
<totfact> 0.10414082E+03</totfact>
</mgrwt>
</event>
<event>
 5    1  0.1125356E+001  0.2764772E+03  0.7818608E-02  0.1097629E+00
          1   -1    0    0  501    0  0.00000000000E+00  0.00000000000E+00  0.18121055125E+03  0.18121055125E+03  0.00000000000E+00 0.  1.
         -1   -1    0    0    0  501 -0.00000000000E+00 -0.00000000000E+00 -0.10545690504E+03  0.10545690504E+03  0.00000000000E+00 0.  1.
         35    2    1    2    0    0  0.00000000000E+00  0.00000000000E+00  0.75753646207E+02  0.28666745630E+03  0.27647715201E+03 0.  0.
         25    1    3    3    0    0  0.60408084123E+02  0.31737479672E+02  0.45460758575E+02  0.14533782995E+03  0.12000000000E+03 0.  0.
         25    1    3    3    0    0 -0.60408084123E+02 -0.31737479672E+02  0.30292887632E+02  0.14132962635E+03  0.12000000000E+03 0.  0.
<mgrwt>
<rscale>  0 0.27647715E+03</rscale>
<asrwt>0</asrwt>
<pdfrwt beam="1">  1        1 0.27878546E-01 0.27647715E+03</pdfrwt>
<pdfrwt beam="2">  1       -1 0.16224139E-01 0.27647715E+03</pdfrwt>
<totfact> 0.46832943E+03</totfact>
</mgrwt>
</event>
<event>
 4    1  0.1125356E+001  0.2584475E+03  0.7818608E-02  0.1108080E+00
         -2   -1    0    0    0  501 -0.00000000000E+00  0.00000000000E+00  0.10062514126E+03  0.10062514126E+03  0.00000000000E+00 0. -1.
          2   -1    0    0  501    0  0.00000000000E+00 -0.00000000000E+00 -0.16595029047E+03  0.16595029047E+03  0.00000000000E+00 0. -1.
         25    1    1    2    0    0 -0.41093441550E+01 -0.26303037537E+02 -0.73791863210E+02  0.14336657759E+03  0.12000000000E+03 0.  0.
         25    1    1    2    0    0  0.41093441550E+01  0.26303037537E+02  0.84667140083E+01  0.12320885414E+03  0.12000000000E+03 0.  0.
<mgrwt>
<rscale>  0 0.25844745E+03</rscale>
<asrwt>0</asrwt>
<pdfrwt beam="1">  1        2 0.25530814E-01 0.25844745E+03</pdfrwt>
<pdfrwt beam="2">  1       -2 0.15480791E-01 0.25844745E+03</pdfrwt>
<totfact> 0.67434810E+03</totfact>
</mgrwt>
</event>
<event>
 5    1  0.1125356E+001  0.2744936E+03  0.7818608E-02  0.1098735E+00
          1   -1    0    0  501    0  0.00000000000E+00  0.00000000000E+00  0.58616464125E+03  0.58616464125E+03  0.00000000000E+00 0.  1.
         -1   -1    0    0    0  501 -0.00000000000E+00 -0.00000000000E+00 -0.32135494257E+02  0.32135494257E+02  0.00000000000E+00 0.  1.
         35    2    1    2    0    0  0.00000000000E+00  0.00000000000E+00  0.55402914699E+03  0.61830013551E+03  0.27449364629E+03 0.  0.
         25    1    3    3    0    0 -0.27738171901E+02 -0.57698416382E+02  0.23559180727E+03  0.27203311028E+03  0.12000000000E+03 0.  0.
         25    1    3    3    0    0  0.27738171901E+02  0.57698416382E+02  0.31843733972E+03  0.34626702523E+03  0.12000000000E+03 0.  0.
<mgrwt>
<rscale>  0 0.27449365E+03</rscale>
<asrwt>0</asrwt>
<pdfrwt beam="1">  1        1 0.90179168E-01 0.27449365E+03</pdfrwt>
<pdfrwt beam="2">  1       -1 0.49439226E-02 0.27449365E+03</pdfrwt>
<totfact> 0.64792740E+03</totfact>
</mgrwt>
</event>
<event>
 5    1  0.1125356E+001  0.2751630E+03  0.7818608E-02  0.1098361E+00
         -2   -1    0    0    0  501 -0.00000000000E+00  0.00000000000E+00  0.97781651793E+01  0.97781651793E+01  0.00000000000E+00 0.  1.
          2   -1    0    0  501    0  0.00000000000E+00 -0.00000000000E+00 -0.19358100488E+04  0.19358100488E+04  0.00000000000E+00 0.  1.
         35    2    1    2    0    0  0.00000000000E+00  0.00000000000E+00 -0.19260318836E+04  0.19455882139E+04  0.27516300923E+03 0.  0.
         25    1    3    3    0    0  0.49918525553E+02 -0.44441241986E+02 -0.10185948792E+04  0.10278143855E+04  0.12000000000E+03 0.  0.
         25    1    3    3    0    0 -0.49918525553E+02  0.44441241986E+02 -0.90743700443E+03  0.91777382846E+03  0.12000000000E+03 0.  0.
<mgrwt>
<rscale>  0 0.27516301E+03</rscale>
<asrwt>0</asrwt>
<pdfrwt beam="1">  1        2 0.29781679E+00 0.27516301E+03</pdfrwt>
<pdfrwt beam="2">  1       -2 0.15043338E-02 0.27516301E+03</pdfrwt>
<totfact> 0.94340213E+03</totfact>
</mgrwt>
</event>
<event>
 5    1  0.1125356E+001  0.2715930E+03  0.7818608E-02  0.1100371E+00
         -4   -1    0    0    0  501 -0.00000000000E+00  0.00000000000E+00  0.17129269898E+03  0.17129269898E+03  0.00000000000E+00 0.  1.
          4   -1    0    0  501    0  0.00000000000E+00 -0.00000000000E+00 -0.10765605235E+03  0.10765605235E+03  0.00000000000E+00 0.  1.
         35    2    1    2    0    0  0.00000000000E+00  0.00000000000E+00  0.63636646632E+02  0.27894875133E+03  0.27159304681E+03 0.  0.
         25    1    3    3    0    0  0.21244062951E+02  0.59644328053E+02  0.26013739121E+02  0.13815017446E+03  0.12000000000E+03 0.  0.
         25    1    3    3    0    0 -0.21244062951E+02 -0.59644328053E+02  0.37622907511E+02  0.14079857687E+03  0.12000000000E+03 0.  0.
<mgrwt>
<rscale>  0 0.27159305E+03</rscale>
<asrwt>0</asrwt>
<pdfrwt beam="1">  1        4 0.16562470E-01 0.27159305E+03</pdfrwt>
<pdfrwt beam="2">  1       -4 0.26352723E-01 0.27159305E+03</pdfrwt>
<totfact> 0.80441675E+02</totfact>
</mgrwt>
</event>
<event>
 5    1  0.1125356E+001  0.2746602E+03  0.7818608E-02  0.1098642E+00
         -2   -1    0    0    0  501 -0.00000000000E+00  0.00000000000E+00  0.24856758133E+03  0.24856758133E+03  0.00000000000E+00 0.  1.
          2   -1    0    0  501    0  0.00000000000E+00 -0.00000000000E+00 -0.75872933040E+02  0.75872933040E+02  0.00000000000E+00 0.  1.
         35    2    1    2    0    0  0.00000000000E+00  0.00000000000E+00  0.17269464829E+03  0.32444051437E+03  0.27466016424E+03 0.  0.
         25    1    3    3    0    0  0.36341966008E+02 -0.50742559147E+02  0.11440044186E+03  0.17715249617E+03  0.12000000000E+03 0.  0.
         25    1    3    3    0    0 -0.36341966008E+02  0.50742559147E+02  0.58294206432E+02  0.14728801820E+03  0.12000000000E+03 0.  0.
<mgrwt>
<rscale>  0 0.27466016E+03</rscale>
<asrwt>0</asrwt>
<pdfrwt beam="1">  1        2 0.11672759E-01 0.27466016E+03</pdfrwt>
<pdfrwt beam="2">  1       -2 0.38241166E-01 0.27466016E+03</pdfrwt>
<totfact> 0.34172731E+03</totfact>
</mgrwt>
</event>
<event>
 5    1  0.1125356E+001  0.2747798E+03  0.7818608E-02  0.1098575E+00
         -1   -1    0    0    0  501 -0.00000000000E+00  0.00000000000E+00  0.88879437039E+02  0.88879437039E+02  0.00000000000E+00 0. -1.
          1   -1    0    0  501    0  0.00000000000E+00 -0.00000000000E+00 -0.21237738737E+03  0.21237738737E+03  0.00000000000E+00 0. -1.
         35    2    1    2    0    0  0.00000000000E+00  0.00000000000E+00 -0.12349795033E+03  0.30125682441E+03  0.27477978550E+03 0.  0.
         25    1    3    3    0    0  0.13185799574E+02 -0.61004784035E+02 -0.88164899410E+02  0.16145742000E+03  0.12000000000E+03 0.  0.
         25    1    3    3    0    0 -0.13185799574E+02  0.61004784035E+02 -0.35333050921E+02  0.13979940441E+03  0.12000000000E+03 0.  0.
<mgrwt>
<rscale>  0 0.27477979E+03</rscale>
<asrwt>0</asrwt>
<pdfrwt beam="1">  1        1 0.32673444E-01 0.27477979E+03</pdfrwt>
<pdfrwt beam="2">  1       -1 0.13673759E-01 0.27477979E+03</pdfrwt>
<totfact> 0.50269345E+03</totfact>
</mgrwt>
</event>
<event>
 5    1  0.1125356E+001  0.2746390E+03  0.7818608E-02  0.1098654E+00
         -2   -1    0    0    0  501 -0.00000000000E+00  0.00000000000E+00  0.82429129009E+01  0.82429129009E+01  0.00000000000E+00 0. -1.
          2   -1    0    0  501    0  0.00000000000E+00 -0.00000000000E+00 -0.22876183648E+04  0.22876183648E+04  0.00000000000E+00 0. -1.
         35    2    1    2    0    0  0.00000000000E+00  0.00000000000E+00 -0.22793754519E+04  0.22958612777E+04  0.27463895523E+03 0.  0.
         25    1    3    3    0    0 -0.28208627048E+02  0.24912368389E+02 -0.67875160933E+03  0.69030435310E+03  0.12000000000E+03 0.  0.
         25    1    3    3    0    0  0.28208627048E+02 -0.24912368389E+02 -0.16006238426E+04  0.16055569246E+04  0.12000000000E+03 0.  0.
<mgrwt>
<rscale>  0 0.27463896E+03</rscale>
<asrwt>0</asrwt>
<pdfrwt beam="1">  1        2 0.35194189E+00 0.27463896E+03</pdfrwt>
<pdfrwt beam="2">  1       -2 0.12681383E-02 0.27463896E+03</pdfrwt>
<totfact> 0.78847022E+03</totfact>
</mgrwt>
</event>
<event>
 5    1  0.1125356E+001  0.2749869E+03  0.7818608E-02  0.1098459E+00
          2   -1    0    0  501    0  0.00000000000E+00  0.00000000000E+00  0.72137467409E+03  0.72137467409E+03  0.00000000000E+00 0.  1.
         -2   -1    0    0    0  501 -0.00000000000E+00 -0.00000000000E+00 -0.26206147246E+02  0.26206147246E+02  0.00000000000E+00 0.  1.
         35    2    1    2    0    0  0.00000000000E+00  0.00000000000E+00  0.69516852685E+03  0.74758082134E+03  0.27498691553E+03 0.  0.
         25    1    3    3    0    0  0.17201613458E+02  0.63383139469E+02  0.38516921729E+03  0.40874031343E+03  0.12000000000E+03 0.  0.
         25    1    3    3    0    0 -0.17201613458E+02 -0.63383139469E+02  0.30999930956E+03  0.33884050791E+03  0.12000000000E+03 0.  0.
<mgrwt>
<rscale>  0 0.27498692E+03</rscale>
<asrwt>0</asrwt>
<pdfrwt beam="1">  1        2 0.11098070E+00 0.27498692E+03</pdfrwt>
<pdfrwt beam="2">  1       -2 0.40317155E-02 0.27498692E+03</pdfrwt>
<totfact> 0.10933695E+04</totfact>
</mgrwt>
</event>
<event>
 5    1  0.1125356E+001  0.2755360E+03  0.7818608E-02  0.1098152E+00
          2   -1    0    0  501    0  0.00000000000E+00  0.00000000000E+00  0.32392851975E+04  0.32392851975E+04  0.00000000000E+00 0.  1.
         -2   -1    0    0    0  501 -0.00000000000E+00 -0.00000000000E+00 -0.58593227443E+01  0.58593227443E+01  0.00000000000E+00 0.  1.
         35    2    1    2    0    0  0.00000000000E+00  0.00000000000E+00  0.32334258747E+04  0.32451445202E+04  0.27553596813E+03 0.  0.
         25    1    3    3    0    0 -0.31755621181E+01  0.16962477968E+02  0.23874204659E+04  0.23904966619E+04  0.12000000000E+03 0.  0.
         25    1    3    3    0    0  0.31755621181E+01 -0.16962477968E+02  0.84600540887E+03  0.85464785830E+03  0.12000000000E+03 0.  0.
<mgrwt>
<rscale>  0 0.27553597E+03</rscale>
<asrwt>0</asrwt>
<pdfrwt beam="1">  1        2 0.49835014E+00 0.27553597E+03</pdfrwt>
<pdfrwt beam="2">  1       -2 0.90143685E-03 0.27553597E+03</pdfrwt>
<totfact> 0.36958640E+03</totfact>
</mgrwt>
</event>
<event>
 5    1  0.1125356E+001  0.2760423E+03  0.7818608E-02  0.1097870E+00
         -1   -1    0    0    0  501 -0.00000000000E+00  0.00000000000E+00  0.10848022715E+03  0.10848022715E+03  0.00000000000E+00 0.  1.
          1   -1    0    0  501    0  0.00000000000E+00 -0.00000000000E+00 -0.17560656558E+03  0.17560656558E+03  0.00000000000E+00 0.  1.
         35    2    1    2    0    0  0.00000000000E+00  0.00000000000E+00 -0.67126338437E+02  0.28408679273E+03  0.27604231649E+03 0.  0.
         25    1    3    3    0    0 -0.36884001840E+02  0.50910952974E+01 -0.92354949158E+02  0.15593519640E+03  0.12000000000E+03 0.  0.
         25    1    3    3    0    0  0.36884001840E+02 -0.50910952974E+01  0.25228610722E+02  0.12815159633E+03  0.12000000000E+03 0.  0.
<mgrwt>
<rscale>  0 0.27604232E+03</rscale>
<asrwt>0</asrwt>
<pdfrwt beam="1">  1        1 0.27016394E-01 0.27604232E+03</pdfrwt>
<pdfrwt beam="2">  1       -1 0.16689266E-01 0.27604232E+03</pdfrwt>
<totfact> 0.46579068E+03</totfact>
</mgrwt>
</event>
<event>
 5    1  0.1125356E+001  0.2729988E+03  0.7818608E-02  0.1099575E+00
          1   -1    0    0  501    0  0.00000000000E+00  0.00000000000E+00  0.17136006707E+03  0.17136006707E+03  0.00000000000E+00 0. -1.
         -1   -1    0    0    0  501 -0.00000000000E+00 -0.00000000000E+00 -0.10873059792E+03  0.10873059792E+03  0.00000000000E+00 0. -1.
         35    2    1    2    0    0  0.00000000000E+00  0.00000000000E+00  0.62629469149E+02  0.28009066500E+03  0.27299877328E+03 0.  0.
         25    1    3    3    0    0  0.56978517616E+02  0.31273898604E+02  0.28509787661E+02  0.13941813439E+03  0.12000000000E+03 0.  0.
         25    1    3    3    0    0 -0.56978517616E+02 -0.31273898604E+02  0.34119681487E+02  0.14067253061E+03  0.12000000000E+03 0.  0.
<mgrwt>
<rscale>  0 0.27299877E+03</rscale>
<asrwt>0</asrwt>
<pdfrwt beam="1">  1        1 0.26363087E-01 0.27299877E+03</pdfrwt>
<pdfrwt beam="2">  1       -1 0.16727784E-01 0.27299877E+03</pdfrwt>
<totfact> 0.47854654E+03</totfact>
</mgrwt>
</event>
<event>
 5    1  0.1125356E+001  0.2744029E+03  0.7818608E-02  0.1098786E+00
         -1   -1    0    0    0  501 -0.00000000000E+00  0.00000000000E+00  0.35331380674E+03  0.35331380674E+03  0.00000000000E+00 0.  1.
          1   -1    0    0  501    0  0.00000000000E+00 -0.00000000000E+00 -0.53279099355E+02  0.53279099355E+02  0.00000000000E+00 0.  1.
         35    2    1    2    0    0  0.00000000000E+00  0.00000000000E+00  0.30003470738E+03  0.40659290609E+03  0.27440292573E+03 0.  0.
         25    1    3    3    0    0  0.13223019390E+02 -0.59480585820E+02  0.11049487336E+03  0.17413186202E+03  0.12000000000E+03 0.  0.
         25    1    3    3    0    0 -0.13223019390E+02  0.59480585820E+02  0.18953983402E+03  0.23246104407E+03  0.12000000000E+03 0.  0.
<mgrwt>
<rscale>  0 0.27440293E+03</rscale>
<asrwt>0</asrwt>
<pdfrwt beam="1">  1        1 0.81967847E-02 0.27440293E+03</pdfrwt>
<pdfrwt beam="2">  1       -1 0.54355969E-01 0.27440293E+03</pdfrwt>
<totfact> 0.29431464E+03</totfact>
</mgrwt>
</event>
<event>
 5    1  0.1125356E+001  0.2734167E+03  0.7818608E-02  0.1099340E+00
          1   -1    0    0  501    0  0.00000000000E+00  0.00000000000E+00  0.19120955492E+04  0.19120955492E+04  0.00000000000E+00 0. -1.
         -1   -1    0    0    0  501 -0.00000000000E+00 -0.00000000000E+00 -0.97741842379E+01  0.97741842379E+01  0.00000000000E+00 0. -1.
         35    2    1    2    0    0  0.00000000000E+00  0.00000000000E+00  0.19023213650E+04  0.19218697334E+04  0.27341670891E+03 0.  0.
         25    1    3    3    0    0  0.12130959323E+02  0.64002797327E+02  0.99865564333E+03  0.10079467308E+04  0.12000000000E+03 0.  0.
         25    1    3    3    0    0 -0.12130959323E+02 -0.64002797327E+02  0.90366572164E+03  0.91392300261E+03  0.12000000000E+03 0.  0.
<mgrwt>
<rscale>  0 0.27341671E+03</rscale>
<asrwt>0</asrwt>
<pdfrwt beam="1">  1        1 0.29416825E+00 0.27341671E+03</pdfrwt>
<pdfrwt beam="2">  1       -1 0.15037222E-02 0.27341671E+03</pdfrwt>
<totfact> 0.40014543E+03</totfact>
</mgrwt>
</event>
<event>
 5    1  0.1125356E+001  0.2730133E+03  0.7818608E-02  0.1099567E+00
          2   -1    0    0  501    0  0.00000000000E+00  0.00000000000E+00  0.30186010452E+04  0.30186010452E+04  0.00000000000E+00 0.  1.
         -2   -1    0    0    0  501 -0.00000000000E+00 -0.00000000000E+00 -0.61730788671E+01  0.61730788671E+01  0.00000000000E+00 0.  1.
         35    2    1    2    0    0  0.00000000000E+00  0.00000000000E+00  0.30124279664E+04  0.30247741241E+04  0.27301327675E+03 0.  0.
         25    1    3    3    0    0  0.59428533384E+02 -0.12844130335E+02  0.12493910570E+04  0.12566124046E+04  0.12000000000E+03 0.  0.
         25    1    3    3    0    0 -0.59428533384E+02  0.12844130335E+02  0.17630369094E+04  0.17681617195E+04  0.12000000000E+03 0.  0.
<mgrwt>
<rscale>  0 0.27301328E+03</rscale>
<asrwt>0</asrwt>
<pdfrwt beam="1">  1        2 0.46439898E+00 0.27301328E+03</pdfrwt>
<pdfrwt beam="2">  1       -2 0.94970685E-03 0.27301328E+03</pdfrwt>
<totfact> 0.46687543E+03</totfact>
</mgrwt>
</event>
<event>
 5    1  0.1125356E+001  0.2752945E+03  0.7818608E-02  0.1098287E+00
          2   -1    0    0  501    0  0.00000000000E+00  0.00000000000E+00  0.63059534235E+03  0.63059534235E+03  0.00000000000E+00 0.  1.
         -2   -1    0    0    0  501 -0.00000000000E+00 -0.00000000000E+00 -0.30045843782E+02  0.30045843782E+02  0.00000000000E+00 0.  1.
         35    2    1    2    0    0  0.00000000000E+00  0.00000000000E+00  0.60054949857E+03  0.66064118613E+03  0.27529452698E+03 0.  0.
         25    1    3    3    0    0 -0.72264036967E+01 -0.16867314453E+02  0.45598287565E+03  0.47186556358E+03  0.12000000000E+03 0.  0.
         25    1    3    3    0    0  0.72264036967E+01  0.16867314453E+02  0.14456662291E+03  0.18877562255E+03  0.12000000000E+03 0.  0.
<mgrwt>
<rscale>  0 0.27529453E+03</rscale>
<asrwt>0</asrwt>
<pdfrwt beam="1">  1        2 0.97014658E-01 0.27529453E+03</pdfrwt>
<pdfrwt beam="2">  1       -2 0.46224380E-02 0.27529453E+03</pdfrwt>
<totfact> 0.10453428E+04</totfact>
</mgrwt>
</event>
<event>
 5    1  0.1125356E+001  0.2745369E+03  0.7818608E-02  0.1098711E+00
         -2   -1    0    0    0  501 -0.00000000000E+00  0.00000000000E+00  0.34283421210E+02  0.34283421210E+02  0.00000000000E+00 0.  1.
          2   -1    0    0  501    0  0.00000000000E+00 -0.00000000000E+00 -0.54961321277E+03  0.54961321277E+03  0.00000000000E+00 0.  1.
         35    2    1    2    0    0  0.00000000000E+00  0.00000000000E+00 -0.51532979156E+03  0.58389663398E+03  0.27453685564E+03 0.  0.
         25    1    3    3    0    0  0.54959894711E+01 -0.54658164531E+02 -0.33794863185E+03  0.36280435309E+03  0.12000000000E+03 0.  0.
         25    1    3    3    0    0 -0.54959894711E+01  0.54658164531E+02 -0.17738115971E+03  0.22109228089E+03  0.12000000000E+03 0.  0.
<mgrwt>
<rscale>  0 0.27453686E+03</rscale>
<asrwt>0</asrwt>
<pdfrwt beam="1">  1        2 0.84555884E-01 0.27453686E+03</pdfrwt>
<pdfrwt beam="2">  1       -2 0.52743722E-02 0.27453686E+03</pdfrwt>
<totfact> 0.10028375E+04</totfact>
</mgrwt>
</event>
<event>
 5    1  0.1125356E+001  0.2748268E+03  0.7818608E-02  0.1098548E+00
         -1   -1    0    0    0  501 -0.00000000000E+00  0.00000000000E+00  0.30612760156E+03  0.30612760156E+03  0.00000000000E+00 0. -1.
          1   -1    0    0  501    0  0.00000000000E+00 -0.00000000000E+00 -0.61681590777E+02  0.61681590777E+02  0.00000000000E+00 0. -1.
         35    2    1    2    0    0  0.00000000000E+00  0.00000000000E+00  0.24444601079E+03  0.36780919234E+03  0.27482676322E+03 0.  0.
         25    1    3    3    0    0 -0.12226080696E+02  0.64325949806E+02  0.10352787723E+03  0.17147981290E+03  0.12000000000E+03 0.  0.
         25    1    3    3    0    0  0.12226080696E+02 -0.64325949806E+02  0.14091813355E+03  0.19632937944E+03  0.12000000000E+03 0.  0.
<mgrwt>
<rscale>  0 0.27482676E+03</rscale>
<asrwt>0</asrwt>
<pdfrwt beam="1">  1        1 0.94894757E-02 0.27482676E+03</pdfrwt>
<pdfrwt beam="2">  1       -1 0.47096553E-01 0.27482676E+03</pdfrwt>
<totfact> 0.31490772E+03</totfact>
</mgrwt>
</event>
<event>
 5    1  0.1125356E+001  0.2802336E+03  0.7818608E-02  0.1095561E+00
          2   -1    0    0  501    0  0.00000000000E+00  0.00000000000E+00  0.41571497800E+03  0.41571497800E+03  0.00000000000E+00 0. -1.
         -2   -1    0    0    0  501 -0.00000000000E+00 -0.00000000000E+00 -0.47226374756E+02  0.47226374756E+02  0.00000000000E+00 0. -1.
         35    2    1    2    0    0  0.00000000000E+00  0.00000000000E+00  0.36848860325E+03  0.46294135276E+03  0.28023355504E+03 0.  0.
         25    1    3    3    0    0  0.54429136858E+02  0.43702235220E+02  0.21560133600E+03  0.25643001460E+03  0.12000000000E+03 0.  0.
         25    1    3    3    0    0 -0.54429136858E+02 -0.43702235220E+02  0.15288726724E+03  0.20651133816E+03  0.12000000000E+03 0.  0.
<mgrwt>
<rscale>  0 0.28023356E+03</rscale>
<asrwt>0</asrwt>
<pdfrwt beam="1">  1        2 0.63956148E-01 0.28023356E+03</pdfrwt>
<pdfrwt beam="2">  1       -2 0.72655964E-02 0.28023356E+03</pdfrwt>
<totfact> 0.83669588E+03</totfact>
</mgrwt>
</event>
<event>
 5    1  0.1125356E+001  0.2750607E+03  0.7818608E-02  0.1098418E+00
          2   -1    0    0  501    0  0.00000000000E+00  0.00000000000E+00  0.22946423444E+04  0.22946423444E+04  0.00000000000E+00 0.  1.
         -2   -1    0    0    0  501 -0.00000000000E+00 -0.00000000000E+00 -0.82429418459E+01  0.82429418459E+01  0.00000000000E+00 0.  1.
         35    2    1    2    0    0  0.00000000000E+00  0.00000000000E+00  0.22863994025E+04  0.23028852862E+04  0.27506074530E+03 0.  0.
         25    1    3    3    0    0 -0.60651700504E+00 -0.43077867572E+02  0.71151693976E+03  0.72285021000E+03  0.12000000000E+03 0.  0.
         25    1    3    3    0    0  0.60651700504E+00  0.43077867572E+02  0.15748824628E+04  0.15800350762E+04  0.12000000000E+03 0.  0.
<mgrwt>
<rscale>  0 0.27506075E+03</rscale>
<asrwt>0</asrwt>
<pdfrwt beam="1">  1        2 0.35302139E+00 0.27506075E+03</pdfrwt>
<pdfrwt beam="2">  1       -2 0.12681467E-02 0.27506075E+03</pdfrwt>
<totfact> 0.78166587E+03</totfact>
</mgrwt>
</event>
<event>
 5    1  0.1125356E+001  0.2748444E+03  0.7818608E-02  0.1098539E+00
          2   -1    0    0  501    0  0.00000000000E+00  0.00000000000E+00  0.84009517608E+03  0.84009517608E+03  0.00000000000E+00 0.  1.
         -2   -1    0    0    0  501 -0.00000000000E+00 -0.00000000000E+00 -0.22479427169E+02  0.22479427169E+02  0.00000000000E+00 0.  1.
         35    2    1    2    0    0  0.00000000000E+00  0.00000000000E+00  0.81761574892E+03  0.86257460325E+03  0.27484438015E+03 0.  0.
         25    1    3    3    0    0  0.60879410890E+02 -0.25504496521E+01  0.49601114270E+03  0.51394538732E+03  0.12000000000E+03 0.  0.
         25    1    3    3    0    0 -0.60879410890E+02  0.25504496521E+01  0.32160460621E+03  0.34862921593E+03  0.12000000000E+03 0.  0.
<mgrwt>
<rscale>  0 0.27484438E+03</rscale>
<asrwt>0</asrwt>
<pdfrwt beam="1">  1        2 0.12924539E+00 0.27484438E+03</pdfrwt>
<pdfrwt beam="2">  1       -2 0.34583741E-02 0.27484438E+03</pdfrwt>
<totfact> 0.11357882E+04</totfact>
</mgrwt>
</event>
<event>
 5    1  0.1125356E+001  0.2732839E+03  0.7818608E-02  0.1099415E+00
         -1   -1    0    0    0  501 -0.00000000000E+00  0.00000000000E+00  0.15235467681E+03  0.15235467681E+03  0.00000000000E+00 0.  1.
          1   -1    0    0  501    0  0.00000000000E+00 -0.00000000000E+00 -0.12254973890E+03  0.12254973890E+03  0.00000000000E+00 0.  1.
         35    2    1    2    0    0  0.00000000000E+00  0.00000000000E+00  0.29804937916E+02  0.27490441571E+03  0.27328392461E+03 0.  0.
         25    1    3    3    0    0  0.59366481987E+02 -0.24746503962E+02  0.32468200687E+01  0.13618851083E+03  0.12000000000E+03 0.  0.
         25    1    3    3    0    0 -0.59366481987E+02  0.24746503962E+02  0.26558117847E+02  0.13871590488E+03  0.12000000000E+03 0.  0.
<mgrwt>
<rscale>  0 0.27328392E+03</rscale>
<asrwt>0</asrwt>
<pdfrwt beam="1">  1        1 0.18853806E-01 0.27328392E+03</pdfrwt>
<pdfrwt beam="2">  1       -1 0.23439181E-01 0.27328392E+03</pdfrwt>
<totfact> 0.42500384E+03</totfact>
</mgrwt>
</event>
<event>
 5    1  0.1125356E+001  0.2752649E+03  0.7818608E-02  0.1098304E+00
         -2   -1    0    0    0  501 -0.00000000000E+00  0.00000000000E+00  0.16194211500E+02  0.16194211500E+02  0.00000000000E+00 0. -1.
          2   -1    0    0  501    0  0.00000000000E+00 -0.00000000000E+00 -0.11697201242E+04  0.11697201242E+04  0.00000000000E+00 0. -1.
         35    2    1    2    0    0  0.00000000000E+00  0.00000000000E+00 -0.11535259127E+04  0.11859143357E+04  0.27526492757E+03 0.  0.
         25    1    3    3    0    0  0.13297511002E+02  0.51531459135E+02 -0.39858714512E+03  0.41964750367E+03  0.12000000000E+03 0.  0.
         25    1    3    3    0    0 -0.13297511002E+02 -0.51531459135E+02 -0.75493876762E+03  0.76626683207E+03  0.12000000000E+03 0.  0.
<mgrwt>
<rscale>  0 0.27526493E+03</rscale>
<asrwt>0</asrwt>
<pdfrwt beam="1">  1        2 0.17995697E+00 0.27526493E+03</pdfrwt>
<pdfrwt beam="2">  1       -2 0.24914168E-02 0.27526493E+03</pdfrwt>
<totfact> 0.11600667E+04</totfact>
</mgrwt>
</event>
<event>
 5    1  0.1125356E+001  0.2739945E+03  0.7818608E-02  0.1099015E+00
          2   -1    0    0  501    0  0.00000000000E+00  0.00000000000E+00  0.11932566073E+04  0.11932566073E+04  0.00000000000E+00 0. -1.
         -2   -1    0    0    0  501 -0.00000000000E+00 -0.00000000000E+00 -0.15728594409E+02  0.15728594409E+02  0.00000000000E+00 0. -1.
         35    2    1    2    0    0  0.00000000000E+00  0.00000000000E+00  0.11775280129E+04  0.12089852017E+04  0.27399451967E+03 0.  0.
         25    1    3    3    0    0  0.32561981650E+02 -0.21605457704E+02  0.82395883927E+03  0.83356778204E+03  0.12000000000E+03 0.  0.
         25    1    3    3    0    0 -0.32561981650E+02  0.21605457704E+02  0.35356917360E+03  0.37541741964E+03  0.12000000000E+03 0.  0.
<mgrwt>
<rscale>  0 0.27399452E+03</rscale>
<asrwt>0</asrwt>
<pdfrwt beam="1">  1        2 0.18357787E+00 0.27399452E+03</pdfrwt>
<pdfrwt beam="2">  1       -2 0.24197847E-02 0.27399452E+03</pdfrwt>
<totfact> 0.11741351E+04</totfact>
</mgrwt>
</event>
<event>
 5    1  0.1125356E+001  0.2751051E+03  0.7818608E-02  0.1098393E+00
          2   -1    0    0  501    0  0.00000000000E+00  0.00000000000E+00  0.66935088237E+03  0.66935088237E+03  0.00000000000E+00 0. -1.
         -2   -1    0    0    0  501 -0.00000000000E+00 -0.00000000000E+00 -0.28267244246E+02  0.28267244246E+02  0.00000000000E+00 0. -1.
         35    2    1    2    0    0  0.00000000000E+00  0.00000000000E+00  0.64108363812E+03  0.69761812661E+03  0.27510510630E+03 0.  0.
         25    1    3    3    0    0  0.69113935458E+01 -0.55246849445E+02  0.22496032108E+03  0.26097342354E+03  0.12000000000E+03 0.  0.
         25    1    3    3    0    0 -0.69113935458E+01  0.55246849445E+02  0.41612331705E+03  0.43664470308E+03  0.12000000000E+03 0.  0.
<mgrwt>
<rscale>  0 0.27510511E+03</rscale>
<asrwt>0</asrwt>
<pdfrwt beam="1">  1        2 0.10297705E+00 0.27510511E+03</pdfrwt>
<pdfrwt beam="2">  1       -2 0.43488073E-02 0.27510511E+03</pdfrwt>
<totfact> 0.10680182E+04</totfact>
</mgrwt>
</event>
<event>
 5    1  0.1125356E+001  0.2736473E+03  0.7818608E-02  0.1099210E+00
         -2   -1    0    0    0  501 -0.00000000000E+00  0.00000000000E+00  0.62787656346E+01  0.62787656346E+01  0.00000000000E+00 0.  1.
          2   -1    0    0  501    0  0.00000000000E+00 -0.00000000000E+00 -0.29815901740E+04  0.29815901740E+04  0.00000000000E+00 0.  1.
         35    2    1    2    0    0  0.00000000000E+00  0.00000000000E+00 -0.29753114084E+04  0.29878689397E+04  0.27364726142E+03 0.  0.
         25    1    3    3    0    0  0.58386396278E+02 -0.44324939377E+01 -0.18137732764E+04  0.18186814225E+04  0.12000000000E+03 0.  0.
         25    1    3    3    0    0 -0.58386396278E+02  0.44324939377E+01 -0.11615381320E+04  0.11691875172E+04  0.12000000000E+03 0.  0.
<mgrwt>
<rscale>  0 0.27364726E+03</rscale>
<asrwt>0</asrwt>
<pdfrwt beam="1">  1        2 0.45870487E+00 0.27364726E+03</pdfrwt>
<pdfrwt beam="2">  1       -2 0.96596670E-03 0.27364726E+03</pdfrwt>
<totfact> 0.47909007E+03</totfact>
</mgrwt>
</event>
<event>
 5    1  0.1125356E+001  0.2750887E+03  0.7818608E-02  0.1098402E+00
          2   -1    0    0  501    0  0.00000000000E+00  0.00000000000E+00  0.71937843905E+03  0.71937843905E+03  0.00000000000E+00 0.  1.
         -2   -1    0    0    0  501 -0.00000000000E+00 -0.00000000000E+00 -0.26298315925E+02  0.26298315925E+02  0.00000000000E+00 0.  1.
         35    2    1    2    0    0  0.00000000000E+00  0.00000000000E+00  0.69308012312E+03  0.74567675497E+03  0.27508865087E+03 0.  0.
         25    1    3    3    0    0  0.62342225488E+02 -0.50630500794E+01  0.27979714111E+03  0.31080319774E+03  0.12000000000E+03 0.  0.
         25    1    3    3    0    0 -0.62342225488E+02  0.50630500794E+01  0.41328298201E+03  0.43487355723E+03  0.12000000000E+03 0.  0.
<mgrwt>
<rscale>  0 0.27508865E+03</rscale>
<asrwt>0</asrwt>
<pdfrwt beam="1">  1        2 0.11067359E+00 0.27508865E+03</pdfrwt>
<pdfrwt beam="2">  1       -2 0.40458953E-02 0.27508865E+03</pdfrwt>
<totfact> 0.10913212E+04</totfact>
</mgrwt>
</event>
<event>
 5    1  0.1125356E+001  0.2748432E+03  0.7818608E-02  0.1098539E+00
          1   -1    0    0  501    0  0.00000000000E+00  0.00000000000E+00  0.58341550548E+03  0.58341550548E+03  0.00000000000E+00 0. -1.
         -1   -1    0    0    0  501 -0.00000000000E+00 -0.00000000000E+00 -0.32369197291E+02  0.32369197291E+02  0.00000000000E+00 0. -1.
         35    2    1    2    0    0  0.00000000000E+00  0.00000000000E+00  0.55104630819E+03  0.61578470277E+03  0.27484316691E+03 0.  0.
         25    1    3    3    0    0  0.45444923648E+02 -0.41973051811E+02  0.33298271579E+03  0.35931110083E+03  0.12000000000E+03 0.  0.
         25    1    3    3    0    0 -0.45444923648E+02  0.41973051811E+02  0.21806359240E+03  0.25647360194E+03  0.12000000000E+03 0.  0.
<mgrwt>
<rscale>  0 0.27484317E+03</rscale>
<asrwt>0</asrwt>
<pdfrwt beam="1">  1        1 0.89756224E-01 0.27484317E+03</pdfrwt>
<pdfrwt beam="2">  1       -1 0.49798769E-02 0.27484317E+03</pdfrwt>
<totfact> 0.64512618E+03</totfact>
</mgrwt>
</event>
<event>
 5    1  0.1125356E+001  0.2750027E+03  0.7818608E-02  0.1098450E+00
          2   -1    0    0  501    0  0.00000000000E+00  0.00000000000E+00  0.21460745900E+03  0.21460745900E+03  0.00000000000E+00 0. -1.
         -2   -1    0    0    0  501 -0.00000000000E+00 -0.00000000000E+00 -0.88098602622E+02  0.88098602622E+02  0.00000000000E+00 0. -1.
         35    2    1    2    0    0  0.00000000000E+00  0.00000000000E+00  0.12650885638E+03  0.30270606163E+03  0.27500267090E+03 0.  0.
         25    1    3    3    0    0  0.25131917953E+02  0.35378128024E+02  0.68756316186E+01  0.12779084299E+03  0.12000000000E+03 0.  0.
         25    1    3    3    0    0 -0.25131917953E+02 -0.35378128024E+02  0.11963322476E+03  0.17491521863E+03  0.12000000000E+03 0.  0.
<mgrwt>
<rscale>  0 0.27500267E+03</rscale>
<asrwt>0</asrwt>
<pdfrwt beam="1">  1        2 0.33016532E-01 0.27500267E+03</pdfrwt>
<pdfrwt beam="2">  1       -2 0.13553631E-01 0.27500267E+03</pdfrwt>
<totfact> 0.63390597E+03</totfact>
</mgrwt>
</event>
<event>
 5    1  0.1125356E+001  0.2759749E+03  0.7818608E-02  0.1097908E+00
         -1   -1    0    0    0  501 -0.00000000000E+00  0.00000000000E+00  0.22302734627E+02  0.22302734627E+02  0.00000000000E+00 0. -1.
          1   -1    0    0  501    0  0.00000000000E+00 -0.00000000000E+00 -0.85373080798E+03  0.85373080798E+03  0.00000000000E+00 0. -1.
         35    2    1    2    0    0  0.00000000000E+00  0.00000000000E+00 -0.83142807336E+03  0.87603354261E+03  0.27597486591E+03 0.  0.
         25    1    3    3    0    0 -0.41186496625E+02  0.50138321944E+02 -0.34986286117E+03  0.37551857539E+03  0.12000000000E+03 0.  0.
         25    1    3    3    0    0  0.41186496625E+02 -0.50138321944E+02 -0.48156521218E+03  0.50051496722E+03  0.12000000000E+03 0.  0.
<mgrwt>
<rscale>  0 0.27597487E+03</rscale>
<asrwt>0</asrwt>
<pdfrwt beam="1">  1        1 0.13134320E+00 0.27597487E+03</pdfrwt>
<pdfrwt beam="2">  1       -1 0.34311901E-02 0.27597487E+03</pdfrwt>
<totfact> 0.64195783E+03</totfact>
</mgrwt>
</event>
<event>
 5    1  0.1125356E+001  0.2742539E+03  0.7818608E-02  0.1098869E+00
         -2   -1    0    0    0  501 -0.00000000000E+00  0.00000000000E+00  0.30665733367E+02  0.30665733367E+02  0.00000000000E+00 0. -1.
          2   -1    0    0  501    0  0.00000000000E+00 -0.00000000000E+00 -0.61318625712E+03  0.61318625712E+03  0.00000000000E+00 0. -1.
         35    2    1    2    0    0  0.00000000000E+00  0.00000000000E+00 -0.58252052375E+03  0.64385199048E+03  0.27425394265E+03 0.  0.
         25    1    3    3    0    0  0.24298172517E+02  0.40726422943E+02 -0.18228373231E+03  0.22333025272E+03  0.12000000000E+03 0.  0.
         25    1    3    3    0    0 -0.24298172517E+02 -0.40726422943E+02 -0.40023679144E+03  0.42052173777E+03  0.12000000000E+03 0.  0.
<mgrwt>
<rscale>  0 0.27425394E+03</rscale>
<asrwt>0</asrwt>
<pdfrwt beam="1">  1        2 0.94336348E-01 0.27425394E+03</pdfrwt>
<pdfrwt beam="2">  1       -2 0.47178051E-02 0.27425394E+03</pdfrwt>
<totfact> 0.10471662E+04</totfact>
</mgrwt>
</event>
<event>
 5    1  0.1125356E+001  0.2771960E+03  0.7818608E-02  0.1097230E+00
          2   -1    0    0  501    0  0.00000000000E+00  0.00000000000E+00  0.96512459561E+03  0.96512459561E+03  0.00000000000E+00 0.  1.
         -2   -1    0    0    0  501 -0.00000000000E+00 -0.00000000000E+00 -0.19903544889E+02  0.19903544889E+02  0.00000000000E+00 0.  1.
         35    2    1    2    0    0  0.00000000000E+00  0.00000000000E+00  0.94522105072E+03  0.98502814050E+03  0.27719596470E+03 0.  0.
         25    1    3    3    0    0 -0.47895780379E+02 -0.50147515427E+02  0.46980878486E+03  0.48982555407E+03  0.12000000000E+03 0.  0.
         25    1    3    3    0    0  0.47895780379E+02  0.50147515427E+02  0.47541226586E+03  0.49520258644E+03  0.12000000000E+03 0.  0.
<mgrwt>
<rscale>  0 0.27719596E+03</rscale>
<asrwt>0</asrwt>
<pdfrwt beam="1">  1        2 0.14848067E+00 0.27719596E+03</pdfrwt>
<pdfrwt beam="2">  1       -2 0.30620846E-02 0.27719596E+03</pdfrwt>
<totfact> 0.11312611E+04</totfact>
</mgrwt>
</event>
<event>
 5    1  0.1125356E+001  0.2728069E+03  0.7818608E-02  0.1099684E+00
         -2   -1    0    0    0  501 -0.00000000000E+00  0.00000000000E+00  0.94600729032E+02  0.94600729032E+02  0.00000000000E+00 0. -1.
          2   -1    0    0  501    0  0.00000000000E+00 -0.00000000000E+00 -0.19667824691E+03  0.19667824691E+03  0.00000000000E+00 0. -1.
         35    2    1    2    0    0  0.00000000000E+00  0.00000000000E+00 -0.10207751788E+03  0.29127897595E+03  0.27280693204E+03 0.  0.
         25    1    3    3    0    0  0.15214415814E+02 -0.62905348048E+02 -0.55485398124E+02  0.14719779437E+03  0.12000000000E+03 0.  0.
         25    1    3    3    0    0 -0.15214415814E+02  0.62905348048E+02 -0.46592119758E+02  0.14408118158E+03  0.12000000000E+03 0.  0.
<mgrwt>
<rscale>  0 0.27280693E+03</rscale>
<asrwt>0</asrwt>
<pdfrwt beam="1">  1        2 0.30258192E-01 0.27280693E+03</pdfrwt>
<pdfrwt beam="2">  1       -2 0.14553958E-01 0.27280693E+03</pdfrwt>
<totfact> 0.62026268E+03</totfact>
</mgrwt>
</event>
<event>
 5    1  0.1125356E+001  0.2726076E+03  0.7818608E-02  0.1099796E+00
         -2   -1    0    0    0  501 -0.00000000000E+00  0.00000000000E+00  0.25804978938E+03  0.25804978938E+03  0.00000000000E+00 0. -1.
          2   -1    0    0  501    0  0.00000000000E+00 -0.00000000000E+00 -0.71996657063E+02  0.71996657063E+02  0.00000000000E+00 0. -1.
         35    2    1    2    0    0  0.00000000000E+00  0.00000000000E+00  0.18605313231E+03  0.33004644644E+03  0.27260757283E+03 0.  0.
         25    1    3    3    0    0  0.15636445459E+02 -0.18662775979E+02  0.16552651820E+03  0.20589275330E+03  0.12000000000E+03 0.  0.
         25    1    3    3    0    0 -0.15636445459E+02  0.18662775979E+02  0.20526614117E+02  0.12415369314E+03  0.12000000000E+03 0.  0.
<mgrwt>
<rscale>  0 0.27260757E+03</rscale>
<asrwt>0</asrwt>
<pdfrwt beam="1">  1        2 0.11076409E-01 0.27260757E+03</pdfrwt>
<pdfrwt beam="2">  1       -2 0.39699967E-01 0.27260757E+03</pdfrwt>
<totfact> 0.33928918E+03</totfact>
</mgrwt>
</event>
<event>
 5    1  0.1125356E+001  0.2742679E+03  0.7818608E-02  0.1098862E+00
         -3   -1    0    0    0  501 -0.00000000000E+00  0.00000000000E+00  0.11130444779E+02  0.11130444779E+02  0.00000000000E+00 0. -1.
          3   -1    0    0  501    0  0.00000000000E+00 -0.00000000000E+00 -0.16895742976E+04  0.16895742976E+04  0.00000000000E+00 0. -1.
         35    2    1    2    0    0  0.00000000000E+00  0.00000000000E+00 -0.16784438528E+04  0.17007047423E+04  0.27426785025E+03 0.  0.
         25    1    3    3    0    0 -0.14710599784E+00 -0.47935112303E+02 -0.55452632871E+03  0.56938321530E+03  0.12000000000E+03 0.  0.
         25    1    3    3    0    0  0.14710599784E+00  0.47935112303E+02 -0.11239175241E+04  0.11313215270E+04  0.12000000000E+03 0.  0.
<mgrwt>
<rscale>  0 0.27426785E+03</rscale>
<asrwt>0</asrwt>
<pdfrwt beam="1">  1        3 0.25993443E+00 0.27426785E+03</pdfrwt>
<pdfrwt beam="2">  1       -3 0.17123766E-02 0.27426785E+03</pdfrwt>
<totfact> 0.22338642E+02</totfact>
</mgrwt>
</event>
<event>
 5    1  0.1125356E+001  0.2749036E+03  0.7818608E-02  0.1098505E+00
          2   -1    0    0  501    0  0.00000000000E+00  0.00000000000E+00  0.15668288158E+04  0.15668288158E+04  0.00000000000E+00 0.  1.
         -2   -1    0    0    0  501 -0.00000000000E+00 -0.00000000000E+00 -0.12058115701E+02  0.12058115701E+02  0.00000000000E+00 0.  1.
         35    2    1    2    0    0  0.00000000000E+00  0.00000000000E+00  0.15547707001E+04  0.15788869315E+04  0.27490364235E+03 0.  0.
         25    1    3    3    0    0 -0.53242798562E+01  0.75839853474E+00  0.39364583586E+03  0.41156526483E+03  0.12000000000E+03 0.  0.
         25    1    3    3    0    0  0.53242798562E+01 -0.75839853474E+00  0.11611248642E+04  0.11673216667E+04  0.12000000000E+03 0.  0.
<mgrwt>
<rscale>  0 0.27490364E+03</rscale>
<asrwt>0</asrwt>
<pdfrwt beam="1">  1        2 0.24105043E+00 0.27490364E+03</pdfrwt>
<pdfrwt beam="2">  1       -2 0.18550960E-02 0.27490364E+03</pdfrwt>
<totfact> 0.10853180E+04</totfact>
</mgrwt>
</event>
<event>
 5    1  0.1125356E+001  0.2758485E+03  0.7818608E-02  0.1097978E+00
          2   -1    0    0  501    0  0.00000000000E+00  0.00000000000E+00  0.13962169325E+04  0.13962169325E+04  0.00000000000E+00 0.  1.
         -2   -1    0    0    0  501 -0.00000000000E+00 -0.00000000000E+00 -0.13624747935E+02  0.13624747935E+02  0.00000000000E+00 0.  1.
         35    2    1    2    0    0  0.00000000000E+00  0.00000000000E+00  0.13825921845E+04  0.14098416804E+04  0.27584853647E+03 0.  0.
         25    1    3    3    0    0  0.16116632153E+02  0.63323803055E+02  0.59520877849E+03  0.61069070720E+03  0.12000000000E+03 0.  0.
         25    1    3    3    0    0 -0.16116632153E+02 -0.63323803055E+02  0.78738340604E+03  0.79915097321E+03  0.12000000000E+03 0.  0.
<mgrwt>
<rscale>  0 0.27584854E+03</rscale>
<asrwt>0</asrwt>
<pdfrwt beam="1">  1        2 0.21480249E+00 0.27584854E+03</pdfrwt>
<pdfrwt beam="2">  1       -2 0.20961162E-02 0.27584854E+03</pdfrwt>
<totfact> 0.11198402E+04</totfact>
</mgrwt>
</event>
<event>
 5    1  0.1125356E+001  0.2750627E+03  0.7818608E-02  0.1098417E+00
          1   -1    0    0  501    0  0.00000000000E+00  0.00000000000E+00  0.16427110083E+03  0.16427110083E+03  0.00000000000E+00 0. -1.
         -1   -1    0    0    0  501 -0.00000000000E+00 -0.00000000000E+00 -0.11514428351E+03  0.11514428351E+03  0.00000000000E+00 0. -1.
         35    2    1    2    0    0  0.00000000000E+00  0.00000000000E+00  0.49126817317E+02  0.27941538434E+03  0.27506274344E+03 0.  0.
         25    1    3    3    0    0 -0.53105071961E+02  0.24644342569E+02  0.58060754432E+02  0.14559719604E+03  0.12000000000E+03 0.  0.
         25    1    3    3    0    0  0.53105071961E+02 -0.24644342569E+02 -0.89339371145E+01  0.13381818830E+03  0.12000000000E+03 0.  0.
<mgrwt>
<rscale>  0 0.27506274E+03</rscale>
<asrwt>0</asrwt>
<pdfrwt beam="1">  1        1 0.25272477E-01 0.27506274E+03</pdfrwt>
<pdfrwt beam="2">  1       -1 0.17714505E-01 0.27506274E+03</pdfrwt>
<totfact> 0.46070527E+03</totfact>
</mgrwt>
</event>
<event>
 5    1  0.1125356E+001  0.2748746E+03  0.7818608E-02  0.1098522E+00
         -2   -1    0    0    0  501 -0.00000000000E+00  0.00000000000E+00  0.50503035515E+01  0.50503035515E+01  0.00000000000E+00 0. -1.
          2   -1    0    0  501    0  0.00000000000E+00 -0.00000000000E+00 -0.37401748283E+04  0.37401748283E+04  0.00000000000E+00 0. -1.
         35    2    1    2    0    0  0.00000000000E+00  0.00000000000E+00 -0.37351245247E+04  0.37452251318E+04  0.27487464938E+03 0.  0.
         25    1    3    3    0    0  0.14253183433E+02  0.10957426583E+02 -0.27469743628E+04  0.27496529542E+04  0.12000000000E+03 0.  0.
         25    1    3    3    0    0 -0.14253183433E+02 -0.10957426583E+02 -0.98815016188E+03  0.99557217763E+03  0.12000000000E+03 0.  0.
<mgrwt>
<rscale>  0 0.27487465E+03</rscale>
<asrwt>0</asrwt>
<pdfrwt beam="1">  1        2 0.57541221E+00 0.27487465E+03</pdfrwt>
<pdfrwt beam="2">  1       -2 0.77696883E-03 0.27487465E+03</pdfrwt>
<totfact> 0.21358718E+03</totfact>
</mgrwt>
</event>
<event>
 5    1  0.1125356E+001  0.2723137E+03  0.7818608E-02  0.1099963E+00
          2   -1    0    0  501    0  0.00000000000E+00  0.00000000000E+00  0.17201031578E+04  0.17201031578E+04  0.00000000000E+00 0. -1.
         -2   -1    0    0    0  501 -0.00000000000E+00 -0.00000000000E+00 -0.10777656770E+02  0.10777656770E+02  0.00000000000E+00 0. -1.
         35    2    1    2    0    0  0.00000000000E+00  0.00000000000E+00  0.17093255010E+04  0.17308808145E+04  0.27231365330E+03 0.  0.
         25    1    3    3    0    0  0.18171726712E+02 -0.51163688236E+02  0.63532799306E+03  0.64883710854E+03  0.12000000000E+03 0.  0.
         25    1    3    3    0    0 -0.18171726712E+02  0.51163688236E+02  0.10739975079E+04  0.10820437060E+04  0.12000000000E+03 0.  0.
<mgrwt>
<rscale>  0 0.27231365E+03</rscale>
<asrwt>0</asrwt>
<pdfrwt beam="1">  1        2 0.26463104E+00 0.27231365E+03</pdfrwt>
<pdfrwt beam="2">  1       -2 0.16581024E-02 0.27231365E+03</pdfrwt>
<totfact> 0.10617304E+04</totfact>
</mgrwt>
</event>
<event>
 5    1  0.1125356E+001  0.2740774E+03  0.7818608E-02  0.1098968E+00
         -2   -1    0    0    0  501 -0.00000000000E+00  0.00000000000E+00  0.16676362016E+02  0.16676362016E+02  0.00000000000E+00 0. -1.
          2   -1    0    0  501    0  0.00000000000E+00 -0.00000000000E+00 -0.11261216253E+04  0.11261216253E+04  0.00000000000E+00 0. -1.
         35    2    1    2    0    0  0.00000000000E+00  0.00000000000E+00 -0.11094452633E+04  0.11427979873E+04  0.27407744816E+03 0.  0.
         25    1    3    3    0    0  0.12618895755E+02 -0.63788856560E+02 -0.50342496273E+03  0.52159845461E+03  0.12000000000E+03 0.  0.
         25    1    3    3    0    0 -0.12618895755E+02  0.63788856560E+02 -0.60602030052E+03  0.62119953268E+03  0.12000000000E+03 0.  0.
<mgrwt>
<rscale>  0 0.27407745E+03</rscale>
<asrwt>0</asrwt>
<pdfrwt beam="1">  1        2 0.17324953E+00 0.27407745E+03</pdfrwt>
<pdfrwt beam="2">  1       -2 0.25655934E-02 0.27407745E+03</pdfrwt>
<totfact> 0.11769225E+04</totfact>
</mgrwt>
</event>
<event>
 5    1  0.1125356E+001  0.2739522E+03  0.7818608E-02  0.1099039E+00
          3   -1    0    0  501    0  0.00000000000E+00  0.00000000000E+00  0.87571410704E+03  0.87571410704E+03  0.00000000000E+00 0. -1.
         -3   -1    0    0    0  501 -0.00000000000E+00 -0.00000000000E+00 -0.21425313743E+02  0.21425313743E+02  0.00000000000E+00 0. -1.
         35    2    1    2    0    0  0.00000000000E+00  0.00000000000E+00  0.85428879330E+03  0.89713942079E+03  0.27395218191E+03 0.  0.
         25    1    3    3    0    0 -0.16182911158E-01 -0.16858622209E+02  0.63627681434E+03  0.64771320650E+03  0.12000000000E+03 0.  0.
         25    1    3    3    0    0  0.16182911158E-01  0.16858622209E+02  0.21801197896E+03  0.24942621429E+03  0.12000000000E+03 0.  0.
<mgrwt>
<rscale>  0 0.27395218E+03</rscale>
<asrwt>0</asrwt>
<pdfrwt beam="1">  1        3 0.13472522E+00 0.27395218E+03</pdfrwt>
<pdfrwt beam="2">  1       -3 0.32962028E-02 0.27395218E+03</pdfrwt>
<totfact> 0.49989452E+02</totfact>
</mgrwt>
</event>
<event>
 5    1  0.1125356E+001  0.2772529E+03  0.7818608E-02  0.1097199E+00
         -4   -1    0    0    0  501 -0.00000000000E+00  0.00000000000E+00  0.23103707958E+03  0.23103707958E+03  0.00000000000E+00 0.  1.
          4   -1    0    0  501    0  0.00000000000E+00 -0.00000000000E+00 -0.83178394815E+02  0.83178394815E+02  0.00000000000E+00 0.  1.
         35    2    1    2    0    0  0.00000000000E+00  0.00000000000E+00  0.14785868476E+03  0.31421547439E+03  0.27725290564E+03 0.  0.
         25    1    3    3    0    0 -0.12122581360E+02  0.68030214663E+02  0.66564844147E+02  0.15364226490E+03  0.12000000000E+03 0.  0.
         25    1    3    3    0    0  0.12122581360E+02 -0.68030214663E+02  0.81293840615E+02  0.16057320950E+03  0.12000000000E+03 0.  0.
<mgrwt>
<rscale>  0 0.27725291E+03</rscale>
<asrwt>0</asrwt>
<pdfrwt beam="1">  1        4 0.12796676E-01 0.27725291E+03</pdfrwt>
<pdfrwt beam="2">  1       -4 0.35544166E-01 0.27725291E+03</pdfrwt>
<totfact> 0.71610254E+02</totfact>
</mgrwt>
</event>
<event>
 5    1  0.1125356E+001  0.2798007E+03  0.7818608E-02  0.1095798E+00
         -1   -1    0    0    0  501 -0.00000000000E+00  0.00000000000E+00  0.62277637201E+02  0.62277637201E+02  0.00000000000E+00 0.  1.
          1   -1    0    0  501    0  0.00000000000E+00 -0.00000000000E+00 -0.31427185377E+03  0.31427185377E+03  0.00000000000E+00 0.  1.
         35    2    1    2    0    0  0.00000000000E+00  0.00000000000E+00 -0.25199421657E+03  0.37654949097E+03  0.27980070401E+03 0.  0.
         25    1    3    3    0    0 -0.28183521507E+02  0.65915754516E+02 -0.13371756926E+03  0.19344142759E+03  0.12000000000E+03 0.  0.
         25    1    3    3    0    0  0.28183521507E+02 -0.65915754516E+02 -0.11827664731E+03  0.18310806338E+03  0.12000000000E+03 0.  0.
<mgrwt>
<rscale>  0 0.27980070E+03</rscale>
<asrwt>0</asrwt>
<pdfrwt beam="1">  1        1 0.48349517E-01 0.27980070E+03</pdfrwt>
<pdfrwt beam="2">  1       -1 0.95811748E-02 0.27980070E+03</pdfrwt>
<totfact> 0.53505334E+03</totfact>
</mgrwt>
</event>
<event>
 5    1  0.1125356E+001  0.2730900E+03  0.7818608E-02  0.1099524E+00
         -4   -1    0    0    0  501 -0.00000000000E+00  0.00000000000E+00  0.60075507457E+02  0.60075507457E+02  0.00000000000E+00 0.  1.
          4   -1    0    0  501    0  0.00000000000E+00 -0.00000000000E+00 -0.31035176290E+03  0.31035176290E+03  0.00000000000E+00 0.  1.
         35    2    1    2    0    0  0.00000000000E+00  0.00000000000E+00 -0.25027625544E+03  0.37042727036E+03  0.27309001920E+03 0.  0.
         25    1    3    3    0    0  0.60776053263E+02  0.21231539789E+02 -0.11157161738E+03  0.17604752977E+03  0.12000000000E+03 0.  0.
         25    1    3    3    0    0 -0.60776053263E+02 -0.21231539789E+02 -0.13870463806E+03  0.19437974059E+03  0.12000000000E+03 0.  0.
<mgrwt>
<rscale>  0 0.27309002E+03</rscale>
<asrwt>0</asrwt>
<pdfrwt beam="1">  1        4 0.47746425E-01 0.27309002E+03</pdfrwt>
<pdfrwt beam="2">  1       -4 0.92423858E-02 0.27309002E+03</pdfrwt>
<totfact> 0.69201607E+02</totfact>
</mgrwt>
</event>
<event>
 5    1  0.1125356E+001  0.2747958E+03  0.7818608E-02  0.1098566E+00
         -2   -1    0    0    0  501 -0.00000000000E+00  0.00000000000E+00  0.77684033656E+01  0.77684033656E+01  0.00000000000E+00 0. -1.
          2   -1    0    0  501    0  0.00000000000E+00 -0.00000000000E+00 -0.24301234421E+04  0.24301234421E+04  0.00000000000E+00 0. -1.
         35    2    1    2    0    0  0.00000000000E+00  0.00000000000E+00 -0.24223550387E+04  0.24378918455E+04  0.27479577236E+03 0.  0.
         25    1    3    3    0    0 -0.80767662723E+01 -0.35941021429E+02 -0.71553980150E+03  0.72646692885E+03  0.12000000000E+03 0.  0.
         25    1    3    3    0    0  0.80767662723E+01  0.35941021429E+02 -0.17068152372E+04  0.17114249166E+04  0.12000000000E+03 0.  0.
<mgrwt>
<rscale>  0 0.27479577E+03</rscale>
<asrwt>0</asrwt>
<pdfrwt beam="1">  1        2 0.37386519E+00 0.27479577E+03</pdfrwt>
<pdfrwt beam="2">  1       -2 0.11951388E-02 0.27479577E+03</pdfrwt>
<totfact> 0.72016801E+03</totfact>
</mgrwt>
</event>
<event>
 5    1  0.1125356E+001  0.2773642E+03  0.7818608E-02  0.1097137E+00
          1   -1    0    0  501    0  0.00000000000E+00  0.00000000000E+00  0.24669042530E+03  0.24669042530E+03  0.00000000000E+00 0. -1.
         -1   -1    0    0    0  501 -0.00000000000E+00 -0.00000000000E+00 -0.77963023597E+02  0.77963023597E+02  0.00000000000E+00 0. -1.
         35    2    1    2    0    0  0.00000000000E+00  0.00000000000E+00  0.16872740170E+03  0.32465344890E+03  0.27736424751E+03 0.  0.
         25    1    3    3    0    0  0.39813085984E+02 -0.54781596930E+02  0.10274555051E+03  0.17188005506E+03  0.12000000000E+03 0.  0.
         25    1    3    3    0    0 -0.39813085984E+02  0.54781596930E+02  0.65981851190E+02  0.15277339384E+03  0.12000000000E+03 0.  0.
<mgrwt>
<rscale>  0 0.27736425E+03</rscale>
<asrwt>0</asrwt>
<pdfrwt beam="1">  1        1 0.37952373E-01 0.27736425E+03</pdfrwt>
<pdfrwt beam="2">  1       -1 0.11994311E-01 0.27736425E+03</pdfrwt>
<totfact> 0.51166078E+03</totfact>
</mgrwt>
</event>
<event>
 5    1  0.1125356E+001  0.2756447E+03  0.7818608E-02  0.1098092E+00
          1   -1    0    0  501    0  0.00000000000E+00  0.00000000000E+00  0.56624455371E+02  0.56624455371E+02  0.00000000000E+00 0. -1.
         -1   -1    0    0    0  501 -0.00000000000E+00 -0.00000000000E+00 -0.33545576039E+03  0.33545576039E+03  0.00000000000E+00 0. -1.
         35    2    1    2    0    0  0.00000000000E+00  0.00000000000E+00 -0.27883130502E+03  0.39208021576E+03  0.27564469691E+03 0.  0.
         25    1    3    3    0    0 -0.49655442825E+01 -0.56432616583E+02 -0.86466337256E+02  0.15838473513E+03  0.12000000000E+03 0.  0.
         25    1    3    3    0    0  0.49655442825E+01  0.56432616583E+02 -0.19236496776E+03  0.23369548063E+03  0.12000000000E+03 0.  0.
<mgrwt>
<rscale>  0 0.27564470E+03</rscale>
<asrwt>0</asrwt>
<pdfrwt beam="1">  1        1 0.87114547E-02 0.27564470E+03</pdfrwt>
<pdfrwt beam="2">  1       -1 0.51608579E-01 0.27564470E+03</pdfrwt>
<totfact> 0.29863449E+03</totfact>
</mgrwt>
</event>
<event>
 5    1  0.1125356E+001  0.2772934E+03  0.7818608E-02  0.1097176E+00
         -2   -1    0    0    0  501 -0.00000000000E+00  0.00000000000E+00  0.22609022529E+03  0.22609022529E+03  0.00000000000E+00 0. -1.
          2   -1    0    0  501    0  0.00000000000E+00 -0.00000000000E+00 -0.85023191202E+02  0.85023191202E+02  0.00000000000E+00 0. -1.
         35    2    1    2    0    0  0.00000000000E+00  0.00000000000E+00  0.14106703408E+03  0.31111341649E+03  0.27729343630E+03 0.  0.
         25    1    3    3    0    0  0.51369618865E+02 -0.21512119731E+02  0.23984783918E+02  0.13445028411E+03  0.12000000000E+03 0.  0.
         25    1    3    3    0    0 -0.51369618865E+02  0.21512119731E+02  0.11708225017E+03  0.17666313238E+03  0.12000000000E+03 0.  0.
<mgrwt>
<rscale>  0 0.27729344E+03</rscale>
<asrwt>0</asrwt>
<pdfrwt beam="1">  1        2 0.13080491E-01 0.27729344E+03</pdfrwt>
<pdfrwt beam="2">  1       -2 0.34783111E-01 0.27729344E+03</pdfrwt>
<totfact> 0.35572812E+03</totfact>
</mgrwt>
</event>
<event>
 5    1  0.1125356E+001  0.2758900E+03  0.7818608E-02  0.1097955E+00
          2   -1    0    0  501    0  0.00000000000E+00  0.00000000000E+00  0.15571259759E+04  0.15571259759E+04  0.00000000000E+00 0. -1.
         -2   -1    0    0    0  501 -0.00000000000E+00 -0.00000000000E+00 -0.12220479840E+02  0.12220479840E+02  0.00000000000E+00 0. -1.
         35    2    1    2    0    0  0.00000000000E+00  0.00000000000E+00  0.15449054960E+04  0.15693464557E+04  0.27589002589E+03 0.  0.
         25    1    3    3    0    0  0.55650007528E+02 -0.49379984144E+01  0.99331133546E+03  0.10020921696E+04  0.12000000000E+03 0.  0.
         25    1    3    3    0    0 -0.55650007528E+02  0.49379984144E+01  0.55159416056E+03  0.56725428613E+03  0.12000000000E+03 0.  0.
<mgrwt>
<rscale>  0 0.27589003E+03</rscale>
<asrwt>0</asrwt>
<pdfrwt beam="1">  1        2 0.23955769E+00 0.27589003E+03</pdfrwt>
<pdfrwt beam="2">  1       -2 0.18800751E-02 0.27589003E+03</pdfrwt>
<totfact> 0.10769950E+04</totfact>
</mgrwt>
</event>
<event>
 5    1  0.1125356E+001  0.2747775E+03  0.7818608E-02  0.1098576E+00
         -3   -1    0    0    0  501 -0.00000000000E+00  0.00000000000E+00  0.78310086831E+02  0.78310086831E+02  0.00000000000E+00 0.  1.
          3   -1    0    0  501    0  0.00000000000E+00 -0.00000000000E+00 -0.24103757512E+03  0.24103757512E+03  0.00000000000E+00 0.  1.
         35    2    1    2    0    0  0.00000000000E+00  0.00000000000E+00 -0.16272748829E+03  0.31934766195E+03  0.27477753502E+03 0.  0.
         25    1    3    3    0    0  0.24924168515E+02  0.38422173975E+02 -0.13804067472E+03  0.18855425083E+03  0.12000000000E+03 0.  0.
         25    1    3    3    0    0 -0.24924168515E+02 -0.38422173975E+02 -0.24686813573E+02  0.13079341112E+03  0.12000000000E+03 0.  0.
<mgrwt>
<rscale>  0 0.27477754E+03</rscale>
<asrwt>0</asrwt>
<pdfrwt beam="1">  1        3 0.37082704E-01 0.27477754E+03</pdfrwt>
<pdfrwt beam="2">  1       -3 0.12047706E-01 0.27477754E+03</pdfrwt>
<totfact> 0.98669943E+02</totfact>
</mgrwt>
</event>
<event>
 5    1  0.1125356E+001  0.2753042E+03  0.7818608E-02  0.1098282E+00
          2   -1    0    0  501    0  0.00000000000E+00  0.00000000000E+00  0.12895322153E+03  0.12895322153E+03  0.00000000000E+00 0.  1.
         -2   -1    0    0    0  501 -0.00000000000E+00 -0.00000000000E+00 -0.14693780909E+03  0.14693780909E+03  0.00000000000E+00 0.  1.
         35    2    1    2    0    0  0.00000000000E+00  0.00000000000E+00 -0.17984587554E+02  0.27589103062E+03  0.27530422334E+03 0.  0.
         25    1    3    3    0    0 -0.48473347410E+02 -0.85691143311E+01 -0.55188367496E+02  0.14095691199E+03  0.12000000000E+03 0.  0.
         25    1    3    3    0    0  0.48473347410E+02  0.85691143311E+01  0.37203779942E+02  0.13493411863E+03  0.12000000000E+03 0.  0.
<mgrwt>
<rscale>  0 0.27530422E+03</rscale>
<asrwt>0</asrwt>
<pdfrwt beam="1">  1        2 0.19838957E-01 0.27530422E+03</pdfrwt>
<pdfrwt beam="2">  1       -2 0.22605817E-01 0.27530422E+03</pdfrwt>
<totfact> 0.47296133E+03</totfact>
</mgrwt>
</event>
<event>
 5    1  0.1125356E+001  0.2754122E+03  0.7818608E-02  0.1098221E+00
         -2   -1    0    0    0  501 -0.00000000000E+00  0.00000000000E+00  0.79504464337E+01  0.79504464337E+01  0.00000000000E+00 0. -1.
          2   -1    0    0  501    0  0.00000000000E+00 -0.00000000000E+00 -0.23851448262E+04  0.23851448262E+04  0.00000000000E+00 0. -1.
         35    2    1    2    0    0  0.00000000000E+00  0.00000000000E+00 -0.23771943798E+04  0.23930952726E+04  0.27541217241E+03 0.  0.
         25    1    3    3    0    0 -0.72431181616E+01 -0.38961658837E+02 -0.16639251894E+04  0.16687173246E+04  0.12000000000E+03 0.  0.
         25    1    3    3    0    0  0.72431181616E+01  0.38961658837E+02 -0.71326919038E+03  0.72437794801E+03  0.12000000000E+03 0.  0.
<mgrwt>
<rscale>  0 0.27541217E+03</rscale>
<asrwt>0</asrwt>
<pdfrwt beam="1">  1        2 0.36694535E+00 0.27541217E+03</pdfrwt>
<pdfrwt beam="2">  1       -2 0.12231456E-02 0.27541217E+03</pdfrwt>
<totfact> 0.73648265E+03</totfact>
</mgrwt>
</event>
<event>
 5    1  0.1125356E+001  0.2748486E+03  0.7818608E-02  0.1098536E+00
         -2   -1    0    0    0  501 -0.00000000000E+00  0.00000000000E+00  0.11900512053E+02  0.11900512053E+02  0.00000000000E+00 0.  1.
          2   -1    0    0  501    0  0.00000000000E+00 -0.00000000000E+00 -0.15869436403E+04  0.15869436403E+04  0.00000000000E+00 0.  1.
         35    2    1    2    0    0  0.00000000000E+00  0.00000000000E+00 -0.15750431283E+04  0.15988441524E+04  0.27484862684E+03 0.  0.
         25    1    3    3    0    0  0.31734014684E+01  0.42936505055E+01 -0.11758782270E+04  0.11819975088E+04  0.12000000000E+03 0.  0.
         25    1    3    3    0    0 -0.31734014684E+01 -0.42936505055E+01 -0.39916490123E+03  0.41684664360E+03  0.12000000000E+03 0.  0.
<mgrwt>
<rscale>  0 0.27484863E+03</rscale>
<asrwt>0</asrwt>
<pdfrwt beam="1">  1        2 0.24414501E+00 0.27484863E+03</pdfrwt>
<pdfrwt beam="2">  1       -2 0.18308493E-02 0.27484863E+03</pdfrwt>
<totfact> 0.10796056E+04</totfact>
</mgrwt>
</event>
<event>
 5    1  0.1125356E+001  0.2755700E+03  0.7818608E-02  0.1098133E+00
          1   -1    0    0  501    0  0.00000000000E+00  0.00000000000E+00  0.19198128735E+04  0.19198128735E+04  0.00000000000E+00 0. -1.
         -1   -1    0    0    0  501 -0.00000000000E+00 -0.00000000000E+00 -0.98888318699E+01  0.98888318699E+01  0.00000000000E+00 0. -1.
         35    2    1    2    0    0  0.00000000000E+00  0.00000000000E+00  0.19099240416E+04  0.19297017054E+04  0.27557000365E+03 0.  0.
         25    1    3    3    0    0 -0.48851280962E+02  0.43866786073E+02  0.10708678054E+04  0.10795687098E+04  0.12000000000E+03 0.  0.
         25    1    3    3    0    0  0.48851280962E+02 -0.43866786073E+02  0.83905623620E+03  0.85013299553E+03  0.12000000000E+03 0.  0.
<mgrwt>
<rscale>  0 0.27557000E+03</rscale>
<asrwt>0</asrwt>
<pdfrwt beam="1">  1        1 0.29535553E+00 0.27557000E+03</pdfrwt>
<pdfrwt beam="2">  1       -1 0.15213603E-02 0.27557000E+03</pdfrwt>
<totfact> 0.38889398E+03</totfact>
</mgrwt>
</event>
<event>
 5    1  0.1125356E+001  0.2758850E+03  0.7818608E-02  0.1097958E+00
         -2   -1    0    0    0  501 -0.00000000000E+00  0.00000000000E+00  0.49179081404E+02  0.49179081404E+02  0.00000000000E+00 0. -1.
          2   -1    0    0  501    0  0.00000000000E+00 -0.00000000000E+00 -0.38691524603E+03  0.38691524603E+03  0.00000000000E+00 0. -1.
         35    2    1    2    0    0  0.00000000000E+00  0.00000000000E+00 -0.33773616463E+03  0.43609432743E+03  0.27588502229E+03 0.  0.
         25    1    3    3    0    0 -0.41082810370E+02 -0.53166755564E+02 -0.15201774076E+03  0.20499730416E+03  0.12000000000E+03 0.  0.
         25    1    3    3    0    0  0.41082810370E+02  0.53166755564E+02 -0.18571842386E+03  0.23109702328E+03  0.12000000000E+03 0.  0.
<mgrwt>
<rscale>  0 0.27588502E+03</rscale>
<asrwt>0</asrwt>
<pdfrwt beam="1">  1        2 0.59525424E-01 0.27588502E+03</pdfrwt>
<pdfrwt beam="2">  1       -2 0.75660124E-02 0.27588502E+03</pdfrwt>
<totfact> 0.84892388E+03</totfact>
</mgrwt>
</event>
<event>
 5    1  0.1125356E+001  0.2774734E+03  0.7818608E-02  0.1097077E+00
          2   -1    0    0  501    0  0.00000000000E+00  0.00000000000E+00  0.12006755432E+03  0.12006755432E+03  0.00000000000E+00 0.  1.
         -2   -1    0    0    0  501 -0.00000000000E+00 -0.00000000000E+00 -0.16030866128E+03  0.16030866128E+03  0.00000000000E+00 0.  1.
         35    2    1    2    0    0  0.00000000000E+00  0.00000000000E+00 -0.40241106957E+02  0.28037621560E+03  0.27747337815E+03 0.  0.
         25    1    3    3    0    0  0.23941095628E+02 -0.33355825960E+02 -0.76941228929E+02  0.14834331766E+03  0.12000000000E+03 0.  0.
         25    1    3    3    0    0 -0.23941095628E+02  0.33355825960E+02  0.36700121972E+02  0.13203289794E+03  0.12000000000E+03 0.  0.
<mgrwt>
<rscale>  0 0.27747338E+03</rscale>
<asrwt>0</asrwt>
<pdfrwt beam="1">  1        2 0.18471932E-01 0.27747338E+03</pdfrwt>
<pdfrwt beam="2">  1       -2 0.24662871E-01 0.27747338E+03</pdfrwt>
<totfact> 0.44100277E+03</totfact>
</mgrwt>
</event>
<event>
 5    1  0.1125356E+001  0.2759778E+03  0.7818608E-02  0.1097906E+00
          2   -1    0    0  501    0  0.00000000000E+00  0.00000000000E+00  0.37564057915E+03  0.37564057915E+03  0.00000000000E+00 0.  1.
         -2   -1    0    0    0  501 -0.00000000000E+00 -0.00000000000E+00 -0.50689249679E+02  0.50689249679E+02  0.00000000000E+00 0.  1.
         35    2    1    2    0    0  0.00000000000E+00  0.00000000000E+00  0.32495132947E+03  0.42632982883E+03  0.27597781872E+03 0.  0.
         25    1    3    3    0    0  0.16488038414E+02 -0.43908416059E+02  0.23880077030E+03  0.27134039933E+03  0.12000000000E+03 0.  0.
         25    1    3    3    0    0 -0.16488038414E+02  0.43908416059E+02  0.86150559168E+02  0.15498942950E+03  0.12000000000E+03 0.  0.
<mgrwt>
<rscale>  0 0.27597782E+03</rscale>
<asrwt>0</asrwt>
<pdfrwt beam="1">  1        2 0.57790857E-01 0.27597782E+03</pdfrwt>
<pdfrwt beam="2">  1       -2 0.77983463E-02 0.27597782E+03</pdfrwt>
<totfact> 0.83621360E+03</totfact>
</mgrwt>
</event>
<event>
 5    1  0.1125356E+001  0.2752130E+03  0.7818608E-02  0.1098333E+00
         -1   -1    0    0    0  501 -0.00000000000E+00  0.00000000000E+00  0.31219166738E+03  0.31219166738E+03  0.00000000000E+00 0.  1.
          1   -1    0    0  501    0  0.00000000000E+00 -0.00000000000E+00 -0.60653621720E+02  0.60653621720E+02  0.00000000000E+00 0.  1.
         35    2    1    2    0    0  0.00000000000E+00  0.00000000000E+00  0.25153804566E+03  0.37284528910E+03  0.27521304691E+03 0.  0.
         25    1    3    3    0    0 -0.24520829904E+02 -0.57965436988E+02  0.93303220257E+02  0.16451976749E+03  0.12000000000E+03 0.  0.
         25    1    3    3    0    0  0.24520829904E+02  0.57965436988E+02  0.15823482541E+03  0.20832552161E+03  0.12000000000E+03 0.  0.
<mgrwt>
<rscale>  0 0.27521305E+03</rscale>
<asrwt>0</asrwt>
<pdfrwt beam="1">  1        1 0.93313266E-02 0.27521305E+03</pdfrwt>
<pdfrwt beam="2">  1       -1 0.48029486E-01 0.27521305E+03</pdfrwt>
<totfact> 0.31077287E+03</totfact>
</mgrwt>
</event>
<event>
 5    1  0.1125356E+001  0.2747842E+03  0.7818608E-02  0.1098572E+00
          2   -1    0    0  501    0  0.00000000000E+00  0.00000000000E+00  0.25129557504E+03  0.25129557504E+03  0.00000000000E+00 0.  1.
         -2   -1    0    0    0  501 -0.00000000000E+00 -0.00000000000E+00 -0.75117058419E+02  0.75117058419E+02  0.00000000000E+00 0.  1.
         35    2    1    2    0    0  0.00000000000E+00  0.00000000000E+00  0.17617851663E+03  0.32641263346E+03  0.27478416542E+03 0.  0.
         25    1    3    3    0    0 -0.91129779820E+01 -0.49352550140E+02  0.35527910043E+02  0.13483676414E+03  0.12000000000E+03 0.  0.
         25    1    3    3    0    0  0.91129779820E+01  0.49352550140E+02  0.14065060658E+03  0.19157586932E+03  0.12000000000E+03 0.  0.
<mgrwt>
<rscale>  0 0.27478417E+03</rscale>
<asrwt>0</asrwt>
<pdfrwt beam="1">  1        2 0.38660857E-01 0.27478417E+03</pdfrwt>
<pdfrwt beam="2">  1       -2 0.11556471E-01 0.27478417E+03</pdfrwt>
<totfact> 0.69169494E+03</totfact>
</mgrwt>
</event>
<event>
 5    1  0.1125356E+001  0.2748908E+03  0.7818608E-02  0.1098513E+00
          2   -1    0    0  501    0  0.00000000000E+00  0.00000000000E+00  0.29320491432E+03  0.29320491432E+03  0.00000000000E+00 0.  1.
         -2   -1    0    0    0  501 -0.00000000000E+00 -0.00000000000E+00 -0.64430176004E+02  0.64430176004E+02  0.00000000000E+00 0.  1.
         35    2    1    2    0    0  0.00000000000E+00  0.00000000000E+00  0.22877473832E+03  0.35763509033E+03  0.27489084550E+03 0.  0.
         25    1    3    3    0    0 -0.10528858085E+02 -0.41176620323E+02  0.18180007305E+03  0.22194061700E+03  0.12000000000E+03 0.  0.
         25    1    3    3    0    0  0.10528858085E+02  0.41176620323E+02  0.46974665267E+02  0.13569447332E+03  0.12000000000E+03 0.  0.
<mgrwt>
<rscale>  0 0.27489085E+03</rscale>
<asrwt>0</asrwt>
<pdfrwt beam="1">  1        2 0.45108448E-01 0.27489085E+03</pdfrwt>
<pdfrwt beam="2">  1       -2 0.99123349E-02 0.27489085E+03</pdfrwt>
<totfact> 0.74873511E+03</totfact>
</mgrwt>
</event>
<event>
 5    1  0.1125356E+001  0.2753293E+03  0.7818608E-02  0.1098268E+00
          2   -1    0    0  501    0  0.00000000000E+00  0.00000000000E+00  0.36677571012E+03  0.36677571012E+03  0.00000000000E+00 0.  1.
         -2   -1    0    0    0  501 -0.00000000000E+00 -0.00000000000E+00 -0.51670708235E+02  0.51670708235E+02  0.00000000000E+00 0.  1.
         35    2    1    2    0    0  0.00000000000E+00  0.00000000000E+00  0.31510500189E+03  0.41844641836E+03  0.27532933520E+03 0.  0.
         25    1    3    3    0    0 -0.50275848694E+01  0.50679541507E+02  0.90304544470E+02  0.15858311161E+03  0.12000000000E+03 0.  0.
         25    1    3    3    0    0  0.50275848694E+01 -0.50679541507E+02  0.22480045742E+03  0.25986330674E+03  0.12000000000E+03 0.  0.
<mgrwt>
<rscale>  0 0.27532934E+03</rscale>
<asrwt>0</asrwt>
<pdfrwt beam="1">  1        2 0.56427031E-01 0.27532934E+03</pdfrwt>
<pdfrwt beam="2">  1       -2 0.79493400E-02 0.27532934E+03</pdfrwt>
<totfact> 0.83272886E+03</totfact>
</mgrwt>
</event>
<event>
 5    1  0.1125356E+001  0.2752208E+03  0.7818608E-02  0.1098328E+00
          2   -1    0    0  501    0  0.00000000000E+00  0.00000000000E+00  0.31280157168E+03  0.31280157168E+03  0.00000000000E+00 0. -1.
         -2   -1    0    0    0  501 -0.00000000000E+00 -0.00000000000E+00 -0.60538760656E+02  0.60538760656E+02  0.00000000000E+00 0. -1.
         35    2    1    2    0    0  0.00000000000E+00  0.00000000000E+00  0.25226281103E+03  0.37334033234E+03  0.27522078033E+03 0.  0.
         25    1    3    3    0    0  0.22228129904E+02  0.12111413460E+02  0.41462405066E+02  0.12946005998E+03  0.12000000000E+03 0.  0.
         25    1    3    3    0    0 -0.22228129904E+02 -0.12111413460E+02  0.21080040596E+03  0.24388027236E+03  0.12000000000E+03 0.  0.
<mgrwt>
<rscale>  0 0.27522078E+03</rscale>
<asrwt>0</asrwt>
<pdfrwt beam="1">  1        2 0.48123318E-01 0.27522078E+03</pdfrwt>
<pdfrwt beam="2">  1       -2 0.93136556E-02 0.27522078E+03</pdfrwt>
<totfact> 0.77089431E+03</totfact>
</mgrwt>
</event>
<event>
 5    1  0.1125356E+001  0.2753986E+03  0.7818608E-02  0.1098229E+00
          2   -1    0    0  501    0  0.00000000000E+00  0.00000000000E+00  0.37248644545E+03  0.37248644545E+03  0.00000000000E+00 0. -1.
         -2   -1    0    0    0  501 -0.00000000000E+00 -0.00000000000E+00 -0.50904139335E+02  0.50904139335E+02  0.00000000000E+00 0. -1.
         35    2    1    2    0    0  0.00000000000E+00  0.00000000000E+00  0.32158230612E+03  0.42339058479E+03  0.27539863413E+03 0.  0.
         25    1    3    3    0    0  0.64566536552E+02  0.32536723096E+01  0.13075613360E+03  0.18888247801E+03  0.12000000000E+03 0.  0.
         25    1    3    3    0    0 -0.64566536552E+02 -0.32536723096E+01  0.19082617251E+03  0.23450810677E+03  0.12000000000E+03 0.  0.
<mgrwt>
<rscale>  0 0.27539863E+03</rscale>
<asrwt>0</asrwt>
<pdfrwt beam="1">  1        2 0.57305605E-01 0.27539863E+03</pdfrwt>
<pdfrwt beam="2">  1       -2 0.78314063E-02 0.27539863E+03</pdfrwt>
<totfact> 0.83825640E+03</totfact>
</mgrwt>
</event>
<event>
 5    1  0.1125356E+001  0.2742893E+03  0.7818608E-02  0.1098850E+00
         -2   -1    0    0    0  501 -0.00000000000E+00  0.00000000000E+00  0.73740641409E+02  0.73740641409E+02  0.00000000000E+00 0. -1.
          2   -1    0    0  501    0  0.00000000000E+00 -0.00000000000E+00 -0.25506490780E+03  0.25506490780E+03  0.00000000000E+00 0. -1.
         35    2    1    2    0    0  0.00000000000E+00  0.00000000000E+00 -0.18132426639E+03  0.32880554921E+03  0.27428926265E+03 0.  0.
         25    1    3    3    0    0 -0.55101997100E+01 -0.64977607363E+02 -0.75680185939E+02  0.15614077720E+03  0.12000000000E+03 0.  0.
         25    1    3    3    0    0  0.55101997100E+01  0.64977607363E+02 -0.10564408045E+03  0.17266477201E+03  0.12000000000E+03 0.  0.
<mgrwt>
<rscale>  0 0.27428926E+03</rscale>
<asrwt>0</asrwt>
<pdfrwt beam="1">  1        2 0.39240756E-01 0.27428926E+03</pdfrwt>
<pdfrwt beam="2">  1       -2 0.11344714E-01 0.27428926E+03</pdfrwt>
<totfact> 0.70115370E+03</totfact>
</mgrwt>
</event>
<event>
 5    1  0.1125356E+001  0.2770823E+03  0.7818608E-02  0.1097293E+00
         -1   -1    0    0    0  501 -0.00000000000E+00  0.00000000000E+00  0.17474814851E+04  0.17474814851E+04  0.00000000000E+00 0. -1.
          1   -1    0    0  501    0  0.00000000000E+00 -0.00000000000E+00 -0.10983603609E+02  0.10983603609E+02  0.00000000000E+00 0. -1.
         35    2    1    2    0    0  0.00000000000E+00  0.00000000000E+00  0.17364978815E+04  0.17584650887E+04  0.27708225454E+03 0.  0.
         25    1    3    3    0    0  0.36193429580E+02  0.55148477948E+02  0.73477521860E+03  0.74742621097E+03  0.12000000000E+03 0.  0.
         25    1    3    3    0    0 -0.36193429580E+02 -0.55148477948E+02  0.10017226629E+04  0.10110388778E+04  0.12000000000E+03 0.  0.
<mgrwt>
<rscale>  0 0.27708225E+03</rscale>
<asrwt>0</asrwt>
<pdfrwt beam="1">  1        1 0.16897866E-02 0.27708225E+03</pdfrwt>
<pdfrwt beam="2">  1       -1 0.26884309E+00 0.27708225E+03</pdfrwt>
<totfact> 0.46433477E+02</totfact>
</mgrwt>
</event>
<event>
 5    1  0.1125356E+001  0.2748456E+03  0.7818608E-02  0.1098538E+00
          2   -1    0    0  501    0  0.00000000000E+00  0.00000000000E+00  0.60408812017E+03  0.60408812017E+03  0.00000000000E+00 0.  1.
         -2   -1    0    0    0  501 -0.00000000000E+00 -0.00000000000E+00 -0.31262028436E+02  0.31262028436E+02  0.00000000000E+00 0.  1.
         35    2    1    2    0    0  0.00000000000E+00  0.00000000000E+00  0.57282609174E+03  0.63535014861E+03  0.27484555657E+03 0.  0.
         25    1    3    3    0    0 -0.37850805718E+02  0.47753631817E+02  0.35063929692E+03  0.37558089593E+03  0.12000000000E+03 0.  0.
         25    1    3    3    0    0  0.37850805718E+02 -0.47753631817E+02  0.22218679482E+03  0.25976925268E+03  0.12000000000E+03 0.  0.
<mgrwt>
<rscale>  0 0.27484556E+03</rscale>
<asrwt>0</asrwt>
<pdfrwt beam="1">  1        2 0.92936625E-01 0.27484556E+03</pdfrwt>
<pdfrwt beam="2">  1       -2 0.48095433E-02 0.27484556E+03</pdfrwt>
<totfact> 0.10349954E+04</totfact>
</mgrwt>
</event>
<event>
 5    1  0.1125356E+001  0.2739324E+03  0.7818608E-02  0.1099050E+00
         -2   -1    0    0    0  501 -0.00000000000E+00  0.00000000000E+00  0.24484916868E+02  0.24484916868E+02  0.00000000000E+00 0. -1.
          2   -1    0    0  501    0  0.00000000000E+00 -0.00000000000E+00 -0.76617563310E+03  0.76617563310E+03  0.00000000000E+00 0. -1.
         35    2    1    2    0    0  0.00000000000E+00  0.00000000000E+00 -0.74169071624E+03  0.79066054997E+03  0.27393244921E+03 0.  0.
         25    1    3    3    0    0 -0.52522768931E+02 -0.37179335470E+02 -0.41353993078E+03  0.43538054457E+03  0.12000000000E+03 0.  0.
         25    1    3    3    0    0  0.52522768931E+02  0.37179335470E+02 -0.32815078545E+03  0.35528000540E+03  0.12000000000E+03 0.  0.
<mgrwt>
<rscale>  0 0.27393245E+03</rscale>
<asrwt>0</asrwt>
<pdfrwt beam="1">  1        2 0.11787318E+00 0.27393245E+03</pdfrwt>
<pdfrwt beam="2">  1       -2 0.37669101E-02 0.27393245E+03</pdfrwt>
<totfact> 0.11236559E+04</totfact>
</mgrwt>
</event>
<event>
 5    1  0.1125356E+001  0.2749328E+03  0.7818608E-02  0.1098489E+00
          2   -1    0    0  501    0  0.00000000000E+00  0.00000000000E+00  0.13906077801E+03  0.13906077801E+03  0.00000000000E+00 0.  1.
         -2   -1    0    0    0  501 -0.00000000000E+00 -0.00000000000E+00 -0.13589031688E+03  0.13589031688E+03  0.00000000000E+00 0.  1.
         35    2    1    2    0    0  0.00000000000E+00  0.00000000000E+00  0.31704611299E+01  0.27495109488E+03  0.27493281498E+03 0.  0.
         25    1    3    3    0    0  0.37630914549E+02 -0.53826690995E+02 -0.11966124067E+02  0.13731928677E+03  0.12000000000E+03 0.  0.
         25    1    3    3    0    0 -0.37630914549E+02  0.53826690995E+02  0.15136585197E+02  0.13763180811E+03  0.12000000000E+03 0.  0.
<mgrwt>
<rscale>  0 0.27493281E+03</rscale>
<asrwt>0</asrwt>
<pdfrwt beam="1">  1        2 0.21393966E-01 0.27493281E+03</pdfrwt>
<pdfrwt beam="2">  1       -2 0.20906203E-01 0.27493281E+03</pdfrwt>
<totfact> 0.49673511E+03</totfact>
</mgrwt>
</event>
<event>
 5    1  0.1125356E+001  0.2747630E+03  0.7818608E-02  0.1098584E+00
         -1   -1    0    0    0  501 -0.00000000000E+00  0.00000000000E+00  0.75803499667E+03  0.75803499667E+03  0.00000000000E+00 0.  1.
          1   -1    0    0  501    0  0.00000000000E+00 -0.00000000000E+00 -0.24898167456E+02  0.24898167456E+02  0.00000000000E+00 0.  1.
         35    2    1    2    0    0  0.00000000000E+00  0.00000000000E+00  0.73313682921E+03  0.78293316412E+03  0.27476304180E+03 0.  0.
         25    1    3    3    0    0 -0.14398034717E+02  0.56494171809E+02  0.45998579050E+03  0.47894239979E+03  0.12000000000E+03 0.  0.
         25    1    3    3    0    0  0.14398034717E+02 -0.56494171809E+02  0.27315103871E+03  0.30399076433E+03  0.12000000000E+03 0.  0.
<mgrwt>
<rscale>  0 0.27476304E+03</rscale>
<asrwt>0</asrwt>
<pdfrwt beam="1">  1        1 0.38304879E-02 0.27476304E+03</pdfrwt>
<pdfrwt beam="2">  1       -1 0.11662075E+00 0.27476304E+03</pdfrwt>
<totfact> 0.17090331E+03</totfact>
</mgrwt>
</event>
<event>
 5    1  0.1125356E+001  0.2709875E+03  0.7818608E-02  0.1100716E+00
          2   -1    0    0  501    0  0.00000000000E+00  0.00000000000E+00  0.42041758913E+03  0.42041758913E+03  0.00000000000E+00 0.  1.
         -2   -1    0    0    0  501 -0.00000000000E+00 -0.00000000000E+00 -0.43667432918E+02  0.43667432918E+02  0.00000000000E+00 0.  1.
         35    2    1    2    0    0  0.00000000000E+00  0.00000000000E+00  0.37675015621E+03  0.46408502205E+03  0.27098750429E+03 0.  0.
         25    1    3    3    0    0 -0.19697366974E+02  0.59619593030E+02  0.19524133678E+03  0.23761662763E+03  0.12000000000E+03 0.  0.
         25    1    3    3    0    0  0.19697366974E+02 -0.59619593030E+02  0.18150881943E+03  0.22646839442E+03  0.12000000000E+03 0.  0.
<mgrwt>
<rscale>  0 0.27098750E+03</rscale>
<asrwt>0</asrwt>
<pdfrwt beam="1">  1        2 0.64679626E-01 0.27098750E+03</pdfrwt>
<pdfrwt beam="2">  1       -2 0.67180669E-02 0.27098750E+03</pdfrwt>
<totfact> 0.93188767E+03</totfact>
</mgrwt>
</event>
<event>
 5    1  0.1125356E+001  0.2746210E+03  0.7818608E-02  0.1098664E+00
         -2   -1    0    0    0  501 -0.00000000000E+00  0.00000000000E+00  0.11094745448E+02  0.11094745448E+02  0.00000000000E+00 0. -1.
          2   -1    0    0  501    0  0.00000000000E+00 -0.00000000000E+00 -0.16993784156E+04  0.16993784156E+04  0.00000000000E+00 0. -1.
         35    2    1    2    0    0  0.00000000000E+00  0.00000000000E+00 -0.16882836702E+04  0.17104731611E+04  0.27462098202E+03 0.  0.
         25    1    3    3    0    0 -0.71715769330E+01 -0.43228078651E+02 -0.53060246722E+03  0.54576467137E+03  0.12000000000E+03 0.  0.
         25    1    3    3    0    0  0.71715769330E+01  0.43228078651E+02 -0.11576812029E+04  0.11647084897E+04  0.12000000000E+03 0.  0.
<mgrwt>
<rscale>  0 0.27462098E+03</rscale>
<asrwt>0</asrwt>
<pdfrwt beam="1">  1        2 0.26144263E+00 0.27462098E+03</pdfrwt>
<pdfrwt beam="2">  1       -2 0.17068852E-02 0.27462098E+03</pdfrwt>
<totfact> 0.10435820E+04</totfact>
</mgrwt>
</event>
<event>
 5    1  0.1125356E+001  0.2752359E+03  0.7818608E-02  0.1098320E+00
         -1   -1    0    0    0  501 -0.00000000000E+00  0.00000000000E+00  0.36600694887E+02  0.36600694887E+02  0.00000000000E+00 0.  1.
          1   -1    0    0  501    0  0.00000000000E+00 -0.00000000000E+00 -0.51744111788E+03  0.51744111788E+03  0.00000000000E+00 0.  1.
         35    2    1    2    0    0  0.00000000000E+00  0.00000000000E+00 -0.48084042300E+03  0.55404181277E+03  0.27523593136E+03 0.  0.
         25    1    3    3    0    0 -0.51908810808E+02 -0.19956814180E+02 -0.16387688135E+03  0.21059067243E+03  0.12000000000E+03 0.  0.
         25    1    3    3    0    0  0.51908810808E+02  0.19956814180E+02 -0.31696354165E+03  0.34345114034E+03  0.12000000000E+03 0.  0.
<mgrwt>
<rscale>  0 0.27523593E+03</rscale>
<asrwt>0</asrwt>
<pdfrwt beam="1">  1        1 0.79606318E-01 0.27523593E+03</pdfrwt>
<pdfrwt beam="2">  1       -1 0.56308767E-02 0.27523593E+03</pdfrwt>
<totfact> 0.63140485E+03</totfact>
</mgrwt>
</event>
<event>
 5    1  0.1125356E+001  0.2723776E+03  0.7818608E-02  0.1099927E+00
          1   -1    0    0  501    0  0.00000000000E+00  0.00000000000E+00  0.12674848239E+04  0.12674848239E+04  0.00000000000E+00 0. -1.
         -1   -1    0    0    0  501 -0.00000000000E+00 -0.00000000000E+00 -0.14633224953E+02  0.14633224953E+02  0.00000000000E+00 0. -1.
         35    2    1    2    0    0  0.00000000000E+00  0.00000000000E+00  0.12528515990E+04  0.12821180489E+04  0.27237760960E+03 0.  0.
         25    1    3    3    0    0 -0.13302533011E+02  0.14986284640E+02  0.33833361365E+03  0.35954301583E+03  0.12000000000E+03 0.  0.
         25    1    3    3    0    0  0.13302533011E+02 -0.14986284640E+02  0.91451798533E+03  0.92257503305E+03  0.12000000000E+03 0.  0.
<mgrwt>
<rscale>  0 0.27237761E+03</rscale>
<asrwt>0</asrwt>
<pdfrwt beam="1">  1        1 0.19499758E+00 0.27237761E+03</pdfrwt>
<pdfrwt beam="2">  1       -1 0.22512664E-02 0.27237761E+03</pdfrwt>
<totfact> 0.59197846E+03</totfact>
</mgrwt>
</event>
<event>
 5    1  0.1125356E+001  0.2745559E+03  0.7818608E-02  0.1098700E+00
          1   -1    0    0  501    0  0.00000000000E+00  0.00000000000E+00  0.58802255810E+02  0.58802255810E+02  0.00000000000E+00 0.  1.
         -1   -1    0    0    0  501 -0.00000000000E+00 -0.00000000000E+00 -0.32048501867E+03  0.32048501867E+03  0.00000000000E+00 0.  1.
         35    2    1    2    0    0  0.00000000000E+00  0.00000000000E+00 -0.26168276286E+03  0.37928727448E+03  0.27455594731E+03 0.  0.
         25    1    3    3    0    0  0.63957237800E+02  0.15979463596E+02 -0.11707035812E+03  0.18014255543E+03  0.12000000000E+03 0.  0.
         25    1    3    3    0    0 -0.63957237800E+02 -0.15979463596E+02 -0.14461240473E+03  0.19914471905E+03  0.12000000000E+03 0.  0.
<mgrwt>
<rscale>  0 0.27455595E+03</rscale>
<asrwt>0</asrwt>
<pdfrwt beam="1">  1        1 0.90465007E-02 0.27455595E+03</pdfrwt>
<pdfrwt beam="2">  1       -1 0.49305389E-01 0.27455595E+03</pdfrwt>
<totfact> 0.30878135E+03</totfact>
</mgrwt>
</event>
<event>
 5    1  0.1125356E+001  0.2759782E+03  0.7818608E-02  0.1097906E+00
         -2   -1    0    0    0  501 -0.00000000000E+00  0.00000000000E+00  0.77078398643E+02  0.77078398643E+02  0.00000000000E+00 0.  1.
          2   -1    0    0  501    0  0.00000000000E+00 -0.00000000000E+00 -0.24703405808E+03  0.24703405808E+03  0.00000000000E+00 0.  1.
         35    2    1    2    0    0  0.00000000000E+00  0.00000000000E+00 -0.16995565944E+03  0.32411245673E+03  0.27597818470E+03 0.  0.
         25    1    3    3    0    0 -0.63306915405E+02  0.25038774480E+02 -0.82033858273E+02  0.16051249069E+03  0.12000000000E+03 0.  0.
         25    1    3    3    0    0  0.63306915405E+02 -0.25038774480E+02 -0.87921801169E+02  0.16359996603E+03  0.12000000000E+03 0.  0.
<mgrwt>
<rscale>  0 0.27597818E+03</rscale>
<asrwt>0</asrwt>
<pdfrwt beam="1">  1        2 0.38005239E-01 0.27597818E+03</pdfrwt>
<pdfrwt beam="2">  1       -2 0.11858215E-01 0.27597818E+03</pdfrwt>
<totfact> 0.67605238E+03</totfact>
</mgrwt>
</event>
<event>
 5    1  0.1125356E+001  0.2784943E+03  0.7818608E-02  0.1096514E+00
          3   -1    0    0  501    0  0.00000000000E+00  0.00000000000E+00  0.15219989027E+03  0.15219989027E+03  0.00000000000E+00 0. -1.
         -3   -1    0    0    0  501 -0.00000000000E+00 -0.00000000000E+00 -0.12739673572E+03  0.12739673572E+03  0.00000000000E+00 0. -1.
         35    2    1    2    0    0  0.00000000000E+00  0.00000000000E+00  0.24803154551E+02  0.27959662598E+03  0.27849430297E+03 0.  0.
         25    1    3    3    0    0  0.12437662013E+02 -0.32026168136E+02 -0.49563044550E+02  0.13430140084E+03  0.12000000000E+03 0.  0.
         25    1    3    3    0    0 -0.12437662013E+02  0.32026168136E+02  0.74366199101E+02  0.14529522515E+03  0.12000000000E+03 0.  0.
<mgrwt>
<rscale>  0 0.27849430E+03</rscale>
<asrwt>0</asrwt>
<pdfrwt beam="1">  1        3 0.23415368E-01 0.27849430E+03</pdfrwt>
<pdfrwt beam="2">  1       -3 0.19599498E-01 0.27849430E+03</pdfrwt>
<totfact> 0.10022889E+03</totfact>
</mgrwt>
</event>
<event>
 5    1  0.1125356E+001  0.2761987E+03  0.7818608E-02  0.1097783E+00
          1   -1    0    0  501    0  0.00000000000E+00  0.00000000000E+00  0.13202521941E+03  0.13202521941E+03  0.00000000000E+00 0. -1.
         -1   -1    0    0    0  501 -0.00000000000E+00 -0.00000000000E+00 -0.14445289420E+03  0.14445289420E+03  0.00000000000E+00 0. -1.
         35    2    1    2    0    0  0.00000000000E+00  0.00000000000E+00 -0.12427674793E+02  0.27647811361E+03  0.27619866076E+03 0.  0.
         25    1    3    3    0    0 -0.42790912445E+02 -0.10243811711E+02 -0.58568066428E+02  0.14059237629E+03  0.12000000000E+03 0.  0.
         25    1    3    3    0    0  0.42790912445E+02  0.10243811711E+02  0.46140391635E+02  0.13588573732E+03  0.12000000000E+03 0.  0.
<mgrwt>
<rscale>  0 0.27619866E+03</rscale>
<asrwt>0</asrwt>
<pdfrwt beam="1">  1        1 0.20311572E-01 0.27619866E+03</pdfrwt>
<pdfrwt beam="2">  1       -1 0.22223522E-01 0.27619866E+03</pdfrwt>
<totfact> 0.42159630E+03</totfact>
</mgrwt>
</event>
<event>
 5    1  0.1125356E+001  0.2748607E+03  0.7818608E-02  0.1098529E+00
          2   -1    0    0  501    0  0.00000000000E+00  0.00000000000E+00  0.25082213612E+02  0.25082213612E+02  0.00000000000E+00 0. -1.
         -2   -1    0    0    0  501 -0.00000000000E+00 -0.00000000000E+00 -0.75300787322E+03  0.75300787322E+03  0.00000000000E+00 0. -1.
         35    2    1    2    0    0  0.00000000000E+00  0.00000000000E+00 -0.72792565960E+03  0.77809008683E+03  0.27486072348E+03 0.  0.
         25    1    3    3    0    0 -0.52129305882E+02  0.28395305614E+01 -0.24514872624E+03  0.27789103160E+03  0.12000000000E+03 0.  0.
         25    1    3    3    0    0  0.52129305882E+02 -0.28395305614E+01 -0.48277693336E+03  0.50019905523E+03  0.12000000000E+03 0.  0.
<mgrwt>
<rscale>  0 0.27486072E+03</rscale>
<asrwt>0</asrwt>
<pdfrwt beam="1">  1        2 0.38588017E-02 0.27486072E+03</pdfrwt>
<pdfrwt beam="2">  1       -2 0.11584738E+00 0.27486072E+03</pdfrwt>
<totfact> 0.13452156E+03</totfact>
</mgrwt>
</event>
<event>
 5    1  0.1125356E+001  0.2741697E+03  0.7818608E-02  0.1098917E+00
          2   -1    0    0  501    0  0.00000000000E+00  0.00000000000E+00  0.10715489199E+04  0.10715489199E+04  0.00000000000E+00 0. -1.
         -2   -1    0    0    0  501 -0.00000000000E+00 -0.00000000000E+00 -0.17537470332E+02  0.17537470332E+02  0.00000000000E+00 0. -1.
         35    2    1    2    0    0  0.00000000000E+00  0.00000000000E+00  0.10540114496E+04  0.10890863903E+04  0.27416970943E+03 0.  0.
         25    1    3    3    0    0  0.22749080643E+02  0.78631891840E+01  0.77229070997E+03  0.78192857162E+03  0.12000000000E+03 0.  0.
         25    1    3    3    0    0 -0.22749080643E+02 -0.78631891840E+01  0.28172073962E+03  0.30715781863E+03  0.12000000000E+03 0.  0.
<mgrwt>
<rscale>  0 0.27416971E+03</rscale>
<asrwt>0</asrwt>
<pdfrwt beam="1">  1        2 0.16485363E+00 0.27416971E+03</pdfrwt>
<pdfrwt beam="2">  1       -2 0.26980732E-02 0.27416971E+03</pdfrwt>
<totfact> 0.11760282E+04</totfact>
</mgrwt>
</event>
<event>
 5    1  0.1125356E+001  0.2747578E+03  0.7818608E-02  0.1098587E+00
          2   -1    0    0  501    0  0.00000000000E+00  0.00000000000E+00  0.65617595351E+03  0.65617595351E+03  0.00000000000E+00 0. -1.
         -2   -1    0    0    0  501 -0.00000000000E+00 -0.00000000000E+00 -0.28762048312E+02  0.28762048312E+02  0.00000000000E+00 0. -1.
         35    2    1    2    0    0  0.00000000000E+00  0.00000000000E+00  0.62741390519E+03  0.68493800182E+03  0.27475781682E+03 0.  0.
         25    1    3    3    0    0  0.58585117828E+02  0.30153815046E+02  0.34229320889E+03  0.36865445806E+03  0.12000000000E+03 0.  0.
         25    1    3    3    0    0 -0.58585117828E+02 -0.30153815046E+02  0.28512069631E+03  0.31628354376E+03  0.12000000000E+03 0.  0.
<mgrwt>
<rscale>  0 0.27475782E+03</rscale>
<asrwt>0</asrwt>
<pdfrwt beam="1">  1        2 0.10095014E+00 0.27475782E+03</pdfrwt>
<pdfrwt beam="2">  1       -2 0.44249310E-02 0.27475782E+03</pdfrwt>
<totfact> 0.10653150E+04</totfact>
</mgrwt>
</event>
<event>
 5    1  0.1125356E+001  0.2749593E+03  0.7818608E-02  0.1098474E+00
          1   -1    0    0  501    0  0.00000000000E+00  0.00000000000E+00  0.54549752278E+02  0.54549752278E+02  0.00000000000E+00 0. -1.
         -1   -1    0    0    0  501 -0.00000000000E+00 -0.00000000000E+00 -0.34648468072E+03  0.34648468072E+03  0.00000000000E+00 0. -1.
         35    2    1    2    0    0  0.00000000000E+00  0.00000000000E+00 -0.29193492844E+03  0.40103443299E+03  0.27495929518E+03 0.  0.
         25    1    3    3    0    0 -0.33485899914E+02 -0.30321213249E+02 -0.73627491252E+02  0.14785698811E+03  0.12000000000E+03 0.  0.
         25    1    3    3    0    0  0.33485899914E+02  0.30321213249E+02 -0.21830743718E+03  0.25317744488E+03  0.12000000000E+03 0.  0.
<mgrwt>
<rscale>  0 0.27495930E+03</rscale>
<asrwt>0</asrwt>
<pdfrwt beam="1">  1        1 0.83922695E-02 0.27495930E+03</pdfrwt>
<pdfrwt beam="2">  1       -1 0.53305336E-01 0.27495930E+03</pdfrwt>
<totfact> 0.29570107E+03</totfact>
</mgrwt>
</event>
<event>
 5    1  0.1125356E+001  0.2748406E+03  0.7818608E-02  0.1098541E+00
         -1   -1    0    0    0  501 -0.00000000000E+00  0.00000000000E+00  0.29283321395E+03  0.29283321395E+03  0.00000000000E+00 0. -1.
          1   -1    0    0  501    0  0.00000000000E+00 -0.00000000000E+00 -0.64488378854E+02  0.64488378854E+02  0.00000000000E+00 0. -1.
         35    2    1    2    0    0  0.00000000000E+00  0.00000000000E+00  0.22834483510E+03  0.35732159281E+03  0.27484060284E+03 0.  0.
         25    1    3    3    0    0  0.48409357619E+02 -0.46145140302E+02  0.11858116557E+03  0.18147818797E+03  0.12000000000E+03 0.  0.
         25    1    3    3    0    0 -0.48409357619E+02  0.46145140302E+02  0.10976366953E+03  0.17584340484E+03  0.12000000000E+03 0.  0.
<mgrwt>
<rscale>  0 0.27484060E+03</rscale>
<asrwt>0</asrwt>
<pdfrwt beam="1">  1        1 0.99212892E-02 0.27484060E+03</pdfrwt>
<pdfrwt beam="2">  1       -1 0.45051263E-01 0.27484060E+03</pdfrwt>
<totfact> 0.32156051E+03</totfact>
</mgrwt>
</event>
<event>
 5    1  0.1125356E+001  0.2747772E+03  0.7818608E-02  0.1098576E+00
         -1   -1    0    0    0  501 -0.00000000000E+00  0.00000000000E+00  0.10179140015E+03  0.10179140015E+03  0.00000000000E+00 0.  1.
          1   -1    0    0  501    0  0.00000000000E+00 -0.00000000000E+00 -0.18543438988E+03  0.18543438988E+03  0.00000000000E+00 0.  1.
         35    2    1    2    0    0  0.00000000000E+00  0.00000000000E+00 -0.83642989727E+02  0.28722579003E+03  0.27477719106E+03 0.  0.
         25    1    3    3    0    0 -0.55859684373E+02  0.30257079403E+02 -0.19899217613E+02  0.13722891114E+03  0.12000000000E+03 0.  0.
         25    1    3    3    0    0  0.55859684373E+02 -0.30257079403E+02 -0.63743772113E+02  0.14999687889E+03  0.12000000000E+03 0.  0.
<mgrwt>
<rscale>  0 0.27477719E+03</rscale>
<asrwt>0</asrwt>
<pdfrwt beam="1">  1        1 0.28528367E-01 0.27477719E+03</pdfrwt>
<pdfrwt beam="2">  1       -1 0.15660216E-01 0.27477719E+03</pdfrwt>
<totfact> 0.48117348E+03</totfact>
</mgrwt>
</event>
<event>
 5    1  0.1125356E+001  0.2747460E+03  0.7818608E-02  0.1098594E+00
         -2   -1    0    0    0  501 -0.00000000000E+00  0.00000000000E+00  0.19050499272E+03  0.19050499272E+03  0.00000000000E+00 0. -1.
          2   -1    0    0  501    0  0.00000000000E+00 -0.00000000000E+00 -0.99059581818E+02  0.99059581818E+02  0.00000000000E+00 0. -1.
         35    2    1    2    0    0  0.00000000000E+00  0.00000000000E+00  0.91445410900E+02  0.28956457454E+03  0.27474602754E+03 0.  0.
         25    1    3    3    0    0  0.46608886464E+02  0.31414658757E+02  0.83898973817E+02  0.15683847388E+03  0.12000000000E+03 0.  0.
         25    1    3    3    0    0 -0.46608886464E+02 -0.31414658757E+02  0.75464370835E+01  0.13272610065E+03  0.12000000000E+03 0.  0.
<mgrwt>
<rscale>  0 0.27474603E+03</rscale>
<asrwt>0</asrwt>
<pdfrwt beam="1">  1        2 0.15239936E-01 0.27474603E+03</pdfrwt>
<pdfrwt beam="2">  1       -2 0.29308460E-01 0.27474603E+03</pdfrwt>
<totfact> 0.40575084E+03</totfact>
</mgrwt>
</event>
<event>
 5    1  0.1125356E+001  0.2755277E+03  0.7818608E-02  0.1098157E+00
         -1   -1    0    0    0  501 -0.00000000000E+00  0.00000000000E+00  0.11311260694E+04  0.11311260694E+04  0.00000000000E+00 0. -1.
          1   -1    0    0  501    0  0.00000000000E+00 -0.00000000000E+00 -0.16778749336E+02  0.16778749336E+02  0.00000000000E+00 0. -1.
         35    2    1    2    0    0  0.00000000000E+00  0.00000000000E+00  0.11143473201E+04  0.11479048187E+04  0.27552771756E+03 0.  0.
         25    1    3    3    0    0  0.18583728741E+01 -0.15984898667E+02  0.28334560197E+03  0.30812935708E+03  0.12000000000E+03 0.  0.
         25    1    3    3    0    0 -0.18583728741E+01  0.15984898667E+02  0.83100171809E+03  0.83977546166E+03  0.12000000000E+03 0.  0.
<mgrwt>
<rscale>  0 0.27552772E+03</rscale>
<asrwt>0</asrwt>
<pdfrwt beam="1">  1        1 0.25813469E-02 0.27552772E+03</pdfrwt>
<pdfrwt beam="2">  1       -1 0.17401934E+00 0.27552772E+03</pdfrwt>
<totfact> 0.10618407E+03</totfact>
</mgrwt>
</event>
<event>
 5    1  0.1125356E+001  0.2761476E+03  0.7818608E-02  0.1097812E+00
          2   -1    0    0  501    0  0.00000000000E+00  0.00000000000E+00  0.17637763066E+03  0.17637763066E+03  0.00000000000E+00 0.  1.
         -2   -1    0    0    0  501 -0.00000000000E+00 -0.00000000000E+00 -0.10808839394E+03  0.10808839394E+03  0.00000000000E+00 0.  1.
         35    2    1    2    0    0  0.00000000000E+00  0.00000000000E+00  0.68289236723E+02  0.28446602460E+03  0.27614760419E+03 0.  0.
         25    1    3    3    0    0 -0.46163448540E+02  0.28572129841E+02 -0.85395888477E+01  0.13198619308E+03  0.12000000000E+03 0.  0.
         25    1    3    3    0    0  0.46163448540E+02 -0.28572129841E+02  0.76828825570E+02  0.15247983153E+03  0.12000000000E+03 0.  0.
<mgrwt>
<rscale>  0 0.27614760E+03</rscale>
<asrwt>0</asrwt>
<pdfrwt beam="1">  1        2 0.27135020E-01 0.27614760E+03</pdfrwt>
<pdfrwt beam="2">  1       -2 0.16628984E-01 0.27614760E+03</pdfrwt>
<totfact> 0.56089611E+03</totfact>
</mgrwt>
</event>
<event>
 5    1  0.1125356E+001  0.2755733E+03  0.7818608E-02  0.1098132E+00
         -2   -1    0    0    0  501 -0.00000000000E+00  0.00000000000E+00  0.12268734142E+02  0.12268734142E+02  0.00000000000E+00 0.  1.
          2   -1    0    0  501    0  0.00000000000E+00 -0.00000000000E+00 -0.15474428619E+04  0.15474428619E+04  0.00000000000E+00 0.  1.
         35    2    1    2    0    0  0.00000000000E+00  0.00000000000E+00 -0.15351741277E+04  0.15597115960E+04  0.27557333015E+03 0.  0.
         25    1    3    3    0    0 -0.48203898364E+02  0.19362205877E+01 -0.10365236454E+04  0.10445614545E+04  0.12000000000E+03 0.  0.
         25    1    3    3    0    0  0.48203898364E+02 -0.19362205877E+01 -0.49865048235E+03  0.51515014152E+03  0.12000000000E+03 0.  0.
<mgrwt>
<rscale>  0 0.27557333E+03</rscale>
<asrwt>0</asrwt>
<pdfrwt beam="1">  1        2 0.23806804E+00 0.27557333E+03</pdfrwt>
<pdfrwt beam="2">  1       -2 0.18874983E-02 0.27557333E+03</pdfrwt>
<totfact> 0.10835360E+04</totfact>
</mgrwt>
</event>
<event>
 5    1  0.1125356E+001  0.2733684E+03  0.7818608E-02  0.1099367E+00
          2   -1    0    0  501    0  0.00000000000E+00  0.00000000000E+00  0.21326009994E+04  0.21326009994E+04  0.00000000000E+00 0. -1.
         -2   -1    0    0    0  501 -0.00000000000E+00 -0.00000000000E+00 -0.87604626923E+01  0.87604626923E+01  0.00000000000E+00 0. -1.
         35    2    1    2    0    0  0.00000000000E+00  0.00000000000E+00  0.21238405367E+04  0.21413614621E+04  0.27336840705E+03 0.  0.
         25    1    3    3    0    0  0.24011740665E+02  0.59196306467E+02  0.95064267271E+03  0.96031362459E+03  0.12000000000E+03 0.  0.
         25    1    3    3    0    0 -0.24011740665E+02 -0.59196306467E+02  0.11731978640E+04  0.11810478375E+04  0.12000000000E+03 0.  0.
<mgrwt>
<rscale>  0 0.27336841E+03</rscale>
<asrwt>0</asrwt>
<pdfrwt beam="1">  1        2 0.32809205E+00 0.27336841E+03</pdfrwt>
<pdfrwt beam="2">  1       -2 0.13477652E-02 0.27336841E+03</pdfrwt>
<totfact> 0.87241665E+03</totfact>
</mgrwt>
</event>
<event>
 5    1  0.1125356E+001  0.2752839E+03  0.7818608E-02  0.1098293E+00
         -2   -1    0    0    0  501 -0.00000000000E+00  0.00000000000E+00  0.96491558681E+02  0.96491558681E+02  0.00000000000E+00 0. -1.
          2   -1    0    0  501    0  0.00000000000E+00 -0.00000000000E+00 -0.19634154424E+03  0.19634154424E+03  0.00000000000E+00 0. -1.
         35    2    1    2    0    0  0.00000000000E+00  0.00000000000E+00 -0.99849985555E+02  0.29283310292E+03  0.27528386540E+03 0.  0.
         25    1    3    3    0    0 -0.26804321760E+02  0.55276893684E+02 -0.20382327851E+02  0.13634311838E+03  0.12000000000E+03 0.  0.
         25    1    3    3    0    0  0.26804321760E+02 -0.55276893684E+02 -0.79467657704E+02  0.15648998454E+03  0.12000000000E+03 0.  0.
<mgrwt>
<rscale>  0 0.27528387E+03</rscale>
<asrwt>0</asrwt>
<pdfrwt beam="1">  1        2 0.30206391E-01 0.27528387E+03</pdfrwt>
<pdfrwt beam="2">  1       -2 0.14844855E-01 0.27528387E+03</pdfrwt>
<totfact> 0.60168348E+03</totfact>
</mgrwt>
</event>
<event>
 5    1  0.1125356E+001  0.2859303E+03  0.7818608E-02  0.1092493E+00
          2   -1    0    0  501    0  0.00000000000E+00  0.00000000000E+00  0.15005745014E+04  0.15005745014E+04  0.00000000000E+00 0.  1.
         -2   -1    0    0    0  501 -0.00000000000E+00 -0.00000000000E+00 -0.13620804928E+02  0.13620804928E+02  0.00000000000E+00 0.  1.
         35    2    1    2    0    0  0.00000000000E+00  0.00000000000E+00  0.14869536964E+04  0.15141953063E+04  0.28593028915E+03 0.  0.
         25    1    3    3    0    0  0.46679585777E+02  0.23459487154E+01  0.41469463659E+03  0.43423050195E+03  0.12000000000E+03 0.  0.
         25    1    3    3    0    0 -0.46679585777E+02 -0.23459487154E+01  0.10722590598E+04  0.10799648043E+04  0.12000000000E+03 0.  0.
<mgrwt>
<rscale>  0 0.28593029E+03</rscale>
<asrwt>0</asrwt>
<pdfrwt beam="1">  1        2 0.23085749E+00 0.28593029E+03</pdfrwt>
<pdfrwt beam="2">  1       -2 0.20955096E-02 0.28593029E+03</pdfrwt>
<totfact> 0.98480599E+03</totfact>
</mgrwt>
</event>
<event>
 5    1  0.1125356E+001  0.2752332E+03  0.7818608E-02  0.1098321E+00
          1   -1    0    0  501    0  0.00000000000E+00  0.00000000000E+00  0.88496646627E+02  0.88496646627E+02  0.00000000000E+00 0. -1.
         -1   -1    0    0    0  501 -0.00000000000E+00 -0.00000000000E+00 -0.21400057872E+03  0.21400057872E+03  0.00000000000E+00 0. -1.
         35    2    1    2    0    0  0.00000000000E+00  0.00000000000E+00 -0.12550393209E+03  0.30249722535E+03  0.27523323631E+03 0.  0.
         25    1    3    3    0    0 -0.67333852002E+02 -0.18817413608E+01 -0.63820381820E+02  0.15169189072E+03  0.12000000000E+03 0.  0.
         25    1    3    3    0    0  0.67333852002E+02  0.18817413608E+01 -0.61683550272E+02  0.15080533462E+03  0.12000000000E+03 0.  0.
<mgrwt>
<rscale>  0 0.27523324E+03</rscale>
<asrwt>0</asrwt>
<pdfrwt beam="1">  1        1 0.13614869E-01 0.27523324E+03</pdfrwt>
<pdfrwt beam="2">  1       -1 0.32923166E-01 0.27523324E+03</pdfrwt>
<totfact> 0.36691098E+03</totfact>
</mgrwt>
</event>
<event>
 5    1  0.1125356E+001  0.2733147E+03  0.7818608E-02  0.1099397E+00
         -2   -1    0    0    0  501 -0.00000000000E+00  0.00000000000E+00  0.54403581869E+02  0.54403581869E+02  0.00000000000E+00 0. -1.
          2   -1    0    0  501    0  0.00000000000E+00 -0.00000000000E+00 -0.34327217402E+03  0.34327217402E+03  0.00000000000E+00 0. -1.
         35    2    1    2    0    0  0.00000000000E+00  0.00000000000E+00 -0.28886859215E+03  0.39767575589E+03  0.27331473303E+03 0.  0.
         25    1    3    3    0    0  0.29368283990E+02  0.25926264830E+02 -0.22060472548E+03  0.25416748851E+03  0.12000000000E+03 0.  0.
         25    1    3    3    0    0 -0.29368283990E+02 -0.25926264830E+02 -0.68263866671E+02  0.14350826738E+03  0.12000000000E+03 0.  0.
<mgrwt>
<rscale>  0 0.27331473E+03</rscale>
<asrwt>0</asrwt>
<pdfrwt beam="1">  1        2 0.52811105E-01 0.27331473E+03</pdfrwt>
<pdfrwt beam="2">  1       -2 0.83697816E-02 0.27331473E+03</pdfrwt>
<totfact> 0.82495616E+03</totfact>
</mgrwt>
</event>
<event>
 5    1  0.1125356E+001  0.2747827E+03  0.7818608E-02  0.1098573E+00
          1   -1    0    0  501    0  0.00000000000E+00  0.00000000000E+00  0.80342564338E+03  0.80342564338E+03  0.00000000000E+00 0.  1.
         -1   -1    0    0    0  501 -0.00000000000E+00 -0.00000000000E+00 -0.23494867774E+02  0.23494867774E+02  0.00000000000E+00 0.  1.
         35    2    1    2    0    0  0.00000000000E+00  0.00000000000E+00  0.77993077561E+03  0.82692051116E+03  0.27478267236E+03 0.  0.
         25    1    3    3    0    0 -0.57691984811E+02 -0.33715446553E+02  0.37985697311E+03  0.40392625128E+03  0.12000000000E+03 0.  0.
         25    1    3    3    0    0  0.57691984811E+02  0.33715446553E+02  0.40007380250E+03  0.42299425988E+03  0.12000000000E+03 0.  0.
<mgrwt>
<rscale>  0 0.27478267E+03</rscale>
<asrwt>0</asrwt>
<pdfrwt beam="1">  1        1 0.12360392E+00 0.27478267E+03</pdfrwt>
<pdfrwt beam="2">  1       -1 0.36145956E-02 0.27478267E+03</pdfrwt>
<totfact> 0.65344183E+03</totfact>
</mgrwt>
</event>
<event>
 5    1  0.1125356E+001  0.2755617E+03  0.7818608E-02  0.1098138E+00
          2   -1    0    0  501    0  0.00000000000E+00  0.00000000000E+00  0.22254156563E+04  0.22254156563E+04  0.00000000000E+00 0.  1.
         -2   -1    0    0    0  501 -0.00000000000E+00 -0.00000000000E+00 -0.85303436059E+01  0.85303436059E+01  0.00000000000E+00 0.  1.
         35    2    1    2    0    0  0.00000000000E+00  0.00000000000E+00  0.22168853127E+04  0.22339459999E+04  0.27556168249E+03 0.  0.
         25    1    3    3    0    0  0.61209708389E+02  0.21899775892E+02  0.12616888064E+04  0.12690488063E+04  0.12000000000E+03 0.  0.
         25    1    3    3    0    0 -0.61209708389E+02 -0.21899775892E+02  0.95519650631E+03  0.96489719361E+03  0.12000000000E+03 0.  0.
<mgrwt>
<rscale>  0 0.27556168E+03</rscale>
<asrwt>0</asrwt>
<pdfrwt beam="1">  1        2 0.34237118E+00 0.27556168E+03</pdfrwt>
<pdfrwt beam="2">  1       -2 0.13123623E-02 0.27556168E+03</pdfrwt>
<totfact> 0.80968100E+03</totfact>
</mgrwt>
</event>
<event>
 5    1  0.1125356E+001  0.2732649E+03  0.7818608E-02  0.1099425E+00
          2   -1    0    0  501    0  0.00000000000E+00  0.00000000000E+00  0.10206894324E+03  0.10206894324E+03  0.00000000000E+00 0.  1.
         -2   -1    0    0    0  501 -0.00000000000E+00 -0.00000000000E+00 -0.18290011899E+03  0.18290011899E+03  0.00000000000E+00 0.  1.
         35    2    1    2    0    0  0.00000000000E+00  0.00000000000E+00 -0.80831175748E+02  0.28496906224E+03  0.27326486686E+03 0.  0.
         25    1    3    3    0    0 -0.38451151156E+02 -0.52510056286E+02 -0.46372045155E+02  0.14417407398E+03  0.12000000000E+03 0.  0.
         25    1    3    3    0    0  0.38451151156E+02  0.52510056286E+02 -0.34459130593E+02  0.14079498825E+03  0.12000000000E+03 0.  0.
<mgrwt>
<rscale>  0 0.27326487E+03</rscale>
<asrwt>0</asrwt>
<pdfrwt beam="1">  1        2 0.15702914E-01 0.27326487E+03</pdfrwt>
<pdfrwt beam="2">  1       -2 0.28138480E-01 0.27326487E+03</pdfrwt>
<totfact> 0.42144118E+03</totfact>
</mgrwt>
</event>
<event>
 5    1  0.1125356E+001  0.2751867E+03  0.7818608E-02  0.1098347E+00
          2   -1    0    0  501    0  0.00000000000E+00  0.00000000000E+00  0.24376027713E+04  0.24376027713E+04  0.00000000000E+00 0. -1.
         -2   -1    0    0    0  501 -0.00000000000E+00 -0.00000000000E+00 -0.77666202397E+01  0.77666202397E+01  0.00000000000E+00 0. -1.
         35    2    1    2    0    0  0.00000000000E+00  0.00000000000E+00  0.24298361510E+04  0.24453693915E+04  0.27518673674E+03 0.  0.
         25    1    3    3    0    0  0.48645873876E+02  0.19073078631E+02  0.83772646295E+03  0.84788904350E+03  0.12000000000E+03 0.  0.
         25    1    3    3    0    0 -0.48645873876E+02 -0.19073078631E+02  0.15921096881E+04  0.15974803480E+04  0.12000000000E+03 0.  0.
<mgrwt>
<rscale>  0 0.27518674E+03</rscale>
<asrwt>0</asrwt>
<pdfrwt beam="1">  1        2 0.37501520E+00 0.27518674E+03</pdfrwt>
<pdfrwt beam="2">  1       -2 0.11948666E-02 0.27518674E+03</pdfrwt>
<totfact> 0.71369207E+03</totfact>
</mgrwt>
</event>
<event>
 5    1  0.1125356E+001  0.2762620E+03  0.7818608E-02  0.1097748E+00
          2   -1    0    0  501    0  0.00000000000E+00  0.00000000000E+00  0.20326488468E+04  0.20326488468E+04  0.00000000000E+00 0. -1.
         -2   -1    0    0    0  501 -0.00000000000E+00 -0.00000000000E+00 -0.93868499651E+01  0.93868499651E+01  0.00000000000E+00 0. -1.
         35    2    1    2    0    0  0.00000000000E+00  0.00000000000E+00  0.20232619968E+04  0.20420356967E+04  0.27626197535E+03 0.  0.
         25    1    3    3    0    0  0.67874188740E+02  0.44198136692E+01  0.10658122011E+04  0.10747009297E+04  0.12000000000E+03 0.  0.
         25    1    3    3    0    0 -0.67874188740E+02 -0.44198136692E+01  0.95744979566E+03  0.96733476700E+03  0.12000000000E+03 0.  0.
<mgrwt>
<rscale>  0 0.27626198E+03</rscale>
<asrwt>0</asrwt>
<pdfrwt beam="1">  1        2 0.31271486E+00 0.27626198E+03</pdfrwt>
<pdfrwt beam="2">  1       -2 0.14441324E-02 0.27626198E+03</pdfrwt>
<totfact> 0.89067786E+03</totfact>
</mgrwt>
</event>
<event>
 5    1  0.1125356E+001  0.2749022E+03  0.7818608E-02  0.1098506E+00
          2   -1    0    0  501    0  0.00000000000E+00  0.00000000000E+00  0.71944680343E+03  0.71944680343E+03  0.00000000000E+00 0.  1.
         -2   -1    0    0    0  501 -0.00000000000E+00 -0.00000000000E+00 -0.26260191615E+02  0.26260191615E+02  0.00000000000E+00 0.  1.
         35    2    1    2    0    0  0.00000000000E+00  0.00000000000E+00  0.69318661182E+03  0.74570699505E+03  0.27490224382E+03 0.  0.
         25    1    3    3    0    0 -0.96369979897E+01  0.63733934793E+02  0.39645877705E+03  0.41920692752E+03  0.12000000000E+03 0.  0.
         25    1    3    3    0    0  0.96369979897E+01 -0.63733934793E+02  0.29672783477E+03  0.32650006753E+03  0.12000000000E+03 0.  0.
<mgrwt>
<rscale>  0 0.27490224E+03</rscale>
<asrwt>0</asrwt>
<pdfrwt beam="1">  1        2 0.11068411E+00 0.27490224E+03</pdfrwt>
<pdfrwt beam="2">  1       -2 0.40400300E-02 0.27490224E+03</pdfrwt>
<totfact> 0.10935522E+04</totfact>
</mgrwt>
</event>
<event>
 5    1  0.1125356E+001  0.2748629E+03  0.7818608E-02  0.1098528E+00
          2   -1    0    0  501    0  0.00000000000E+00  0.00000000000E+00  0.95408749704E+02  0.95408749704E+02  0.00000000000E+00 0.  1.
         -2   -1    0    0    0  501 -0.00000000000E+00 -0.00000000000E+00 -0.19796294269E+03  0.19796294269E+03  0.00000000000E+00 0.  1.
         35    2    1    2    0    0  0.00000000000E+00  0.00000000000E+00 -0.10255419299E+03  0.29337169239E+03  0.27486285198E+03 0.  0.
         25    1    3    3    0    0 -0.41831085827E+02  0.50613608056E+02 -0.37124502965E+02  0.14173851199E+03  0.12000000000E+03 0.  0.
         25    1    3    3    0    0  0.41831085827E+02 -0.50613608056E+02 -0.65429690021E+02  0.15163318040E+03  0.12000000000E+03 0.  0.
<mgrwt>
<rscale>  0 0.27486285E+03</rscale>
<asrwt>0</asrwt>
<pdfrwt beam="1">  1        2 0.14678269E-01 0.27486285E+03</pdfrwt>
<pdfrwt beam="2">  1       -2 0.30455837E-01 0.27486285E+03</pdfrwt>
<totfact> 0.39567216E+03</totfact>
</mgrwt>
</event>
<event>
 5    1  0.1125356E+001  0.2740490E+03  0.7818608E-02  0.1098984E+00
          2   -1    0    0  501    0  0.00000000000E+00  0.00000000000E+00  0.12351166346E+04  0.12351166346E+04  0.00000000000E+00 0. -1.
         -2   -1    0    0    0  501 -0.00000000000E+00 -0.00000000000E+00 -0.15201569776E+02  0.15201569776E+02  0.00000000000E+00 0. -1.
         35    2    1    2    0    0  0.00000000000E+00  0.00000000000E+00  0.12199150649E+04  0.12503182044E+04  0.27404898615E+03 0.  0.
         25    1    3    3    0    0 -0.64104804794E+02 -0.14107458326E+02  0.57253889451E+03  0.58865034792E+03  0.12000000000E+03 0.  0.
         25    1    3    3    0    0  0.64104804794E+02  0.14107458326E+02  0.64737617035E+03  0.66166785649E+03  0.12000000000E+03 0.  0.
<mgrwt>
<rscale>  0 0.27404899E+03</rscale>
<asrwt>0</asrwt>
<pdfrwt beam="1">  1        2 0.19001786E+00 0.27404899E+03</pdfrwt>
<pdfrwt beam="2">  1       -2 0.23387040E-02 0.27404899E+03</pdfrwt>
<totfact> 0.11692400E+04</totfact>
</mgrwt>
</event>
<event>
 5    1  0.1125356E+001  0.2750690E+03  0.7818608E-02  0.1098413E+00
         -1   -1    0    0    0  501 -0.00000000000E+00  0.00000000000E+00  0.77777750518E+02  0.77777750518E+02  0.00000000000E+00 0. -1.
          1   -1    0    0  501    0  0.00000000000E+00 -0.00000000000E+00 -0.24320245030E+03  0.24320245030E+03  0.00000000000E+00 0. -1.
         35    2    1    2    0    0  0.00000000000E+00  0.00000000000E+00 -0.16542469978E+03  0.32098020082E+03  0.27506900592E+03 0.  0.
         25    1    3    3    0    0 -0.10482499600E+02 -0.33329559674E+02 -0.15729424833E+02  0.12596887374E+03  0.12000000000E+03 0.  0.
         25    1    3    3    0    0  0.10482499600E+02  0.33329559674E+02 -0.14969527495E+03  0.19501132708E+03  0.12000000000E+03 0.  0.
<mgrwt>
<rscale>  0 0.27506901E+03</rscale>
<asrwt>0</asrwt>
<pdfrwt beam="1">  1        1 0.37415762E-01 0.27506901E+03</pdfrwt>
<pdfrwt beam="2">  1       -1 0.11965808E-01 0.27506901E+03</pdfrwt>
<totfact> 0.52269299E+03</totfact>
</mgrwt>
</event>
<event>
 4    1  0.1125356E+001  0.2571527E+03  0.7818608E-02  0.1108866E+00
          2   -1    0    0  501    0  0.00000000000E+00  0.00000000000E+00  0.27593375752E+03  0.27593375752E+03  0.00000000000E+00 0. -1.
         -2   -1    0    0    0  501 -0.00000000000E+00 -0.00000000000E+00 -0.59912474911E+02  0.59912474911E+02  0.00000000000E+00 0. -1.
         25    1    1    2    0    0 -0.29220514607E+02 -0.13082474611E+02  0.15146172689E+03  0.19587149953E+03  0.12000000000E+03 0.  0.
         25    1    1    2    0    0  0.29220514607E+02  0.13082474611E+02  0.64559555718E+02  0.13997473290E+03  0.12000000000E+03 0.  0.
<mgrwt>
<rscale>  0 0.25715267E+03</rscale>
<asrwt>0</asrwt>
<pdfrwt beam="1">  1        2 0.42451346E-01 0.25715267E+03</pdfrwt>
<pdfrwt beam="2">  1       -2 0.92173040E-02 0.25715267E+03</pdfrwt>
<totfact> 0.89422637E+03</totfact>
</mgrwt>
</event>
<event>
 5    1  0.1125356E+001  0.2750511E+03  0.7818608E-02  0.1098423E+00
          1   -1    0    0  501    0  0.00000000000E+00  0.00000000000E+00  0.10702801001E+03  0.10702801001E+03  0.00000000000E+00 0.  1.
         -1   -1    0    0    0  501 -0.00000000000E+00 -0.00000000000E+00 -0.17671333454E+03  0.17671333454E+03  0.00000000000E+00 0.  1.
         35    2    1    2    0    0  0.00000000000E+00  0.00000000000E+00 -0.69685324534E+02  0.28374134455E+03  0.27505109735E+03 0.  0.
         25    1    3    3    0    0 -0.65730875278E+02 -0.10637917447E+02 -0.25641014719E+02  0.13961079789E+03  0.12000000000E+03 0.  0.
         25    1    3    3    0    0  0.65730875278E+02  0.10637917447E+02 -0.44044309815E+02  0.14413054666E+03  0.12000000000E+03 0.  0.
<mgrwt>
<rscale>  0 0.27505110E+03</rscale>
<asrwt>0</asrwt>
<pdfrwt beam="1">  1        1 0.16465848E-01 0.27505110E+03</pdfrwt>
<pdfrwt beam="2">  1       -1 0.27186667E-01 0.27505110E+03</pdfrwt>
<totfact> 0.39592767E+03</totfact>
</mgrwt>
</event>
<event>
 5    1  0.1125356E+001  0.2726918E+03  0.7818608E-02  0.1099749E+00
         -2   -1    0    0    0  501 -0.00000000000E+00  0.00000000000E+00  0.65534170196E+01  0.65534170196E+01  0.00000000000E+00 0.  1.
          2   -1    0    0  501    0  0.00000000000E+00 -0.00000000000E+00 -0.28367190530E+04  0.28367190530E+04  0.00000000000E+00 0.  1.
         35    2    1    2    0    0  0.00000000000E+00  0.00000000000E+00 -0.28301656360E+04  0.28432724700E+04  0.27269178882E+03 0.  0.
         25    1    3    3    0    0 -0.30215213539E+00 -0.29891751427E+01 -0.74087207652E+03  0.75053345044E+03  0.12000000000E+03 0.  0.
         25    1    3    3    0    0  0.30215213539E+00  0.29891751427E+01 -0.20892935595E+04  0.20927390196E+04  0.12000000000E+03 0.  0.
<mgrwt>
<rscale>  0 0.27269179E+03</rscale>
<asrwt>0</asrwt>
<pdfrwt beam="1">  1        2 0.43641817E+00 0.27269179E+03</pdfrwt>
<pdfrwt beam="2">  1       -2 0.10082183E-02 0.27269179E+03</pdfrwt>
<totfact> 0.54688306E+03</totfact>
</mgrwt>
</event>
<event>
 4    1  0.1125356E+001  0.3137952E+03  0.7818608E-02  0.1078541E+00
         -2   -1    0    0    0  501 -0.00000000000E+00  0.00000000000E+00  0.18382369745E+02  0.18382369745E+02  0.00000000000E+00 0.  1.
          2   -1    0    0  501    0  0.00000000000E+00 -0.00000000000E+00 -0.13391559670E+04  0.13391559670E+04  0.00000000000E+00 0.  1.
         25    1    1    2    0    0  0.17429630802E+02  0.82368671888E+02 -0.41841108737E+03  0.44334662305E+03  0.12000000000E+03 0.  0.
         25    1    1    2    0    0 -0.17429630802E+02 -0.82368671888E+02 -0.90236250992E+03  0.91419171373E+03  0.12000000000E+03 0.  0.
<mgrwt>
<rscale>  0 0.31379522E+03</rscale>
<asrwt>0</asrwt>
<pdfrwt beam="1">  1        2 0.20602401E+00 0.31379522E+03</pdfrwt>
<pdfrwt beam="2">  1       -2 0.28280567E-02 0.31379522E+03</pdfrwt>
<totfact> 0.77394586E+03</totfact>
</mgrwt>
</event>
<event>
 5    1  0.1125356E+001  0.2769929E+03  0.7818608E-02  0.1097343E+00
          2   -1    0    0  501    0  0.00000000000E+00  0.00000000000E+00  0.23535736731E+04  0.23535736731E+04  0.00000000000E+00 0. -1.
         -2   -1    0    0    0  501 -0.00000000000E+00 -0.00000000000E+00 -0.81498502052E+01  0.81498502052E+01  0.00000000000E+00 0. -1.
         35    2    1    2    0    0  0.00000000000E+00  0.00000000000E+00  0.23454238229E+04  0.23617235233E+04  0.27699294491E+03 0.  0.
         25    1    3    3    0    0  0.52122830224E+02  0.43505309740E+02  0.10609649115E+04  0.10698859962E+04  0.12000000000E+03 0.  0.
         25    1    3    3    0    0 -0.52122830224E+02 -0.43505309740E+02  0.12844589114E+04  0.12918375271E+04  0.12000000000E+03 0.  0.
<mgrwt>
<rscale>  0 0.27699294E+03</rscale>
<asrwt>0</asrwt>
<pdfrwt beam="1">  1        2 0.36208772E+00 0.27699294E+03</pdfrwt>
<pdfrwt beam="2">  1       -2 0.12538250E-02 0.27699294E+03</pdfrwt>
<totfact> 0.73880039E+03</totfact>
</mgrwt>
</event>
<event>
 5    1  0.1125356E+001  0.2754526E+03  0.7818608E-02  0.1098199E+00
          2   -1    0    0  501    0  0.00000000000E+00  0.00000000000E+00  0.10969664421E+04  0.10969664421E+04  0.00000000000E+00 0.  1.
         -2   -1    0    0    0  501 -0.00000000000E+00 -0.00000000000E+00 -0.17291810109E+02  0.17291810109E+02  0.00000000000E+00 0.  1.
         35    2    1    2    0    0  0.00000000000E+00  0.00000000000E+00  0.10796746320E+04  0.11142582522E+04  0.27545261236E+03 0.  0.
         25    1    3    3    0    0 -0.33407828745E+02 -0.58056699673E+02  0.57643947497E+03  0.59259525117E+03  0.12000000000E+03 0.  0.
         25    1    3    3    0    0  0.33407828745E+02  0.58056699673E+02  0.50323515703E+03  0.52166300106E+03  0.12000000000E+03 0.  0.
<mgrwt>
<rscale>  0 0.27545261E+03</rscale>
<asrwt>0</asrwt>
<pdfrwt beam="1">  1        2 0.16876401E+00 0.27545261E+03</pdfrwt>
<pdfrwt beam="2">  1       -2 0.26602793E-02 0.27545261E+03</pdfrwt>
<totfact> 0.11602295E+04</totfact>
</mgrwt>
</event>
<event>
 5    1  0.1125356E+001  0.2742746E+03  0.7818608E-02  0.1098858E+00
          1   -1    0    0  501    0  0.00000000000E+00  0.00000000000E+00  0.16406757068E+04  0.16406757068E+04  0.00000000000E+00 0. -1.
         -1   -1    0    0    0  501 -0.00000000000E+00 -0.00000000000E+00 -0.11462741748E+02  0.11462741748E+02  0.00000000000E+00 0. -1.
         35    2    1    2    0    0  0.00000000000E+00  0.00000000000E+00  0.16292129651E+04  0.16521384486E+04  0.27427462092E+03 0.  0.
         25    1    3    3    0    0 -0.43874675513E+02 -0.27964578596E+02  0.10629420456E+04  0.10709588214E+04  0.12000000000E+03 0.  0.
         25    1    3    3    0    0  0.43874675513E+02  0.27964578596E+02  0.56627091944E+03  0.58117962715E+03  0.12000000000E+03 0.  0.
<mgrwt>
<rscale>  0 0.27427462E+03</rscale>
<asrwt>0</asrwt>
<pdfrwt beam="1">  1        1 0.25241146E+00 0.27427462E+03</pdfrwt>
<pdfrwt beam="2">  1       -1 0.17635000E-02 0.27427462E+03</pdfrwt>
<totfact> 0.47647593E+03</totfact>
</mgrwt>
</event>
<event>
 5    1  0.1125356E+001  0.2718797E+03  0.7818608E-02  0.1100209E+00
         -1   -1    0    0    0  501 -0.00000000000E+00  0.00000000000E+00  0.10040123761E+02  0.10040123761E+02  0.00000000000E+00 0.  1.
          1   -1    0    0  501    0  0.00000000000E+00 -0.00000000000E+00 -0.18405796012E+04  0.18405796012E+04  0.00000000000E+00 0.  1.
         35    2    1    2    0    0  0.00000000000E+00  0.00000000000E+00 -0.18305394774E+04  0.18506197249E+04  0.27187973067E+03 0.  0.
         25    1    3    3    0    0  0.52450258767E+01 -0.47037367389E+02 -0.62332225069E+03  0.63653016616E+03  0.12000000000E+03 0.  0.
         25    1    3    3    0    0 -0.52450258767E+01  0.47037367389E+02 -0.12072172267E+04  0.12140895588E+04  0.12000000000E+03 0.  0.
<mgrwt>
<rscale>  0 0.27187973E+03</rscale>
<asrwt>0</asrwt>
<pdfrwt beam="1">  1        1 0.28316630E+00 0.27187973E+03</pdfrwt>
<pdfrwt beam="2">  1       -1 0.15446333E-02 0.27187973E+03</pdfrwt>
<totfact> 0.42821783E+03</totfact>
</mgrwt>
</event>
<event>
 5    1  0.1125356E+001  0.2745249E+03  0.7818608E-02  0.1098717E+00
         -2   -1    0    0    0  501 -0.00000000000E+00  0.00000000000E+00  0.44827576691E+02  0.44827576691E+02  0.00000000000E+00 0. -1.
          2   -1    0    0  501    0  0.00000000000E+00 -0.00000000000E+00 -0.42029874697E+03  0.42029874697E+03  0.00000000000E+00 0. -1.
         35    2    1    2    0    0  0.00000000000E+00  0.00000000000E+00 -0.37547117028E+03  0.46512632366E+03  0.27452485726E+03 0.  0.
         25    1    3    3    0    0 -0.54378700528E+02 -0.67644594268E-01 -0.25300285765E+03  0.28524987928E+03  0.12000000000E+03 0.  0.
         25    1    3    3    0    0  0.54378700528E+02  0.67644594268E-01 -0.12246831263E+03  0.17987644439E+03  0.12000000000E+03 0.  0.
<mgrwt>
<rscale>  0 0.27452486E+03</rscale>
<asrwt>0</asrwt>
<pdfrwt beam="1">  1        2 0.64661345E-01 0.27452486E+03</pdfrwt>
<pdfrwt beam="2">  1       -2 0.68965503E-02 0.27452486E+03</pdfrwt>
<totfact> 0.89560810E+03</totfact>
</mgrwt>
</event>
<event>
 5    1  0.1125356E+001  0.2753831E+03  0.7818608E-02  0.1098238E+00
          2   -1    0    0  501    0  0.00000000000E+00  0.00000000000E+00  0.75798139887E+03  0.75798139887E+03  0.00000000000E+00 0. -1.
         -2   -1    0    0    0  501 -0.00000000000E+00 -0.00000000000E+00 -0.25012433825E+02  0.25012433825E+02  0.00000000000E+00 0. -1.
         35    2    1    2    0    0  0.00000000000E+00  0.00000000000E+00  0.73296896505E+03  0.78299383270E+03  0.27538307559E+03 0.  0.
         25    1    3    3    0    0  0.62994736135E+01 -0.23442084556E+02  0.54562853494E+03  0.55919559444E+03  0.12000000000E+03 0.  0.
         25    1    3    3    0    0 -0.62994736135E+01  0.23442084556E+02  0.18734043011E+03  0.22379823826E+03  0.12000000000E+03 0.  0.
<mgrwt>
<rscale>  0 0.27538308E+03</rscale>
<asrwt>0</asrwt>
<pdfrwt beam="1">  1        2 0.11661251E+00 0.27538308E+03</pdfrwt>
<pdfrwt beam="2">  1       -2 0.38480673E-02 0.27538308E+03</pdfrwt>
<totfact> 0.11031964E+04</totfact>
</mgrwt>
</event>
<event>
 5    1  0.1125356E+001  0.2840674E+03  0.7818608E-02  0.1093488E+00
         -2   -1    0    0    0  501 -0.00000000000E+00  0.00000000000E+00  0.18631946148E+02  0.18631946148E+02  0.00000000000E+00 0.  1.
          2   -1    0    0  501    0  0.00000000000E+00 -0.00000000000E+00 -0.10827413147E+04  0.10827413147E+04  0.00000000000E+00 0.  1.
         35    2    1    2    0    0  0.00000000000E+00  0.00000000000E+00 -0.10641093686E+04  0.11013732609E+04  0.28406744177E+03 0.  0.
         25    1    3    3    0    0  0.59433355168E+02  0.33741506373E+02 -0.66080684836E+03  0.67508259036E+03  0.12000000000E+03 0.  0.
         25    1    3    3    0    0 -0.59433355168E+02 -0.33741506373E+02 -0.40330252024E+03  0.42629067054E+03  0.12000000000E+03 0.  0.
<mgrwt>
<rscale>  0 0.28406744E+03</rscale>
<asrwt>0</asrwt>
<pdfrwt beam="1">  1        2 0.16657561E+00 0.28406744E+03</pdfrwt>
<pdfrwt beam="2">  1       -2 0.28664529E-02 0.28406744E+03</pdfrwt>
<totfact> 0.10596868E+04</totfact>
</mgrwt>
</event>
<event>
 5    1  0.1125356E+001  0.2751925E+03  0.7818608E-02  0.1098344E+00
          2   -1    0    0  501    0  0.00000000000E+00  0.00000000000E+00  0.44391415255E+02  0.44391415255E+02  0.00000000000E+00 0.  1.
         -2   -1    0    0    0  501 -0.00000000000E+00 -0.00000000000E+00 -0.42649513378E+03  0.42649513378E+03  0.00000000000E+00 0.  1.
         35    2    1    2    0    0  0.00000000000E+00  0.00000000000E+00 -0.38210371852E+03  0.47088654904E+03  0.27519246057E+03 0.  0.
         25    1    3    3    0    0 -0.40605914239E+02  0.36415081159E+02 -0.25858842517E+03  0.29024622658E+03  0.12000000000E+03 0.  0.
         25    1    3    3    0    0  0.40605914239E+02 -0.36415081159E+02 -0.12351529335E+03  0.18064032246E+03  0.12000000000E+03 0.  0.
<mgrwt>
<rscale>  0 0.27519246E+03</rscale>
<asrwt>0</asrwt>
<pdfrwt beam="1">  1        2 0.68294486E-02 0.27519246E+03</pdfrwt>
<pdfrwt beam="2">  1       -2 0.65614635E-01 0.27519246E+03</pdfrwt>
<totfact> 0.22792214E+03</totfact>
</mgrwt>
</event>
<event>
 5    1  0.1125356E+001  0.2739354E+03  0.7818608E-02  0.1099048E+00
          1   -1    0    0  501    0  0.00000000000E+00  0.00000000000E+00  0.13037934402E+03  0.13037934402E+03  0.00000000000E+00 0. -1.
         -1   -1    0    0    0  501 -0.00000000000E+00 -0.00000000000E+00 -0.14388901734E+03  0.14388901734E+03  0.00000000000E+00 0. -1.
         35    2    1    2    0    0  0.00000000000E+00  0.00000000000E+00 -0.13509673324E+02  0.27426836136E+03  0.27393543540E+03 0.  0.
         25    1    3    3    0    0 -0.36509964676E+02 -0.44775545944E+01  0.48149111429E+02  0.13442976957E+03  0.12000000000E+03 0.  0.
         25    1    3    3    0    0  0.36509964676E+02  0.44775545944E+01 -0.61658784753E+02  0.13983859179E+03  0.12000000000E+03 0.  0.
<mgrwt>
<rscale>  0 0.27393544E+03</rscale>
<asrwt>0</asrwt>
<pdfrwt beam="1">  1        1 0.20058361E-01 0.27393544E+03</pdfrwt>
<pdfrwt beam="2">  1       -1 0.22136772E-01 0.27393544E+03</pdfrwt>
<totfact> 0.43111571E+03</totfact>
</mgrwt>
</event>
<event>
 5    1  0.1125356E+001  0.2742289E+03  0.7818608E-02  0.1098883E+00
          1   -1    0    0  501    0  0.00000000000E+00  0.00000000000E+00  0.49721787016E+03  0.49721787016E+03  0.00000000000E+00 0.  1.
         -1   -1    0    0    0  501 -0.00000000000E+00 -0.00000000000E+00 -0.37811133965E+02  0.37811133965E+02  0.00000000000E+00 0.  1.
         35    2    1    2    0    0  0.00000000000E+00  0.00000000000E+00  0.45940673620E+03  0.53502900413E+03  0.27422889343E+03 0.  0.
         25    1    3    3    0    0 -0.22123653472E+02  0.22984943303E+02  0.11623104659E+03  0.17008062751E+03  0.12000000000E+03 0.  0.
         25    1    3    3    0    0  0.22123653472E+02 -0.22984943303E+02  0.34317568961E+03  0.36494837662E+03  0.12000000000E+03 0.  0.
<mgrwt>
<rscale>  0 0.27422889E+03</rscale>
<asrwt>0</asrwt>
<pdfrwt beam="1">  1        1 0.76495052E-01 0.27422889E+03</pdfrwt>
<pdfrwt beam="2">  1       -1 0.58170979E-02 0.27422889E+03</pdfrwt>
<totfact> 0.63395501E+03</totfact>
</mgrwt>
</event>
<event>
 5    1  0.1125356E+001  0.2708698E+03  0.7818608E-02  0.1100783E+00
          2   -1    0    0  501    0  0.00000000000E+00  0.00000000000E+00  0.68590354914E+02  0.68590354914E+02  0.00000000000E+00 0.  1.
         -2   -1    0    0    0  501 -0.00000000000E+00 -0.00000000000E+00 -0.26742270406E+03  0.26742270406E+03  0.00000000000E+00 0.  1.
         35    2    1    2    0    0  0.00000000000E+00  0.00000000000E+00 -0.19883234914E+03  0.33601305897E+03  0.27086984464E+03 0.  0.
         25    1    3    3    0    0 -0.41272377411E+02  0.15851591947E+02 -0.44107060058E+02  0.13527791709E+03  0.12000000000E+03 0.  0.
         25    1    3    3    0    0  0.41272377411E+02 -0.15851591947E+02 -0.15472528909E+03  0.20073514188E+03  0.12000000000E+03 0.  0.
<mgrwt>
<rscale>  0 0.27086984E+03</rscale>
<asrwt>0</asrwt>
<pdfrwt beam="1">  1        2 0.10552362E-01 0.27086984E+03</pdfrwt>
<pdfrwt beam="2">  1       -2 0.41141954E-01 0.27086984E+03</pdfrwt>
<totfact> 0.33632205E+03</totfact>
</mgrwt>
</event>
<event>
 5    1  0.1125356E+001  0.2759149E+03  0.7818608E-02  0.1097941E+00
         -2   -1    0    0    0  501 -0.00000000000E+00  0.00000000000E+00  0.28837830168E+02  0.28837830168E+02  0.00000000000E+00 0.  1.
          2   -1    0    0  501    0  0.00000000000E+00 -0.00000000000E+00 -0.65997559125E+03  0.65997559125E+03  0.00000000000E+00 0.  1.
         35    2    1    2    0    0  0.00000000000E+00  0.00000000000E+00 -0.63113776108E+03  0.68881342141E+03  0.27591494353E+03 0.  0.
         25    1    3    3    0    0 -0.87094803952E+01  0.53417704062E+02 -0.21254727145E+03  0.25001129726E+03  0.12000000000E+03 0.  0.
         25    1    3    3    0    0  0.87094803952E+01 -0.53417704062E+02 -0.41859048963E+03  0.43880212416E+03  0.12000000000E+03 0.  0.
<mgrwt>
<rscale>  0 0.27591494E+03</rscale>
<asrwt>0</asrwt>
<pdfrwt beam="1">  1        2 0.10153471E+00 0.27591494E+03</pdfrwt>
<pdfrwt beam="2">  1       -2 0.44365892E-02 0.27591494E+03</pdfrwt>
<totfact> 0.10539799E+04</totfact>
</mgrwt>
</event>
<event>
 5    1  0.1125356E+001  0.2755997E+03  0.7818608E-02  0.1098117E+00
          1   -1    0    0  501    0  0.00000000000E+00  0.00000000000E+00  0.52364808407E+03  0.52364808407E+03  0.00000000000E+00 0.  1.
         -1   -1    0    0    0  501 -0.00000000000E+00 -0.00000000000E+00 -0.36262517264E+02  0.36262517264E+02  0.00000000000E+00 0.  1.
         35    2    1    2    0    0  0.00000000000E+00  0.00000000000E+00  0.48738556680E+03  0.55991060133E+03  0.27559969295E+03 0.  0.
         25    1    3    3    0    0 -0.88954139198E+01 -0.30520660643E+02  0.12216662968E+03  0.17417038934E+03  0.12000000000E+03 0.  0.
         25    1    3    3    0    0  0.88954139198E+01  0.30520660643E+02  0.36521893713E+03  0.38574021200E+03  0.12000000000E+03 0.  0.
<mgrwt>
<rscale>  0 0.27559969E+03</rscale>
<asrwt>0</asrwt>
<pdfrwt beam="1">  1        1 0.80561238E-01 0.27559969E+03</pdfrwt>
<pdfrwt beam="2">  1       -1 0.55788492E-02 0.27559969E+03</pdfrwt>
<totfact> 0.63015966E+03</totfact>
</mgrwt>
</event>
<event>
 5    1  0.1125356E+001  0.2706163E+03  0.7818608E-02  0.1100927E+00
         -2   -1    0    0    0  501 -0.00000000000E+00  0.00000000000E+00  0.93793207790E+01  0.93793207790E+01  0.00000000000E+00 0. -1.
          2   -1    0    0  501    0  0.00000000000E+00 -0.00000000000E+00 -0.19519853604E+04  0.19519853604E+04  0.00000000000E+00 0. -1.
         35    2    1    2    0    0  0.00000000000E+00  0.00000000000E+00 -0.19426060396E+04  0.19613646812E+04  0.27061631031E+03 0.  0.
         25    1    3    3    0    0  0.35874241501E+02 -0.45749284917E+02 -0.11378974753E+04  0.11456834740E+04  0.12000000000E+03 0.  0.
         25    1    3    3    0    0 -0.35874241501E+02  0.45749284917E+02 -0.80470856429E+03  0.81568120716E+03  0.12000000000E+03 0.  0.
<mgrwt>
<rscale>  0 0.27061631E+03</rscale>
<asrwt>0</asrwt>
<pdfrwt beam="1">  1        2 0.30030563E+00 0.27061631E+03</pdfrwt>
<pdfrwt beam="2">  1       -2 0.14429715E-02 0.27061631E+03</pdfrwt>
<totfact> 0.98301877E+03</totfact>
</mgrwt>
</event>
<event>
 5    1  0.1125356E+001  0.2748893E+03  0.7818608E-02  0.1098513E+00
         -2   -1    0    0    0  501 -0.00000000000E+00  0.00000000000E+00  0.28948083346E+02  0.28948083346E+02  0.00000000000E+00 0.  1.
          2   -1    0    0  501    0  0.00000000000E+00 -0.00000000000E+00 -0.65258323970E+03  0.65258323970E+03  0.00000000000E+00 0.  1.
         35    2    1    2    0    0  0.00000000000E+00  0.00000000000E+00 -0.62363515636E+03  0.68153132305E+03  0.27488931600E+03 0.  0.
         25    1    3    3    0    0  0.20190885736E+02 -0.60523618587E+02 -0.26099183316E+03  0.29425756957E+03  0.12000000000E+03 0.  0.
         25    1    3    3    0    0 -0.20190885736E+02  0.60523618587E+02 -0.36264332320E+03  0.38727375348E+03  0.12000000000E+03 0.  0.
<mgrwt>
<rscale>  0 0.27488932E+03</rscale>
<asrwt>0</asrwt>
<pdfrwt beam="1">  1        2 0.10039742E+00 0.27488932E+03</pdfrwt>
<pdfrwt beam="2">  1       -2 0.44535515E-02 0.27488932E+03</pdfrwt>
<totfact> 0.10619139E+04</totfact>
</mgrwt>
</event>
<event>
 5    1  0.1125356E+001  0.2755010E+03  0.7818608E-02  0.1098172E+00
          1   -1    0    0  501    0  0.00000000000E+00  0.00000000000E+00  0.51931184965E+03  0.51931184965E+03  0.00000000000E+00 0.  1.
         -1   -1    0    0    0  501 -0.00000000000E+00 -0.00000000000E+00 -0.36539132336E+02  0.36539132336E+02  0.00000000000E+00 0.  1.
         35    2    1    2    0    0  0.00000000000E+00  0.00000000000E+00  0.48277271732E+03  0.55585098199E+03  0.27550103011E+03 0.  0.
         25    1    3    3    0    0  0.50546140198E+02  0.23792140678E+02  0.16444654585E+03  0.21110102958E+03  0.12000000000E+03 0.  0.
         25    1    3    3    0    0 -0.50546140198E+02 -0.23792140678E+02  0.31832617147E+03  0.34474995241E+03  0.12000000000E+03 0.  0.
<mgrwt>
<rscale>  0 0.27550103E+03</rscale>
<asrwt>0</asrwt>
<pdfrwt beam="1">  1        1 0.79894125E-01 0.27550103E+03</pdfrwt>
<pdfrwt beam="2">  1       -1 0.56214053E-02 0.27550103E+03</pdfrwt>
<totfact> 0.62997353E+03</totfact>
</mgrwt>
</event>
<event>
 5    1  0.1125356E+001  0.2759961E+03  0.7818608E-02  0.1097896E+00
         -2   -1    0    0    0  501 -0.00000000000E+00  0.00000000000E+00  0.26256999875E+02  0.26256999875E+02  0.00000000000E+00 0.  1.
          2   -1    0    0  501    0  0.00000000000E+00 -0.00000000000E+00 -0.72527197601E+03  0.72527197601E+03  0.00000000000E+00 0.  1.
         35    2    1    2    0    0  0.00000000000E+00  0.00000000000E+00 -0.69901497614E+03  0.75152897589E+03  0.27599613174E+03 0.  0.
         25    1    3    3    0    0  0.12989893728E+02  0.54257804946E+02 -0.24296944383E+03  0.27667091891E+03  0.12000000000E+03 0.  0.
         25    1    3    3    0    0 -0.12989893728E+02 -0.54257804946E+02 -0.45604553231E+03  0.47485805697E+03  0.12000000000E+03 0.  0.
<mgrwt>
<rscale>  0 0.27599613E+03</rscale>
<asrwt>0</asrwt>
<pdfrwt beam="1">  1        2 0.11158031E+00 0.27599613E+03</pdfrwt>
<pdfrwt beam="2">  1       -2 0.40395382E-02 0.27599613E+03</pdfrwt>
<totfact> 0.10831457E+04</totfact>
</mgrwt>
</event>
<event>
 5    1  0.1125356E+001  0.2743839E+03  0.7818608E-02  0.1098796E+00
          1   -1    0    0  501    0  0.00000000000E+00  0.00000000000E+00  0.78536731893E+02  0.78536731893E+02  0.00000000000E+00 0. -1.
         -1   -1    0    0    0  501 -0.00000000000E+00 -0.00000000000E+00 -0.23965384192E+03  0.23965384192E+03  0.00000000000E+00 0. -1.
         35    2    1    2    0    0  0.00000000000E+00  0.00000000000E+00 -0.16111711003E+03  0.31819057381E+03  0.27438388823E+03 0.  0.
         25    1    3    3    0    0 -0.62120468156E+02  0.23562076039E+02 -0.83735572805E+02  0.16070398298E+03  0.12000000000E+03 0.  0.
         25    1    3    3    0    0  0.62120468156E+02 -0.23562076039E+02 -0.77381537223E+02  0.15748659084E+03  0.12000000000E+03 0.  0.
<mgrwt>
<rscale>  0 0.27438389E+03</rscale>
<asrwt>0</asrwt>
<pdfrwt beam="1">  1        1 0.12082574E-01 0.27438389E+03</pdfrwt>
<pdfrwt beam="2">  1       -1 0.36869822E-01 0.27438389E+03</pdfrwt>
<totfact> 0.35303993E+03</totfact>
</mgrwt>
</event>
<event>
 5    1  0.1125356E+001  0.2751041E+03  0.7818608E-02  0.1098393E+00
         -1   -1    0    0    0  501 -0.00000000000E+00  0.00000000000E+00  0.14069704090E+02  0.14069704090E+02  0.00000000000E+00 0. -1.
          1   -1    0    0  501    0  0.00000000000E+00 -0.00000000000E+00 -0.13447739050E+04  0.13447739050E+04  0.00000000000E+00 0. -1.
         35    2    1    2    0    0  0.00000000000E+00  0.00000000000E+00 -0.13307042009E+04  0.13588436091E+04  0.27510413236E+03 0.  0.
         25    1    3    3    0    0  0.36413668131E+02 -0.56507300822E+02 -0.67148297706E+03  0.68542572082E+03  0.12000000000E+03 0.  0.
         25    1    3    3    0    0 -0.36413668131E+02  0.56507300822E+02 -0.65922122382E+03  0.67341788825E+03  0.12000000000E+03 0.  0.
<mgrwt>
<rscale>  0 0.27510413E+03</rscale>
<asrwt>0</asrwt>
<pdfrwt beam="1">  1        1 0.20688837E+00 0.27510413E+03</pdfrwt>
<pdfrwt beam="2">  1       -1 0.21645691E-02 0.27510413E+03</pdfrwt>
<totfact> 0.55535568E+03</totfact>
</mgrwt>
</event>
<event>
 5    1  0.1125356E+001  0.2752711E+03  0.7818608E-02  0.1098300E+00
          2   -1    0    0  501    0  0.00000000000E+00  0.00000000000E+00  0.22811293348E+04  0.22811293348E+04  0.00000000000E+00 0. -1.
         -2   -1    0    0    0  501 -0.00000000000E+00 -0.00000000000E+00 -0.83044595707E+01  0.83044595707E+01  0.00000000000E+00 0. -1.
         35    2    1    2    0    0  0.00000000000E+00  0.00000000000E+00  0.22728248753E+04  0.22894337944E+04  0.27527111245E+03 0.  0.
         25    1    3    3    0    0  0.61651863362E+02  0.25637004881E+02  0.12132438538E+04  0.12209909324E+04  0.12000000000E+03 0.  0.
         25    1    3    3    0    0 -0.61651863362E+02 -0.25637004881E+02  0.10595810215E+04  0.10684428620E+04  0.12000000000E+03 0.  0.
<mgrwt>
<rscale>  0 0.27527111E+03</rscale>
<asrwt>0</asrwt>
<pdfrwt beam="1">  1        2 0.35094248E+00 0.27527111E+03</pdfrwt>
<pdfrwt beam="2">  1       -2 0.12776110E-02 0.27527111E+03</pdfrwt>
<totfact> 0.78623551E+03</totfact>
</mgrwt>
</event>
<event>
 5    1  0.1125356E+001  0.2749090E+03  0.7818608E-02  0.1098502E+00
          2   -1    0    0  501    0  0.00000000000E+00  0.00000000000E+00  0.11323693066E+04  0.11323693066E+04  0.00000000000E+00 0.  1.
         -2   -1    0    0    0  501 -0.00000000000E+00 -0.00000000000E+00 -0.16685142442E+02  0.16685142442E+02  0.00000000000E+00 0.  1.
         35    2    1    2    0    0  0.00000000000E+00  0.00000000000E+00  0.11156841642E+04  0.11490544490E+04  0.27490902624E+03 0.  0.
         25    1    3    3    0    0  0.42624144964E+02 -0.11393524119E+02  0.76879023145E+03  0.77934911952E+03  0.12000000000E+03 0.  0.
         25    1    3    3    0    0 -0.42624144964E+02  0.11393524119E+02  0.34689393270E+03  0.36970532951E+03  0.12000000000E+03 0.  0.
<mgrwt>
<rscale>  0 0.27490903E+03</rscale>
<asrwt>0</asrwt>
<pdfrwt beam="1">  1        2 0.17421060E+00 0.27490903E+03</pdfrwt>
<pdfrwt beam="2">  1       -2 0.25669459E-02 0.27490903E+03</pdfrwt>
<totfact> 0.11663175E+04</totfact>
</mgrwt>
</event>
<event>
 5    1  0.1125356E+001  0.2745951E+03  0.7818608E-02  0.1098678E+00
         -2   -1    0    0    0  501 -0.00000000000E+00  0.00000000000E+00  0.23791365513E+02  0.23791365513E+02  0.00000000000E+00 0. -1.
          2   -1    0    0  501    0  0.00000000000E+00 -0.00000000000E+00 -0.79233019722E+03  0.79233019722E+03  0.00000000000E+00 0. -1.
         35    2    1    2    0    0  0.00000000000E+00  0.00000000000E+00 -0.76853883171E+03  0.81612156273E+03  0.27459510068E+03 0.  0.
         25    1    3    3    0    0  0.63698490505E+02 -0.18720053702E+02 -0.36485294323E+03  0.38977635676E+03  0.12000000000E+03 0.  0.
         25    1    3    3    0    0 -0.63698490505E+02  0.18720053702E+02 -0.40368588848E+03  0.42634520598E+03  0.12000000000E+03 0.  0.
<mgrwt>
<rscale>  0 0.27459510E+03</rscale>
<asrwt>0</asrwt>
<pdfrwt beam="1">  1        2 0.12189694E+00 0.27459510E+03</pdfrwt>
<pdfrwt beam="2">  1       -2 0.36602104E-02 0.27459510E+03</pdfrwt>
<totfact> 0.11246519E+04</totfact>
</mgrwt>
</event>
<event>
 5    1  0.1125356E+001  0.2747244E+03  0.7818608E-02  0.1098606E+00
          2   -1    0    0  501    0  0.00000000000E+00  0.00000000000E+00  0.31013288888E+03  0.31013288888E+03  0.00000000000E+00 0. -1.
         -2   -1    0    0    0  501 -0.00000000000E+00 -0.00000000000E+00 -0.60839643345E+02  0.60839643345E+02  0.00000000000E+00 0. -1.
         35    2    1    2    0    0  0.00000000000E+00  0.00000000000E+00  0.24929324553E+03  0.37097253222E+03  0.27472440262E+03 0.  0.
         25    1    3    3    0    0  0.43626184258E+02  0.50609015367E+02  0.12199431853E+03  0.18370391978E+03  0.12000000000E+03 0.  0.
         25    1    3    3    0    0 -0.43626184258E+02 -0.50609015367E+02  0.12729892700E+03  0.18726861244E+03  0.12000000000E+03 0.  0.
<mgrwt>
<rscale>  0 0.27472440E+03</rscale>
<asrwt>0</asrwt>
<pdfrwt beam="1">  1        2 0.47712751E-01 0.27472440E+03</pdfrwt>
<pdfrwt beam="2">  1       -2 0.93599453E-02 0.27472440E+03</pdfrwt>
<totfact> 0.77190541E+03</totfact>
</mgrwt>
</event>
<event>
 5    1  0.1125356E+001  0.2727979E+03  0.7818608E-02  0.1099689E+00
         -2   -1    0    0    0  501 -0.00000000000E+00  0.00000000000E+00  0.64718355454E+02  0.64718355454E+02  0.00000000000E+00 0.  1.
          2   -1    0    0  501    0  0.00000000000E+00 -0.00000000000E+00 -0.28747129276E+03  0.28747129276E+03  0.00000000000E+00 0.  1.
         35    2    1    2    0    0  0.00000000000E+00  0.00000000000E+00 -0.22275293730E+03  0.35218964821E+03  0.27279786882E+03 0.  0.
         25    1    3    3    0    0  0.57169988442E+02 -0.11828610981E+02 -0.14780875535E+03  0.19913751976E+03  0.12000000000E+03 0.  0.
         25    1    3    3    0    0 -0.57169988442E+02  0.11828610981E+02 -0.74944181950E+02  0.15305212845E+03  0.12000000000E+03 0.  0.
<mgrwt>
<rscale>  0 0.27279787E+03</rscale>
<asrwt>0</asrwt>
<pdfrwt beam="1">  1        2 0.44226353E-01 0.27279787E+03</pdfrwt>
<pdfrwt beam="2">  1       -2 0.99566700E-02 0.27279787E+03</pdfrwt>
<totfact> 0.75917870E+03</totfact>
</mgrwt>
</event>
<event>
 5    1  0.1125356E+001  0.2760325E+03  0.7818608E-02  0.1097876E+00
          1   -1    0    0  501    0  0.00000000000E+00  0.00000000000E+00  0.20724023381E+03  0.20724023381E+03  0.00000000000E+00 0.  1.
         -1   -1    0    0    0  501 -0.00000000000E+00 -0.00000000000E+00 -0.91915015525E+02  0.91915015525E+02  0.00000000000E+00 0.  1.
         35    2    1    2    0    0  0.00000000000E+00  0.00000000000E+00  0.11532521828E+03  0.29915524933E+03  0.27603252930E+03 0.  0.
         25    1    3    3    0    0 -0.52554977459E+02 -0.31791109475E+02  0.89735352466E+02  0.16194176046E+03  0.12000000000E+03 0.  0.
         25    1    3    3    0    0  0.52554977459E+02  0.31791109475E+02  0.25589865819E+02  0.13721348888E+03  0.12000000000E+03 0.  0.
<mgrwt>
<rscale>  0 0.27603253E+03</rscale>
<asrwt>0</asrwt>
<pdfrwt beam="1">  1        1 0.31883113E-01 0.27603253E+03</pdfrwt>
<pdfrwt beam="2">  1       -1 0.14140772E-01 0.27603253E+03</pdfrwt>
<totfact> 0.49174364E+03</totfact>
</mgrwt>
</event>
<event>
 5    1  0.1125356E+001  0.2753679E+03  0.7818608E-02  0.1098246E+00
         -1   -1    0    0    0  501 -0.00000000000E+00  0.00000000000E+00  0.41370108805E+02  0.41370108805E+02  0.00000000000E+00 0.  1.
          1   -1    0    0  501    0  0.00000000000E+00 -0.00000000000E+00 -0.45822636534E+03  0.45822636534E+03  0.00000000000E+00 0.  1.
         35    2    1    2    0    0  0.00000000000E+00  0.00000000000E+00 -0.41685625653E+03  0.49959647415E+03  0.27536793271E+03 0.  0.
         25    1    3    3    0    0 -0.62691461681E+02  0.22167180607E+02 -0.22952941200E+03  0.26740485081E+03  0.12000000000E+03 0.  0.
         25    1    3    3    0    0  0.62691461681E+02 -0.22167180607E+02 -0.18732684453E+03  0.23219162333E+03  0.12000000000E+03 0.  0.
<mgrwt>
<rscale>  0 0.27536793E+03</rscale>
<asrwt>0</asrwt>
<pdfrwt beam="1">  1        1 0.70496364E-01 0.27536793E+03</pdfrwt>
<pdfrwt beam="2">  1       -1 0.63646321E-02 0.27536793E+03</pdfrwt>
<totfact> 0.61640185E+03</totfact>
</mgrwt>
</event>
<event>
 5    1  0.1125356E+001  0.2768972E+03  0.7818608E-02  0.1097396E+00
          1   -1    0    0  501    0  0.00000000000E+00  0.00000000000E+00  0.46620248385E+03  0.46620248385E+03  0.00000000000E+00 0. -1.
         -1   -1    0    0    0  501 -0.00000000000E+00 -0.00000000000E+00 -0.41115213582E+02  0.41115213582E+02  0.00000000000E+00 0. -1.
         35    2    1    2    0    0  0.00000000000E+00  0.00000000000E+00  0.42508727027E+03  0.50731769744E+03  0.27689719895E+03 0.  0.
         25    1    3    3    0    0 -0.19422972701E+02  0.63677386755E+02  0.17896207494E+03  0.22552047739E+03  0.12000000000E+03 0.  0.
         25    1    3    3    0    0  0.19422972701E+02 -0.63677386755E+02  0.24612519533E+03  0.28179722005E+03  0.12000000000E+03 0.  0.
<mgrwt>
<rscale>  0 0.27689720E+03</rscale>
<asrwt>0</asrwt>
<pdfrwt beam="1">  1        1 0.71723455E-01 0.27689720E+03</pdfrwt>
<pdfrwt beam="2">  1       -1 0.63254178E-02 0.27689720E+03</pdfrwt>
<totfact> 0.60838976E+03</totfact>
</mgrwt>
</event>
<event>
 5    1  0.1125356E+001  0.2768760E+03  0.7818608E-02  0.1097408E+00
         -2   -1    0    0    0  501 -0.00000000000E+00  0.00000000000E+00  0.20267594604E+02  0.20267594604E+02  0.00000000000E+00 0. -1.
          2   -1    0    0  501    0  0.00000000000E+00 -0.00000000000E+00 -0.94560238296E+03  0.94560238296E+03  0.00000000000E+00 0. -1.
         35    2    1    2    0    0  0.00000000000E+00  0.00000000000E+00 -0.92533478835E+03  0.96586997756E+03  0.27687604269E+03 0.  0.
         25    1    3    3    0    0  0.12974488556E+02 -0.60100567543E+02 -0.35320153725E+03  0.37806314485E+03  0.12000000000E+03 0.  0.
         25    1    3    3    0    0 -0.12974488556E+02  0.60100567543E+02 -0.57213325110E+03  0.58780683271E+03  0.12000000000E+03 0.  0.
<mgrwt>
<rscale>  0 0.27687604E+03</rscale>
<asrwt>0</asrwt>
<pdfrwt beam="1">  1        2 0.14547731E+00 0.27687604E+03</pdfrwt>
<pdfrwt beam="2">  1       -2 0.31180911E-02 0.27687604E+03</pdfrwt>
<totfact> 0.11325259E+04</totfact>
</mgrwt>
</event>
<event>
 5    1  0.1125356E+001  0.2743597E+03  0.7818608E-02  0.1098810E+00
          3   -1    0    0  501    0  0.00000000000E+00  0.00000000000E+00  0.55147489758E+02  0.55147489758E+02  0.00000000000E+00 0.  1.
         -3   -1    0    0    0  501 -0.00000000000E+00 -0.00000000000E+00 -0.34123613957E+03  0.34123613957E+03  0.00000000000E+00 0.  1.
         35    2    1    2    0    0  0.00000000000E+00  0.00000000000E+00 -0.28608864982E+03  0.39638362933E+03  0.27435973839E+03 0.  0.
         25    1    3    3    0    0  0.62307846184E+02 -0.98390638050E+01 -0.17332371211E+03  0.22004586807E+03  0.12000000000E+03 0.  0.
         25    1    3    3    0    0 -0.62307846184E+02  0.98390638050E+01 -0.11276493770E+03  0.17633776126E+03  0.12000000000E+03 0.  0.
<mgrwt>
<rscale>  0 0.27435974E+03</rscale>
<asrwt>0</asrwt>
<pdfrwt beam="1">  1        3 0.84842293E-02 0.27435974E+03</pdfrwt>
<pdfrwt beam="2">  1       -3 0.52497867E-01 0.27435974E+03</pdfrwt>
<totfact> 0.89120467E+02</totfact>
</mgrwt>
</event>
<event>
 5    1  0.1125356E+001  0.2735056E+03  0.7818608E-02  0.1099290E+00
         -2   -1    0    0    0  501 -0.00000000000E+00  0.00000000000E+00  0.38703297051E+02  0.38703297051E+02  0.00000000000E+00 0.  1.
          2   -1    0    0  501    0  0.00000000000E+00 -0.00000000000E+00 -0.48319723992E+03  0.48319723992E+03  0.00000000000E+00 0.  1.
         35    2    1    2    0    0  0.00000000000E+00  0.00000000000E+00 -0.44449394287E+03  0.52190053697E+03  0.27350558540E+03 0.  0.
         25    1    3    3    0    0 -0.53690895716E+02  0.17513058395E+02 -0.28587606548E+03  0.31514210178E+03  0.12000000000E+03 0.  0.
         25    1    3    3    0    0  0.53690895716E+02 -0.17513058395E+02 -0.15861787738E+03  0.20675843519E+03  0.12000000000E+03 0.  0.
<mgrwt>
<rscale>  0 0.27350559E+03</rscale>
<asrwt>0</asrwt>
<pdfrwt beam="1">  1        2 0.74338040E-01 0.27350559E+03</pdfrwt>
<pdfrwt beam="2">  1       -2 0.59543532E-02 0.27350559E+03</pdfrwt>
<totfact> 0.96293307E+03</totfact>
</mgrwt>
</event>
<event>
 5    1  0.1125356E+001  0.2796347E+03  0.7818608E-02  0.1095889E+00
         -2   -1    0    0    0  501 -0.00000000000E+00  0.00000000000E+00  0.35628558494E+02  0.35628558494E+02  0.00000000000E+00 0.  1.
          2   -1    0    0  501    0  0.00000000000E+00 -0.00000000000E+00 -0.54868589122E+03  0.54868589122E+03  0.00000000000E+00 0.  1.
         35    2    1    2    0    0  0.00000000000E+00  0.00000000000E+00 -0.51305733272E+03  0.58431444971E+03  0.27963467146E+03 0.  0.
         25    1    3    3    0    0 -0.19065426410E+01  0.61308893940E+01 -0.10719188166E+03  0.16103205334E+03  0.12000000000E+03 0.  0.
         25    1    3    3    0    0  0.19065426410E+01 -0.61308893940E+01 -0.40586545106E+03  0.42328239637E+03  0.12000000000E+03 0.  0.
<mgrwt>
<rscale>  0 0.27963467E+03</rscale>
<asrwt>0</asrwt>
<pdfrwt beam="1">  1        2 0.84413212E-01 0.27963467E+03</pdfrwt>
<pdfrwt beam="2">  1       -2 0.54813168E-02 0.27963467E+03</pdfrwt>
<totfact> 0.94813600E+03</totfact>
</mgrwt>
</event>
<event>
 5    1  0.1125356E+001  0.2755629E+03  0.7818608E-02  0.1098137E+00
          2   -1    0    0  501    0  0.00000000000E+00  0.00000000000E+00  0.19800136491E+04  0.19800136491E+04  0.00000000000E+00 0. -1.
         -2   -1    0    0    0  501 -0.00000000000E+00 -0.00000000000E+00 -0.95876748626E+01  0.95876748626E+01  0.00000000000E+00 0. -1.
         35    2    1    2    0    0  0.00000000000E+00  0.00000000000E+00  0.19704259742E+04  0.19896013239E+04  0.27556289366E+03 0.  0.
         25    1    3    3    0    0 -0.62274715816E+02 -0.71209447754E+01  0.80044536959E+03  0.81181379502E+03  0.12000000000E+03 0.  0.
         25    1    3    3    0    0  0.62274715816E+02  0.71209447754E+01  0.11699806046E+04  0.11777875289E+04  0.12000000000E+03 0.  0.
<mgrwt>
<rscale>  0 0.27556289E+03</rscale>
<asrwt>0</asrwt>
<pdfrwt beam="1">  1        2 0.30461716E+00 0.27556289E+03</pdfrwt>
<pdfrwt beam="2">  1       -2 0.14750285E-02 0.27556289E+03</pdfrwt>
<totfact> 0.92038803E+03</totfact>
</mgrwt>
</event>
<event>
 5    1  0.1125356E+001  0.2747644E+03  0.7818608E-02  0.1098583E+00
          1   -1    0    0  501    0  0.00000000000E+00  0.00000000000E+00  0.72749265637E+03  0.72749265637E+03  0.00000000000E+00 0.  1.
         -1   -1    0    0    0  501 -0.00000000000E+00 -0.00000000000E+00 -0.25943716144E+02  0.25943716144E+02  0.00000000000E+00 0.  1.
         35    2    1    2    0    0  0.00000000000E+00  0.00000000000E+00  0.70154894022E+03  0.75343637251E+03  0.27476435703E+03 0.  0.
         25    1    3    3    0    0 -0.50969736073E+02  0.13411878178E+02  0.46370416068E+03  0.48187066844E+03  0.12000000000E+03 0.  0.
         25    1    3    3    0    0  0.50969736073E+02 -0.13411878178E+02  0.23784477955E+03  0.27156570407E+03  0.12000000000E+03 0.  0.
<mgrwt>
<rscale>  0 0.27476436E+03</rscale>
<asrwt>0</asrwt>
<pdfrwt beam="1">  1        1 0.11192193E+00 0.27476436E+03</pdfrwt>
<pdfrwt beam="2">  1       -1 0.39913415E-02 0.27476436E+03</pdfrwt>
<totfact> 0.65523330E+03</totfact>
</mgrwt>
</event>
<event>
 5    1  0.1125356E+001  0.2747587E+03  0.7818608E-02  0.1098587E+00
         -3   -1    0    0    0  501 -0.00000000000E+00  0.00000000000E+00  0.44547097019E+03  0.44547097019E+03  0.00000000000E+00 0.  1.
          3   -1    0    0  501    0  0.00000000000E+00 -0.00000000000E+00 -0.42366594262E+02  0.42366594262E+02  0.00000000000E+00 0.  1.
         35    2    1    2    0    0  0.00000000000E+00  0.00000000000E+00  0.40310437593E+03  0.48783756446E+03  0.27475871487E+03 0.  0.
         25    1    3    3    0    0 -0.16089560505E+02 -0.29846261372E+02  0.99195547651E+02  0.15934060985E+03  0.12000000000E+03 0.  0.
         25    1    3    3    0    0  0.16089560505E+02  0.29846261372E+02  0.30390882828E+03  0.32849695460E+03  0.12000000000E+03 0.  0.
<mgrwt>
<rscale>  0 0.27475871E+03</rscale>
<asrwt>0</asrwt>
<pdfrwt beam="1">  1        3 0.65179379E-02 0.27475871E+03</pdfrwt>
<pdfrwt beam="2">  1       -3 0.68533992E-01 0.27475871E+03</pdfrwt>
<totfact> 0.78757966E+02</totfact>
</mgrwt>
</event>
<event>
 5    1  0.1125356E+001  0.2782206E+03  0.7818608E-02  0.1096665E+00
          2   -1    0    0  501    0  0.00000000000E+00  0.00000000000E+00  0.61659347999E+03  0.61659347999E+03  0.00000000000E+00 0. -1.
         -2   -1    0    0    0  501 -0.00000000000E+00 -0.00000000000E+00 -0.31384820924E+02  0.31384820924E+02  0.00000000000E+00 0. -1.
         35    2    1    2    0    0  0.00000000000E+00  0.00000000000E+00  0.58520865907E+03  0.64797830091E+03  0.27822060278E+03 0.  0.
         25    1    3    3    0    0 -0.62066528041E+02  0.29368971292E+02  0.32845031159E+03  0.35636273313E+03  0.12000000000E+03 0.  0.
         25    1    3    3    0    0  0.62066528041E+02 -0.29368971292E+02  0.25675834747E+03  0.29161556778E+03  0.12000000000E+03 0.  0.
<mgrwt>
<rscale>  0 0.27822060E+03</rscale>
<asrwt>0</asrwt>
<pdfrwt beam="1">  1        2 0.94860526E-01 0.27822060E+03</pdfrwt>
<pdfrwt beam="2">  1       -2 0.48284345E-02 0.27822060E+03</pdfrwt>
<totfact> 0.10050094E+04</totfact>
</mgrwt>
</event>
<event>
 5    1  0.1125356E+001  0.2755288E+03  0.7818608E-02  0.1098156E+00
          4   -1    0    0  501    0  0.00000000000E+00  0.00000000000E+00  0.10291671721E+03  0.10291671721E+03  0.00000000000E+00 0. -1.
         -4   -1    0    0    0  501 -0.00000000000E+00 -0.00000000000E+00 -0.18441150499E+03  0.18441150499E+03  0.00000000000E+00 0. -1.
         35    2    1    2    0    0  0.00000000000E+00  0.00000000000E+00 -0.81494787779E+02  0.28732822219E+03  0.27552877678E+03 0.  0.
         25    1    3    3    0    0  0.37919509514E+02  0.33120652365E+02 -0.87895988627E+02  0.15703684801E+03  0.12000000000E+03 0.  0.
         25    1    3    3    0    0 -0.37919509514E+02 -0.33120652365E+02  0.64012008484E+01  0.13029137419E+03  0.12000000000E+03 0.  0.
<mgrwt>
<rscale>  0 0.27552878E+03</rscale>
<asrwt>0</asrwt>
<pdfrwt beam="1">  1        4 0.15833341E-01 0.27552878E+03</pdfrwt>
<pdfrwt beam="2">  1       -4 0.28371001E-01 0.27552878E+03</pdfrwt>
<totfact> 0.75975671E+02</totfact>
</mgrwt>
</event>
<event>
 5    1  0.1125356E+001  0.2745523E+03  0.7818608E-02  0.1098702E+00
         -1   -1    0    0    0  501 -0.00000000000E+00  0.00000000000E+00  0.98988023384E+01  0.98988023384E+01  0.00000000000E+00 0.  1.
          1   -1    0    0  501    0  0.00000000000E+00 -0.00000000000E+00 -0.19037399125E+04  0.19037399125E+04  0.00000000000E+00 0.  1.
         35    2    1    2    0    0  0.00000000000E+00  0.00000000000E+00 -0.18938411102E+04  0.19136387149E+04  0.27455232724E+03 0.  0.
         25    1    3    3    0    0 -0.24123826700E+02 -0.29593530161E+02 -0.13278574951E+04  0.13338153033E+04  0.12000000000E+03 0.  0.
         25    1    3    3    0    0  0.24123826700E+02  0.29593530161E+02 -0.56598361506E+03  0.57982341153E+03  0.12000000000E+03 0.  0.
<mgrwt>
<rscale>  0 0.27455233E+03</rscale>
<asrwt>0</asrwt>
<pdfrwt beam="1">  1        1 0.29288302E+00 0.27455233E+03</pdfrwt>
<pdfrwt beam="2">  1       -1 0.15228929E-02 0.27455233E+03</pdfrwt>
<totfact> 0.39776708E+03</totfact>
</mgrwt>
</event>
<event>
 5    1  0.1125356E+001  0.2752259E+03  0.7818608E-02  0.1098325E+00
         -1   -1    0    0    0  501 -0.00000000000E+00  0.00000000000E+00  0.14793454283E+03  0.14793454283E+03  0.00000000000E+00 0.  1.
          1   -1    0    0  501    0  0.00000000000E+00 -0.00000000000E+00 -0.12801146999E+03  0.12801146999E+03  0.00000000000E+00 0.  1.
         35    2    1    2    0    0  0.00000000000E+00  0.00000000000E+00  0.19923072839E+02  0.27594601283E+03  0.27522585846E+03 0.  0.
         25    1    3    3    0    0 -0.37922647539E+02  0.52380971433E+02  0.28863583017E+02  0.13933771847E+03  0.12000000000E+03 0.  0.
         25    1    3    3    0    0  0.37922647539E+02 -0.52380971433E+02 -0.89405101782E+01  0.13660829436E+03  0.12000000000E+03 0.  0.
<mgrwt>
<rscale>  0 0.27522586E+03</rscale>
<asrwt>0</asrwt>
<pdfrwt beam="1">  1        1 0.19694072E-01 0.27522586E+03</pdfrwt>
<pdfrwt beam="2">  1       -1 0.22759160E-01 0.27522586E+03</pdfrwt>
<totfact> 0.42181039E+03</totfact>
</mgrwt>
</event>
<event>
 5    1  0.1125356E+001  0.2717207E+03  0.7818608E-02  0.1100299E+00
          2   -1    0    0  501    0  0.00000000000E+00  0.00000000000E+00  0.16256440726E+04  0.16256440726E+04  0.00000000000E+00 0. -1.
         -2   -1    0    0    0  501 -0.00000000000E+00 -0.00000000000E+00 -0.11354288163E+02  0.11354288163E+02  0.00000000000E+00 0. -1.
         35    2    1    2    0    0  0.00000000000E+00  0.00000000000E+00  0.16142897844E+04  0.16369983607E+04  0.27172067459E+03 0.  0.
         25    1    3    3    0    0  0.58382921425E+02  0.13869794837E+02  0.67834112327E+03  0.69148218794E+03  0.12000000000E+03 0.  0.
         25    1    3    3    0    0 -0.58382921425E+02 -0.13869794837E+02  0.93594866115E+03  0.94551617280E+03  0.12000000000E+03 0.  0.
<mgrwt>
<rscale>  0 0.27172067E+03</rscale>
<asrwt>0</asrwt>
<pdfrwt beam="1">  1        2 0.25009890E+00 0.27172067E+03</pdfrwt>
<pdfrwt beam="2">  1       -2 0.17468149E-02 0.27172067E+03</pdfrwt>
<totfact> 0.11031088E+04</totfact>
</mgrwt>
</event>
<event>
 5    1  0.1125356E+001  0.2749144E+03  0.7818608E-02  0.1098499E+00
         -1   -1    0    0    0  501 -0.00000000000E+00  0.00000000000E+00  0.28731971162E+02  0.28731971162E+02  0.00000000000E+00 0.  1.
          1   -1    0    0  501    0  0.00000000000E+00 -0.00000000000E+00 -0.65761171640E+03  0.65761171640E+03  0.00000000000E+00 0.  1.
         35    2    1    2    0    0  0.00000000000E+00  0.00000000000E+00 -0.62887974524E+03  0.68634368756E+03  0.27491439301E+03 0.  0.
         25    1    3    3    0    0  0.22410540617E+02 -0.44266560789E+02 -0.20188016386E+03  0.24003616664E+03  0.12000000000E+03 0.  0.
         25    1    3    3    0    0 -0.22410540617E+02  0.44266560789E+02 -0.42699958138E+03  0.44630752092E+03  0.12000000000E+03 0.  0.
<mgrwt>
<rscale>  0 0.27491439E+03</rscale>
<asrwt>0</asrwt>
<pdfrwt beam="1">  1        1 0.10117103E+00 0.27491439E+03</pdfrwt>
<pdfrwt beam="2">  1       -1 0.44203033E-02 0.27491439E+03</pdfrwt>
<totfact> 0.65182618E+03</totfact>
</mgrwt>
</event>
<event>
 4    1  0.1125356E+001  0.3410178E+03  0.7818608E-02  0.1066363E+00
          2   -1    0    0  501    0  0.00000000000E+00  0.00000000000E+00  0.25570515218E+04  0.25570515218E+04  0.00000000000E+00 0. -1.
         -2   -1    0    0    0  501 -0.00000000000E+00 -0.00000000000E+00 -0.11369847984E+02  0.11369847984E+02  0.00000000000E+00 0. -1.
         25    1    1    2    0    0 -0.69205777381E+01  0.11635578602E+03  0.10245568043E+04  0.10381248521E+04  0.12000000000E+03 0.  0.
         25    1    1    2    0    0  0.69205777381E+01 -0.11635578602E+03  0.15211248696E+04  0.15302965177E+04  0.12000000000E+03 0.  0.
<mgrwt>
<rscale>  0 0.34101781E+03</rscale>
<asrwt>0</asrwt>
<pdfrwt beam="1">  1        2 0.39339208E+00 0.34101781E+03</pdfrwt>
<pdfrwt beam="2">  1       -2 0.17492094E-02 0.34101781E+03</pdfrwt>
<totfact> 0.34991477E+03</totfact>
</mgrwt>
</event>
<event>
 5    1  0.1125356E+001  0.2736438E+03  0.7818608E-02  0.1099212E+00
         -2   -1    0    0    0  501 -0.00000000000E+00  0.00000000000E+00  0.71503439247E+02  0.71503439247E+02  0.00000000000E+00 0.  1.
          2   -1    0    0  501    0  0.00000000000E+00 -0.00000000000E+00 -0.26180874836E+03  0.26180874836E+03  0.00000000000E+00 0.  1.
         35    2    1    2    0    0  0.00000000000E+00  0.00000000000E+00 -0.19030530911E+03  0.33331218760E+03  0.27364375332E+03 0.  0.
         25    1    3    3    0    0 -0.22757122886E+02  0.48404879350E+02 -0.48622019473E+02  0.14008932780E+03  0.12000000000E+03 0.  0.
         25    1    3    3    0    0  0.22757122886E+02 -0.48404879350E+02 -0.14168328964E+03  0.19322285980E+03  0.12000000000E+03 0.  0.
<mgrwt>
<rscale>  0 0.27364375E+03</rscale>
<asrwt>0</asrwt>
<pdfrwt beam="1">  1        2 0.40278269E-01 0.27364375E+03</pdfrwt>
<pdfrwt beam="2">  1       -2 0.11000529E-01 0.27364375E+03</pdfrwt>
<totfact> 0.71617776E+03</totfact>
</mgrwt>
</event>
<event>
 5    1  0.1125356E+001  0.2749339E+03  0.7818608E-02  0.1098489E+00
          4   -1    0    0  501    0  0.00000000000E+00  0.00000000000E+00  0.27906201478E+04  0.27906201478E+04  0.00000000000E+00 0.  1.
         -4   -1    0    0    0  501 -0.00000000000E+00 -0.00000000000E+00 -0.67716734986E+01  0.67716734986E+01  0.00000000000E+00 0.  1.
         35    2    1    2    0    0  0.00000000000E+00  0.00000000000E+00  0.27838484743E+04  0.27973918213E+04  0.27493394479E+03 0.  0.
         25    1    3    3    0    0  0.44272089345E+02 -0.47101928755E+02  0.15735258985E+04  0.15794183622E+04  0.12000000000E+03 0.  0.
         25    1    3    3    0    0 -0.44272089345E+02  0.47101928755E+02  0.12103225758E+04  0.12179734591E+04  0.12000000000E+03 0.  0.
<mgrwt>
<rscale>  0 0.27493394E+03</rscale>
<asrwt>0</asrwt>
<pdfrwt beam="1">  1        4 0.42932526E+00 0.27493394E+03</pdfrwt>
<pdfrwt beam="2">  1       -4 0.10417982E-02 0.27493394E+03</pdfrwt>
<totfact> 0.27918639E+01</totfact>
</mgrwt>
</event>
<event>
 5    1  0.1125356E+001  0.2747164E+03  0.7818608E-02  0.1098610E+00
         -1   -1    0    0    0  501 -0.00000000000E+00  0.00000000000E+00  0.96388487772E+03  0.96388487772E+03  0.00000000000E+00 0. -1.
          1   -1    0    0  501    0  0.00000000000E+00 -0.00000000000E+00 -0.19574195190E+02  0.19574195190E+02  0.00000000000E+00 0. -1.
         35    2    1    2    0    0  0.00000000000E+00  0.00000000000E+00  0.94431068253E+03  0.98345907291E+03  0.27471636818E+03 0.  0.
         25    1    3    3    0    0 -0.35254779798E+01  0.48355984260E+02  0.30745858363E+03  0.33358883503E+03  0.12000000000E+03 0.  0.
         25    1    3    3    0    0  0.35254779798E+01 -0.48355984260E+02  0.63685209890E+03  0.64987023788E+03  0.12000000000E+03 0.  0.
<mgrwt>
<rscale>  0 0.27471637E+03</rscale>
<asrwt>0</asrwt>
<pdfrwt beam="1">  1        1 0.30114154E-02 0.27471637E+03</pdfrwt>
<pdfrwt beam="2">  1       -1 0.14828994E+00 0.27471637E+03</pdfrwt>
<totfact> 0.13204160E+03</totfact>
</mgrwt>
</event>
<event>
 5    1  0.1125356E+001  0.2749788E+03  0.7818608E-02  0.1098463E+00
          2   -1    0    0  501    0  0.00000000000E+00  0.00000000000E+00  0.26993744655E+03  0.26993744655E+03  0.00000000000E+00 0. -1.
         -2   -1    0    0    0  501 -0.00000000000E+00 -0.00000000000E+00 -0.70028597738E+02  0.70028597738E+02  0.00000000000E+00 0. -1.
         35    2    1    2    0    0  0.00000000000E+00  0.00000000000E+00  0.19990884882E+03  0.33996604429E+03  0.27497884180E+03 0.  0.
         25    1    3    3    0    0  0.22728024159E+02  0.14533740261E+02  0.17592165099E+03  0.21465372108E+03  0.12000000000E+03 0.  0.
         25    1    3    3    0    0 -0.22728024159E+02 -0.14533740261E+02  0.23987197827E+02  0.12531232321E+03  0.12000000000E+03 0.  0.
<mgrwt>
<rscale>  0 0.27497884E+03</rscale>
<asrwt>0</asrwt>
<pdfrwt beam="1">  1        2 0.41528837E-01 0.27497884E+03</pdfrwt>
<pdfrwt beam="2">  1       -2 0.10773631E-01 0.27497884E+03</pdfrwt>
<totfact> 0.71662279E+03</totfact>
</mgrwt>
</event>
<event>
 5    1  0.1125356E+001  0.2777593E+03  0.7818608E-02  0.1096919E+00
          2   -1    0    0  501    0  0.00000000000E+00  0.00000000000E+00  0.94951855087E+02  0.94951855087E+02  0.00000000000E+00 0.  1.
         -2   -1    0    0    0  501 -0.00000000000E+00 -0.00000000000E+00 -0.20312981436E+03  0.20312981436E+03  0.00000000000E+00 0.  1.
         35    2    1    2    0    0  0.00000000000E+00  0.00000000000E+00 -0.10817795927E+03  0.29808166944E+03  0.27775926769E+03 0.  0.
         25    1    3    3    0    0 -0.59544491995E+02  0.34471741750E+02 -0.67393860119E+02  0.15386935981E+03  0.12000000000E+03 0.  0.
         25    1    3    3    0    0  0.59544491995E+02 -0.34471741750E+02 -0.40784099149E+02  0.14421230963E+03  0.12000000000E+03 0.  0.
<mgrwt>
<rscale>  0 0.27775927E+03</rscale>
<asrwt>0</asrwt>
<pdfrwt beam="1">  1        2 0.14607978E-01 0.27775927E+03</pdfrwt>
<pdfrwt beam="2">  1       -2 0.31250740E-01 0.27775927E+03</pdfrwt>
<totfact> 0.37978818E+03</totfact>
</mgrwt>
</event>
<event>
 5    1  0.1125356E+001  0.2753563E+03  0.7818608E-02  0.1098253E+00
          3   -1    0    0  501    0  0.00000000000E+00  0.00000000000E+00  0.42996185316E+02  0.42996185316E+02  0.00000000000E+00 0. -1.
         -3   -1    0    0    0  501 -0.00000000000E+00 -0.00000000000E+00 -0.44085933898E+03  0.44085933898E+03  0.00000000000E+00 0. -1.
         35    2    1    2    0    0  0.00000000000E+00  0.00000000000E+00 -0.39786315366E+03  0.48385552429E+03  0.27535627712E+03 0.  0.
         25    1    3    3    0    0 -0.56773208892E+02 -0.22881246252E+02 -0.24889663732E+03  0.28301287028E+03  0.12000000000E+03 0.  0.
         25    1    3    3    0    0  0.56773208892E+02  0.22881246252E+02 -0.14896651634E+03  0.20084265401E+03  0.12000000000E+03 0.  0.
<mgrwt>
<rscale>  0 0.27535628E+03</rscale>
<asrwt>0</asrwt>
<pdfrwt beam="1">  1        3 0.66147978E-02 0.27535628E+03</pdfrwt>
<pdfrwt beam="2">  1       -3 0.67824514E-01 0.27535628E+03</pdfrwt>
<totfact> 0.78636565E+02</totfact>
</mgrwt>
</event>
<event>
 5    1  0.1125356E+001  0.2727808E+03  0.7818608E-02  0.1099699E+00
         -2   -1    0    0    0  501 -0.00000000000E+00  0.00000000000E+00  0.66188704339E+01  0.66188704339E+01  0.00000000000E+00 0. -1.
          2   -1    0    0  501    0  0.00000000000E+00 -0.00000000000E+00 -0.28105000122E+04  0.28105000122E+04  0.00000000000E+00 0. -1.
         35    2    1    2    0    0  0.00000000000E+00  0.00000000000E+00 -0.28038811418E+04  0.28171188827E+04  0.27278075764E+03 0.  0.
         25    1    3    3    0    0  0.63662051128E+02  0.11872948997E+02 -0.14320707158E+04  0.14385480037E+04  0.12000000000E+03 0.  0.
         25    1    3    3    0    0 -0.63662051128E+02 -0.11872948997E+02 -0.13718104259E+04  0.13785708790E+04  0.12000000000E+03 0.  0.
<mgrwt>
<rscale>  0 0.27278076E+03</rscale>
<asrwt>0</asrwt>
<pdfrwt beam="1">  1        2 0.43238537E+00 0.27278076E+03</pdfrwt>
<pdfrwt beam="2">  1       -2 0.10182860E-02 0.27278076E+03</pdfrwt>
<totfact> 0.55805573E+03</totfact>
</mgrwt>
</event>
<event>
 5    1  0.1125356E+001  0.2732318E+03  0.7818608E-02  0.1099444E+00
         -4   -1    0    0    0  501 -0.00000000000E+00  0.00000000000E+00  0.13768547096E+03  0.13768547096E+03  0.00000000000E+00 0.  1.
          4   -1    0    0  501    0  0.00000000000E+00 -0.00000000000E+00 -0.13555461977E+03  0.13555461977E+03  0.00000000000E+00 0.  1.
         35    2    1    2    0    0  0.00000000000E+00  0.00000000000E+00  0.21308511867E+01  0.27324009073E+03  0.27323178193E+03 0.  0.
         25    1    3    3    0    0  0.23060760277E+02 -0.20012951720E+02  0.58787062688E+02  0.13707018509E+03  0.12000000000E+03 0.  0.
         25    1    3    3    0    0 -0.23060760277E+02  0.20012951720E+02 -0.56656211502E+02  0.13616990564E+03  0.12000000000E+03 0.  0.
<mgrwt>
<rscale>  0 0.27323178E+03</rscale>
<asrwt>0</asrwt>
<pdfrwt beam="1">  1        4 0.20854557E-01 0.27323178E+03</pdfrwt>
<pdfrwt beam="2">  1       -4 0.21182380E-01 0.27323178E+03</pdfrwt>
<totfact> 0.79646001E+02</totfact>
</mgrwt>
</event>
<event>
 5    1  0.1125356E+001  0.2757632E+03  0.7818608E-02  0.1098026E+00
          2   -1    0    0  501    0  0.00000000000E+00  0.00000000000E+00  0.28404004910E+04  0.28404004910E+04  0.00000000000E+00 0. -1.
         -2   -1    0    0    0  501 -0.00000000000E+00 -0.00000000000E+00 -0.66931870250E+01  0.66931870250E+01  0.00000000000E+00 0. -1.
         35    2    1    2    0    0  0.00000000000E+00  0.00000000000E+00  0.28337073040E+04  0.28470936780E+04  0.27576317167E+03 0.  0.
         25    1    3    3    0    0  0.32715235346E+02  0.37185807432E+02  0.93721137681E+03  0.94615973056E+03  0.12000000000E+03 0.  0.
         25    1    3    3    0    0 -0.32715235346E+02 -0.37185807432E+02  0.18964959271E+04  0.19009339475E+04  0.12000000000E+03 0.  0.
<mgrwt>
<rscale>  0 0.27576317E+03</rscale>
<asrwt>0</asrwt>
<pdfrwt beam="1">  1        2 0.43698373E+00 0.27576317E+03</pdfrwt>
<pdfrwt beam="2">  1       -2 0.10297233E-02 0.27576317E+03</pdfrwt>
<totfact> 0.52769387E+03</totfact>
</mgrwt>
</event>
<event>
 5    1  0.1125356E+001  0.2742473E+03  0.7818608E-02  0.1098873E+00
         -2   -1    0    0    0  501 -0.00000000000E+00  0.00000000000E+00  0.21197307436E+02  0.21197307436E+02  0.00000000000E+00 0.  1.
          2   -1    0    0  501    0  0.00000000000E+00 -0.00000000000E+00 -0.88704146285E+03  0.88704146285E+03  0.00000000000E+00 0.  1.
         35    2    1    2    0    0  0.00000000000E+00  0.00000000000E+00 -0.86584415541E+03  0.90823877028E+03  0.27424726505E+03 0.  0.
         25    1    3    3    0    0  0.45935238778E+02  0.17784652992E+02 -0.58015729270E+03  0.59448197980E+03  0.12000000000E+03 0.  0.
         25    1    3    3    0    0 -0.45935238778E+02 -0.17784652992E+02 -0.28568686272E+03  0.31375679048E+03  0.12000000000E+03 0.  0.
<mgrwt>
<rscale>  0 0.27424727E+03</rscale>
<asrwt>0</asrwt>
<pdfrwt beam="1">  1        2 0.13646791E+00 0.27424727E+03</pdfrwt>
<pdfrwt beam="2">  1       -2 0.32611244E-02 0.27424727E+03</pdfrwt>
<totfact> 0.11543654E+04</totfact>
</mgrwt>
</event>
<event>
 5    1  0.1125356E+001  0.2746105E+03  0.7818608E-02  0.1098670E+00
         -3   -1    0    0    0  501 -0.00000000000E+00  0.00000000000E+00  0.48534829698E+02  0.48534829698E+02  0.00000000000E+00 0.  1.
          3   -1    0    0  501    0  0.00000000000E+00 -0.00000000000E+00 -0.38843705454E+03  0.38843705454E+03  0.00000000000E+00 0.  1.
         35    2    1    2    0    0  0.00000000000E+00  0.00000000000E+00 -0.33990222484E+03  0.43697188424E+03  0.27461046077E+03 0.  0.
         25    1    3    3    0    0  0.25985707253E+02 -0.31332465395E+02 -0.25408777239E+03  0.28393234484E+03  0.12000000000E+03 0.  0.
         25    1    3    3    0    0 -0.25985707253E+02  0.31332465395E+02 -0.85814452451E+02  0.15303953940E+03  0.12000000000E+03 0.  0.
<mgrwt>
<rscale>  0 0.27461046E+03</rscale>
<asrwt>0</asrwt>
<pdfrwt beam="1">  1        3 0.59759546E-01 0.27461046E+03</pdfrwt>
<pdfrwt beam="2">  1       -3 0.74668969E-02 0.27461046E+03</pdfrwt>
<totfact> 0.84288160E+02</totfact>
</mgrwt>
</event>
<event>
 5    1  0.1125356E+001  0.2742218E+03  0.7818608E-02  0.1098887E+00
          2   -1    0    0  501    0  0.00000000000E+00  0.00000000000E+00  0.15323309428E+04  0.15323309428E+04  0.00000000000E+00 0.  1.
         -2   -1    0    0    0  501 -0.00000000000E+00 -0.00000000000E+00 -0.12268499350E+02  0.12268499350E+02  0.00000000000E+00 0.  1.
         35    2    1    2    0    0  0.00000000000E+00  0.00000000000E+00  0.15200624435E+04  0.15445994422E+04  0.27422181661E+03 0.  0.
         25    1    3    3    0    0 -0.45903287932E+02 -0.63856776376E+01  0.10273017345E+04  0.10353244624E+04  0.12000000000E+03 0.  0.
         25    1    3    3    0    0  0.45903287932E+02  0.63856776376E+01  0.49276070895E+03  0.50927497975E+03  0.12000000000E+03 0.  0.
<mgrwt>
<rscale>  0 0.27422182E+03</rscale>
<asrwt>0</asrwt>
<pdfrwt beam="1">  1        2 0.23574307E+00 0.27422182E+03</pdfrwt>
<pdfrwt beam="2">  1       -2 0.18874626E-02 0.27422182E+03</pdfrwt>
<totfact> 0.11037372E+04</totfact>
</mgrwt>
</event>
<event>
 5    1  0.1125356E+001  0.2742456E+03  0.7818608E-02  0.1098874E+00
         -2   -1    0    0    0  501 -0.00000000000E+00  0.00000000000E+00  0.86284462195E+01  0.86284462195E+01  0.00000000000E+00 0.  1.
          2   -1    0    0  501    0  0.00000000000E+00 -0.00000000000E+00 -0.21791481400E+04  0.21791481400E+04  0.00000000000E+00 0.  1.
         35    2    1    2    0    0  0.00000000000E+00  0.00000000000E+00 -0.21705196937E+04  0.21877765862E+04  0.27424560182E+03 0.  0.
         25    1    3    3    0    0  0.30248458657E+02  0.69166585486E+01 -0.61738117572E+03  0.62970018703E+03  0.12000000000E+03 0.  0.
         25    1    3    3    0    0 -0.30248458657E+02 -0.69166585486E+01 -0.15531385180E+04  0.15580763992E+04  0.12000000000E+03 0.  0.
<mgrwt>
<rscale>  0 0.27424560E+03</rscale>
<asrwt>0</asrwt>
<pdfrwt beam="1">  1        2 0.33525348E+00 0.27424560E+03</pdfrwt>
<pdfrwt beam="2">  1       -2 0.13274536E-02 0.27424560E+03</pdfrwt>
<totfact> 0.84270348E+03</totfact>
</mgrwt>
</event>
<event>
 5    1  0.1125356E+001  0.2745686E+03  0.7818608E-02  0.1098693E+00
          4   -1    0    0  501    0  0.00000000000E+00  0.00000000000E+00  0.39617635142E+02  0.39617635142E+02  0.00000000000E+00 0. -1.
         -4   -1    0    0    0  501 -0.00000000000E+00 -0.00000000000E+00 -0.47572205528E+03  0.47572205528E+03  0.00000000000E+00 0. -1.
         35    2    1    2    0    0  0.00000000000E+00  0.00000000000E+00 -0.43610442014E+03  0.51533969042E+03  0.27456862760E+03 0.  0.
         25    1    3    3    0    0 -0.54129096552E+02  0.36051476071E+02 -0.19038360105E+03  0.23425538109E+03  0.12000000000E+03 0.  0.
         25    1    3    3    0    0  0.54129096552E+02 -0.36051476071E+02 -0.24572081909E+03  0.28108430933E+03  0.12000000000E+03 0.  0.
<mgrwt>
<rscale>  0 0.27456863E+03</rscale>
<asrwt>0</asrwt>
<pdfrwt beam="1">  1        4 0.60950211E-02 0.27456863E+03</pdfrwt>
<pdfrwt beam="2">  1       -4 0.73188004E-01 0.27456863E+03</pdfrwt>
<totfact> 0.56050201E+02</totfact>
</mgrwt>
</event>
<event>
 5    1  0.1125356E+001  0.2732089E+03  0.7818608E-02  0.1099457E+00
          1   -1    0    0  501    0  0.00000000000E+00  0.00000000000E+00  0.21471663057E+04  0.21471663057E+04  0.00000000000E+00 0.  1.
         -1   -1    0    0    0  501 -0.00000000000E+00 -0.00000000000E+00 -0.86908833050E+01  0.86908833050E+01  0.00000000000E+00 0.  1.
         35    2    1    2    0    0  0.00000000000E+00  0.00000000000E+00  0.21384754224E+04  0.21558571890E+04  0.27320887101E+03 0.  0.
         25    1    3    3    0    0  0.48229690583E+02  0.29513503786E+01  0.72294079116E+03  0.73442372037E+03  0.12000000000E+03 0.  0.
         25    1    3    3    0    0 -0.48229690583E+02 -0.29513503786E+01  0.14155346312E+04  0.14214334686E+04  0.12000000000E+03 0.  0.
<mgrwt>
<rscale>  0 0.27320887E+03</rscale>
<asrwt>0</asrwt>
<pdfrwt beam="1">  1        1 0.33033286E+00 0.27320887E+03</pdfrwt>
<pdfrwt beam="2">  1       -1 0.13370607E-02 0.27320887E+03</pdfrwt>
<totfact> 0.33393314E+03</totfact>
</mgrwt>
</event>
<event>
 5    1  0.1125356E+001  0.2747652E+03  0.7818608E-02  0.1098583E+00
         -1   -1    0    0    0  501 -0.00000000000E+00  0.00000000000E+00  0.75325459243E+02  0.75325459243E+02  0.00000000000E+00 0. -1.
          1   -1    0    0  501    0  0.00000000000E+00 -0.00000000000E+00 -0.25056571620E+03  0.25056571620E+03  0.00000000000E+00 0. -1.
         35    2    1    2    0    0  0.00000000000E+00  0.00000000000E+00 -0.17524025695E+03  0.32589117544E+03  0.27476519170E+03 0.  0.
         25    1    3    3    0    0 -0.65211645116E+02  0.12479030425E+02 -0.78006889900E+02  0.15777629648E+03  0.12000000000E+03 0.  0.
         25    1    3    3    0    0  0.65211645116E+02 -0.12479030425E+02 -0.97233367055E+02  0.16811487896E+03  0.12000000000E+03 0.  0.
<mgrwt>
<rscale>  0 0.27476519E+03</rscale>
<asrwt>0</asrwt>
<pdfrwt beam="1">  1        1 0.38548572E-01 0.27476519E+03</pdfrwt>
<pdfrwt beam="2">  1       -1 0.11588532E-01 0.27476519E+03</pdfrwt>
<totfact> 0.52926735E+03</totfact>
</mgrwt>
</event>
<event>
 5    1  0.1125356E+001  0.2751945E+03  0.7818608E-02  0.1098343E+00
          1   -1    0    0  501    0  0.00000000000E+00  0.00000000000E+00  0.21152945576E+04  0.21152945576E+04  0.00000000000E+00 0. -1.
         -1   -1    0    0    0  501 -0.00000000000E+00 -0.00000000000E+00 -0.89505279941E+01  0.89505279941E+01  0.00000000000E+00 0. -1.
         35    2    1    2    0    0  0.00000000000E+00  0.00000000000E+00  0.21063440296E+04  0.21242450856E+04  0.27519449961E+03 0.  0.
         25    1    3    3    0    0 -0.49992848119E+02  0.17064473116E+02  0.73095088667E+03  0.74261677858E+03  0.12000000000E+03 0.  0.
         25    1    3    3    0    0  0.49992848119E+02 -0.17064473116E+02  0.13753931429E+04  0.13816283070E+04  0.12000000000E+03 0.  0.
<mgrwt>
<rscale>  0 0.27519450E+03</rscale>
<asrwt>0</asrwt>
<pdfrwt beam="1">  1        1 0.32542953E+00 0.27519450E+03</pdfrwt>
<pdfrwt beam="2">  1       -1 0.13770060E-02 0.27519450E+03</pdfrwt>
<totfact> 0.33559588E+03</totfact>
</mgrwt>
</event>
<event>
 5    1  0.1125356E+001  0.2752061E+03  0.7818608E-02  0.1098336E+00
         -3   -1    0    0    0  501 -0.00000000000E+00  0.00000000000E+00  0.98668804996E+02  0.98668804996E+02  0.00000000000E+00 0.  1.
          3   -1    0    0  501    0  0.00000000000E+00 -0.00000000000E+00 -0.19190063294E+03  0.19190063294E+03  0.00000000000E+00 0.  1.
         35    2    1    2    0    0  0.00000000000E+00  0.00000000000E+00 -0.93231827943E+02  0.29056943794E+03  0.27520614913E+03 0.  0.
         25    1    3    3    0    0 -0.56508843334E+02  0.32959273729E+02 -0.29754323778E+02  0.13987452550E+03  0.12000000000E+03 0.  0.
         25    1    3    3    0    0  0.56508843334E+02 -0.32959273729E+02 -0.63477504165E+02  0.15069491244E+03  0.12000000000E+03 0.  0.
<mgrwt>
<rscale>  0 0.27520615E+03</rscale>
<asrwt>0</asrwt>
<pdfrwt beam="1">  1        3 0.29523174E-01 0.27520615E+03</pdfrwt>
<pdfrwt beam="2">  1       -3 0.15179816E-01 0.27520615E+03</pdfrwt>
<totfact> 0.10231496E+03</totfact>
</mgrwt>
</event>
<event>
 5    1  0.1125356E+001  0.2741425E+03  0.7818608E-02  0.1098932E+00
         -2   -1    0    0    0  501 -0.00000000000E+00  0.00000000000E+00  0.92613356197E+02  0.92613356197E+02  0.00000000000E+00 0.  1.
          2   -1    0    0  501    0  0.00000000000E+00 -0.00000000000E+00 -0.20287066433E+03  0.20287066433E+03  0.00000000000E+00 0.  1.
         35    2    1    2    0    0  0.00000000000E+00  0.00000000000E+00 -0.11025730814E+03  0.29548402053E+03  0.27414254028E+03 0.  0.
         25    1    3    3    0    0 -0.29988063449E+02 -0.58178962013E+02 -0.44112565015E+02  0.14363145186E+03  0.12000000000E+03 0.  0.
         25    1    3    3    0    0  0.29988063449E+02  0.58178962013E+02 -0.66144743123E+02  0.15185256867E+03  0.12000000000E+03 0.  0.
<mgrwt>
<rscale>  0 0.27414254E+03</rscale>
<asrwt>0</asrwt>
<pdfrwt beam="1">  1        2 0.31210871E-01 0.27414254E+03</pdfrwt>
<pdfrwt beam="2">  1       -2 0.14248209E-01 0.27414254E+03</pdfrwt>
<totfact> 0.62097550E+03</totfact>
</mgrwt>
</event>
<event>
 5    1  0.1125356E+001  0.2756556E+03  0.7818608E-02  0.1098086E+00
         -1   -1    0    0    0  501 -0.00000000000E+00  0.00000000000E+00  0.22217138406E+03  0.22217138406E+03  0.00000000000E+00 0.  1.
          1   -1    0    0  501    0  0.00000000000E+00 -0.00000000000E+00 -0.85503841877E+02  0.85503841877E+02  0.00000000000E+00 0.  1.
         35    2    1    2    0    0  0.00000000000E+00  0.00000000000E+00  0.13666754218E+03  0.30767522593E+03  0.27565563221E+03 0.  0.
         25    1    3    3    0    0 -0.27679408754E+01 -0.65971358932E+02  0.85503211909E+02  0.16146417851E+03  0.12000000000E+03 0.  0.
         25    1    3    3    0    0  0.27679408754E+01  0.65971358932E+02  0.51164330272E+02  0.14621104742E+03  0.12000000000E+03 0.  0.
<mgrwt>
<rscale>  0 0.27565563E+03</rscale>
<asrwt>0</asrwt>
<pdfrwt beam="1">  1        1 0.13154437E-01 0.27565563E+03</pdfrwt>
<pdfrwt beam="2">  1       -1 0.34180213E-01 0.27565563E+03</pdfrwt>
<totfact> 0.35992760E+03</totfact>
</mgrwt>
</event>
<event>
 5    1  0.1125356E+001  0.2756826E+03  0.7818608E-02  0.1098071E+00
          1   -1    0    0  501    0  0.00000000000E+00  0.00000000000E+00  0.33657106937E+02  0.33657106937E+02  0.00000000000E+00 0.  1.
         -1   -1    0    0    0  501 -0.00000000000E+00 -0.00000000000E+00 -0.56452323269E+03  0.56452323269E+03  0.00000000000E+00 0.  1.
         35    2    1    2    0    0  0.00000000000E+00  0.00000000000E+00 -0.53086612575E+03  0.59818033963E+03  0.27568256246E+03 0.  0.
         25    1    3    3    0    0 -0.61847412332E+02  0.20200378262E+02 -0.30700421195E+03  0.33598324936E+03  0.12000000000E+03 0.  0.
         25    1    3    3    0    0  0.61847412332E+02 -0.20200378262E+02 -0.22386191380E+03  0.26219709026E+03  0.12000000000E+03 0.  0.
<mgrwt>
<rscale>  0 0.27568256E+03</rscale>
<asrwt>0</asrwt>
<pdfrwt beam="1">  1        1 0.51780159E-02 0.27568256E+03</pdfrwt>
<pdfrwt beam="2">  1       -1 0.86849737E-01 0.27568256E+03</pdfrwt>
<totfact> 0.21714146E+03</totfact>
</mgrwt>
</event>
<event>
 5    1  0.1125356E+001  0.2754877E+03  0.7818608E-02  0.1098179E+00
          2   -1    0    0  501    0  0.00000000000E+00  0.00000000000E+00  0.54163941527E+03  0.54163941527E+03  0.00000000000E+00 0. -1.
         -2   -1    0    0    0  501 -0.00000000000E+00 -0.00000000000E+00 -0.35029507543E+02  0.35029507543E+02  0.00000000000E+00 0. -1.
         35    2    1    2    0    0  0.00000000000E+00  0.00000000000E+00  0.50660990773E+03  0.57666892281E+03  0.27548765477E+03 0.  0.
         25    1    3    3    0    0 -0.43284550473E+02 -0.27461952415E+02  0.16097197248E+03  0.20721893510E+03  0.12000000000E+03 0.  0.
         25    1    3    3    0    0  0.43284550473E+02  0.27461952415E+02  0.34563793524E+03  0.36944998771E+03  0.12000000000E+03 0.  0.
<mgrwt>
<rscale>  0 0.27548765E+03</rscale>
<asrwt>0</asrwt>
<pdfrwt beam="1">  1        2 0.83329134E-01 0.27548765E+03</pdfrwt>
<pdfrwt beam="2">  1       -2 0.53891554E-02 0.27548765E+03</pdfrwt>
<totfact> 0.98684351E+03</totfact>
</mgrwt>
</event>
<event>
 5    1  0.1125356E+001  0.2762307E+03  0.7818608E-02  0.1097766E+00
          1   -1    0    0  501    0  0.00000000000E+00  0.00000000000E+00  0.20492373614E+02  0.20492373614E+02  0.00000000000E+00 0.  1.
         -1   -1    0    0    0  501 -0.00000000000E+00 -0.00000000000E+00 -0.93087540925E+03  0.93087540925E+03  0.00000000000E+00 0.  1.
         35    2    1    2    0    0  0.00000000000E+00  0.00000000000E+00 -0.91038303564E+03  0.95136778286E+03  0.27623067660E+03 0.  0.
         25    1    3    3    0    0  0.38785262950E+02 -0.55515308318E+02 -0.42259043851E+03  0.44448726056E+03  0.12000000000E+03 0.  0.
         25    1    3    3    0    0 -0.38785262950E+02  0.55515308318E+02 -0.48779259713E+03  0.50688052230E+03  0.12000000000E+03 0.  0.
<mgrwt>
<rscale>  0 0.27623068E+03</rscale>
<asrwt>0</asrwt>
<pdfrwt beam="1">  1        1 0.31526735E-02 0.27623068E+03</pdfrwt>
<pdfrwt beam="2">  1       -1 0.14321157E+00 0.27623068E+03</pdfrwt>
<totfact> 0.13551347E+03</totfact>
</mgrwt>
</event>
<event>
 5    1  0.1125356E+001  0.2748124E+03  0.7818608E-02  0.1098556E+00
          3   -1    0    0  501    0  0.00000000000E+00  0.00000000000E+00  0.74534470231E+01  0.74534470231E+01  0.00000000000E+00 0.  1.
         -3   -1    0    0    0  501 -0.00000000000E+00 -0.00000000000E+00 -0.25331188214E+04  0.25331188214E+04  0.00000000000E+00 0.  1.
         35    2    1    2    0    0  0.00000000000E+00  0.00000000000E+00 -0.25256653744E+04  0.25405722685E+04  0.27481242285E+03 0.  0.
         25    1    3    3    0    0 -0.34407854686E+02 -0.57015019653E+02 -0.12002313159E+04  0.12080520786E+04  0.12000000000E+03 0.  0.
         25    1    3    3    0    0  0.34407854686E+02  0.57015019653E+02 -0.13254340585E+04  0.13325201899E+04  0.12000000000E+03 0.  0.
<mgrwt>
<rscale>  0 0.27481242E+03</rscale>
<asrwt>0</asrwt>
<pdfrwt beam="1">  1        3 0.11466843E-02 0.27481242E+03</pdfrwt>
<pdfrwt beam="2">  1       -3 0.38971055E+00 0.27481242E+03</pdfrwt>
<totfact> 0.81995032E+01</totfact>
</mgrwt>
</event>
<event>
 5    1  0.1125356E+001  0.2756733E+03  0.7818608E-02  0.1098076E+00
          2   -1    0    0  501    0  0.00000000000E+00  0.00000000000E+00  0.72424181192E+03  0.72424181192E+03  0.00000000000E+00 0. -1.
         -2   -1    0    0    0  501 -0.00000000000E+00 -0.00000000000E+00 -0.26232868116E+02  0.26232868116E+02  0.00000000000E+00 0. -1.
         35    2    1    2    0    0  0.00000000000E+00  0.00000000000E+00  0.69800894380E+03  0.75047468004E+03  0.27567328443E+03 0.  0.
         25    1    3    3    0    0  0.74811348098E+01 -0.45669652991E+02  0.21405645440E+03  0.24972354765E+03  0.12000000000E+03 0.  0.
         25    1    3    3    0    0 -0.74811348098E+01  0.45669652991E+02  0.48395248941E+03  0.50075113239E+03  0.12000000000E+03 0.  0.
<mgrwt>
<rscale>  0 0.27567328E+03</rscale>
<asrwt>0</asrwt>
<pdfrwt beam="1">  1        2 0.11142180E+00 0.27567328E+03</pdfrwt>
<pdfrwt beam="2">  1       -2 0.40358264E-02 0.27567328E+03</pdfrwt>
<totfact> 0.10864940E+04</totfact>
</mgrwt>
</event>
<event>
 5    1  0.1125356E+001  0.2745309E+03  0.7818608E-02  0.1098714E+00
          2   -1    0    0  501    0  0.00000000000E+00  0.00000000000E+00  0.20028705736E+04  0.20028705736E+04  0.00000000000E+00 0. -1.
         -2   -1    0    0    0  501 -0.00000000000E+00 -0.00000000000E+00 -0.94074019371E+01  0.94074019371E+01  0.00000000000E+00 0. -1.
         35    2    1    2    0    0  0.00000000000E+00  0.00000000000E+00  0.19934631717E+04  0.20122779756E+04  0.27453093461E+03 0.  0.
         25    1    3    3    0    0  0.30024333629E+02 -0.58239616909E+02  0.90741080865E+03  0.91765336006E+03  0.12000000000E+03 0.  0.
         25    1    3    3    0    0 -0.30024333629E+02  0.58239616909E+02  0.10860523630E+04  0.10946246155E+04  0.12000000000E+03 0.  0.
<mgrwt>
<rscale>  0 0.27453093E+03</rscale>
<asrwt>0</asrwt>
<pdfrwt beam="1">  1        2 0.30813360E+00 0.27453093E+03</pdfrwt>
<pdfrwt beam="2">  1       -2 0.14472942E-02 0.27453093E+03</pdfrwt>
<totfact> 0.92042172E+03</totfact>
</mgrwt>
</event>
<event>
 5    1  0.1125356E+001  0.2757696E+03  0.7818608E-02  0.1098022E+00
          1   -1    0    0  501    0  0.00000000000E+00  0.00000000000E+00  0.28476675234E+02  0.28476675234E+02  0.00000000000E+00 0.  1.
         -1   -1    0    0    0  501 -0.00000000000E+00 -0.00000000000E+00 -0.66764193220E+03  0.66764193220E+03  0.00000000000E+00 0.  1.
         35    2    1    2    0    0  0.00000000000E+00  0.00000000000E+00 -0.63916525696E+03  0.69611860743E+03  0.27576963194E+03 0.  0.
         25    1    3    3    0    0  0.17533693394E+02  0.58601735899E+02 -0.24510029518E+03  0.27967078602E+03  0.12000000000E+03 0.  0.
         25    1    3    3    0    0 -0.17533693394E+02 -0.58601735899E+02 -0.39406496178E+03  0.41644782141E+03  0.12000000000E+03 0.  0.
<mgrwt>
<rscale>  0 0.27576963E+03</rscale>
<asrwt>0</asrwt>
<pdfrwt beam="1">  1        1 0.43810273E-02 0.27576963E+03</pdfrwt>
<pdfrwt beam="2">  1       -1 0.10271414E+00 0.27576963E+03</pdfrwt>
<totfact> 0.18979851E+03</totfact>
</mgrwt>
</event>
<event>
 5    1  0.1125356E+001  0.2781253E+03  0.7818608E-02  0.1096717E+00
          3   -1    0    0  501    0  0.00000000000E+00  0.00000000000E+00  0.16033906636E+03  0.16033906636E+03  0.00000000000E+00 0.  1.
         -3   -1    0    0    0  501 -0.00000000000E+00 -0.00000000000E+00 -0.12060950040E+03  0.12060950040E+03  0.00000000000E+00 0.  1.
         35    2    1    2    0    0  0.00000000000E+00  0.00000000000E+00  0.39729565962E+02  0.28094856677E+03  0.27812525732E+03 0.  0.
         25    1    3    3    0    0  0.60087737949E+01 -0.11384205064E+02 -0.49921308873E+02  0.13060567586E+03  0.12000000000E+03 0.  0.
         25    1    3    3    0    0 -0.60087737949E+01  0.11384205064E+02  0.89650874835E+02  0.15034289091E+03  0.12000000000E+03 0.  0.
<mgrwt>
<rscale>  0 0.27812526E+03</rscale>
<asrwt>0</asrwt>
<pdfrwt beam="1">  1        3 0.24667549E-01 0.27812526E+03</pdfrwt>
<pdfrwt beam="2">  1       -3 0.18555308E-01 0.27812526E+03</pdfrwt>
<totfact> 0.10044321E+03</totfact>
</mgrwt>
</event>
<event>
 5    1  0.1125356E+001  0.2755929E+03  0.7818608E-02  0.1098121E+00
          2   -1    0    0  501    0  0.00000000000E+00  0.00000000000E+00  0.13253945900E+03  0.13253945900E+03  0.00000000000E+00 0. -1.
         -2   -1    0    0    0  501 -0.00000000000E+00 -0.00000000000E+00 -0.14326195095E+03  0.14326195095E+03  0.00000000000E+00 0. -1.
         35    2    1    2    0    0  0.00000000000E+00  0.00000000000E+00 -0.10722491953E+02  0.27580140995E+03  0.27559289885E+03 0.  0.
         25    1    3    3    0    0  0.31021316596E+02 -0.54000577846E+01  0.54653942111E+02  0.13556745958E+03  0.12000000000E+03 0.  0.
         25    1    3    3    0    0 -0.31021316596E+02  0.54000577846E+01 -0.65376434064E+02  0.14023395038E+03  0.12000000000E+03 0.  0.
<mgrwt>
<rscale>  0 0.27559290E+03</rscale>
<asrwt>0</asrwt>
<pdfrwt beam="1">  1        2 0.20390686E-01 0.27559290E+03</pdfrwt>
<pdfrwt beam="2">  1       -2 0.22040300E-01 0.27559290E+03</pdfrwt>
<totfact> 0.47897255E+03</totfact>
</mgrwt>
</event>
<event>
 5    1  0.1125356E+001  0.2760306E+03  0.7818608E-02  0.1097877E+00
          4   -1    0    0  501    0  0.00000000000E+00  0.00000000000E+00  0.62901090046E+02  0.62901090046E+02  0.00000000000E+00 0.  1.
         -4   -1    0    0    0  501 -0.00000000000E+00 -0.00000000000E+00 -0.30282825379E+03  0.30282825379E+03  0.00000000000E+00 0.  1.
         35    2    1    2    0    0  0.00000000000E+00  0.00000000000E+00 -0.23992716375E+03  0.36572934384E+03  0.27603063062E+03 0.  0.
         25    1    3    3    0    0 -0.18162079414E+02 -0.54156968741E+02 -0.16927964231E+03  0.21521718261E+03  0.12000000000E+03 0.  0.
         25    1    3    3    0    0  0.18162079414E+02  0.54156968741E+02 -0.70647521441E+02  0.15051216123E+03  0.12000000000E+03 0.  0.
<mgrwt>
<rscale>  0 0.27603063E+03</rscale>
<asrwt>0</asrwt>
<pdfrwt beam="1">  1        4 0.96770907E-02 0.27603063E+03</pdfrwt>
<pdfrwt beam="2">  1       -4 0.46588962E-01 0.27603063E+03</pdfrwt>
<totfact> 0.67405682E+02</totfact>
</mgrwt>
</event>
<event>
 5    1  0.1125356E+001  0.2764740E+03  0.7818608E-02  0.1097631E+00
         -1   -1    0    0    0  501 -0.00000000000E+00  0.00000000000E+00  0.76262193257E+03  0.76262193257E+03  0.00000000000E+00 0. -1.
          1   -1    0    0  501    0  0.00000000000E+00 -0.00000000000E+00 -0.25057587209E+02  0.25057587209E+02  0.00000000000E+00 0. -1.
         35    2    1    2    0    0  0.00000000000E+00  0.00000000000E+00  0.73756434536E+03  0.78767951977E+03  0.27647398129E+03 0.  0.
         25    1    3    3    0    0 -0.91596338627E+01 -0.61262286219E+02  0.45293675144E+03  0.47264010347E+03  0.12000000000E+03 0.  0.
         25    1    3    3    0    0  0.91596338627E+01  0.61262286219E+02  0.28462759392E+03  0.31503941631E+03  0.12000000000E+03 0.  0.
<mgrwt>
<rscale>  0 0.27647398E+03</rscale>
<asrwt>0</asrwt>
<pdfrwt beam="1">  1        1 0.38550140E-02 0.27647398E+03</pdfrwt>
<pdfrwt beam="2">  1       -1 0.11732643E+00 0.27647398E+03</pdfrwt>
<totfact> 0.16701793E+03</totfact>
</mgrwt>
</event>
<event>
 5    1  0.1125356E+001  0.2757452E+03  0.7818608E-02  0.1098036E+00
          3   -1    0    0  501    0  0.00000000000E+00  0.00000000000E+00  0.50763559566E+03  0.50763559566E+03  0.00000000000E+00 0. -1.
         -3   -1    0    0    0  501 -0.00000000000E+00 -0.00000000000E+00 -0.37445867565E+02  0.37445867565E+02  0.00000000000E+00 0. -1.
         35    2    1    2    0    0  0.00000000000E+00  0.00000000000E+00  0.47018972810E+03  0.54508146323E+03  0.27574521056E+03 0.  0.
         25    1    3    3    0    0  0.17872689059E+02 -0.13722829545E+02  0.36168618865E+03  0.38173897905E+03  0.12000000000E+03 0.  0.
         25    1    3    3    0    0 -0.17872689059E+02  0.13722829545E+02  0.10850353945E+03  0.16334248418E+03  0.12000000000E+03 0.  0.
<mgrwt>
<rscale>  0 0.27574521E+03</rscale>
<asrwt>0</asrwt>
<pdfrwt beam="1">  1        3 0.78097779E-01 0.27574521E+03</pdfrwt>
<pdfrwt beam="2">  1       -3 0.57609031E-02 0.27574521E+03</pdfrwt>
<totfact> 0.72645019E+02</totfact>
</mgrwt>
</event>
<event>
 5    1  0.1125356E+001  0.2742183E+03  0.7818608E-02  0.1098889E+00
         -4   -1    0    0    0  501 -0.00000000000E+00  0.00000000000E+00  0.30434505157E+03  0.30434505157E+03  0.00000000000E+00 0. -1.
          4   -1    0    0  501    0  0.00000000000E+00 -0.00000000000E+00 -0.61768445742E+02  0.61768445742E+02  0.00000000000E+00 0. -1.
         35    2    1    2    0    0  0.00000000000E+00  0.00000000000E+00  0.24257660582E+03  0.36611349731E+03  0.27421831306E+03 0.  0.
         25    1    3    3    0    0 -0.52093238043E+02  0.38759220500E+02  0.10323022745E+03  0.17109197083E+03  0.12000000000E+03 0.  0.
         25    1    3    3    0    0  0.52093238043E+02 -0.38759220500E+02  0.13934637838E+03  0.19502152648E+03  0.12000000000E+03 0.  0.
<mgrwt>
<rscale>  0 0.27421831E+03</rscale>
<asrwt>0</asrwt>
<pdfrwt beam="1">  1        4 0.95028380E-02 0.27421831E+03</pdfrwt>
<pdfrwt beam="2">  1       -4 0.46822315E-01 0.27421831E+03</pdfrwt>
<totfact> 0.68747442E+02</totfact>
</mgrwt>
</event>
<event>
 5    1  0.1125356E+001  0.2751615E+03  0.7818608E-02  0.1098361E+00
          2   -1    0    0  501    0  0.00000000000E+00  0.00000000000E+00  0.19348963610E+02  0.19348963610E+02  0.00000000000E+00 0. -1.
         -2   -1    0    0    0  501 -0.00000000000E+00 -0.00000000000E+00 -0.97826781181E+03  0.97826781181E+03  0.00000000000E+00 0. -1.
         35    2    1    2    0    0  0.00000000000E+00  0.00000000000E+00 -0.95891884820E+03  0.99761677542E+03  0.27516154013E+03 0.  0.
         25    1    3    3    0    0  0.27305995380E+02 -0.52320147539E+02 -0.36223225356E+03  0.38612850289E+03  0.12000000000E+03 0.  0.
         25    1    3    3    0    0 -0.27305995380E+02  0.52320147539E+02 -0.59668659464E+03  0.61148827253E+03  0.12000000000E+03 0.  0.
<mgrwt>
<rscale>  0 0.27516154E+03</rscale>
<asrwt>0</asrwt>
<pdfrwt beam="1">  1        2 0.29767642E-02 0.27516154E+03</pdfrwt>
<pdfrwt beam="2">  1       -2 0.15050271E+00 0.27516154E+03</pdfrwt>
<totfact> 0.99564952E+02</totfact>
</mgrwt>
</event>
<event>
 5    1  0.1125356E+001  0.2766004E+03  0.7818608E-02  0.1097560E+00
         -2   -1    0    0    0  501 -0.00000000000E+00  0.00000000000E+00  0.25214901386E+02  0.25214901386E+02  0.00000000000E+00 0. -1.
          2   -1    0    0  501    0  0.00000000000E+00 -0.00000000000E+00 -0.75855709108E+03  0.75855709108E+03  0.00000000000E+00 0. -1.
         35    2    1    2    0    0  0.00000000000E+00  0.00000000000E+00 -0.73334218969E+03  0.78377199246E+03  0.27660037778E+03 0.  0.
         25    1    3    3    0    0 -0.50504556895E+02 -0.40906721397E+02 -0.30312838200E+03  0.33243177660E+03  0.12000000000E+03 0.  0.
         25    1    3    3    0    0  0.50504556895E+02  0.40906721397E+02 -0.43021380769E+03  0.45134021586E+03  0.12000000000E+03 0.  0.
<mgrwt>
<rscale>  0 0.27660038E+03</rscale>
<asrwt>0</asrwt>
<pdfrwt beam="1">  1        2 0.11670107E+00 0.27660038E+03</pdfrwt>
<pdfrwt beam="2">  1       -2 0.38792162E-02 0.27660038E+03</pdfrwt>
<totfact> 0.10890551E+04</totfact>
</mgrwt>
</event>
<event>
 5    1  0.1125356E+001  0.2753613E+03  0.7818608E-02  0.1098250E+00
          2   -1    0    0  501    0  0.00000000000E+00  0.00000000000E+00  0.20045143950E+04  0.20045143950E+04  0.00000000000E+00 0. -1.
         -2   -1    0    0    0  501 -0.00000000000E+00 -0.00000000000E+00 -0.94566368986E+01  0.94566368986E+01  0.00000000000E+00 0. -1.
         35    2    1    2    0    0  0.00000000000E+00  0.00000000000E+00  0.19950577581E+04  0.20139710319E+04  0.27536132475E+03 0.  0.
         25    1    3    3    0    0  0.33213929364E+01 -0.65267151582E+02  0.11210306847E+04  0.11293275117E+04  0.12000000000E+03 0.  0.
         25    1    3    3    0    0 -0.33213929364E+01  0.65267151582E+02  0.87402707348E+03  0.88464352024E+03  0.12000000000E+03 0.  0.
<mgrwt>
<rscale>  0 0.27536132E+03</rscale>
<asrwt>0</asrwt>
<pdfrwt beam="1">  1        2 0.30838649E+00 0.27536132E+03</pdfrwt>
<pdfrwt beam="2">  1       -2 0.14548688E-02 0.27536132E+03</pdfrwt>
<totfact> 0.91163210E+03</totfact>
</mgrwt>
</event>
<event>
 5    1  0.1125356E+001  0.2744781E+03  0.7818608E-02  0.1098744E+00
         -1   -1    0    0    0  501 -0.00000000000E+00  0.00000000000E+00  0.85280769650E+02  0.85280769650E+02  0.00000000000E+00 0. -1.
          1   -1    0    0  501    0  0.00000000000E+00 -0.00000000000E+00 -0.22085350392E+03  0.22085350392E+03  0.00000000000E+00 0. -1.
         35    2    1    2    0    0  0.00000000000E+00  0.00000000000E+00 -0.13557273427E+03  0.30613427357E+03  0.27447809963E+03 0.  0.
         25    1    3    3    0    0 -0.15330167262E+02 -0.49284171524E+01  0.42821653707E+01  0.12115131144E+03  0.12000000000E+03 0.  0.
         25    1    3    3    0    0  0.15330167262E+02  0.49284171524E+01 -0.13985489964E+03  0.18498296213E+03  0.12000000000E+03 0.  0.
<mgrwt>
<rscale>  0 0.27447810E+03</rscale>
<asrwt>0</asrwt>
<pdfrwt beam="1">  1        1 0.33977461E-01 0.27447810E+03</pdfrwt>
<pdfrwt beam="2">  1       -1 0.13120119E-01 0.27447810E+03</pdfrwt>
<totfact> 0.51069208E+03</totfact>
</mgrwt>
</event>
<event>
 5    1  0.1125356E+001  0.2745599E+03  0.7818608E-02  0.1098698E+00
         -2   -1    0    0    0  501 -0.00000000000E+00  0.00000000000E+00  0.54915862342E+03  0.54915862342E+03  0.00000000000E+00 0.  1.
          2   -1    0    0  501    0  0.00000000000E+00 -0.00000000000E+00 -0.34317557981E+02  0.34317557981E+02  0.00000000000E+00 0.  1.
         35    2    1    2    0    0  0.00000000000E+00  0.00000000000E+00  0.51484106544E+03  0.58347618141E+03  0.27455988709E+03 0.  0.
         25    1    3    3    0    0 -0.27572819611E+02 -0.33491380962E+02  0.36502550604E+03  0.38668534112E+03  0.12000000000E+03 0.  0.
         25    1    3    3    0    0  0.27572819611E+02  0.33491380962E+02  0.14981555941E+03  0.19679084029E+03  0.12000000000E+03 0.  0.
<mgrwt>
<rscale>  0 0.27455989E+03</rscale>
<asrwt>0</asrwt>
<pdfrwt beam="1">  1        2 0.52796247E-02 0.27455989E+03</pdfrwt>
<pdfrwt beam="2">  1       -2 0.84485936E-01 0.27455989E+03</pdfrwt>
<totfact> 0.18413156E+03</totfact>
</mgrwt>
</event>
<event>
 5    1  0.1125356E+001  0.2739123E+03  0.7818608E-02  0.1099061E+00
          1   -1    0    0  501    0  0.00000000000E+00  0.00000000000E+00  0.76119734320E+03  0.76119734320E+03  0.00000000000E+00 0.  1.
         -1   -1    0    0    0  501 -0.00000000000E+00 -0.00000000000E+00 -0.24641430993E+02  0.24641430993E+02  0.00000000000E+00 0.  1.
         35    2    1    2    0    0  0.00000000000E+00  0.00000000000E+00  0.73655591220E+03  0.78583877419E+03  0.27391233492E+03 0.  0.
         25    1    3    3    0    0 -0.33771764811E+02 -0.56700087675E+02  0.36469491910E+03  0.38956105562E+03  0.12000000000E+03 0.  0.
         25    1    3    3    0    0  0.33771764811E+02  0.56700087675E+02  0.37186099311E+03  0.39627771857E+03  0.12000000000E+03 0.  0.
<mgrwt>
<rscale>  0 0.27391233E+03</rscale>
<asrwt>0</asrwt>
<pdfrwt beam="1">  1        1 0.11710727E+00 0.27391233E+03</pdfrwt>
<pdfrwt beam="2">  1       -1 0.37909900E-02 0.27391233E+03</pdfrwt>
<totfact> 0.66103460E+03</totfact>
</mgrwt>
</event>
<event>
 5    1  0.1125356E+001  0.2741750E+03  0.7818608E-02  0.1098914E+00
          1   -1    0    0  501    0  0.00000000000E+00  0.00000000000E+00  0.65189721323E+02  0.65189721323E+02  0.00000000000E+00 0. -1.
         -1   -1    0    0    0  501 -0.00000000000E+00 -0.00000000000E+00 -0.28828142399E+03  0.28828142399E+03  0.00000000000E+00 0. -1.
         35    2    1    2    0    0  0.00000000000E+00  0.00000000000E+00 -0.22309170266E+03  0.35347114531E+03  0.27417502215E+03 0.  0.
         25    1    3    3    0    0  0.66215662654E+02  0.28728679021E+01 -0.11214826424E+03  0.17711578282E+03  0.12000000000E+03 0.  0.
         25    1    3    3    0    0 -0.66215662654E+02 -0.28728679021E+01 -0.11094343842E+03  0.17635536249E+03  0.12000000000E+03 0.  0.
<mgrwt>
<rscale>  0 0.27417502E+03</rscale>
<asrwt>0</asrwt>
<pdfrwt beam="1">  1        1 0.10029188E-01 0.27417502E+03</pdfrwt>
<pdfrwt beam="2">  1       -1 0.44350989E-01 0.27417502E+03</pdfrwt>
<totfact> 0.32601292E+03</totfact>
</mgrwt>
</event>
<event>
 5    1  0.1125356E+001  0.2757753E+03  0.7818608E-02  0.1098019E+00
         -2   -1    0    0    0  501 -0.00000000000E+00  0.00000000000E+00  0.34215841231E+02  0.34215841231E+02  0.00000000000E+00 0. -1.
          2   -1    0    0  501    0  0.00000000000E+00 -0.00000000000E+00 -0.55567824763E+03  0.55567824763E+03  0.00000000000E+00 0. -1.
         35    2    1    2    0    0  0.00000000000E+00  0.00000000000E+00 -0.52146240640E+03  0.58989408887E+03  0.27577526137E+03 0.  0.
         25    1    3    3    0    0  0.44991429110E+02  0.18938325163E+02 -0.36174527247E+03  0.38424280216E+03  0.12000000000E+03 0.  0.
         25    1    3    3    0    0 -0.44991429110E+02 -0.18938325163E+02 -0.15971713393E+03  0.20565128671E+03  0.12000000000E+03 0.  0.
<mgrwt>
<rscale>  0 0.27577526E+03</rscale>
<asrwt>0</asrwt>
<pdfrwt beam="1">  1        2 0.85488950E-01 0.27577526E+03</pdfrwt>
<pdfrwt beam="2">  1       -2 0.52639763E-02 0.27577526E+03</pdfrwt>
<totfact> 0.99352465E+03</totfact>
</mgrwt>
</event>
<event>
 5    1  0.1125356E+001  0.2742125E+03  0.7818608E-02  0.1098893E+00
          2   -1    0    0  501    0  0.00000000000E+00  0.00000000000E+00  0.49512240639E+03  0.49512240639E+03  0.00000000000E+00 0.  1.
         -2   -1    0    0    0  501 -0.00000000000E+00 -0.00000000000E+00 -0.37966621387E+02  0.37966621387E+02  0.00000000000E+00 0.  1.
         35    2    1    2    0    0  0.00000000000E+00  0.00000000000E+00  0.45715578501E+03  0.53308902778E+03  0.27421250842E+03 0.  0.
         25    1    3    3    0    0 -0.34902793385E+02  0.19314676189E+02  0.12558124028E+03  0.17821871286E+03  0.12000000000E+03 0.  0.
         25    1    3    3    0    0  0.34902793385E+02 -0.19314676189E+02  0.33157454473E+03  0.35487031492E+03  0.12000000000E+03 0.  0.
<mgrwt>
<rscale>  0 0.27421251E+03</rscale>
<asrwt>0</asrwt>
<pdfrwt beam="1">  1        2 0.76172673E-01 0.27421251E+03</pdfrwt>
<pdfrwt beam="2">  1       -2 0.58410190E-02 0.27421251E+03</pdfrwt>
<totfact> 0.96522532E+03</totfact>
</mgrwt>
</event>
<event>
 5    1  0.1125356E+001  0.2746815E+03  0.7818608E-02  0.1098630E+00
         -1   -1    0    0    0  501 -0.00000000000E+00  0.00000000000E+00  0.32047292447E+03  0.32047292447E+03  0.00000000000E+00 0.  1.
          1   -1    0    0  501    0  0.00000000000E+00 -0.00000000000E+00 -0.58858252884E+02  0.58858252884E+02  0.00000000000E+00 0.  1.
         35    2    1    2    0    0  0.00000000000E+00  0.00000000000E+00  0.26161467159E+03  0.37933117736E+03  0.27468146229E+03 0.  0.
         25    1    3    3    0    0 -0.46591898081E+02 -0.43527401367E+02  0.10329011514E+03  0.17068769001E+03  0.12000000000E+03 0.  0.
         25    1    3    3    0    0  0.46591898081E+02  0.43527401367E+02  0.15832455645E+03  0.20864348735E+03  0.12000000000E+03 0.  0.
<mgrwt>
<rscale>  0 0.27468146E+03</rscale>
<asrwt>0</asrwt>
<pdfrwt beam="1">  1        1 0.90551160E-02 0.27468146E+03</pdfrwt>
<pdfrwt beam="2">  1       -1 0.49303526E-01 0.27468146E+03</pdfrwt>
<totfact> 0.30840969E+03</totfact>
</mgrwt>
</event>
<event>
 4    1  0.1125356E+001  0.2905260E+03  0.7818608E-02  0.1090075E+00
         -2   -1    0    0    0  501 -0.00000000000E+00  0.00000000000E+00  0.36651863472E+02  0.36651863472E+02  0.00000000000E+00 0.  1.
          2   -1    0    0  501    0  0.00000000000E+00 -0.00000000000E+00 -0.57572361871E+03  0.57572361871E+03  0.00000000000E+00 0.  1.
         25    1    1    2    0    0 -0.34401856447E+02  0.37409301438E+02 -0.13426727510E+03  0.18711131640E+03  0.12000000000E+03 0.  0.
         25    1    1    2    0    0  0.34401856447E+02 -0.37409301438E+02 -0.40480448013E+03  0.42526416578E+03  0.12000000000E+03 0.  0.
<mgrwt>
<rscale>  0 0.29052603E+03</rscale>
<asrwt>0</asrwt>
<pdfrwt beam="1">  1        2 0.88572864E-01 0.29052603E+03</pdfrwt>
<pdfrwt beam="2">  1       -2 0.56387483E-02 0.29052603E+03</pdfrwt>
<totfact> 0.86038923E+03</totfact>
</mgrwt>
</event>
<event>
 5    1  0.1125356E+001  0.2746699E+03  0.7818608E-02  0.1098636E+00
         -1   -1    0    0    0  501 -0.00000000000E+00  0.00000000000E+00  0.57742013843E+01  0.57742013843E+01  0.00000000000E+00 0. -1.
          1   -1    0    0  501    0  0.00000000000E+00 -0.00000000000E+00 -0.32664058334E+04  0.32664058334E+04  0.00000000000E+00 0. -1.
         35    2    1    2    0    0  0.00000000000E+00  0.00000000000E+00 -0.32606316320E+04  0.32721800348E+04  0.27466987520E+03 0.  0.
         25    1    3    3    0    0 -0.48734467457E+02 -0.48612718566E+01 -0.21713093287E+04  0.21751742185E+04  0.12000000000E+03 0.  0.
         25    1    3    3    0    0  0.48734467457E+02  0.48612718566E+01 -0.10893223034E+04  0.10970058163E+04  0.12000000000E+03 0.  0.
<mgrwt>
<rscale>  0 0.27466988E+03</rscale>
<asrwt>0</asrwt>
<pdfrwt beam="1">  1        1 0.50252455E+00 0.27466988E+03</pdfrwt>
<pdfrwt beam="2">  1       -1 0.88833766E-03 0.27466988E+03</pdfrwt>
<totfact> 0.10433861E+03</totfact>
</mgrwt>
</event>
<event>
 5    1  0.1125356E+001  0.2747428E+03  0.7818608E-02  0.1098595E+00
          2   -1    0    0  501    0  0.00000000000E+00  0.00000000000E+00  0.12212898623E+03  0.12212898623E+03  0.00000000000E+00 0.  1.
         -2   -1    0    0    0  501 -0.00000000000E+00 -0.00000000000E+00 -0.15451610063E+03  0.15451610063E+03  0.00000000000E+00 0.  1.
         35    2    1    2    0    0  0.00000000000E+00  0.00000000000E+00 -0.32387114402E+02  0.27664508687E+03  0.27474275042E+03 0.  0.
         25    1    3    3    0    0 -0.19901478032E+02  0.62026028985E+02 -0.31384355091E+02  0.14010094519E+03  0.12000000000E+03 0.  0.
         25    1    3    3    0    0  0.19901478032E+02 -0.62026028985E+02 -0.10027593114E+01  0.13654414167E+03  0.12000000000E+03 0.  0.
<mgrwt>
<rscale>  0 0.27474275E+03</rscale>
<asrwt>0</asrwt>
<pdfrwt beam="1">  1        2 0.18789075E-01 0.27474275E+03</pdfrwt>
<pdfrwt beam="2">  1       -2 0.23771708E-01 0.27474275E+03</pdfrwt>
<totfact> 0.46113447E+03</totfact>
</mgrwt>
</event>
<event>
 5    1  0.1125356E+001  0.2752563E+03  0.7818608E-02  0.1098308E+00
          2   -1    0    0  501    0  0.00000000000E+00  0.00000000000E+00  0.15451205595E+04  0.15451205595E+04  0.00000000000E+00 0. -1.
         -2   -1    0    0    0  501 -0.00000000000E+00 -0.00000000000E+00 -0.12258914935E+02  0.12258914935E+02  0.00000000000E+00 0. -1.
         35    2    1    2    0    0  0.00000000000E+00  0.00000000000E+00  0.15328616446E+04  0.15573794745E+04  0.27525625518E+03 0.  0.
         25    1    3    3    0    0 -0.49045732142E+02 -0.44720527574E+02  0.83243534104E+03  0.84365514663E+03  0.12000000000E+03 0.  0.
         25    1    3    3    0    0  0.49045732142E+02  0.44720527574E+02  0.70042630357E+03  0.71372432784E+03  0.12000000000E+03 0.  0.
<mgrwt>
<rscale>  0 0.27525626E+03</rscale>
<asrwt>0</asrwt>
<pdfrwt beam="1">  1        2 0.23771070E+00 0.27525626E+03</pdfrwt>
<pdfrwt beam="2">  1       -2 0.18859881E-02 0.27525626E+03</pdfrwt>
<totfact> 0.10878806E+04</totfact>
</mgrwt>
</event>
<event>
 5    1  0.1125356E+001  0.2748521E+03  0.7818608E-02  0.1098534E+00
         -1   -1    0    0    0  501 -0.00000000000E+00  0.00000000000E+00  0.10419683787E+04  0.10419683787E+04  0.00000000000E+00 0. -1.
          1   -1    0    0  501    0  0.00000000000E+00 -0.00000000000E+00 -0.18125237398E+02  0.18125237398E+02  0.00000000000E+00 0. -1.
         35    2    1    2    0    0  0.00000000000E+00  0.00000000000E+00  0.10238431413E+04  0.10600936161E+04  0.27485213643E+03 0.  0.
         25    1    3    3    0    0  0.28706862737E+01 -0.10705487967E+02  0.76668758140E+03  0.77610095721E+03  0.12000000000E+03 0.  0.
         25    1    3    3    0    0 -0.28706862737E+01  0.10705487967E+02  0.25715555990E+03  0.28399265889E+03  0.12000000000E+03 0.  0.
<mgrwt>
<rscale>  0 0.27485214E+03</rscale>
<asrwt>0</asrwt>
<pdfrwt beam="1">  1        1 0.27884989E-02 0.27485214E+03</pdfrwt>
<pdfrwt beam="2">  1       -1 0.16030278E+00 0.27485214E+03</pdfrwt>
<totfact> 0.11958310E+03</totfact>
</mgrwt>
</event>
<event>
 5    1  0.1125356E+001  0.2748263E+03  0.7818608E-02  0.1098549E+00
         -2   -1    0    0    0  501 -0.00000000000E+00  0.00000000000E+00  0.27845601957E+02  0.27845601957E+02  0.00000000000E+00 0. -1.
          2   -1    0    0  501    0  0.00000000000E+00 -0.00000000000E+00 -0.67810962025E+03  0.67810962025E+03  0.00000000000E+00 0. -1.
         35    2    1    2    0    0  0.00000000000E+00  0.00000000000E+00 -0.65026401830E+03  0.70595522221E+03  0.27482627654E+03 0.  0.
         25    1    3    3    0    0 -0.57018036541E+02 -0.31242838028E+02 -0.36616739421E+03  0.39077580786E+03  0.12000000000E+03 0.  0.
         25    1    3    3    0    0  0.57018036541E+02  0.31242838028E+02 -0.28409662408E+03  0.31517941436E+03  0.12000000000E+03 0.  0.
<mgrwt>
<rscale>  0 0.27482628E+03</rscale>
<asrwt>0</asrwt>
<pdfrwt beam="1">  1        2 0.10432456E+00 0.27482628E+03</pdfrwt>
<pdfrwt beam="2">  1       -2 0.42839386E-02 0.27482628E+03</pdfrwt>
<totfact> 0.10755809E+04</totfact>
</mgrwt>
</event>
<event>
 5    1  0.1125356E+001  0.2748945E+03  0.7818608E-02  0.1098511E+00
         -2   -1    0    0    0  501 -0.00000000000E+00  0.00000000000E+00  0.22537688684E+03  0.22537688684E+03  0.00000000000E+00 0.  1.
          2   -1    0    0  501    0  0.00000000000E+00 -0.00000000000E+00 -0.83822904033E+02  0.83822904033E+02  0.00000000000E+00 0.  1.
         35    2    1    2    0    0  0.00000000000E+00  0.00000000000E+00  0.14155398281E+03  0.30919979087E+03  0.27489448999E+03 0.  0.
         25    1    3    3    0    0 -0.12299366932E+02 -0.29056399257E+02  0.13728455934E+03  0.18504755875E+03  0.12000000000E+03 0.  0.
         25    1    3    3    0    0  0.12299366932E+02  0.29056399257E+02  0.42694234641E+01  0.12415223212E+03  0.12000000000E+03 0.  0.
<mgrwt>
<rscale>  0 0.27489449E+03</rscale>
<asrwt>0</asrwt>
<pdfrwt beam="1">  1        2 0.12895832E-01 0.27489449E+03</pdfrwt>
<pdfrwt beam="2">  1       -2 0.34673367E-01 0.27489449E+03</pdfrwt>
<totfact> 0.36391662E+03</totfact>
</mgrwt>
</event>
<event>
 5    1  0.1125356E+001  0.2746546E+03  0.7818608E-02  0.1098645E+00
          1   -1    0    0  501    0  0.00000000000E+00  0.00000000000E+00  0.17419796073E+04  0.17419796073E+04  0.00000000000E+00 0. -1.
         -1   -1    0    0    0  501 -0.00000000000E+00 -0.00000000000E+00 -0.10826063961E+02  0.10826063961E+02  0.00000000000E+00 0. -1.
         35    2    1    2    0    0  0.00000000000E+00  0.00000000000E+00  0.17311535433E+04  0.17528056713E+04  0.27465456593E+03 0.  0.
         25    1    3    3    0    0  0.70799402686E+01  0.58725312282E+02  0.10633107865E+04  0.10716942738E+04  0.12000000000E+03 0.  0.
         25    1    3    3    0    0 -0.70799402686E+01 -0.58725312282E+02  0.66784275682E+03  0.68111139742E+03  0.12000000000E+03 0.  0.
<mgrwt>
<rscale>  0 0.27465457E+03</rscale>
<asrwt>0</asrwt>
<pdfrwt beam="1">  1        1 0.26799664E+00 0.27465457E+03</pdfrwt>
<pdfrwt beam="2">  1       -1 0.16655497E-02 0.27465457E+03</pdfrwt>
<totfact> 0.44473298E+03</totfact>
</mgrwt>
</event>
<event>
 5    1  0.1125356E+001  0.2747035E+03  0.7818608E-02  0.1098617E+00
          1   -1    0    0  501    0  0.00000000000E+00  0.00000000000E+00  0.31314883605E+02  0.31314883605E+02  0.00000000000E+00 0.  1.
         -1   -1    0    0    0  501 -0.00000000000E+00 -0.00000000000E+00 -0.60244530254E+03  0.60244530254E+03  0.00000000000E+00 0.  1.
         35    2    1    2    0    0  0.00000000000E+00  0.00000000000E+00 -0.57113041894E+03  0.63376018615E+03  0.27470350946E+03 0.  0.
         25    1    3    3    0    0  0.46258063175E+02  0.23758887708E+02 -0.18874489574E+03  0.22962780498E+03  0.12000000000E+03 0.  0.
         25    1    3    3    0    0 -0.46258063175E+02 -0.23758887708E+02 -0.38238552320E+03  0.40413238117E+03  0.12000000000E+03 0.  0.
<mgrwt>
<rscale>  0 0.27470351E+03</rscale>
<asrwt>0</asrwt>
<pdfrwt beam="1">  1        1 0.48176743E-02 0.27470351E+03</pdfrwt>
<pdfrwt beam="2">  1       -1 0.92683894E-01 0.27470351E+03</pdfrwt>
<totfact> 0.20868685E+03</totfact>
</mgrwt>
</event>
