<event>
 4    1  0.1774755E-004  0.2858855E+03  0.7818608E-02  0.1092517E+00
          1   -1    0    0  501    0  0.00000000000E+00  0.00000000000E+00  0.24093828146E+03  0.24093828146E+03  0.00000000000E+00 0. -1.
         -1   -1    0    0    0  501 -0.00000000000E+00 -0.00000000000E+00 -0.84804425521E+02  0.84804425521E+02  0.00000000000E+00 0. -1.
         25    1    1    2    0    0  0.76298903295E+01 -0.57133857524E+02  0.13738381862E+03  0.19130291823E+03  0.12000000000E+03 0.  0.
         25    1    1    2    0    0 -0.76298903295E+01  0.57133857524E+02  0.18750037319E+02  0.13443978876E+03  0.12000000000E+03 0.  0.
<mgrwt>
<rscale>  0 0.28588552E+03</rscale>
<asrwt>0</asrwt>
<pdfrwt beam="1">  1        1 0.37067428E-01 0.28588552E+03</pdfrwt>
<pdfrwt beam="2">  1       -1 0.13046835E-01 0.28588552E+03</pdfrwt>
<totfact> 0.46237053E+03</totfact>
</mgrwt>
</event>
<event>
 4    1  0.1774755E-004  0.3682750E+03  0.7818608E-02  0.1055355E+00
         -2   -1    0    0    0  501 -0.00000000000E+00  0.00000000000E+00  0.17399619044E+03  0.17399619044E+03  0.00000000000E+00 0.  1.
          2   -1    0    0  501    0  0.00000000000E+00 -0.00000000000E+00 -0.19486986388E+03  0.19486986388E+03  0.00000000000E+00 0.  1.
         25    1    1    2    0    0 -0.12030328232E+03 -0.56094004524E+02  0.33074766652E+02  0.18197075938E+03  0.12000000000E+03 0.  0.
         25    1    1    2    0    0  0.12030328232E+03  0.56094004524E+02 -0.53948440091E+02  0.18689529493E+03  0.12000000000E+03 0.  0.
<mgrwt>
<rscale>  0 0.36827497E+03</rscale>
<asrwt>0</asrwt>
<pdfrwt beam="1">  1        2 0.29979979E-01 0.36827497E+03</pdfrwt>
<pdfrwt beam="2">  1       -2 0.26768645E-01 0.36827497E+03</pdfrwt>
<totfact> 0.22194835E+03</totfact>
</mgrwt>
</event>
<event>
 4    1  0.1774755E-004  0.2786004E+03  0.7818608E-02  0.1096456E+00
          2   -1    0    0  501    0  0.00000000000E+00  0.00000000000E+00  0.81671965225E+03  0.81671965225E+03  0.00000000000E+00 0.  1.
         -2   -1    0    0    0  501 -0.00000000000E+00 -0.00000000000E+00 -0.23759121161E+02  0.23759121161E+02  0.00000000000E+00 0.  1.
         25    1    1    2    0    0 -0.86626492649E+01  0.60988302169E+02  0.29154424479E+03  0.32123614549E+03  0.12000000000E+03 0.  0.
         25    1    1    2    0    0  0.86626492649E+01 -0.60988302169E+02  0.50141628630E+03  0.51924262793E+03  0.12000000000E+03 0.  0.
<mgrwt>
<rscale>  0 0.27860037E+03</rscale>
<asrwt>0</asrwt>
<pdfrwt beam="1">  1        2 0.12564916E+00 0.27860037E+03</pdfrwt>
<pdfrwt beam="2">  1       -2 0.36552500E-02 0.27860037E+03</pdfrwt>
<totfact> 0.10847179E+04</totfact>
</mgrwt>
</event>
<event>
 4    1  0.1774755E-004  0.3784698E+03  0.7818608E-02  0.1051501E+00
          2   -1    0    0  501    0  0.00000000000E+00  0.00000000000E+00  0.22573239556E+03  0.22573239556E+03  0.00000000000E+00 0.  1.
         -2   -1    0    0    0  501 -0.00000000000E+00 -0.00000000000E+00 -0.15863848483E+03  0.15863848483E+03  0.00000000000E+00 0.  1.
         25    1    1    2    0    0  0.10132500903E+03 -0.10376192827E+03  0.13839498512E+02  0.18874540241E+03  0.12000000000E+03 0.  0.
         25    1    1    2    0    0 -0.10132500903E+03  0.10376192827E+03  0.53254412220E+02  0.19562547798E+03  0.12000000000E+03 0.  0.
<mgrwt>
<rscale>  0 0.37846979E+03</rscale>
<asrwt>0</asrwt>
<pdfrwt beam="1">  1        2 0.34728061E-01 0.37846979E+03</pdfrwt>
<pdfrwt beam="2">  1       -2 0.24405921E-01 0.37846979E+03</pdfrwt>
<totfact> 0.22262342E+03</totfact>
</mgrwt>
</event>
<event>
 4    1  0.1774755E-004  0.2867244E+03  0.7818608E-02  0.1092072E+00
         -2   -1    0    0    0  501 -0.00000000000E+00  0.00000000000E+00  0.11158604451E+03  0.11158604451E+03  0.00000000000E+00 0. -1.
          2   -1    0    0  501    0  0.00000000000E+00 -0.00000000000E+00 -0.18418718909E+03  0.18418718909E+03  0.00000000000E+00 0. -1.
         25    1    1    2    0    0 -0.35470696545E+02 -0.70131449479E+01  0.35504890811E+02  0.13026109084E+03  0.12000000000E+03 0.  0.
         25    1    1    2    0    0  0.35470696545E+02  0.70131449479E+01 -0.10810603538E+03  0.16551214276E+03  0.12000000000E+03 0.  0.
<mgrwt>
<rscale>  0 0.28672440E+03</rscale>
<asrwt>0</asrwt>
<pdfrwt beam="1">  1        2 0.28336491E-01 0.28672440E+03</pdfrwt>
<pdfrwt beam="2">  1       -2 0.17167084E-01 0.28672440E+03</pdfrwt>
<totfact> 0.50750837E+03</totfact>
</mgrwt>
</event>
<event>
 4    1  0.1774755E-004  0.2461054E+03  0.7818608E-02  0.1115791E+00
         -1   -1    0    0    0  501 -0.00000000000E+00  0.00000000000E+00  0.52620123699E+03  0.52620123699E+03  0.00000000000E+00 0.  1.
          1   -1    0    0  501    0  0.00000000000E+00 -0.00000000000E+00 -0.28776011945E+02  0.28776011945E+02  0.00000000000E+00 0.  1.
         25    1    1    2    0    0  0.54394953798E+01 -0.25897968488E+02  0.26327118669E+03  0.29053745132E+03  0.12000000000E+03 0.  0.
         25    1    1    2    0    0 -0.54394953798E+01  0.25897968488E+02  0.23415403835E+03  0.26443979761E+03  0.12000000000E+03 0.  0.
<mgrwt>
<rscale>  0 0.24610545E+03</rscale>
<asrwt>0</asrwt>
<pdfrwt beam="1">  1        1 0.44270791E-02 0.24610545E+03</pdfrwt>
<pdfrwt beam="2">  1       -1 0.80954030E-01 0.24610545E+03</pdfrwt>
<totfact> 0.31180706E+03</totfact>
</mgrwt>
</event>
<event>
 4    1  0.1774755E-004  0.3609741E+03  0.7818608E-02  0.1058199E+00
         -2   -1    0    0    0  501 -0.00000000000E+00  0.00000000000E+00  0.14801597617E+02  0.14801597617E+02  0.00000000000E+00 0.  1.
          2   -1    0    0  501    0  0.00000000000E+00 -0.00000000000E+00 -0.22008153770E+04  0.22008153770E+04  0.00000000000E+00 0.  1.
         25    1    1    2    0    0  0.95898220956E+02 -0.73042483340E+02 -0.14635190236E+04  0.14733701522E+04  0.12000000000E+03 0.  0.
         25    1    1    2    0    0 -0.95898220956E+02  0.73042483340E+02 -0.72249475583E+03  0.74224682240E+03  0.12000000000E+03 0.  0.
<mgrwt>
<rscale>  0 0.36097415E+03</rscale>
<asrwt>0</asrwt>
<pdfrwt beam="1">  1        2 0.33858702E+00 0.36097415E+03</pdfrwt>
<pdfrwt beam="2">  1       -2 0.22771686E-02 0.36097415E+03</pdfrwt>
<totfact> 0.36999837E+03</totfact>
</mgrwt>
</event>
<event>
 4    1  0.1774755E-004  0.2428185E+03  0.7818608E-02  0.1117929E+00
          2   -1    0    0  501    0  0.00000000000E+00  0.00000000000E+00  0.79525103069E+03  0.79525103069E+03  0.00000000000E+00 0.  1.
         -2   -1    0    0    0  501 -0.00000000000E+00 -0.00000000000E+00 -0.18535279450E+02  0.18535279450E+02  0.00000000000E+00 0.  1.
         25    1    1    2    0    0  0.90084533180E+01 -0.14209330557E+02  0.36302354813E+03  0.38271288691E+03  0.12000000000E+03 0.  0.
         25    1    1    2    0    0 -0.90084533180E+01  0.14209330557E+02  0.41369220311E+03  0.43107342323E+03  0.12000000000E+03 0.  0.
<mgrwt>
<rscale>  0 0.24281845E+03</rscale>
<asrwt>0</asrwt>
<pdfrwt beam="1">  1        2 0.12234629E+00 0.24281845E+03</pdfrwt>
<pdfrwt beam="2">  1       -2 0.28515821E-02 0.24281845E+03</pdfrwt>
<totfact> 0.16158153E+04</totfact>
</mgrwt>
</event>
<event>
 4    1  0.1774755E-004  0.2546106E+03  0.7818608E-02  0.1110425E+00
         -2   -1    0    0    0  501 -0.00000000000E+00  0.00000000000E+00  0.18899577576E+02  0.18899577576E+02  0.00000000000E+00 0.  1.
          2   -1    0    0  501    0  0.00000000000E+00 -0.00000000000E+00 -0.85751311150E+03  0.85751311150E+03  0.00000000000E+00 0.  1.
         25    1    1    2    0    0  0.34624583471E+02  0.17027657608E+02 -0.48067328692E+03  0.49692616319E+03  0.12000000000E+03 0.  0.
         25    1    1    2    0    0 -0.34624583471E+02 -0.17027657608E+02 -0.35794024700E+03  0.37948652588E+03  0.12000000000E+03 0.  0.
<mgrwt>
<rscale>  0 0.25461057E+03</rscale>
<asrwt>0</asrwt>
<pdfrwt beam="1">  1        2 0.13192507E+00 0.25461057E+03</pdfrwt>
<pdfrwt beam="2">  1       -2 0.29076278E-02 0.25461057E+03</pdfrwt>
<totfact> 0.14278487E+04</totfact>
</mgrwt>
</event>
<event>
 4    1  0.1774755E-004  0.4027728E+03  0.7818608E-02  0.1042824E+00
         -2   -1    0    0    0  501 -0.00000000000E+00  0.00000000000E+00  0.23568854565E+02  0.23568854565E+02  0.00000000000E+00 0. -1.
          2   -1    0    0  501    0  0.00000000000E+00 -0.00000000000E+00 -0.17207661151E+04  0.17207661151E+04  0.00000000000E+00 0. -1.
         25    1    1    2    0    0  0.24467101235E+02  0.15846258349E+02 -0.15375488789E+04  0.15425000155E+04  0.12000000000E+03 0.  0.
         25    1    1    2    0    0 -0.24467101235E+02 -0.15846258349E+02 -0.15964838164E+03  0.20183495413E+03  0.12000000000E+03 0.  0.
<mgrwt>
<rscale>  0 0.40277282E+03</rscale>
<asrwt>0</asrwt>
<pdfrwt beam="1">  1        2 0.26473325E+00 0.40277282E+03</pdfrwt>
<pdfrwt beam="2">  1       -2 0.36259776E-02 0.40277282E+03</pdfrwt>
<totfact> 0.33146829E+03</totfact>
</mgrwt>
</event>
<event>
 4    1  0.1774755E-004  0.2770748E+03  0.7818608E-02  0.1097297E+00
          2   -1    0    0  501    0  0.00000000000E+00  0.00000000000E+00  0.18568856356E+03  0.18568856356E+03  0.00000000000E+00 0. -1.
         -2   -1    0    0    0  501 -0.00000000000E+00 -0.00000000000E+00 -0.10335914269E+03  0.10335914269E+03  0.00000000000E+00 0. -1.
         25    1    1    2    0    0 -0.45959053052E+02 -0.43811858083E+02  0.12388373016E+02  0.13632749265E+03  0.12000000000E+03 0.  0.
         25    1    1    2    0    0  0.45959053052E+02  0.43811858083E+02  0.69941047862E+02  0.15272021360E+03  0.12000000000E+03 0.  0.
<mgrwt>
<rscale>  0 0.27707480E+03</rscale>
<asrwt>0</asrwt>
<pdfrwt beam="1">  1        2 0.28567471E-01 0.27707480E+03</pdfrwt>
<pdfrwt beam="2">  1       -2 0.15901407E-01 0.27707480E+03</pdfrwt>
<totfact> 0.57100964E+03</totfact>
</mgrwt>
</event>
<event>
 4    1  0.1774755E-004  0.3763268E+03  0.7818608E-02  0.1052300E+00
          1   -1    0    0  501    0  0.00000000000E+00  0.00000000000E+00  0.45955065187E+02  0.45955065187E+02  0.00000000000E+00 0. -1.
         -1   -1    0    0    0  501 -0.00000000000E+00 -0.00000000000E+00 -0.77043659381E+03  0.77043659381E+03  0.00000000000E+00 0. -1.
         25    1    1    2    0    0 -0.96402967014E+02 -0.25290158610E+02 -0.59051301449E+03  0.61076897798E+03  0.12000000000E+03 0.  0.
         25    1    1    2    0    0  0.96402967014E+02  0.25290158610E+02 -0.13396851412E+03  0.20562268102E+03  0.12000000000E+03 0.  0.
<mgrwt>
<rscale>  0 0.37632679E+03</rscale>
<asrwt>0</asrwt>
<pdfrwt beam="1">  1        1 0.70700100E-02 0.37632679E+03</pdfrwt>
<pdfrwt beam="2">  1       -1 0.11852871E+00 0.37632679E+03</pdfrwt>
<totfact> 0.70301669E+02</totfact>
</mgrwt>
</event>
<event>
 4    1  0.1774755E-004  0.2537424E+03  0.7818608E-02  0.1110962E+00
          2   -1    0    0  501    0  0.00000000000E+00  0.00000000000E+00  0.32965095990E+04  0.32965095990E+04  0.00000000000E+00 0. -1.
         -2   -1    0    0    0  501 -0.00000000000E+00 -0.00000000000E+00 -0.48828307072E+01  0.48828307072E+01  0.00000000000E+00 0. -1.
         25    1    1    2    0    0 -0.33705588158E+02 -0.42096794508E+01  0.13427676936E+04  0.13485469465E+04  0.12000000000E+03 0.  0.
         25    1    1    2    0    0  0.33705588158E+02  0.42096794508E+01  0.19488590747E+04  0.19528454832E+04  0.12000000000E+03 0.  0.
<mgrwt>
<rscale>  0 0.25374238E+03</rscale>
<asrwt>0</asrwt>
<pdfrwt beam="1">  1        2 0.50715354E+00 0.25374238E+03</pdfrwt>
<pdfrwt beam="2">  1       -2 0.75120736E-03 0.25374238E+03</pdfrwt>
<totfact> 0.44405345E+03</totfact>
</mgrwt>
</event>
<event>
 4    1  0.1774755E-004  0.2573928E+03  0.7818608E-02  0.1108720E+00
         -2   -1    0    0    0  501 -0.00000000000E+00  0.00000000000E+00  0.14559062380E+02  0.14559062380E+02  0.00000000000E+00 0.  1.
          2   -1    0    0  501    0  0.00000000000E+00 -0.00000000000E+00 -0.11376260660E+04  0.11376260660E+04  0.00000000000E+00 0.  1.
         25    1    1    2    0    0  0.34579184455E+02 -0.51363505663E+01 -0.69882501746E+03  0.70991443648E+03  0.12000000000E+03 0.  0.
         25    1    1    2    0    0 -0.34579184455E+02  0.51363505663E+01 -0.42424198619E+03  0.44227069194E+03  0.12000000000E+03 0.  0.
<mgrwt>
<rscale>  0 0.25739284E+03</rscale>
<asrwt>0</asrwt>
<pdfrwt beam="1">  1        2 0.17501941E+00 0.25739284E+03</pdfrwt>
<pdfrwt beam="2">  1       -2 0.22398556E-02 0.25739284E+03</pdfrwt>
<totfact> 0.14135075E+04</totfact>
</mgrwt>
</event>
<event>
 4    1  0.1774755E-004  0.3367923E+03  0.7818608E-02  0.1068170E+00
          3   -1    0    0  501    0  0.00000000000E+00  0.00000000000E+00  0.72467044264E+02  0.72467044264E+02  0.00000000000E+00 0. -1.
         -3   -1    0    0    0  501 -0.00000000000E+00 -0.00000000000E+00 -0.39131243127E+03  0.39131243127E+03  0.00000000000E+00 0. -1.
         25    1    1    2    0    0 -0.32819653104E+01  0.99564140571E+02 -0.71966891346E+02  0.17176443996E+03  0.12000000000E+03 0.  0.
         25    1    1    2    0    0  0.32819653104E+01 -0.99564140571E+02 -0.24687849567E+03  0.29201503558E+03  0.12000000000E+03 0.  0.
<mgrwt>
<rscale>  0 0.33679225E+03</rscale>
<asrwt>0</asrwt>
<pdfrwt beam="1">  1        3 0.11148776E-01 0.33679225E+03</pdfrwt>
<pdfrwt beam="2">  1       -3 0.60201912E-01 0.33679225E+03</pdfrwt>
<totfact> 0.43410275E+02</totfact>
</mgrwt>
</event>
<event>
 4    1  0.1774755E-004  0.2822453E+03  0.7818608E-02  0.1094469E+00
          2   -1    0    0  501    0  0.00000000000E+00  0.00000000000E+00  0.52506828290E+03  0.52506828290E+03  0.00000000000E+00 0. -1.
         -2   -1    0    0    0  501 -0.00000000000E+00 -0.00000000000E+00 -0.37929555737E+02  0.37929555737E+02  0.00000000000E+00 0. -1.
         25    1    1    2    0    0  0.63617749426E+02  0.24120950160E+02  0.18417625028E+03  0.23010851667E+03  0.12000000000E+03 0.  0.
         25    1    1    2    0    0 -0.63617749426E+02 -0.24120950160E+02  0.30296247688E+03  0.33288932197E+03  0.12000000000E+03 0.  0.
<mgrwt>
<rscale>  0 0.28224533E+03</rscale>
<asrwt>0</asrwt>
<pdfrwt beam="1">  1        2 0.80779731E-01 0.28224533E+03</pdfrwt>
<pdfrwt beam="2">  1       -2 0.58353166E-02 0.28224533E+03</pdfrwt>
<totfact> 0.90594747E+03</totfact>
</mgrwt>
</event>
<event>
 4    1  0.1774755E-004  0.2988475E+03  0.7818608E-02  0.1085818E+00
         -2   -1    0    0    0  501 -0.00000000000E+00  0.00000000000E+00  0.37063383485E+02  0.37063383485E+02  0.00000000000E+00 0.  1.
          2   -1    0    0  501    0  0.00000000000E+00 -0.00000000000E+00 -0.60241288186E+03  0.60241288186E+03  0.00000000000E+00 0.  1.
         25    1    1    2    0    0  0.49089062353E+02 -0.54199059536E+01 -0.44119896273E+03  0.45988654703E+03  0.12000000000E+03 0.  0.
         25    1    1    2    0    0 -0.49089062353E+02  0.54199059536E+01 -0.12415053564E+03  0.17958971831E+03  0.12000000000E+03 0.  0.
<mgrwt>
<rscale>  0 0.29884752E+03</rscale>
<asrwt>0</asrwt>
<pdfrwt beam="1">  1        2 0.92678902E-01 0.29884752E+03</pdfrwt>
<pdfrwt beam="2">  1       -2 0.57020592E-02 0.29884752E+03</pdfrwt>
<totfact> 0.80321176E+03</totfact>
</mgrwt>
</event>
<event>
 4    1  0.1774755E-004  0.3724480E+03  0.7818608E-02  0.1053761E+00
         -2   -1    0    0    0  501 -0.00000000000E+00  0.00000000000E+00  0.46236769214E+02  0.46236769214E+02  0.00000000000E+00 0.  1.
          2   -1    0    0  501    0  0.00000000000E+00 -0.00000000000E+00 -0.75003883605E+03  0.75003883605E+03  0.00000000000E+00 0.  1.
         25    1    1    2    0    0 -0.61367191217E+02  0.12848802511E+03 -0.35631775838E+03  0.40204160194E+03  0.12000000000E+03 0.  0.
         25    1    1    2    0    0  0.61367191217E+02 -0.12848802511E+03 -0.34748430845E+03  0.39423400332E+03  0.12000000000E+03 0.  0.
<mgrwt>
<rscale>  0 0.37244797E+03</rscale>
<asrwt>0</asrwt>
<pdfrwt beam="1">  1        2 0.11539058E+00 0.37244797E+03</pdfrwt>
<pdfrwt beam="2">  1       -2 0.71133496E-02 0.37244797E+03</pdfrwt>
<totfact> 0.43974248E+03</totfact>
</mgrwt>
</event>
<event>
 4    1  0.1774755E-004  0.2552058E+03  0.7818608E-02  0.1110058E+00
         -1   -1    0    0    0  501 -0.00000000000E+00  0.00000000000E+00  0.40020844670E+02  0.40020844670E+02  0.00000000000E+00 0. -1.
          1   -1    0    0  501    0  0.00000000000E+00 -0.00000000000E+00 -0.40685054648E+03  0.40685054648E+03  0.00000000000E+00 0. -1.
         25    1    1    2    0    0  0.16714654946E+00  0.38733089699E+02 -0.14918145225E+03  0.19533403664E+03  0.12000000000E+03 0.  0.
         25    1    1    2    0    0 -0.16714654946E+00 -0.38733089699E+02 -0.21764824956E+03  0.25153735451E+03  0.12000000000E+03 0.  0.
<mgrwt>
<rscale>  0 0.25520582E+03</rscale>
<asrwt>0</asrwt>
<pdfrwt beam="1">  1        1 0.62592392E-01 0.25520582E+03</pdfrwt>
<pdfrwt beam="2">  1       -1 0.61570530E-02 0.25520582E+03</pdfrwt>
<totfact> 0.75392095E+03</totfact>
</mgrwt>
</event>
<event>
 4    1  0.1774755E-004  0.2686462E+03  0.7818608E-02  0.1102057E+00
          4   -1    0    0  501    0  0.00000000000E+00  0.00000000000E+00  0.56183967837E+02  0.56183967837E+02  0.00000000000E+00 0.  1.
         -4   -1    0    0    0  501 -0.00000000000E+00 -0.00000000000E+00 -0.32113606922E+03  0.32113606922E+03  0.00000000000E+00 0.  1.
         25    1    1    2    0    0 -0.19054211864E+02 -0.54974300621E+02 -0.10993959676E+03  0.17283504174E+03  0.12000000000E+03 0.  0.
         25    1    1    2    0    0  0.19054211864E+02  0.54974300621E+02 -0.15501250462E+03  0.20448499531E+03  0.12000000000E+03 0.  0.
<mgrwt>
<rscale>  0 0.26864623E+03</rscale>
<asrwt>0</asrwt>
<pdfrwt beam="1">  1        4 0.86436875E-02 0.26864623E+03</pdfrwt>
<pdfrwt beam="2">  1       -4 0.49405548E-01 0.26864623E+03</pdfrwt>
<totfact> 0.72069699E+02</totfact>
</mgrwt>
</event>
<event>
 4    1  0.1774755E-004  0.2562347E+03  0.7818608E-02  0.1109427E+00
          1   -1    0    0  501    0  0.00000000000E+00  0.00000000000E+00  0.20829035671E+03  0.20829035671E+03  0.00000000000E+00 0. -1.
         -1   -1    0    0    0  501 -0.00000000000E+00 -0.00000000000E+00 -0.78803705534E+02  0.78803705534E+02  0.00000000000E+00 0. -1.
         25    1    1    2    0    0  0.40499636927E+02 -0.14173463935E+02  0.50008690162E+02  0.13690133952E+03  0.12000000000E+03 0.  0.
         25    1    1    2    0    0 -0.40499636927E+02  0.14173463935E+02  0.79477961011E+02  0.15019272272E+03  0.12000000000E+03 0.  0.
<mgrwt>
<rscale>  0 0.25623467E+03</rscale>
<asrwt>0</asrwt>
<pdfrwt beam="1">  1        1 0.32044670E-01 0.25623467E+03</pdfrwt>
<pdfrwt beam="2">  1       -1 0.12123647E-01 0.25623467E+03</pdfrwt>
<totfact> 0.62059318E+03</totfact>
</mgrwt>
</event>
<event>
 4    1  0.1774755E-004  0.2484496E+03  0.7818608E-02  0.1114289E+00
         -2   -1    0    0    0  501 -0.00000000000E+00  0.00000000000E+00  0.17039296171E+02  0.17039296171E+02  0.00000000000E+00 0. -1.
          2   -1    0    0  501    0  0.00000000000E+00 -0.00000000000E+00 -0.90565945492E+03  0.90565945492E+03  0.00000000000E+00 0. -1.
         25    1    1    2    0    0  0.14583018934E+02 -0.35649807523E+01 -0.54977400934E+03  0.56291814225E+03  0.12000000000E+03 0.  0.
         25    1    1    2    0    0 -0.14583018934E+02  0.35649807523E+01 -0.33884614941E+03  0.35978060885E+03  0.12000000000E+03 0.  0.
<mgrwt>
<rscale>  0 0.24844959E+03</rscale>
<asrwt>0</asrwt>
<pdfrwt beam="1">  1        2 0.13933226E+00 0.24844959E+03</pdfrwt>
<pdfrwt beam="2">  1       -2 0.26214295E-02 0.24844959E+03</pdfrwt>
<totfact> 0.15471731E+04</totfact>
</mgrwt>
</event>
<event>
 4    1  0.1774755E-004  0.3975523E+03  0.7818608E-02  0.1044631E+00
          2   -1    0    0  501    0  0.00000000000E+00  0.00000000000E+00  0.18331414690E+04  0.18331414690E+04  0.00000000000E+00 0.  1.
         -2   -1    0    0    0  501 -0.00000000000E+00 -0.00000000000E+00 -0.21554237185E+02  0.21554237185E+02  0.00000000000E+00 0.  1.
         25    1    1    2    0    0 -0.10953154164E+03  0.47968814434E+02  0.13909341059E+04  0.14012122797E+04  0.12000000000E+03 0.  0.
         25    1    1    2    0    0  0.10953154164E+03 -0.47968814434E+02  0.42065312592E+03  0.45348342651E+03  0.12000000000E+03 0.  0.
<mgrwt>
<rscale>  0 0.39755234E+03</rscale>
<asrwt>0</asrwt>
<pdfrwt beam="1">  1        2 0.28202164E+00 0.39755234E+03</pdfrwt>
<pdfrwt beam="2">  1       -2 0.33160379E-02 0.39755234E+03</pdfrwt>
<totfact> 0.33056553E+03</totfact>
</mgrwt>
</event>
<event>
 4    1  0.1774755E-004  0.3218704E+03  0.7818608E-02  0.1074792E+00
         -2   -1    0    0    0  501 -0.00000000000E+00  0.00000000000E+00  0.46707122512E+02  0.46707122512E+02  0.00000000000E+00 0. -1.
          2   -1    0    0  501    0  0.00000000000E+00 -0.00000000000E+00 -0.55452242080E+03  0.55452242080E+03  0.00000000000E+00 0. -1.
         25    1    1    2    0    0  0.74004837137E+02 -0.16571471955E+01 -0.10896968937E+03  0.17819611460E+03  0.12000000000E+03 0.  0.
         25    1    1    2    0    0 -0.74004837137E+02  0.16571471955E+01 -0.39884560892E+03  0.42303342871E+03  0.12000000000E+03 0.  0.
<mgrwt>
<rscale>  0 0.32187045E+03</rscale>
<asrwt>0</asrwt>
<pdfrwt beam="1">  1        2 0.85311141E-01 0.32187045E+03</pdfrwt>
<pdfrwt beam="2">  1       -2 0.71857112E-02 0.32187045E+03</pdfrwt>
<totfact> 0.61967180E+03</totfact>
</mgrwt>
</event>
<event>
 4    1  0.1774755E-004  0.3329141E+03  0.7818608E-02  0.1069855E+00
         -2   -1    0    0    0  501 -0.00000000000E+00  0.00000000000E+00  0.27494611652E+02  0.27494611652E+02  0.00000000000E+00 0.  1.
          2   -1    0    0  501    0  0.00000000000E+00 -0.00000000000E+00 -0.10077595219E+04  0.10077595219E+04  0.00000000000E+00 0.  1.
         25    1    1    2    0    0  0.73167064333E+02  0.87856461865E+02 -0.53788183614E+03  0.56284016101E+03  0.12000000000E+03 0.  0.
         25    1    1    2    0    0 -0.73167064333E+02 -0.87856461865E+02 -0.44238307408E+03  0.47241397251E+03  0.12000000000E+03 0.  0.
<mgrwt>
<rscale>  0 0.33291414E+03</rscale>
<asrwt>0</asrwt>
<pdfrwt beam="1">  1        2 0.15503993E+00 0.33291414E+03</pdfrwt>
<pdfrwt beam="2">  1       -2 0.42299401E-02 0.33291414E+03</pdfrwt>
<totfact> 0.65806654E+03</totfact>
</mgrwt>
</event>
<event>
 4    1  0.1774755E-004  0.2966529E+03  0.7818608E-02  0.1086926E+00
         -1   -1    0    0    0  501 -0.00000000000E+00  0.00000000000E+00  0.52378914379E+01  0.52378914379E+01  0.00000000000E+00 0. -1.
          1   -1    0    0  501    0  0.00000000000E+00 -0.00000000000E+00 -0.42003025156E+04  0.42003025156E+04  0.00000000000E+00 0. -1.
         25    1    1    2    0    0  0.55518440293E+02  0.39031204242E+02 -0.13216936106E+04  0.13288640760E+04  0.12000000000E+03 0.  0.
         25    1    1    2    0    0 -0.55518440293E+02 -0.39031204242E+02 -0.28733710136E+04  0.28766763311E+04  0.12000000000E+03 0.  0.
<mgrwt>
<rscale>  0 0.29665285E+03</rscale>
<asrwt>0</asrwt>
<pdfrwt beam="1">  1        1 0.64620167E+00 0.29665285E+03</pdfrwt>
<pdfrwt beam="2">  1       -1 0.80582785E-03 0.29665285E+03</pdfrwt>
<totfact> 0.21501443E+02</totfact>
</mgrwt>
</event>
<event>
 4    1  0.1774755E-004  0.2500224E+03  0.7818608E-02  0.1113291E+00
          2   -1    0    0  501    0  0.00000000000E+00  0.00000000000E+00  0.61540611823E+03  0.61540611823E+03  0.00000000000E+00 0.  1.
         -2   -1    0    0    0  501 -0.00000000000E+00 -0.00000000000E+00 -0.25394283601E+02  0.25394283601E+02  0.00000000000E+00 0.  1.
         25    1    1    2    0    0 -0.40366691842E+01  0.16364554724E+00  0.38421340383E+03  0.40253727922E+03  0.12000000000E+03 0.  0.
         25    1    1    2    0    0  0.40366691842E+01 -0.16364554724E+00  0.20579843080E+03  0.23826312261E+03  0.12000000000E+03 0.  0.
<mgrwt>
<rscale>  0 0.25002238E+03</rscale>
<asrwt>0</asrwt>
<pdfrwt beam="1">  1        2 0.94677853E-01 0.25002238E+03</pdfrwt>
<pdfrwt beam="2">  1       -2 0.39068133E-02 0.25002238E+03</pdfrwt>
<totfact> 0.13803650E+04</totfact>
</mgrwt>
</event>
<event>
 4    1  0.1774755E-004  0.3530033E+03  0.7818608E-02  0.1061389E+00
          1   -1    0    0  501    0  0.00000000000E+00  0.00000000000E+00  0.58172055371E+03  0.58172055371E+03  0.00000000000E+00 0.  1.
         -1   -1    0    0    0  501 -0.00000000000E+00 -0.00000000000E+00 -0.53552920348E+02  0.53552920348E+02  0.00000000000E+00 0.  1.
         25    1    1    2    0    0  0.11981213021E+03  0.10495863294E+02  0.17800746905E+03  0.24607268993E+03  0.12000000000E+03 0.  0.
         25    1    1    2    0    0 -0.11981213021E+03 -0.10495863294E+02  0.35016016431E+03  0.38920078412E+03  0.12000000000E+03 0.  0.
<mgrwt>
<rscale>  0 0.35300331E+03</rscale>
<asrwt>0</asrwt>
<pdfrwt beam="1">  1        1 0.89495465E-01 0.35300331E+03</pdfrwt>
<pdfrwt beam="2">  1       -1 0.82389112E-02 0.35300331E+03</pdfrwt>
<totfact> 0.30312222E+03</totfact>
</mgrwt>
</event>
<event>
 4    1  0.1774755E-004  0.3296416E+03  0.7818608E-02  0.1071296E+00
         -1   -1    0    0    0  501 -0.00000000000E+00  0.00000000000E+00  0.34136495234E+02  0.34136495234E+02  0.00000000000E+00 0.  1.
          1   -1    0    0  501    0  0.00000000000E+00 -0.00000000000E+00 -0.79580216502E+03  0.79580216502E+03  0.00000000000E+00 0.  1.
         25    1    1    2    0    0 -0.53056907996E+01  0.92908505596E+02 -0.21950825349E+03  0.26691574348E+03  0.12000000000E+03 0.  0.
         25    1    1    2    0    0  0.53056907996E+01 -0.92908505596E+02 -0.54215741629E+03  0.56302291677E+03  0.12000000000E+03 0.  0.
<mgrwt>
<rscale>  0 0.32964160E+03</rscale>
<asrwt>0</asrwt>
<pdfrwt beam="1">  1        1 0.12243111E+00 0.32964160E+03</pdfrwt>
<pdfrwt beam="2">  1       -1 0.52517681E-02 0.32964160E+03</pdfrwt>
<totfact> 0.38058471E+03</totfact>
</mgrwt>
</event>
<event>
 4    1  0.1774755E-004  0.2657414E+03  0.7818608E-02  0.1103742E+00
         -1   -1    0    0    0  501 -0.00000000000E+00  0.00000000000E+00  0.14257796498E+02  0.14257796498E+02  0.00000000000E+00 0.  1.
          1   -1    0    0  501    0  0.00000000000E+00 -0.00000000000E+00 -0.12382438130E+04  0.12382438130E+04  0.00000000000E+00 0.  1.
         25    1    1    2    0    0 -0.22938975079E+02 -0.47662630768E+02 -0.71271795752E+03  0.72468255803E+03  0.12000000000E+03 0.  0.
         25    1    1    2    0    0  0.22938975079E+02  0.47662630768E+02 -0.51126805894E+03  0.52781905142E+03  0.12000000000E+03 0.  0.
<mgrwt>
<rscale>  0 0.26574144E+03</rscale>
<asrwt>0</asrwt>
<pdfrwt beam="1">  1        1 0.19049900E+00 0.26574144E+03</pdfrwt>
<pdfrwt beam="2">  1       -1 0.21935077E-02 0.26574144E+03</pdfrwt>
<totfact> 0.64393898E+03</totfact>
</mgrwt>
</event>
<event>
 4    1  0.1774755E-004  0.3025070E+03  0.7818608E-02  0.1083994E+00
         -2   -1    0    0    0  501 -0.00000000000E+00  0.00000000000E+00  0.23366692586E+02  0.23366692586E+02  0.00000000000E+00 0. -1.
          2   -1    0    0  501    0  0.00000000000E+00 -0.00000000000E+00 -0.97906970965E+03  0.97906970965E+03  0.00000000000E+00 0. -1.
         25    1    1    2    0    0 -0.65210967982E+01 -0.72813066438E+02 -0.66334390243E+03  0.67806297660E+03  0.12000000000E+03 0.  0.
         25    1    1    2    0    0  0.65210967982E+01  0.72813066438E+02 -0.29235911464E+03  0.32437342564E+03  0.12000000000E+03 0.  0.
<mgrwt>
<rscale>  0 0.30250700E+03</rscale>
<asrwt>0</asrwt>
<pdfrwt beam="1">  1        2 0.15062608E+00 0.30250700E+03</pdfrwt>
<pdfrwt beam="2">  1       -2 0.35948764E-02 0.30250700E+03</pdfrwt>
<totfact> 0.87442629E+03</totfact>
</mgrwt>
</event>
<event>
 4    1  0.1774755E-004  0.2909552E+03  0.7818608E-02  0.1089851E+00
         -1   -1    0    0    0  501 -0.00000000000E+00  0.00000000000E+00  0.35360076701E+03  0.35360076701E+03  0.00000000000E+00 0. -1.
          1   -1    0    0  501    0  0.00000000000E+00 -0.00000000000E+00 -0.59852067888E+02  0.59852067888E+02  0.00000000000E+00 0. -1.
         25    1    1    2    0    0 -0.76374922361E+02 -0.29974029591E+02  0.15493365528E+03  0.21245236820E+03  0.12000000000E+03 0.  0.
         25    1    1    2    0    0  0.76374922361E+02  0.29974029591E+02  0.13881504384E+03  0.20100046670E+03  0.12000000000E+03 0.  0.
<mgrwt>
<rscale>  0 0.29095523E+03</rscale>
<asrwt>0</asrwt>
<pdfrwt beam="1">  1        1 0.92080106E-02 0.29095523E+03</pdfrwt>
<pdfrwt beam="2">  1       -1 0.54400117E-01 0.29095523E+03</pdfrwt>
<totfact> 0.25133901E+03</totfact>
</mgrwt>
</event>
<event>
 4    1  0.1774755E-004  0.2804524E+03  0.7818608E-02  0.1095442E+00
         -1   -1    0    0    0  501 -0.00000000000E+00  0.00000000000E+00  0.16439708361E+02  0.16439708361E+02  0.00000000000E+00 0.  1.
          1   -1    0    0  501    0  0.00000000000E+00 -0.00000000000E+00 -0.11960910342E+04  0.11960910342E+04  0.00000000000E+00 0.  1.
         25    1    1    2    0    0  0.62979816517E+02 -0.31531818089E+02 -0.51460765635E+03  0.53308700304E+03  0.12000000000E+03 0.  0.
         25    1    1    2    0    0 -0.62979816517E+02  0.31531818089E+02 -0.66504366948E+03  0.67944373951E+03  0.12000000000E+03 0.  0.
<mgrwt>
<rscale>  0 0.28045240E+03</rscale>
<asrwt>0</asrwt>
<pdfrwt beam="1">  1        1 0.18401397E+00 0.28045240E+03</pdfrwt>
<pdfrwt beam="2">  1       -1 0.25291864E-02 0.28045240E+03</pdfrwt>
<totfact> 0.55958166E+03</totfact>
</mgrwt>
</event>
<event>
 4    1  0.1774755E-004  0.2485950E+03  0.7818608E-02  0.1114196E+00
         -2   -1    0    0    0  501 -0.00000000000E+00  0.00000000000E+00  0.11536207745E+04  0.11536207745E+04  0.00000000000E+00 0.  1.
          2   -1    0    0  501    0  0.00000000000E+00 -0.00000000000E+00 -0.13392497299E+02  0.13392497299E+02  0.00000000000E+00 0.  1.
         25    1    1    2    0    0  0.29640607545E+02  0.24393067570E+01  0.50974958398E+03  0.52452755333E+03  0.12000000000E+03 0.  0.
         25    1    1    2    0    0 -0.29640607545E+02 -0.24393067570E+01  0.63047869326E+03  0.64248571851E+03  0.12000000000E+03 0.  0.
<mgrwt>
<rscale>  0 0.24859496E+03</rscale>
<asrwt>0</asrwt>
<pdfrwt beam="1">  1        2 0.20603851E-02 0.24859496E+03</pdfrwt>
<pdfrwt beam="2">  1       -2 0.17748004E+00 0.24859496E+03</pdfrwt>
<totfact> 0.10598189E+03</totfact>
</mgrwt>
</event>
<event>
 4    1  0.1774755E-004  0.3240722E+03  0.7818608E-02  0.1073790E+00
          1   -1    0    0  501    0  0.00000000000E+00  0.00000000000E+00  0.19360605088E+04  0.19360605088E+04  0.00000000000E+00 0. -1.
         -1   -1    0    0    0  501 -0.00000000000E+00 -0.00000000000E+00 -0.13561405988E+02  0.13561405988E+02  0.00000000000E+00 0. -1.
         25    1    1    2    0    0 -0.98023773050E+02  0.47005287712E+02  0.92438685798E+03  0.93846109156E+03  0.12000000000E+03 0.  0.
         25    1    1    2    0    0  0.98023773050E+02 -0.47005287712E+02  0.99811224479E+03  0.10111608232E+04  0.12000000000E+03 0.  0.
<mgrwt>
<rscale>  0 0.32407223E+03</rscale>
<asrwt>0</asrwt>
<pdfrwt beam="1">  1        1 0.29785524E+00 0.32407223E+03</pdfrwt>
<pdfrwt beam="2">  1       -1 0.20863717E-02 0.32407223E+03</pdfrwt>
<totfact> 0.23881596E+03</totfact>
</mgrwt>
</event>
<event>
 4    1  0.1774755E-004  0.2657078E+03  0.7818608E-02  0.1103762E+00
          2   -1    0    0  501    0  0.00000000000E+00  0.00000000000E+00  0.41378263142E+03  0.41378263142E+03  0.00000000000E+00 0. -1.
         -2   -1    0    0    0  501 -0.00000000000E+00 -0.00000000000E+00 -0.42655630139E+02  0.42655630139E+02  0.00000000000E+00 0. -1.
         25    1    1    2    0    0 -0.30110480359E+00 -0.42166128072E+02  0.25147243780E+03  0.28180926173E+03  0.12000000000E+03 0.  0.
         25    1    1    2    0    0  0.30110480359E+00  0.42166128072E+02  0.11965456347E+03  0.17462899983E+03  0.12000000000E+03 0.  0.
<mgrwt>
<rscale>  0 0.26570780E+03</rscale>
<asrwt>0</asrwt>
<pdfrwt beam="1">  1        2 0.63658864E-01 0.26570780E+03</pdfrwt>
<pdfrwt beam="2">  1       -2 0.65624049E-02 0.26570780E+03</pdfrwt>
<totfact> 0.98233209E+03</totfact>
</mgrwt>
</event>
<event>
 4    1  0.1774755E-004  0.2475814E+03  0.7818608E-02  0.1114843E+00
          2   -1    0    0  501    0  0.00000000000E+00  0.00000000000E+00  0.11758551481E+04  0.11758551481E+04  0.00000000000E+00 0.  1.
         -2   -1    0    0    0  501 -0.00000000000E+00 -0.00000000000E+00 -0.13032333799E+02  0.13032333799E+02  0.00000000000E+00 0.  1.
         25    1    1    2    0    0  0.11397275777E+02  0.14772203651E+02  0.69666165475E+03  0.70716729074E+03  0.12000000000E+03 0.  0.
         25    1    1    2    0    0 -0.11397275777E+02 -0.14772203651E+02  0.46616115958E+03  0.48172019119E+03  0.12000000000E+03 0.  0.
<mgrwt>
<rscale>  0 0.24758140E+03</rscale>
<asrwt>0</asrwt>
<pdfrwt beam="1">  1        2 0.18090071E+00 0.24758140E+03</pdfrwt>
<pdfrwt beam="2">  1       -2 0.20049753E-02 0.24758140E+03</pdfrwt>
<totfact> 0.15793987E+04</totfact>
</mgrwt>
</event>
<event>
 4    1  0.1774755E-004  0.2630341E+03  0.7818608E-02  0.1105334E+00
         -1   -1    0    0    0  501 -0.00000000000E+00  0.00000000000E+00  0.18348334561E+02  0.18348334561E+02  0.00000000000E+00 0.  1.
          1   -1    0    0  501    0  0.00000000000E+00 -0.00000000000E+00 -0.94268670549E+03  0.94268670549E+03  0.00000000000E+00 0.  1.
         25    1    1    2    0    0 -0.51367984476E+02  0.14195961410E+02 -0.43469724089E+03  0.45409457868E+03  0.12000000000E+03 0.  0.
         25    1    1    2    0    0  0.51367984476E+02 -0.14195961410E+02 -0.48964113004E+03  0.50694046137E+03  0.12000000000E+03 0.  0.
<mgrwt>
<rscale>  0 0.26303407E+03</rscale>
<asrwt>0</asrwt>
<pdfrwt beam="1">  1        1 0.14502875E+00 0.26303407E+03</pdfrwt>
<pdfrwt beam="2">  1       -1 0.28228202E-02 0.26303407E+03</pdfrwt>
<totfact> 0.72805976E+03</totfact>
</mgrwt>
</event>
<event>
 4    1  0.1774755E-004  0.2455779E+03  0.7818608E-02  0.1116132E+00
          1   -1    0    0  501    0  0.00000000000E+00  0.00000000000E+00  0.25422891206E+04  0.25422891206E+04  0.00000000000E+00 0. -1.
         -1   -1    0    0    0  501 -0.00000000000E+00 -0.00000000000E+00 -0.59305296515E+01  0.59305296515E+01  0.00000000000E+00 0. -1.
         25    1    1    2    0    0  0.24017660915E+02  0.92753076610E+01  0.12290206442E+04  0.12351334435E+04  0.12000000000E+03 0.  0.
         25    1    1    2    0    0 -0.24017660915E+02 -0.92753076610E+01  0.13073379468E+04  0.13130862068E+04  0.12000000000E+03 0.  0.
<mgrwt>
<rscale>  0 0.24557786E+03</rscale>
<asrwt>0</asrwt>
<pdfrwt beam="1">  1        1 0.39112053E+00 0.24557786E+03</pdfrwt>
<pdfrwt beam="2">  1       -1 0.91239121E-03 0.24557786E+03</pdfrwt>
<totfact> 0.31945959E+03</totfact>
</mgrwt>
</event>
<event>
 4    1  0.1774755E-004  0.2839514E+03  0.7818608E-02  0.1093550E+00
          1   -1    0    0  501    0  0.00000000000E+00  0.00000000000E+00  0.81042909252E+03  0.81042909252E+03  0.00000000000E+00 0.  1.
         -1   -1    0    0    0  501 -0.00000000000E+00 -0.00000000000E+00 -0.24872132660E+02  0.24872132660E+02  0.00000000000E+00 0.  1.
         25    1    1    2    0    0  0.19878494833E+02 -0.61233576510E+02  0.27465540437E+03  0.30656205994E+03  0.12000000000E+03 0.  0.
         25    1    1    2    0    0 -0.19878494833E+02  0.61233576510E+02  0.51090155549E+03  0.52873916523E+03  0.12000000000E+03 0.  0.
<mgrwt>
<rscale>  0 0.28395140E+03</rscale>
<asrwt>0</asrwt>
<pdfrwt beam="1">  1        1 0.12468138E+00 0.28395140E+03</pdfrwt>
<pdfrwt beam="2">  1       -1 0.38264826E-02 0.28395140E+03</pdfrwt>
<totfact> 0.59290235E+03</totfact>
</mgrwt>
</event>
<event>
 4    1  0.1774755E-004  0.4019546E+03  0.7818608E-02  0.1043105E+00
         -1   -1    0    0    0  501 -0.00000000000E+00  0.00000000000E+00  0.15826026356E+03  0.15826026356E+03  0.00000000000E+00 0.  1.
          1   -1    0    0  501    0  0.00000000000E+00 -0.00000000000E+00 -0.25522441569E+03  0.25522441569E+03  0.00000000000E+00 0.  1.
         25    1    1    2    0    0 -0.10817417899E+03 -0.11564791127E+03 -0.17351974312E+02  0.19944218058E+03  0.12000000000E+03 0.  0.
         25    1    1    2    0    0  0.10817417899E+03  0.11564791127E+03 -0.79612177818E+02  0.21404249868E+03  0.12000000000E+03 0.  0.
<mgrwt>
<rscale>  0 0.40195464E+03</rscale>
<asrwt>0</asrwt>
<pdfrwt beam="1">  1        1 0.39265295E-01 0.40195464E+03</pdfrwt>
<pdfrwt beam="2">  1       -1 0.24347733E-01 0.40195464E+03</pdfrwt>
<totfact> 0.15735978E+03</totfact>
</mgrwt>
</event>
<event>
 4    1  0.1774755E-004  0.2438140E+03  0.7818608E-02  0.1117278E+00
         -2   -1    0    0    0  501 -0.00000000000E+00  0.00000000000E+00  0.76586000654E+01  0.76586000654E+01  0.00000000000E+00 0. -1.
          2   -1    0    0  501    0  0.00000000000E+00 -0.00000000000E+00 -0.19404745149E+04  0.19404745149E+04  0.00000000000E+00 0. -1.
         25    1    1    2    0    0 -0.17017318590E+02 -0.13074955792E+02 -0.97344048596E+03  0.98104379275E+03  0.12000000000E+03 0.  0.
         25    1    1    2    0    0  0.17017318590E+02  0.13074955792E+02 -0.95937542886E+03  0.96708932220E+03  0.12000000000E+03 0.  0.
<mgrwt>
<rscale>  0 0.24381401E+03</rscale>
<asrwt>0</asrwt>
<pdfrwt beam="1">  1        2 0.29853467E+00 0.24381401E+03</pdfrwt>
<pdfrwt beam="2">  1       -2 0.11782457E-02 0.24381401E+03</pdfrwt>
<totfact> 0.13366663E+04</totfact>
</mgrwt>
</event>
<event>
 4    1  0.1774755E-004  0.3220112E+03  0.7818608E-02  0.1074727E+00
          4   -1    0    0  501    0  0.00000000000E+00  0.00000000000E+00  0.26020871872E+03  0.26020871872E+03  0.00000000000E+00 0.  1.
         -4   -1    0    0    0  501 -0.00000000000E+00 -0.00000000000E+00 -0.99623093702E+02  0.99623093702E+02  0.00000000000E+00 0.  1.
         25    1    1    2    0    0 -0.66618243459E+02 -0.50916231985E+02  0.15518993872E+03  0.21334097150E+03  0.12000000000E+03 0.  0.
         25    1    1    2    0    0  0.66618243459E+02  0.50916231985E+02  0.53956862896E+01  0.14649084091E+03  0.12000000000E+03 0.  0.
<mgrwt>
<rscale>  0 0.32201116E+03</rscale>
<asrwt>0</asrwt>
<pdfrwt beam="1">  1        4 0.40032110E-01 0.32201116E+03</pdfrwt>
<pdfrwt beam="2">  1       -4 0.15326630E-01 0.32201116E+03</pdfrwt>
<totfact> 0.42068104E+02</totfact>
</mgrwt>
</event>
<event>
 4    1  0.1774755E-004  0.4399783E+03  0.7818608E-02  0.1030753E+00
         -2   -1    0    0    0  501 -0.00000000000E+00  0.00000000000E+00  0.53552745535E+03  0.53552745535E+03  0.00000000000E+00 0. -1.
          2   -1    0    0  501    0  0.00000000000E+00 -0.00000000000E+00 -0.90369291830E+02  0.90369291830E+02  0.00000000000E+00 0. -1.
         25    1    1    2    0    0  0.10370368857E+03 -0.62578051559E+02  0.24823592142E+02  0.17229822485E+03  0.12000000000E+03 0.  0.
         25    1    1    2    0    0 -0.10370368857E+03  0.62578051559E+02  0.42033457138E+03  0.45359852233E+03  0.12000000000E+03 0.  0.
<mgrwt>
<rscale>  0 0.43997835E+03</rscale>
<asrwt>0</asrwt>
<pdfrwt beam="1">  1        2 0.13902968E-01 0.43997835E+03</pdfrwt>
<pdfrwt beam="2">  1       -2 0.82388837E-01 0.43997835E+03</pdfrwt>
<totfact> 0.57310531E+02</totfact>
</mgrwt>
</event>
<event>
 4    1  0.1774755E-004  0.3129798E+03  0.7818608E-02  0.1078926E+00
         -2   -1    0    0    0  501 -0.00000000000E+00  0.00000000000E+00  0.17638063729E+02  0.17638063729E+02  0.00000000000E+00 0. -1.
          2   -1    0    0  501    0  0.00000000000E+00 -0.00000000000E+00 -0.13884228148E+04  0.13884228148E+04  0.00000000000E+00 0. -1.
         25    1    1    2    0    0 -0.76084428546E+02 -0.59910161634E+02 -0.80518482153E+03  0.81981745807E+03  0.12000000000E+03 0.  0.
         25    1    1    2    0    0  0.76084428546E+02  0.59910161634E+02 -0.56559992950E+03  0.58624342042E+03  0.12000000000E+03 0.  0.
<mgrwt>
<rscale>  0 0.31297981E+03</rscale>
<asrwt>0</asrwt>
<pdfrwt beam="1">  1        2 0.21360351E+00 0.31297981E+03</pdfrwt>
<pdfrwt beam="2">  1       -2 0.27135483E-02 0.31297981E+03</pdfrwt>
<totfact> 0.77332335E+03</totfact>
</mgrwt>
</event>
<event>
 4    1  0.1774755E-004  0.2520730E+03  0.7818608E-02  0.1112002E+00
          2   -1    0    0  501    0  0.00000000000E+00  0.00000000000E+00  0.53656675934E+03  0.53656675934E+03  0.00000000000E+00 0. -1.
         -2   -1    0    0    0  501 -0.00000000000E+00 -0.00000000000E+00 -0.29605273361E+02  0.29605273361E+02  0.00000000000E+00 0. -1.
         25    1    1    2    0    0  0.34111251966E+02 -0.16333177163E+02  0.27011608331E+03  0.29798162469E+03  0.12000000000E+03 0.  0.
         25    1    1    2    0    0 -0.34111251966E+02  0.16333177163E+02  0.23684540267E+03  0.26819040802E+03  0.12000000000E+03 0.  0.
<mgrwt>
<rscale>  0 0.25207305E+03</rscale>
<asrwt>0</asrwt>
<pdfrwt beam="1">  1        2 0.82548725E-01 0.25207305E+03</pdfrwt>
<pdfrwt beam="2">  1       -2 0.45546578E-02 0.25207305E+03</pdfrwt>
<totfact> 0.12827845E+04</totfact>
</mgrwt>
</event>
<event>
 4    1  0.1774755E-004  0.3425896E+03  0.7818608E-02  0.1065698E+00
          2   -1    0    0  501    0  0.00000000000E+00  0.00000000000E+00  0.75565673553E+03  0.75565673553E+03  0.00000000000E+00 0.  1.
         -2   -1    0    0    0  501 -0.00000000000E+00 -0.00000000000E+00 -0.38829674971E+02  0.38829674971E+02  0.00000000000E+00 0.  1.
         25    1    1    2    0    0  0.97221623954E+02 -0.25624755889E+02  0.19718897272E+03  0.25177800389E+03  0.12000000000E+03 0.  0.
         25    1    1    2    0    0 -0.97221623954E+02  0.25624755889E+02  0.51963808783E+03  0.54270840661E+03  0.12000000000E+03 0.  0.
<mgrwt>
<rscale>  0 0.34258958E+03</rscale>
<asrwt>0</asrwt>
<pdfrwt beam="1">  1        2 0.11625487E+00 0.34258958E+03</pdfrwt>
<pdfrwt beam="2">  1       -2 0.59737967E-02 0.34258958E+03</pdfrwt>
<totfact> 0.57051135E+03</totfact>
</mgrwt>
</event>
<event>
 4    1  0.1774755E-004  0.2516872E+03  0.7818608E-02  0.1112243E+00
          2   -1    0    0  501    0  0.00000000000E+00  0.00000000000E+00  0.67904096725E+02  0.67904096725E+02  0.00000000000E+00 0.  1.
         -2   -1    0    0    0  501 -0.00000000000E+00 -0.00000000000E+00 -0.23322021472E+03  0.23322021472E+03  0.00000000000E+00 0.  1.
         25    1    1    2    0    0  0.14123214319E+02 -0.34111279374E+02 -0.72396442026E+02  0.14492856648E+03  0.12000000000E+03 0.  0.
         25    1    1    2    0    0 -0.14123214319E+02  0.34111279374E+02 -0.92919675965E+02  0.15619574496E+03  0.12000000000E+03 0.  0.
<mgrwt>
<rscale>  0 0.25168717E+03</rscale>
<asrwt>0</asrwt>
<pdfrwt beam="1">  1        2 0.10446784E-01 0.25168717E+03</pdfrwt>
<pdfrwt beam="2">  1       -2 0.35880033E-01 0.25168717E+03</pdfrwt>
<totfact> 0.44017097E+03</totfact>
</mgrwt>
</event>
<event>
 4    1  0.1774755E-004  0.3499253E+03  0.7818608E-02  0.1062646E+00
         -1   -1    0    0    0  501 -0.00000000000E+00  0.00000000000E+00  0.10552699291E+03  0.10552699291E+03  0.00000000000E+00 0. -1.
          1   -1    0    0  501    0  0.00000000000E+00 -0.00000000000E+00 -0.29008621585E+03  0.29008621585E+03  0.00000000000E+00 0. -1.
         25    1    1    2    0    0 -0.10286790472E+03  0.74401862528E+02 -0.81290249818E+02  0.19267990992E+03  0.12000000000E+03 0.  0.
         25    1    1    2    0    0  0.10286790472E+03 -0.74401862528E+02 -0.10326897312E+03  0.20293329884E+03  0.12000000000E+03 0.  0.
<mgrwt>
<rscale>  0 0.34992528E+03</rscale>
<asrwt>0</asrwt>
<pdfrwt beam="1">  1        1 0.44628649E-01 0.34992528E+03</pdfrwt>
<pdfrwt beam="2">  1       -1 0.16234922E-01 0.34992528E+03</pdfrwt>
<totfact> 0.25960141E+03</totfact>
</mgrwt>
</event>
<event>
 4    1  0.1774755E-004  0.2925393E+03  0.7818608E-02  0.1089031E+00
          1   -1    0    0  501    0  0.00000000000E+00  0.00000000000E+00  0.89555765910E+03  0.89555765910E+03  0.00000000000E+00 0. -1.
         -1   -1    0    0    0  501 -0.00000000000E+00 -0.00000000000E+00 -0.23889937100E+02  0.23889937100E+02  0.00000000000E+00 0. -1.
         25    1    1    2    0    0  0.19686212166E+02  0.45799650574E+02  0.64689810407E+03  0.65981990876E+03  0.12000000000E+03 0.  0.
         25    1    1    2    0    0 -0.19686212166E+02 -0.45799650574E+02  0.22476961792E+03  0.25962768744E+03  0.12000000000E+03 0.  0.
<mgrwt>
<rscale>  0 0.29253934E+03</rscale>
<asrwt>0</asrwt>
<pdfrwt beam="1">  1        1 0.13777808E+00 0.29253934E+03</pdfrwt>
<pdfrwt beam="2">  1       -1 0.36753756E-02 0.29253934E+03</pdfrwt>
<totfact> 0.53747855E+03</totfact>
</mgrwt>
</event>
<event>
 4    1  0.1774755E-004  0.2795203E+03  0.7818608E-02  0.1095951E+00
         -2   -1    0    0    0  501 -0.00000000000E+00  0.00000000000E+00  0.10186914613E+02  0.10186914613E+02  0.00000000000E+00 0.  1.
          2   -1    0    0  501    0  0.00000000000E+00 -0.00000000000E+00 -0.19174505915E+04  0.19174505915E+04  0.00000000000E+00 0.  1.
         25    1    1    2    0    0  0.51974267721E+02 -0.45869975244E+02 -0.10784377186E+04  0.10873055192E+04  0.12000000000E+03 0.  0.
         25    1    1    2    0    0 -0.51974267721E+02  0.45869975244E+02 -0.82882595820E+03  0.84033198684E+03  0.12000000000E+03 0.  0.
<mgrwt>
<rscale>  0 0.27952034E+03</rscale>
<asrwt>0</asrwt>
<pdfrwt beam="1">  1        2 0.29499240E+00 0.27952034E+03</pdfrwt>
<pdfrwt beam="2">  1       -2 0.15672176E-02 0.27952034E+03</pdfrwt>
<totfact> 0.90861048E+03</totfact>
</mgrwt>
</event>
<event>
 4    1  0.1774755E-004  0.2547394E+03  0.7818608E-02  0.1110346E+00
          4   -1    0    0  501    0  0.00000000000E+00  0.00000000000E+00  0.37803708048E+02  0.37803708048E+02  0.00000000000E+00 0. -1.
         -4   -1    0    0    0  501 -0.00000000000E+00 -0.00000000000E+00 -0.42913899730E+03  0.42913899730E+03  0.00000000000E+00 0. -1.
         25    1    1    2    0    0  0.37993265787E+02 -0.40427933314E+01 -0.16073366472E+03  0.20419388678E+03  0.12000000000E+03 0.  0.
         25    1    1    2    0    0 -0.37993265787E+02  0.40427933314E+01 -0.23060162453E+03  0.26274881857E+03  0.12000000000E+03 0.  0.
<mgrwt>
<rscale>  0 0.25473944E+03</rscale>
<asrwt>0</asrwt>
<pdfrwt beam="1">  1        4 0.58159553E-02 0.25473944E+03</pdfrwt>
<pdfrwt beam="2">  1       -4 0.66021381E-01 0.25473944E+03</pdfrwt>
<totfact> 0.74958358E+02</totfact>
</mgrwt>
</event>
<event>
 4    1  0.1774755E-004  0.3017828E+03  0.7818608E-02  0.1084353E+00
         -3   -1    0    0    0  501 -0.00000000000E+00  0.00000000000E+00  0.78905278658E+03  0.78905278658E+03  0.00000000000E+00 0.  1.
          3   -1    0    0  501    0  0.00000000000E+00 -0.00000000000E+00 -0.28855123402E+02  0.28855123402E+02  0.00000000000E+00 0.  1.
         25    1    1    2    0    0 -0.26855467534E+02  0.74251990218E+02  0.50528911549E+03  0.52531101685E+03  0.12000000000E+03 0.  0.
         25    1    1    2    0    0  0.26855467534E+02 -0.74251990218E+02  0.25490854769E+03  0.29259689314E+03  0.12000000000E+03 0.  0.
<mgrwt>
<rscale>  0 0.30178281E+03</rscale>
<asrwt>0</asrwt>
<pdfrwt beam="1">  1        3 0.44392504E-02 0.30178281E+03</pdfrwt>
<pdfrwt beam="2">  1       -3 0.12139272E+00 0.30178281E+03</pdfrwt>
<totfact> 0.40451488E+02</totfact>
</mgrwt>
</event>
<event>
 4    1  0.1774755E-004  0.3038778E+03  0.7818608E-02  0.1083318E+00
          4   -1    0    0  501    0  0.00000000000E+00  0.00000000000E+00  0.22710712311E+03  0.22710712311E+03  0.00000000000E+00 0. -1.
         -4   -1    0    0    0  501 -0.00000000000E+00 -0.00000000000E+00 -0.10164992718E+03  0.10164992718E+03  0.00000000000E+00 0. -1.
         25    1    1    2    0    0 -0.31977195806E+02  0.85463041489E+02  0.83225732573E+02  0.17220045027E+03  0.12000000000E+03 0.  0.
         25    1    1    2    0    0  0.31977195806E+02 -0.85463041489E+02  0.42231463358E+02  0.15655660002E+03  0.12000000000E+03 0.  0.
<mgrwt>
<rscale>  0 0.30387776E+03</rscale>
<asrwt>0</asrwt>
<pdfrwt beam="1">  1        4 0.34939557E-01 0.30387776E+03</pdfrwt>
<pdfrwt beam="2">  1       -4 0.15638450E-01 0.30387776E+03</pdfrwt>
<totfact> 0.52710271E+02</totfact>
</mgrwt>
</event>
<event>
 4    1  0.1774755E-004  0.2964199E+03  0.7818608E-02  0.1087044E+00
          1   -1    0    0  501    0  0.00000000000E+00  0.00000000000E+00  0.16783164866E+02  0.16783164866E+02  0.00000000000E+00 0.  1.
         -1   -1    0    0    0  501 -0.00000000000E+00 -0.00000000000E+00 -0.13088231780E+04  0.13088231780E+04  0.00000000000E+00 0.  1.
         25    1    1    2    0    0  0.32950902189E+02 -0.74042806010E+02 -0.50473589074E+03  0.52509658014E+03  0.12000000000E+03 0.  0.
         25    1    1    2    0    0 -0.32950902189E+02  0.74042806010E+02 -0.78730412242E+03  0.80050976275E+03  0.12000000000E+03 0.  0.
<mgrwt>
<rscale>  0 0.29641994E+03</rscale>
<asrwt>0</asrwt>
<pdfrwt beam="1">  1        1 0.25820256E-02 0.29641994E+03</pdfrwt>
<pdfrwt beam="2">  1       -1 0.20135739E+00 0.29641994E+03</pdfrwt>
<totfact> 0.68937759E+02</totfact>
</mgrwt>
</event>
<event>
 4    1  0.1774755E-004  0.2749857E+03  0.7818608E-02  0.1098460E+00
         -2   -1    0    0    0  501 -0.00000000000E+00  0.00000000000E+00  0.14673260047E+02  0.14673260047E+02  0.00000000000E+00 0.  1.
          2   -1    0    0  501    0  0.00000000000E+00 -0.00000000000E+00 -0.12883490464E+04  0.12883490464E+04  0.00000000000E+00 0.  1.
         25    1    1    2    0    0 -0.20729328604E+02  0.59645281827E+02 -0.52909373831E+03  0.54619359995E+03  0.12000000000E+03 0.  0.
         25    1    1    2    0    0  0.20729328604E+02 -0.59645281827E+02 -0.74458204800E+03  0.75682870646E+03  0.12000000000E+03 0.  0.
<mgrwt>
<rscale>  0 0.27498568E+03</rscale>
<asrwt>0</asrwt>
<pdfrwt beam="1">  1        2 0.19820754E+00 0.27498568E+03</pdfrwt>
<pdfrwt beam="2">  1       -2 0.22574247E-02 0.27498568E+03</pdfrwt>
<totfact> 0.11504662E+04</totfact>
</mgrwt>
</event>
<event>
 4    1  0.1774755E-004  0.2535581E+03  0.7818608E-02  0.1111077E+00
          2   -1    0    0  501    0  0.00000000000E+00  0.00000000000E+00  0.31557198849E+04  0.31557198849E+04  0.00000000000E+00 0. -1.
         -2   -1    0    0    0  501 -0.00000000000E+00 -0.00000000000E+00 -0.50932685879E+01  0.50932685879E+01  0.00000000000E+00 0. -1.
         25    1    1    2    0    0 -0.22990590183E+02 -0.31937777294E+02  0.17143171914E+04  0.17189624841E+04  0.12000000000E+03 0.  0.
         25    1    1    2    0    0  0.22990590183E+02  0.31937777294E+02  0.14363094249E+04  0.14418506694E+04  0.12000000000E+03 0.  0.
<mgrwt>
<rscale>  0 0.25355811E+03</rscale>
<asrwt>0</asrwt>
<pdfrwt beam="1">  1        2 0.48549380E+00 0.25355811E+03</pdfrwt>
<pdfrwt beam="2">  1       -2 0.78358231E-03 0.25355811E+03</pdfrwt>
<totfact> 0.51070287E+03</totfact>
</mgrwt>
</event>
<event>
 4    1  0.1774755E-004  0.2850502E+03  0.7818608E-02  0.1092962E+00
          1   -1    0    0  501    0  0.00000000000E+00  0.00000000000E+00  0.29343735343E+03  0.29343735343E+03  0.00000000000E+00 0. -1.
         -1   -1    0    0    0  501 -0.00000000000E+00 -0.00000000000E+00 -0.69225690655E+02  0.69225690655E+02  0.00000000000E+00 0. -1.
         25    1    1    2    0    0 -0.40390931179E+02 -0.64797394897E+02  0.12371593287E+03  0.18850931476E+03  0.12000000000E+03 0.  0.
         25    1    1    2    0    0  0.40390931179E+02  0.64797394897E+02  0.10049572990E+03  0.17415372932E+03  0.12000000000E+03 0.  0.
<mgrwt>
<rscale>  0 0.28505020E+03</rscale>
<asrwt>0</asrwt>
<pdfrwt beam="1">  1        1 0.45144208E-01 0.28505020E+03</pdfrwt>
<pdfrwt beam="2">  1       -1 0.10650106E-01 0.28505020E+03</pdfrwt>
<totfact> 0.49552664E+03</totfact>
</mgrwt>
</event>
<event>
 4    1  0.1774755E-004  0.3641232E+03  0.7818608E-02  0.1056963E+00
          2   -1    0    0  501    0  0.00000000000E+00  0.00000000000E+00  0.95760982434E+03  0.95760982434E+03  0.00000000000E+00 0. -1.
         -2   -1    0    0    0  501 -0.00000000000E+00 -0.00000000000E+00 -0.34613706188E+02  0.34613706188E+02  0.00000000000E+00 0. -1.
         25    1    1    2    0    0  0.77287271411E+01  0.77222794626E+02  0.15412796778E+03  0.21018687800E+03  0.12000000000E+03 0.  0.
         25    1    1    2    0    0 -0.77287271411E+01 -0.77222794626E+02  0.76886815038E+03  0.78203665253E+03  0.12000000000E+03 0.  0.
<mgrwt>
<rscale>  0 0.36412319E+03</rscale>
<asrwt>0</asrwt>
<pdfrwt beam="1">  1        2 0.14732457E+00 0.36412319E+03</pdfrwt>
<pdfrwt beam="2">  1       -2 0.53251863E-02 0.36412319E+03</pdfrwt>
<totfact> 0.49836641E+03</totfact>
</mgrwt>
</event>
<event>
 4    1  0.1774755E-004  0.2946049E+03  0.7818608E-02  0.1087969E+00
          2   -1    0    0  501    0  0.00000000000E+00  0.00000000000E+00  0.14686003318E+03  0.14686003318E+03  0.00000000000E+00 0. -1.
         -2   -1    0    0    0  501 -0.00000000000E+00 -0.00000000000E+00 -0.14774623048E+03  0.14774623048E+03  0.00000000000E+00 0. -1.
         25    1    1    2    0    0  0.47338722841E+02 -0.16695577306E+02 -0.69568799840E+02  0.14751106702E+03  0.12000000000E+03 0.  0.
         25    1    1    2    0    0 -0.47338722841E+02  0.16695577306E+02  0.68682602546E+02  0.14709519664E+03  0.12000000000E+03 0.  0.
<mgrwt>
<rscale>  0 0.29460493E+03</rscale>
<asrwt>0</asrwt>
<pdfrwt beam="1">  1        2 0.22593851E-01 0.29460493E+03</pdfrwt>
<pdfrwt beam="2">  1       -2 0.22730189E-01 0.29460493E+03</pdfrwt>
<totfact> 0.40481671E+03</totfact>
</mgrwt>
</event>
<event>
 4    1  0.1774755E-004  0.6057435E+03  0.7818608E-02  0.9893561E-01
          1   -1    0    0  501    0  0.00000000000E+00  0.00000000000E+00  0.11352865268E+04  0.11352865268E+04  0.00000000000E+00 0.  1.
         -1   -1    0    0    0  501 -0.00000000000E+00 -0.00000000000E+00 -0.80800118384E+02  0.80800118384E+02  0.00000000000E+00 0.  1.
         25    1    1    2    0    0 -0.83180224498E+02 -0.24289531417E+03  0.31275739330E+03  0.42205955795E+03  0.12000000000E+03 0.  0.
         25    1    1    2    0    0  0.83180224498E+02  0.24289531417E+03  0.74172901515E+03  0.79402708726E+03  0.12000000000E+03 0.  0.
<mgrwt>
<rscale>  0 0.60574346E+03</rscale>
<asrwt>0</asrwt>
<pdfrwt beam="1">  1        1 0.17465945E+00 0.60574346E+03</pdfrwt>
<pdfrwt beam="2">  1       -1 0.12430788E-01 0.60574346E+03</pdfrwt>
<totfact> 0.54110450E+02</totfact>
</mgrwt>
</event>
<event>
 4    1  0.1774755E-004  0.3165343E+03  0.7818608E-02  0.1077255E+00
         -3   -1    0    0    0  501 -0.00000000000E+00  0.00000000000E+00  0.40536433906E+03  0.40536433906E+03  0.00000000000E+00 0.  1.
          3   -1    0    0  501    0  0.00000000000E+00 -0.00000000000E+00 -0.61792533638E+02  0.61792533638E+02  0.00000000000E+00 0.  1.
         25    1    1    2    0    0  0.95691562681E+02 -0.16370698894E+02  0.22341140638E+03  0.27154655485E+03  0.12000000000E+03 0.  0.
         25    1    1    2    0    0 -0.95691562681E+02  0.16370698894E+02  0.12016039904E+03  0.19561031785E+03  0.12000000000E+03 0.  0.
<mgrwt>
<rscale>  0 0.31653429E+03</rscale>
<asrwt>0</asrwt>
<pdfrwt beam="1">  1        3 0.95065439E-02 0.31653429E+03</pdfrwt>
<pdfrwt beam="2">  1       -3 0.62363743E-01 0.31653429E+03</pdfrwt>
<totfact> 0.52401833E+02</totfact>
</mgrwt>
</event>
<event>
 4    1  0.1774755E-004  0.2755817E+03  0.7818608E-02  0.1098127E+00
         -1   -1    0    0    0  501 -0.00000000000E+00  0.00000000000E+00  0.42345867546E+02  0.42345867546E+02  0.00000000000E+00 0.  1.
          1   -1    0    0  501    0  0.00000000000E+00 -0.00000000000E+00 -0.44836297249E+03  0.44836297249E+03  0.00000000000E+00 0.  1.
         25    1    1    2    0    0 -0.50689478559E+02 -0.12015999780E+02 -0.28006087830E+03  0.30910823839E+03  0.12000000000E+03 0.  0.
         25    1    1    2    0    0  0.50689478559E+02  0.12015999780E+02 -0.12595622664E+03  0.18160060164E+03  0.12000000000E+03 0.  0.
<mgrwt>
<rscale>  0 0.27558171E+03</rscale>
<asrwt>0</asrwt>
<pdfrwt beam="1">  1        1 0.68978920E-01 0.27558171E+03</pdfrwt>
<pdfrwt beam="2">  1       -1 0.65147488E-02 0.27558171E+03</pdfrwt>
<totfact> 0.61219903E+03</totfact>
</mgrwt>
</event>
<event>
 4    1  0.1774755E-004  0.2470134E+03  0.7818608E-02  0.1115207E+00
         -2   -1    0    0    0  501 -0.00000000000E+00  0.00000000000E+00  0.26457462105E+03  0.26457462105E+03  0.00000000000E+00 0.  1.
          2   -1    0    0  501    0  0.00000000000E+00 -0.00000000000E+00 -0.57654437343E+02  0.57654437343E+02  0.00000000000E+00 0.  1.
         25    1    1    2    0    0 -0.28685390861E+02 -0.45197670126E+01  0.99208747123E+02  0.15838451770E+03  0.12000000000E+03 0.  0.
         25    1    1    2    0    0  0.28685390861E+02  0.45197670126E+01  0.10771143659E+03  0.16384454069E+03  0.12000000000E+03 0.  0.
<mgrwt>
<rscale>  0 0.24701337E+03</rscale>
<asrwt>0</asrwt>
<pdfrwt beam="1">  1        2 0.88699136E-02 0.24701337E+03</pdfrwt>
<pdfrwt beam="2">  1       -2 0.40703787E-01 0.24701337E+03</pdfrwt>
<totfact> 0.42479143E+03</totfact>
</mgrwt>
</event>
<event>
 4    1  0.1774755E-004  0.3249376E+03  0.7818608E-02  0.1073399E+00
         -1   -1    0    0    0  501 -0.00000000000E+00  0.00000000000E+00  0.57893439185E+02  0.57893439185E+02  0.00000000000E+00 0.  1.
          1   -1    0    0  501    0  0.00000000000E+00 -0.00000000000E+00 -0.45594306301E+03  0.45594306301E+03  0.00000000000E+00 0.  1.
         25    1    1    2    0    0 -0.10000151313E+03 -0.35392086023E+02 -0.15591455270E+03  0.22352237053E+03  0.12000000000E+03 0.  0.
         25    1    1    2    0    0  0.10000151313E+03  0.35392086023E+02 -0.24213507112E+03  0.29031413167E+03  0.12000000000E+03 0.  0.
<mgrwt>
<rscale>  0 0.32493761E+03</rscale>
<asrwt>0</asrwt>
<pdfrwt beam="1">  1        1 0.70145082E-01 0.32493761E+03</pdfrwt>
<pdfrwt beam="2">  1       -1 0.89066835E-02 0.32493761E+03</pdfrwt>
<totfact> 0.37291944E+03</totfact>
</mgrwt>
</event>
<event>
 4    1  0.1774755E-004  0.3361290E+03  0.7818608E-02  0.1068457E+00
          2   -1    0    0  501    0  0.00000000000E+00  0.00000000000E+00  0.16223894072E+04  0.16223894072E+04  0.00000000000E+00 0.  1.
         -2   -1    0    0    0  501 -0.00000000000E+00 -0.00000000000E+00 -0.17409925292E+02  0.17409925292E+02  0.00000000000E+00 0.  1.
         25    1    1    2    0    0 -0.72644505017E+02  0.85022285850E+02  0.62393029138E+03  0.64513178630E+03  0.12000000000E+03 0.  0.
         25    1    1    2    0    0  0.72644505017E+02 -0.85022285850E+02  0.98104919049E+03  0.99466754615E+03  0.12000000000E+03 0.  0.
<mgrwt>
<rscale>  0 0.33612901E+03</rscale>
<asrwt>0</asrwt>
<pdfrwt beam="1">  1        2 0.24959825E+00 0.33612901E+03</pdfrwt>
<pdfrwt beam="2">  1       -2 0.26784513E-02 0.33612901E+03</pdfrwt>
<totfact> 0.59007692E+03</totfact>
</mgrwt>
</event>
<event>
 4    1  0.1774755E-004  0.4815425E+03  0.7818608E-02  0.1018712E+00
         -2   -1    0    0    0  501 -0.00000000000E+00  0.00000000000E+00  0.28408931057E+03  0.28408931057E+03  0.00000000000E+00 0.  1.
          2   -1    0    0  501    0  0.00000000000E+00 -0.00000000000E+00 -0.20405830559E+03  0.20405830559E+03  0.00000000000E+00 0.  1.
         25    1    1    2    0    0  0.92827554751E+02  0.16275992318E+03  0.13327212502E+03  0.25936307915E+03  0.12000000000E+03 0.  0.
         25    1    1    2    0    0 -0.92827554751E+02 -0.16275992318E+03 -0.53241120046E+02  0.22878453702E+03  0.12000000000E+03 0.  0.
<mgrwt>
<rscale>  0 0.48154245E+03</rscale>
<asrwt>0</asrwt>
<pdfrwt beam="1">  1        2 0.31393586E-01 0.48154245E+03</pdfrwt>
<pdfrwt beam="2">  1       -2 0.43706048E-01 0.48154245E+03</pdfrwt>
<totfact> 0.84199118E+02</totfact>
</mgrwt>
</event>
<event>
 4    1  0.1774755E-004  0.4139239E+03  0.7818608E-02  0.1039062E+00
         -3   -1    0    0    0  501 -0.00000000000E+00  0.00000000000E+00  0.91884466453E+03  0.91884466453E+03  0.00000000000E+00 0. -1.
          3   -1    0    0  501    0  0.00000000000E+00 -0.00000000000E+00 -0.46616409540E+02  0.46616409540E+02  0.00000000000E+00 0. -1.
         25    1    1    2    0    0  0.84329535559E+02  0.14595040838E+03  0.44660939955E+03  0.49221229976E+03  0.12000000000E+03 0.  0.
         25    1    1    2    0    0 -0.84329535559E+02 -0.14595040838E+03  0.42561885544E+03  0.47324877431E+03  0.12000000000E+03 0.  0.
<mgrwt>
<rscale>  0 0.41392385E+03</rscale>
<asrwt>0</asrwt>
<pdfrwt beam="1">  1        3 0.71717560E-02 0.41392385E+03</pdfrwt>
<pdfrwt beam="2">  1       -3 0.14136070E+00 0.41392385E+03</pdfrwt>
<totfact> 0.13088784E+02</totfact>
</mgrwt>
</event>
<event>
 4    1  0.1774755E-004  0.2519096E+03  0.7818608E-02  0.1112104E+00
          2   -1    0    0  501    0  0.00000000000E+00  0.00000000000E+00  0.65411749164E+03  0.65411749164E+03  0.00000000000E+00 0. -1.
         -2   -1    0    0    0  501 -0.00000000000E+00 -0.00000000000E+00 -0.24253464945E+02  0.24253464945E+02  0.00000000000E+00 0. -1.
         25    1    1    2    0    0 -0.31833950377E+02  0.41179537487E+01  0.37104924567E+03  0.39129004670E+03  0.12000000000E+03 0.  0.
         25    1    1    2    0    0  0.31833950377E+02 -0.41179537487E+01  0.25881478103E+03  0.28708090989E+03  0.12000000000E+03 0.  0.
<mgrwt>
<rscale>  0 0.25190963E+03</rscale>
<asrwt>0</asrwt>
<pdfrwt beam="1">  1        2 0.10063345E+00 0.25190963E+03</pdfrwt>
<pdfrwt beam="2">  1       -2 0.37313028E-02 0.25190963E+03</pdfrwt>
<totfact> 0.13769488E+04</totfact>
</mgrwt>
</event>
<event>
 4    1  0.1774755E-004  0.3703780E+03  0.7818608E-02  0.1054549E+00
         -2   -1    0    0    0  501 -0.00000000000E+00  0.00000000000E+00  0.36643744176E+02  0.36643744176E+02  0.00000000000E+00 0.  1.
          2   -1    0    0  501    0  0.00000000000E+00 -0.00000000000E+00 -0.93590253813E+03  0.93590253813E+03  0.00000000000E+00 0.  1.
         25    1    1    2    0    0  0.93057697637E+02 -0.10188278733E+03 -0.52641549109E+03  0.55727291940E+03  0.12000000000E+03 0.  0.
         25    1    1    2    0    0 -0.93057697637E+02  0.10188278733E+03 -0.37284330286E+03  0.41527336290E+03  0.12000000000E+03 0.  0.
<mgrwt>
<rscale>  0 0.37037804E+03</rscale>
<asrwt>0</asrwt>
<pdfrwt beam="1">  1        2 0.14398499E+00 0.37037804E+03</pdfrwt>
<pdfrwt beam="2">  1       -2 0.56374996E-02 0.37037804E+03</pdfrwt>
<totfact> 0.47138850E+03</totfact>
</mgrwt>
</event>
<event>
 4    1  0.1774755E-004  0.2451309E+03  0.7818608E-02  0.1116421E+00
         -1   -1    0    0    0  501 -0.00000000000E+00  0.00000000000E+00  0.46670174027E+02  0.46670174027E+02  0.00000000000E+00 0.  1.
          1   -1    0    0  501    0  0.00000000000E+00 -0.00000000000E+00 -0.32188190176E+03  0.32188190176E+03  0.00000000000E+00 0.  1.
         25    1    1    2    0    0  0.93172455238E+01  0.23074265552E+02 -0.13497945101E+03  0.18231479641E+03  0.12000000000E+03 0.  0.
         25    1    1    2    0    0 -0.93172455238E+01 -0.23074265552E+02 -0.14023227672E+03  0.18623727938E+03  0.12000000000E+03 0.  0.
<mgrwt>
<rscale>  0 0.24513086E+03</rscale>
<asrwt>0</asrwt>
<pdfrwt beam="1">  1        1 0.49520291E-01 0.24513086E+03</pdfrwt>
<pdfrwt beam="2">  1       -1 0.71800270E-02 0.24513086E+03</pdfrwt>
<totfact> 0.80310364E+03</totfact>
</mgrwt>
</event>
<event>
 4    1  0.1774755E-004  0.3990738E+03  0.7818608E-02  0.1044101E+00
         -1   -1    0    0    0  501 -0.00000000000E+00  0.00000000000E+00  0.88190793772E+03  0.88190793772E+03  0.00000000000E+00 0.  1.
          1   -1    0    0  501    0  0.00000000000E+00 -0.00000000000E+00 -0.45146412067E+02  0.45146412067E+02  0.00000000000E+00 0.  1.
         25    1    1    2    0    0 -0.73573053846E+02  0.75048757254E+02  0.13991273741E+03  0.21218125343E+03  0.12000000000E+03 0.  0.
         25    1    1    2    0    0  0.73573053846E+02 -0.75048757254E+02  0.69684878825E+03  0.71487309636E+03  0.12000000000E+03 0.  0.
<mgrwt>
<rscale>  0 0.39907382E+03</rscale>
<asrwt>0</asrwt>
<pdfrwt beam="1">  1        1 0.69456025E-02 0.39907382E+03</pdfrwt>
<pdfrwt beam="2">  1       -1 0.13567813E+00 0.39907382E+03</pdfrwt>
<totfact> 0.51670539E+02</totfact>
</mgrwt>
</event>
<event>
 4    1  0.1774755E-004  0.2660267E+03  0.7818608E-02  0.1103575E+00
          1   -1    0    0  501    0  0.00000000000E+00  0.00000000000E+00  0.43138828079E+03  0.43138828079E+03  0.00000000000E+00 0.  1.
         -1   -1    0    0    0  501 -0.00000000000E+00 -0.00000000000E+00 -0.41013047899E+02  0.41013047899E+02  0.00000000000E+00 0.  1.
         25    1    1    2    0    0  0.13125585379E+02 -0.34091263319E+02  0.27376510462E+03  0.30113423540E+03  0.12000000000E+03 0.  0.
         25    1    1    2    0    0 -0.13125585379E+02  0.34091263319E+02  0.11661012827E+03  0.17126709328E+03  0.12000000000E+03 0.  0.
<mgrwt>
<rscale>  0 0.26602668E+03</rscale>
<asrwt>0</asrwt>
<pdfrwt beam="1">  1        1 0.66367425E-01 0.26602668E+03</pdfrwt>
<pdfrwt beam="2">  1       -1 0.63097000E-02 0.26602668E+03</pdfrwt>
<totfact> 0.67477380E+03</totfact>
</mgrwt>
</event>
<event>
 4    1  0.1774755E-004  0.3157373E+03  0.7818608E-02  0.1077628E+00
         -2   -1    0    0    0  501 -0.00000000000E+00  0.00000000000E+00  0.20148348409E+02  0.20148348409E+02  0.00000000000E+00 0. -1.
          2   -1    0    0  501    0  0.00000000000E+00 -0.00000000000E+00 -0.12369504000E+04  0.12369504000E+04  0.00000000000E+00 0. -1.
         25    1    1    2    0    0 -0.53028957101E+02  0.34964647532E+02 -0.92909881287E+03  0.93896709258E+03  0.12000000000E+03 0.  0.
         25    1    1    2    0    0  0.53028957101E+02 -0.34964647532E+02 -0.28770323868E+03  0.31813165579E+03  0.12000000000E+03 0.  0.
<mgrwt>
<rscale>  0 0.31573728E+03</rscale>
<asrwt>0</asrwt>
<pdfrwt beam="1">  1        2 0.19030005E+00 0.31573728E+03</pdfrwt>
<pdfrwt beam="2">  1       -2 0.30997460E-02 0.31573728E+03</pdfrwt>
<totfact> 0.76976338E+03</totfact>
</mgrwt>
</event>
<event>
 4    1  0.1774755E-004  0.2435207E+03  0.7818608E-02  0.1117469E+00
         -1   -1    0    0    0  501 -0.00000000000E+00  0.00000000000E+00  0.10112134919E+02  0.10112134919E+02  0.00000000000E+00 0. -1.
          1   -1    0    0  501    0  0.00000000000E+00 -0.00000000000E+00 -0.14661184626E+04  0.14661184626E+04  0.00000000000E+00 0. -1.
         25    1    1    2    0    0  0.78170925469E+01  0.14283484901E+02 -0.80479330461E+03  0.81385341925E+03  0.12000000000E+03 0.  0.
         25    1    1    2    0    0 -0.78170925469E+01 -0.14283484901E+02 -0.65121302305E+03  0.66237717825E+03  0.12000000000E+03 0.  0.
<mgrwt>
<rscale>  0 0.24352074E+03</rscale>
<asrwt>0</asrwt>
<pdfrwt beam="1">  1        1 0.22555651E+00 0.24352074E+03</pdfrwt>
<pdfrwt beam="2">  1       -1 0.15557143E-02 0.24352074E+03</pdfrwt>
<totfact> 0.74393546E+03</totfact>
</mgrwt>
</event>
<event>
 4    1  0.1774755E-004  0.2528919E+03  0.7818608E-02  0.1111491E+00
         -2   -1    0    0    0  501 -0.00000000000E+00  0.00000000000E+00  0.42218310189E+03  0.42218310189E+03  0.00000000000E+00 0. -1.
          2   -1    0    0  501    0  0.00000000000E+00 -0.00000000000E+00 -0.37871188838E+02  0.37871188838E+02  0.00000000000E+00 0. -1.
         25    1    1    2    0    0 -0.10657163873E+02 -0.38259855276E+02  0.18607210283E+03  0.22494492464E+03  0.12000000000E+03 0.  0.
         25    1    1    2    0    0  0.10657163873E+02  0.38259855276E+02  0.19823981023E+03  0.23510936610E+03  0.12000000000E+03 0.  0.
<mgrwt>
<rscale>  0 0.25289188E+03</rscale>
<asrwt>0</asrwt>
<pdfrwt beam="1">  1        2 0.58263370E-02 0.25289188E+03</pdfrwt>
<pdfrwt beam="2">  1       -2 0.64951243E-01 0.25289188E+03</pdfrwt>
<totfact> 0.28538504E+03</totfact>
</mgrwt>
</event>
<event>
 4    1  0.1774755E-004  0.2703081E+03  0.7818608E-02  0.1101103E+00
          2   -1    0    0  501    0  0.00000000000E+00  0.00000000000E+00  0.14223021533E+03  0.14223021533E+03  0.00000000000E+00 0.  1.
         -2   -1    0    0    0  501 -0.00000000000E+00 -0.00000000000E+00 -0.12842992383E+03  0.12842992383E+03  0.00000000000E+00 0.  1.
         25    1    1    2    0    0 -0.57307663531E+01  0.52934717566E+02  0.39061905933E+02  0.13696991824E+03  0.12000000000E+03 0.  0.
         25    1    1    2    0    0  0.57307663531E+01 -0.52934717566E+02 -0.25261614440E+02  0.13369022092E+03  0.12000000000E+03 0.  0.
<mgrwt>
<rscale>  0 0.27030809E+03</rscale>
<asrwt>0</asrwt>
<pdfrwt beam="1">  1        2 0.21881572E-01 0.27030809E+03</pdfrwt>
<pdfrwt beam="2">  1       -2 0.19758450E-01 0.27030809E+03</pdfrwt>
<totfact> 0.53307572E+03</totfact>
</mgrwt>
</event>
<event>
 4    1  0.1774755E-004  0.3157491E+03  0.7818608E-02  0.1077623E+00
          1   -1    0    0  501    0  0.00000000000E+00  0.00000000000E+00  0.10692877710E+04  0.10692877710E+04  0.00000000000E+00 0.  1.
         -1   -1    0    0    0  501 -0.00000000000E+00 -0.00000000000E+00 -0.23309318003E+02  0.23309318003E+02  0.00000000000E+00 0.  1.
         25    1    1    2    0    0  0.83822555525E+02  0.54538003810E+02  0.44379716592E+03  0.47048542927E+03  0.12000000000E+03 0.  0.
         25    1    1    2    0    0 -0.83822555525E+02 -0.54538003810E+02  0.60218128712E+03  0.62211165978E+03  0.12000000000E+03 0.  0.
<mgrwt>
<rscale>  0 0.31574907E+03</rscale>
<asrwt>0</asrwt>
<pdfrwt beam="1">  1        1 0.16450577E+00 0.31574907E+03</pdfrwt>
<pdfrwt beam="2">  1       -1 0.35860497E-02 0.31574907E+03</pdfrwt>
<totfact> 0.41204378E+03</totfact>
</mgrwt>
</event>
<event>
 4    1  0.1774755E-004  0.3278938E+03  0.7818608E-02  0.1072073E+00
          2   -1    0    0  501    0  0.00000000000E+00  0.00000000000E+00  0.40802700472E+03  0.40802700472E+03  0.00000000000E+00 0.  1.
         -2   -1    0    0    0  501 -0.00000000000E+00 -0.00000000000E+00 -0.65874515989E+02  0.65874515989E+02  0.00000000000E+00 0.  1.
         25    1    1    2    0    0 -0.41385011065E+02 -0.20382452600E+02  0.31811569705E+03  0.34311187712E+03  0.12000000000E+03 0.  0.
         25    1    1    2    0    0  0.41385011065E+02  0.20382452600E+02  0.24036791684E+02  0.13078964359E+03  0.12000000000E+03 0.  0.
<mgrwt>
<rscale>  0 0.32789377E+03</rscale>
<asrwt>0</asrwt>
<pdfrwt beam="1">  1        2 0.62773384E-01 0.32789377E+03</pdfrwt>
<pdfrwt beam="2">  1       -2 0.10134541E-01 0.32789377E+03</pdfrwt>
<totfact> 0.50805495E+03</totfact>
</mgrwt>
</event>
<event>
 4    1  0.1774755E-004  0.2819159E+03  0.7818608E-02  0.1094647E+00
          2   -1    0    0  501    0  0.00000000000E+00  0.00000000000E+00  0.48034232540E+03  0.48034232540E+03  0.00000000000E+00 0.  1.
         -2   -1    0    0    0  501 -0.00000000000E+00 -0.00000000000E+00 -0.41364543479E+02  0.41364543479E+02  0.00000000000E+00 0.  1.
         25    1    1    2    0    0 -0.37287287941E+02  0.62232978551E+02  0.24604034414E+03  0.28319452044E+03  0.12000000000E+03 0.  0.
         25    1    1    2    0    0  0.37287287941E+02 -0.62232978551E+02  0.19293743778E+03  0.23851234844E+03  0.12000000000E+03 0.  0.
<mgrwt>
<rscale>  0 0.28191588E+03</rscale>
<asrwt>0</asrwt>
<pdfrwt beam="1">  1        2 0.73898815E-01 0.28191588E+03</pdfrwt>
<pdfrwt beam="2">  1       -2 0.63637763E-02 0.28191588E+03</pdfrwt>
<totfact> 0.87612909E+03</totfact>
</mgrwt>
</event>
<event>
 4    1  0.1774755E-004  0.2624797E+03  0.7818608E-02  0.1105662E+00
         -1   -1    0    0    0  501 -0.00000000000E+00  0.00000000000E+00  0.11521160604E+02  0.11521160604E+02  0.00000000000E+00 0. -1.
          1   -1    0    0  501    0  0.00000000000E+00 -0.00000000000E+00 -0.14949794960E+04  0.14949794960E+04  0.00000000000E+00 0. -1.
         25    1    1    2    0    0  0.29837365179E+02 -0.71770437062E+01 -0.49273033274E+03  0.50805999559E+03  0.12000000000E+03 0.  0.
         25    1    1    2    0    0 -0.29837365179E+02  0.71770437062E+01 -0.99072800267E+03  0.99844066102E+03  0.12000000000E+03 0.  0.
<mgrwt>
<rscale>  0 0.26247970E+03</rscale>
<asrwt>0</asrwt>
<pdfrwt beam="1">  1        1 0.22999684E+00 0.26247970E+03</pdfrwt>
<pdfrwt beam="2">  1       -1 0.17724863E-02 0.26247970E+03</pdfrwt>
<totfact> 0.58957714E+03</totfact>
</mgrwt>
</event>
<event>
 4    1  0.1774755E-004  0.2876801E+03  0.7818608E-02  0.1091567E+00
         -3   -1    0    0    0  501 -0.00000000000E+00  0.00000000000E+00  0.39146772684E+03  0.39146772684E+03  0.00000000000E+00 0. -1.
          3   -1    0    0  501    0  0.00000000000E+00 -0.00000000000E+00 -0.52852278148E+02  0.52852278148E+02  0.00000000000E+00 0. -1.
         25    1    1    2    0    0 -0.21894872925E+02 -0.62566151069E+02  0.10205479452E+03  0.17090666986E+03  0.12000000000E+03 0.  0.
         25    1    1    2    0    0  0.21894872925E+02  0.62566151069E+02  0.23656065417E+03  0.27341333512E+03  0.12000000000E+03 0.  0.
<mgrwt>
<rscale>  0 0.28768011E+03</rscale>
<asrwt>0</asrwt>
<pdfrwt beam="1">  1        3 0.81311200E-02 0.28768011E+03</pdfrwt>
<pdfrwt beam="2">  1       -3 0.60225802E-01 0.28768011E+03</pdfrwt>
<totfact> 0.72392484E+02</totfact>
</mgrwt>
</event>
<event>
 4    1  0.1774755E-004  0.2622919E+03  0.7818608E-02  0.1105774E+00
          2   -1    0    0  501    0  0.00000000000E+00  0.00000000000E+00  0.75687557071E+02  0.75687557071E+02  0.00000000000E+00 0.  1.
         -2   -1    0    0    0  501 -0.00000000000E+00 -0.00000000000E+00 -0.22724018643E+03  0.22724018643E+03  0.00000000000E+00 0.  1.
         25    1    1    2    0    0 -0.40144023269E+02  0.34162570207E+02 -0.81022117747E+02  0.15408831030E+03  0.12000000000E+03 0.  0.
         25    1    1    2    0    0  0.40144023269E+02 -0.34162570207E+02 -0.70530511615E+02  0.14883943320E+03  0.12000000000E+03 0.  0.
<mgrwt>
<rscale>  0 0.26229186E+03</rscale>
<asrwt>0</asrwt>
<pdfrwt beam="1">  1        2 0.11644240E-01 0.26229186E+03</pdfrwt>
<pdfrwt beam="2">  1       -2 0.34960028E-01 0.26229186E+03</pdfrwt>
<totfact> 0.40502710E+03</totfact>
</mgrwt>
</event>
<event>
 4    1  0.1774755E-004  0.2712614E+03  0.7818608E-02  0.1100560E+00
         -1   -1    0    0    0  501 -0.00000000000E+00  0.00000000000E+00  0.53541202273E+02  0.53541202273E+02  0.00000000000E+00 0.  1.
          1   -1    0    0  501    0  0.00000000000E+00 -0.00000000000E+00 -0.34358012724E+03  0.34358012724E+03  0.00000000000E+00 0.  1.
         25    1    1    2    0    0 -0.17204018822E+02 -0.58205433981E+02 -0.17087196801E+03  0.21744213083E+03  0.12000000000E+03 0.  0.
         25    1    1    2    0    0  0.17204018822E+02  0.58205433981E+02 -0.11916695696E+03  0.17967919869E+03  0.12000000000E+03 0.  0.
<mgrwt>
<rscale>  0 0.27126145E+03</rscale>
<asrwt>0</asrwt>
<pdfrwt beam="1">  1        1 0.52858479E-01 0.27126145E+03</pdfrwt>
<pdfrwt beam="2">  1       -1 0.82371084E-02 0.27126145E+03</pdfrwt>
<totfact> 0.60236064E+03</totfact>
</mgrwt>
</event>
<event>
 4    1  0.1774755E-004  0.2788633E+03  0.7818608E-02  0.1096311E+00
         -2   -1    0    0    0  501 -0.00000000000E+00  0.00000000000E+00  0.22315236436E+03  0.22315236436E+03  0.00000000000E+00 0. -1.
          2   -1    0    0  501    0  0.00000000000E+00 -0.00000000000E+00 -0.87120669156E+02  0.87120669156E+02  0.00000000000E+00 0. -1.
         25    1    1    2    0    0  0.21735188323E+02  0.30023230035E+02  0.13539570466E+03  0.18467758282E+03  0.12000000000E+03 0.  0.
         25    1    1    2    0    0 -0.21735188323E+02 -0.30023230035E+02  0.63599054129E+00  0.12559545070E+03  0.12000000000E+03 0.  0.
<mgrwt>
<rscale>  0 0.27886329E+03</rscale>
<asrwt>0</asrwt>
<pdfrwt beam="1">  1        2 0.13403180E-01 0.27886329E+03</pdfrwt>
<pdfrwt beam="2">  1       -2 0.34331133E-01 0.27886329E+03</pdfrwt>
<totfact> 0.35401776E+03</totfact>
</mgrwt>
</event>
<event>
 4    1  0.1774755E-004  0.4746832E+03  0.7818608E-02  0.1020607E+00
         -2   -1    0    0    0  501 -0.00000000000E+00  0.00000000000E+00  0.16984306016E+03  0.16984306016E+03  0.00000000000E+00 0. -1.
          2   -1    0    0  501    0  0.00000000000E+00 -0.00000000000E+00 -0.33166523106E+03  0.33166523106E+03  0.00000000000E+00 0. -1.
         25    1    1    2    0    0  0.16618162664E+03 -0.83740284976E+02  0.93713304816E+01  0.22162263015E+03  0.12000000000E+03 0.  0.
         25    1    1    2    0    0 -0.16618162664E+03  0.83740284976E+02 -0.17119350138E+03  0.27988566107E+03  0.12000000000E+03 0.  0.
<mgrwt>
<rscale>  0 0.47468321E+03</rscale>
<asrwt>0</asrwt>
<pdfrwt beam="1">  1        2 0.51025420E-01 0.47468321E+03</pdfrwt>
<pdfrwt beam="2">  1       -2 0.26129702E-01 0.47468321E+03</pdfrwt>
<totfact> 0.12958861E+03</totfact>
</mgrwt>
</event>
<event>
 4    1  0.1774755E-004  0.3378926E+03  0.7818608E-02  0.1067697E+00
          2   -1    0    0  501    0  0.00000000000E+00  0.00000000000E+00  0.38573323144E+03  0.38573323144E+03  0.00000000000E+00 0. -1.
         -2   -1    0    0    0  501 -0.00000000000E+00 -0.00000000000E+00 -0.73996362510E+02  0.73996362510E+02  0.00000000000E+00 0. -1.
         25    1    1    2    0    0 -0.38752582348E+02 -0.11214731337E+03  0.14497755509E+03  0.22247982833E+03  0.12000000000E+03 0.  0.
         25    1    1    2    0    0  0.38752582348E+02  0.11214731337E+03  0.16675931383E+03  0.23724976562E+03  0.12000000000E+03 0.  0.
<mgrwt>
<rscale>  0 0.33789262E+03</rscale>
<asrwt>0</asrwt>
<pdfrwt beam="1">  1        2 0.59343573E-01 0.33789262E+03</pdfrwt>
<pdfrwt beam="2">  1       -2 0.11384056E-01 0.33789262E+03</pdfrwt>
<totfact> 0.44854314E+03</totfact>
</mgrwt>
</event>
<event>
 4    1  0.1774755E-004  0.4852931E+03  0.7818608E-02  0.1017691E+00
         -1   -1    0    0    0  501 -0.00000000000E+00  0.00000000000E+00  0.22186624852E+03  0.22186624852E+03  0.00000000000E+00 0.  1.
          1   -1    0    0  501    0  0.00000000000E+00 -0.00000000000E+00 -0.26537317495E+03  0.26537317495E+03  0.00000000000E+00 0.  1.
         25    1    1    2    0    0 -0.19026989444E+03 -0.54771109465E+02 -0.94672863671E+02  0.25013088230E+03  0.12000000000E+03 0.  0.
         25    1    1    2    0    0  0.19026989444E+03  0.54771109465E+02  0.51165937240E+02  0.23710854117E+03  0.12000000000E+03 0.  0.
<mgrwt>
<rscale>  0 0.48529311E+03</rscale>
<asrwt>0</asrwt>
<pdfrwt beam="1">  1        1 0.40826642E-01 0.48529311E+03</pdfrwt>
<pdfrwt beam="2">  1       -1 0.34133269E-01 0.48529311E+03</pdfrwt>
<totfact> 0.83893838E+02</totfact>
</mgrwt>
</event>
<event>
 4    1  0.1774755E-004  0.2747557E+03  0.7818608E-02  0.1098588E+00
          1   -1    0    0  501    0  0.00000000000E+00  0.00000000000E+00  0.93176144576E+03  0.93176144576E+03  0.00000000000E+00 0.  1.
         -1   -1    0    0    0  501 -0.00000000000E+00 -0.00000000000E+00 -0.20254839222E+02  0.20254839222E+02  0.00000000000E+00 0.  1.
         25    1    1    2    0    0 -0.56692587535E+02 -0.33861169386E+02  0.49243112629E+03  0.51112527076E+03  0.12000000000E+03 0.  0.
         25    1    1    2    0    0  0.56692587535E+02  0.33861169386E+02  0.41907548025E+03  0.44089101422E+03  0.12000000000E+03 0.  0.
<mgrwt>
<rscale>  0 0.27475573E+03</rscale>
<asrwt>0</asrwt>
<pdfrwt beam="1">  1        1 0.14334788E+00 0.27475573E+03</pdfrwt>
<pdfrwt beam="2">  1       -1 0.31161298E-02 0.27475573E+03</pdfrwt>
<totfact> 0.64230680E+03</totfact>
</mgrwt>
</event>
<event>
 4    1  0.1774755E-004  0.2612704E+03  0.7818608E-02  0.1106382E+00
         -2   -1    0    0    0  501 -0.00000000000E+00  0.00000000000E+00  0.38299025154E+02  0.38299025154E+02  0.00000000000E+00 0. -1.
          2   -1    0    0  501    0  0.00000000000E+00 -0.00000000000E+00 -0.44558714727E+03  0.44558714727E+03  0.00000000000E+00 0. -1.
         25    1    1    2    0    0  0.37290666038E+02  0.29812151110E+02 -0.24004029801E+03  0.27257788391E+03  0.12000000000E+03 0.  0.
         25    1    1    2    0    0 -0.37290666038E+02 -0.29812151110E+02 -0.16724782411E+03  0.21130828852E+03  0.12000000000E+03 0.  0.
<mgrwt>
<rscale>  0 0.26127038E+03</rscale>
<asrwt>0</asrwt>
<pdfrwt beam="1">  1        2 0.68551872E-01 0.26127038E+03</pdfrwt>
<pdfrwt beam="2">  1       -2 0.58921574E-02 0.26127038E+03</pdfrwt>
<totfact> 0.10682068E+04</totfact>
</mgrwt>
</event>
<event>
 4    1  0.1774755E-004  0.5682807E+03  0.7818608E-02  0.9973490E-01
         -2   -1    0    0    0  501 -0.00000000000E+00  0.00000000000E+00  0.17813578114E+03  0.17813578114E+03  0.00000000000E+00 0. -1.
          2   -1    0    0  501    0  0.00000000000E+00 -0.00000000000E+00 -0.45322584210E+03  0.45322584210E+03  0.00000000000E+00 0. -1.
         25    1    1    2    0    0  0.20825852523E+03  0.71171493133E+02 -0.28618190243E+03  0.38044326258E+03  0.12000000000E+03 0.  0.
         25    1    1    2    0    0 -0.20825852523E+03 -0.71171493133E+02  0.11091841468E+02  0.25091836066E+03  0.12000000000E+03 0.  0.
<mgrwt>
<rscale>  0 0.56828070E+03</rscale>
<asrwt>0</asrwt>
<pdfrwt beam="1">  1        2 0.69727052E-01 0.56828070E+03</pdfrwt>
<pdfrwt beam="2">  1       -2 0.27405505E-01 0.56828070E+03</pdfrwt>
<totfact> 0.83962941E+02</totfact>
</mgrwt>
</event>
<event>
 4    1  0.1774755E-004  0.3687147E+03  0.7818608E-02  0.1055186E+00
         -1   -1    0    0    0  501 -0.00000000000E+00  0.00000000000E+00  0.45931677134E+02  0.45931677134E+02  0.00000000000E+00 0. -1.
          1   -1    0    0  501    0  0.00000000000E+00 -0.00000000000E+00 -0.73996042893E+03  0.73996042893E+03  0.00000000000E+00 0. -1.
         25    1    1    2    0    0 -0.25099297314E+02  0.11899253356E+03 -0.49466045582E+03  0.52333370264E+03  0.12000000000E+03 0.  0.
         25    1    1    2    0    0  0.25099297314E+02 -0.11899253356E+03 -0.19936829597E+03  0.26255840342E+03  0.12000000000E+03 0.  0.
<mgrwt>
<rscale>  0 0.36871465E+03</rscale>
<asrwt>0</asrwt>
<pdfrwt beam="1">  1        1 0.11384007E+00 0.36871465E+03</pdfrwt>
<pdfrwt beam="2">  1       -1 0.70664119E-02 0.36871465E+03</pdfrwt>
<totfact> 0.27117996E+03</totfact>
</mgrwt>
</event>
<event>
 4    1  0.1774755E-004  0.2647725E+03  0.7818608E-02  0.1104309E+00
          2   -1    0    0  501    0  0.00000000000E+00  0.00000000000E+00  0.15210306674E+04  0.15210306674E+04  0.00000000000E+00 0. -1.
         -2   -1    0    0    0  501 -0.00000000000E+00 -0.00000000000E+00 -0.11522529083E+02  0.11522529083E+02  0.00000000000E+00 0. -1.
         25    1    1    2    0    0  0.36457331653E+02  0.32659963316E+02  0.91117550036E+03  0.92034591469E+03  0.12000000000E+03 0.  0.
         25    1    1    2    0    0 -0.36457331653E+02 -0.32659963316E+02  0.59833263801E+03  0.61220728184E+03  0.12000000000E+03 0.  0.
<mgrwt>
<rscale>  0 0.26477251E+03</rscale>
<asrwt>0</asrwt>
<pdfrwt beam="1">  1        2 0.23400456E+00 0.26477251E+03</pdfrwt>
<pdfrwt beam="2">  1       -2 0.17726980E-02 0.26477251E+03</pdfrwt>
<totfact> 0.12261225E+04</totfact>
</mgrwt>
</event>
<event>
 4    1  0.1774755E-004  0.2623760E+03  0.7818608E-02  0.1105724E+00
          3   -1    0    0  501    0  0.00000000000E+00  0.00000000000E+00  0.44633691700E+03  0.44633691700E+03  0.00000000000E+00 0.  1.
         -3   -1    0    0    0  501 -0.00000000000E+00 -0.00000000000E+00 -0.38558958496E+02  0.38558958496E+02  0.00000000000E+00 0.  1.
         25    1    1    2    0    0 -0.47450268929E+02  0.17604488642E+02  0.23304210165E+03  0.26696454293E+03  0.12000000000E+03 0.  0.
         25    1    1    2    0    0  0.47450268929E+02 -0.17604488642E+02  0.17473585685E+03  0.21793133256E+03  0.12000000000E+03 0.  0.
<mgrwt>
<rscale>  0 0.26237596E+03</rscale>
<asrwt>0</asrwt>
<pdfrwt beam="1">  1        3 0.68667214E-01 0.26237596E+03</pdfrwt>
<pdfrwt beam="2">  1       -3 0.59321478E-02 0.26237596E+03</pdfrwt>
<totfact> 0.90979653E+02</totfact>
</mgrwt>
</event>
<event>
 4    1  0.1774755E-004  0.2661020E+03  0.7818608E-02  0.1103531E+00
         -1   -1    0    0    0  501 -0.00000000000E+00  0.00000000000E+00  0.16056384591E+02  0.16056384591E+02  0.00000000000E+00 0.  1.
          1   -1    0    0  501    0  0.00000000000E+00 -0.00000000000E+00 -0.11025254592E+04  0.11025254592E+04  0.00000000000E+00 0.  1.
         25    1    1    2    0    0 -0.43213198705E+02 -0.31989642275E+02 -0.45792614300E+03  0.47643160076E+03  0.12000000000E+03 0.  0.
         25    1    1    2    0    0  0.43213198705E+02  0.31989642275E+02 -0.62854293161E+03  0.64215024303E+03  0.12000000000E+03 0.  0.
<mgrwt>
<rscale>  0 0.26610203E+03</rscale>
<asrwt>0</asrwt>
<pdfrwt beam="1">  1        1 0.16961929E+00 0.26610203E+03</pdfrwt>
<pdfrwt beam="2">  1       -1 0.24702132E-02 0.26610203E+03</pdfrwt>
<totfact> 0.67439430E+03</totfact>
</mgrwt>
</event>
<event>
 4    1  0.1774755E-004  0.3204178E+03  0.7818608E-02  0.1075457E+00
          1   -1    0    0  501    0  0.00000000000E+00  0.00000000000E+00  0.33312959315E+03  0.33312959315E+03  0.00000000000E+00 0.  1.
         -1   -1    0    0    0  501 -0.00000000000E+00 -0.00000000000E+00 -0.77047787798E+02  0.77047787798E+02  0.00000000000E+00 0.  1.
         25    1    1    2    0    0  0.25130102548E+02 -0.80410114756E+02  0.45379708893E+02  0.15348168161E+03  0.12000000000E+03 0.  0.
         25    1    1    2    0    0 -0.25130102548E+02  0.80410114756E+02  0.21070209645E+03  0.25669569934E+03  0.12000000000E+03 0.  0.
<mgrwt>
<rscale>  0 0.32041784E+03</rscale>
<asrwt>0</asrwt>
<pdfrwt beam="1">  1        1 0.51250706E-01 0.32041784E+03</pdfrwt>
<pdfrwt beam="2">  1       -1 0.11853506E-01 0.32041784E+03</pdfrwt>
<totfact> 0.35821539E+03</totfact>
</mgrwt>
</event>
<event>
 4    1  0.1774755E-004  0.2433838E+03  0.7818608E-02  0.1117559E+00
         -2   -1    0    0    0  501 -0.00000000000E+00  0.00000000000E+00  0.32499673374E+03  0.32499673374E+03  0.00000000000E+00 0.  1.
          2   -1    0    0  501    0  0.00000000000E+00 -0.00000000000E+00 -0.45566358336E+02  0.45566358336E+02  0.00000000000E+00 0.  1.
         25    1    1    2    0    0 -0.42502619686E+00 -0.11048082586E+02  0.16549423244E+03  0.20472074088E+03  0.12000000000E+03 0.  0.
         25    1    1    2    0    0  0.42502619686E+00  0.11048082586E+02  0.11393614296E+03  0.16584235119E+03  0.12000000000E+03 0.  0.
<mgrwt>
<rscale>  0 0.24338379E+03</rscale>
<asrwt>0</asrwt>
<pdfrwt beam="1">  1        2 0.70102092E-02 0.24338379E+03</pdfrwt>
<pdfrwt beam="2">  1       -2 0.49999496E-01 0.24338379E+03</pdfrwt>
<totfact> 0.38314165E+03</totfact>
</mgrwt>
</event>
<event>
 4    1  0.1774755E-004  0.2569081E+03  0.7818608E-02  0.1109015E+00
          1   -1    0    0  501    0  0.00000000000E+00  0.00000000000E+00  0.20223743213E+04  0.20223743213E+04  0.00000000000E+00 0.  1.
         -1   -1    0    0    0  501 -0.00000000000E+00 -0.00000000000E+00 -0.81589466367E+01  0.81589466367E+01  0.00000000000E+00 0.  1.
         25    1    1    2    0    0 -0.34123410158E+01 -0.25990622014E+02  0.13042384244E+04  0.13100095511E+04  0.12000000000E+03 0.  0.
         25    1    1    2    0    0  0.34123410158E+01  0.25990622014E+02  0.70997695034E+03  0.72052371683E+03  0.12000000000E+03 0.  0.
<mgrwt>
<rscale>  0 0.25690811E+03</rscale>
<asrwt>0</asrwt>
<pdfrwt beam="1">  1        1 0.31113411E+00 0.25690811E+03</pdfrwt>
<pdfrwt beam="2">  1       -1 0.12552242E-02 0.25690811E+03</pdfrwt>
<totfact> 0.44118283E+03</totfact>
</mgrwt>
</event>
<event>
 4    1  0.1774755E-004  0.3156931E+03  0.7818608E-02  0.1077649E+00
         -1   -1    0    0    0  501 -0.00000000000E+00  0.00000000000E+00  0.12785183937E+02  0.12785183937E+02  0.00000000000E+00 0.  1.
          1   -1    0    0  501    0  0.00000000000E+00 -0.00000000000E+00 -0.19487820509E+04  0.19487820509E+04  0.00000000000E+00 0.  1.
         25    1    1    2    0    0  0.17323520064E+02 -0.92023439729E+02 -0.12277148138E+04  0.12371144174E+04  0.12000000000E+03 0.  0.
         25    1    1    2    0    0 -0.17323520064E+02  0.92023439729E+02 -0.70828205317E+03  0.72445281741E+03  0.12000000000E+03 0.  0.
<mgrwt>
<rscale>  0 0.31569312E+03</rscale>
<asrwt>0</asrwt>
<pdfrwt beam="1">  1        1 0.29981269E+00 0.31569312E+03</pdfrwt>
<pdfrwt beam="2">  1       -1 0.19669509E-02 0.31569312E+03</pdfrwt>
<totfact> 0.25557864E+03</totfact>
</mgrwt>
</event>
<event>
 4    1  0.1774755E-004  0.3852719E+03  0.7818608E-02  0.1049002E+00
          2   -1    0    0  501    0  0.00000000000E+00  0.00000000000E+00  0.71622515472E+03  0.71622515472E+03  0.00000000000E+00 0.  1.
         -2   -1    0    0    0  501 -0.00000000000E+00 -0.00000000000E+00 -0.51811370054E+02  0.51811370054E+02  0.00000000000E+00 0.  1.
         25    1    1    2    0    0 -0.14397941651E+02  0.11850340254E+03  0.51554586698E+03  0.54262132108E+03  0.12000000000E+03 0.  0.
         25    1    1    2    0    0  0.14397941651E+02 -0.11850340254E+03  0.14886791769E+03  0.22541520369E+03  0.12000000000E+03 0.  0.
<mgrwt>
<rscale>  0 0.38527189E+03</rscale>
<asrwt>0</asrwt>
<pdfrwt beam="1">  1        2 0.11018848E+00 0.38527189E+03</pdfrwt>
<pdfrwt beam="2">  1       -2 0.79709805E-02 0.38527189E+03</pdfrwt>
<totfact> 0.38979454E+03</totfact>
</mgrwt>
</event>
<event>
 4    1  0.1774755E-004  0.2527158E+03  0.7818608E-02  0.1111600E+00
          2   -1    0    0  501    0  0.00000000000E+00  0.00000000000E+00  0.35923874037E+03  0.35923874037E+03  0.00000000000E+00 0. -1.
         -2   -1    0    0    0  501 -0.00000000000E+00 -0.00000000000E+00 -0.44444880553E+02  0.44444880553E+02  0.00000000000E+00 0. -1.
         25    1    1    2    0    0  0.14057775413E+02 -0.32018916108E+02  0.12779184737E+03  0.17875566647E+03  0.12000000000E+03 0.  0.
         25    1    1    2    0    0 -0.14057775413E+02  0.32018916108E+02  0.18700201244E+03  0.22492795446E+03  0.12000000000E+03 0.  0.
<mgrwt>
<rscale>  0 0.25271583E+03</rscale>
<asrwt>0</asrwt>
<pdfrwt beam="1">  1        2 0.55267497E-01 0.25271583E+03</pdfrwt>
<pdfrwt beam="2">  1       -2 0.68376742E-02 0.25271583E+03</pdfrwt>
<totfact> 0.10721418E+04</totfact>
</mgrwt>
</event>
<event>
 4    1  0.1774755E-004  0.3198979E+03  0.7818608E-02  0.1075696E+00
          2   -1    0    0  501    0  0.00000000000E+00  0.00000000000E+00  0.30543245220E+02  0.30543245220E+02  0.00000000000E+00 0.  1.
         -2   -1    0    0    0  501 -0.00000000000E+00 -0.00000000000E+00 -0.83762091675E+03  0.83762091675E+03  0.00000000000E+00 0.  1.
         25    1    1    2    0    0  0.78035575151E+02 -0.61043272270E+02 -0.50390941096E+03  0.52739029811E+03  0.12000000000E+03 0.  0.
         25    1    1    2    0    0 -0.78035575151E+02  0.61043272270E+02 -0.30316826057E+03  0.34077386387E+03  0.12000000000E+03 0.  0.
<mgrwt>
<rscale>  0 0.31989787E+03</rscale>
<asrwt>0</asrwt>
<pdfrwt beam="1">  1        2 0.46989608E-02 0.31989787E+03</pdfrwt>
<pdfrwt beam="2">  1       -2 0.12886476E+00 0.31989787E+03</pdfrwt>
<totfact> 0.79886063E+02</totfact>
</mgrwt>
</event>
<event>
 4    1  0.1774755E-004  0.2783545E+03  0.7818608E-02  0.1096591E+00
          1   -1    0    0  501    0  0.00000000000E+00  0.00000000000E+00  0.36938798549E+02  0.36938798549E+02  0.00000000000E+00 0.  1.
         -1   -1    0    0    0  501 -0.00000000000E+00 -0.00000000000E+00 -0.52438928557E+03  0.52438928557E+03  0.00000000000E+00 0.  1.
         25    1    1    2    0    0  0.50358165972E+02 -0.40668562118E+02 -0.30006129432E+03  0.32958558399E+03  0.12000000000E+03 0.  0.
         25    1    1    2    0    0 -0.50358165972E+02  0.40668562118E+02 -0.18738919270E+03  0.23174250013E+03  0.12000000000E+03 0.  0.
<mgrwt>
<rscale>  0 0.27835452E+03</rscale>
<asrwt>0</asrwt>
<pdfrwt beam="1">  1        1 0.56828922E-02 0.27835452E+03</pdfrwt>
<pdfrwt beam="2">  1       -1 0.80675273E-01 0.27835452E+03</pdfrwt>
<totfact> 0.22300058E+03</totfact>
</mgrwt>
</event>
<event>
 4    1  0.1774755E-004  0.3231352E+03  0.7818608E-02  0.1074215E+00
         -2   -1    0    0    0  501 -0.00000000000E+00  0.00000000000E+00  0.94957738909E+01  0.94957738909E+01  0.00000000000E+00 0. -1.
          2   -1    0    0  501    0  0.00000000000E+00 -0.00000000000E+00 -0.27490211782E+04  0.27490211782E+04  0.00000000000E+00 0. -1.
         25    1    1    2    0    0 -0.64028508923E+02 -0.36196047208E+02 -0.20470367847E+04  0.20518697331E+04  0.12000000000E+03 0.  0.
         25    1    1    2    0    0  0.64028508923E+02  0.36196047208E+02 -0.69248861962E+03  0.70664721898E+03  0.12000000000E+03 0.  0.
<mgrwt>
<rscale>  0 0.32313516E+03</rscale>
<asrwt>0</asrwt>
<pdfrwt beam="1">  1        2 0.42292615E+00 0.32313516E+03</pdfrwt>
<pdfrwt beam="2">  1       -2 0.14608889E-02 0.32313516E+03</pdfrwt>
<totfact> 0.35609722E+03</totfact>
</mgrwt>
</event>
<event>
 4    1  0.1774755E-004  0.2694262E+03  0.7818608E-02  0.1101608E+00
         -2   -1    0    0    0  501 -0.00000000000E+00  0.00000000000E+00  0.83180222957E+01  0.83180222957E+01  0.00000000000E+00 0.  1.
          2   -1    0    0  501    0  0.00000000000E+00 -0.00000000000E+00 -0.21817236438E+04  0.21817236438E+04  0.00000000000E+00 0.  1.
         25    1    1    2    0    0  0.28017804417E+02  0.32078586787E+02 -0.14441360893E+04  0.14497389687E+04  0.12000000000E+03 0.  0.
         25    1    1    2    0    0 -0.28017804417E+02 -0.32078586787E+02 -0.72926953217E+03  0.74030269731E+03  0.12000000000E+03 0.  0.
<mgrwt>
<rscale>  0 0.26942625E+03</rscale>
<asrwt>0</asrwt>
<pdfrwt beam="1">  1        2 0.33564976E+00 0.26942625E+03</pdfrwt>
<pdfrwt beam="2">  1       -2 0.12796959E-02 0.26942625E+03</pdfrwt>
<totfact> 0.88608412E+03</totfact>
</mgrwt>
</event>
<event>
 4    1  0.1774755E-004  0.2730001E+03  0.7818608E-02  0.1099575E+00
          2   -1    0    0  501    0  0.00000000000E+00  0.00000000000E+00  0.34496262149E+03  0.34496262149E+03  0.00000000000E+00 0. -1.
         -2   -1    0    0    0  501 -0.00000000000E+00 -0.00000000000E+00 -0.54012425486E+02  0.54012425486E+02  0.00000000000E+00 0. -1.
         25    1    1    2    0    0 -0.49007925894E+02  0.18515676117E+02  0.89106810286E+02  0.15838128268E+03  0.12000000000E+03 0.  0.
         25    1    1    2    0    0  0.49007925894E+02 -0.18515676117E+02  0.20184338571E+03  0.24059376430E+03  0.12000000000E+03 0.  0.
<mgrwt>
<rscale>  0 0.27300013E+03</rscale>
<asrwt>0</asrwt>
<pdfrwt beam="1">  1        2 0.53071171E-01 0.27300013E+03</pdfrwt>
<pdfrwt beam="2">  1       -2 0.83096041E-02 0.27300013E+03</pdfrwt>
<totfact> 0.82988926E+03</totfact>
</mgrwt>
</event>
<event>
 4    1  0.1774755E-004  0.2897922E+03  0.7818608E-02  0.1090458E+00
          1   -1    0    0  501    0  0.00000000000E+00  0.00000000000E+00  0.40641128070E+03  0.40641128070E+03  0.00000000000E+00 0.  1.
         -1   -1    0    0    0  501 -0.00000000000E+00 -0.00000000000E+00 -0.51659180142E+02  0.51659180142E+02  0.00000000000E+00 0.  1.
         25    1    1    2    0    0  0.95721249431E+01  0.26812526176E+02  0.57157238426E+02  0.13593192061E+03  0.12000000000E+03 0.  0.
         25    1    1    2    0    0 -0.95721249431E+01 -0.26812526176E+02  0.29759486213E+03  0.32213854023E+03  0.12000000000E+03 0.  0.
<mgrwt>
<rscale>  0 0.28979216E+03</rscale>
<asrwt>0</asrwt>
<pdfrwt beam="1">  1        1 0.62524810E-01 0.28979216E+03</pdfrwt>
<pdfrwt beam="2">  1       -1 0.79475664E-02 0.28979216E+03</pdfrwt>
<totfact> 0.51454556E+03</totfact>
</mgrwt>
</event>
<event>
 4    1  0.1774755E-004  0.2693636E+03  0.7818608E-02  0.1101644E+00
          2   -1    0    0  501    0  0.00000000000E+00  0.00000000000E+00  0.23573020212E+03  0.23573020212E+03  0.00000000000E+00 0. -1.
         -2   -1    0    0    0  501 -0.00000000000E+00 -0.00000000000E+00 -0.76948957465E+02  0.76948957465E+02  0.00000000000E+00 0. -1.
         25    1    1    2    0    0 -0.11552687405E+02 -0.38322465588E+02  0.13305352249E+03  0.18359007545E+03  0.12000000000E+03 0.  0.
         25    1    1    2    0    0  0.11552687405E+02  0.38322465588E+02  0.25727722157E+02  0.12908908413E+03  0.12000000000E+03 0.  0.
<mgrwt>
<rscale>  0 0.26936364E+03</rscale>
<asrwt>0</asrwt>
<pdfrwt beam="1">  1        2 0.36266185E-01 0.26936364E+03</pdfrwt>
<pdfrwt beam="2">  1       -2 0.11838301E-01 0.26936364E+03</pdfrwt>
<totfact> 0.71248073E+03</totfact>
</mgrwt>
</event>
<event>
 4    1  0.1774755E-004  0.5290142E+03  0.7818608E-02  0.1006471E+00
          1   -1    0    0  501    0  0.00000000000E+00  0.00000000000E+00  0.21282995374E+03  0.21282995374E+03  0.00000000000E+00 0.  1.
         -1   -1    0    0    0  501 -0.00000000000E+00 -0.00000000000E+00 -0.32873196710E+03  0.32873196710E+03  0.00000000000E+00 0.  1.
         25    1    1    2    0    0  0.50333077899E+02 -0.22318473412E+03  0.13244322845E+00  0.25835026962E+03  0.12000000000E+03 0.  0.
         25    1    1    2    0    0 -0.50333077899E+02  0.22318473412E+03 -0.11603445659E+03  0.28321165122E+03  0.12000000000E+03 0.  0.
<mgrwt>
<rscale>  0 0.52901421E+03</rscale>
<asrwt>0</asrwt>
<pdfrwt beam="1">  1        1 0.32743070E-01 0.52901421E+03</pdfrwt>
<pdfrwt beam="2">  1       -1 0.50574149E-01 0.52901421E+03</pdfrwt>
<totfact> 0.54434438E+02</totfact>
</mgrwt>
</event>
<event>
 4    1  0.1774755E-004  0.2969597E+03  0.7818608E-02  0.1086770E+00
         -1   -1    0    0    0  501 -0.00000000000E+00  0.00000000000E+00  0.74864377747E+03  0.74864377747E+03  0.00000000000E+00 0.  1.
          1   -1    0    0  501    0  0.00000000000E+00 -0.00000000000E+00 -0.29448274468E+02  0.29448274468E+02  0.00000000000E+00 0.  1.
         25    1    1    2    0    0 -0.35015849935E+02  0.58248336669E+02  0.21543256878E+03  0.25579321759E+03  0.12000000000E+03 0.  0.
         25    1    1    2    0    0  0.35015849935E+02 -0.58248336669E+02  0.50376293422E+03  0.52229883435E+03  0.12000000000E+03 0.  0.
<mgrwt>
<rscale>  0 0.29695971E+03</rscale>
<asrwt>0</asrwt>
<pdfrwt beam="1">  1        1 0.45305043E-02 0.29695971E+03</pdfrwt>
<pdfrwt beam="2">  1       -1 0.11517595E+00 0.29695971E+03</pdfrwt>
<totfact> 0.13938979E+03</totfact>
</mgrwt>
</event>
<event>
 4    1  0.1774755E-004  0.2670184E+03  0.7818608E-02  0.1102998E+00
         -2   -1    0    0    0  501 -0.00000000000E+00  0.00000000000E+00  0.88378197038E+02  0.88378197038E+02  0.00000000000E+00 0. -1.
          2   -1    0    0  501    0  0.00000000000E+00 -0.00000000000E+00 -0.20168669294E+03  0.20168669294E+03  0.00000000000E+00 0. -1.
         25    1    1    2    0    0 -0.42166306599E+02 -0.38144263083E+02 -0.41612708148E+02  0.13915674507E+03  0.12000000000E+03 0.  0.
         25    1    1    2    0    0  0.42166306599E+02  0.38144263083E+02 -0.71695787754E+02  0.15090814491E+03  0.12000000000E+03 0.  0.
<mgrwt>
<rscale>  0 0.26701840E+03</rscale>
<asrwt>0</asrwt>
<pdfrwt beam="1">  1        2 0.31028722E-01 0.26701840E+03</pdfrwt>
<pdfrwt beam="2">  1       -2 0.13596646E-01 0.26701840E+03</pdfrwt>
<totfact> 0.67411344E+03</totfact>
</mgrwt>
</event>
<event>
 4    1  0.1774755E-004  0.2411498E+03  0.7818608E-02  0.1119029E+00
         -2   -1    0    0    0  501 -0.00000000000E+00  0.00000000000E+00  0.28155032019E+02  0.28155032019E+02  0.00000000000E+00 0.  1.
          2   -1    0    0  501    0  0.00000000000E+00 -0.00000000000E+00 -0.51636603619E+03  0.51636603619E+03  0.00000000000E+00 0.  1.
         25    1    1    2    0    0 -0.56114708819E+01 -0.94233449026E+01 -0.25368926172E+03  0.28085321708E+03  0.12000000000E+03 0.  0.
         25    1    1    2    0    0  0.56114708819E+01  0.94233449026E+01 -0.23452174245E+03  0.26366785113E+03  0.12000000000E+03 0.  0.
<mgrwt>
<rscale>  0 0.24114976E+03</rscale>
<asrwt>0</asrwt>
<pdfrwt beam="1">  1        2 0.79440933E-01 0.24114976E+03</pdfrwt>
<pdfrwt beam="2">  1       -2 0.43315432E-02 0.24114976E+03</pdfrwt>
<totfact> 0.14417489E+04</totfact>
</mgrwt>
</event>
<event>
 4    1  0.1774755E-004  0.2411988E+03  0.7818608E-02  0.1118997E+00
          2   -1    0    0  501    0  0.00000000000E+00  0.00000000000E+00  0.31096634161E+04  0.31096634161E+04  0.00000000000E+00 0. -1.
         -2   -1    0    0    0  501 -0.00000000000E+00 -0.00000000000E+00 -0.46771016673E+01  0.46771016673E+01  0.00000000000E+00 0. -1.
         25    1    1    2    0    0  0.98865842324E+01  0.52984892065E+01  0.16078692307E+04  0.16123800054E+04  0.12000000000E+03 0.  0.
         25    1    1    2    0    0 -0.98865842324E+01 -0.52984892065E+01  0.14971170837E+04  0.15019605124E+04  0.12000000000E+03 0.  0.
<mgrwt>
<rscale>  0 0.24119877E+03</rscale>
<asrwt>0</asrwt>
<pdfrwt beam="1">  1        2 0.47840810E+00 0.24119877E+03</pdfrwt>
<pdfrwt beam="2">  1       -2 0.71955659E-03 0.24119877E+03</pdfrwt>
<totfact> 0.61636887E+03</totfact>
</mgrwt>
</event>
<event>
 4    1  0.1774755E-004  0.2795851E+03  0.7818608E-02  0.1095916E+00
          1   -1    0    0  501    0  0.00000000000E+00  0.00000000000E+00  0.15978262742E+03  0.15978262742E+03  0.00000000000E+00 0.  1.
         -1   -1    0    0    0  501 -0.00000000000E+00 -0.00000000000E+00 -0.12230336212E+03  0.12230336212E+03  0.00000000000E+00 0.  1.
         25    1    1    2    0    0 -0.17253218305E+02  0.19416588909E+02  0.86175180676E+02  0.15000279741E+03  0.12000000000E+03 0.  0.
         25    1    1    2    0    0  0.17253218305E+02 -0.19416588909E+02 -0.48695915381E+02  0.13208319212E+03  0.12000000000E+03 0.  0.
<mgrwt>
<rscale>  0 0.27958507E+03</rscale>
<asrwt>0</asrwt>
<pdfrwt beam="1">  1        1 0.24581943E-01 0.27958507E+03</pdfrwt>
<pdfrwt beam="2">  1       -1 0.18815902E-01 0.27958507E+03</pdfrwt>
<totfact> 0.43323535E+03</totfact>
</mgrwt>
</event>
<event>
 4    1  0.1774755E-004  0.4087280E+03  0.7818608E-02  0.1040799E+00
         -1   -1    0    0    0  501 -0.00000000000E+00  0.00000000000E+00  0.54627355284E+02  0.54627355284E+02  0.00000000000E+00 0.  1.
          1   -1    0    0  501    0  0.00000000000E+00 -0.00000000000E+00 -0.76453706018E+03  0.76453706018E+03  0.00000000000E+00 0.  1.
         25    1    1    2    0    0 -0.10717076505E+02  0.12367099889E+03 -0.13581753340E+03  0.21967196925E+03  0.12000000000E+03 0.  0.
         25    1    1    2    0    0  0.10717076505E+02 -0.12367099889E+03 -0.57409217150E+03  0.59949244622E+03  0.12000000000E+03 0.  0.
<mgrwt>
<rscale>  0 0.40872797E+03</rscale>
<asrwt>0</asrwt>
<pdfrwt beam="1">  1        1 0.11762108E+00 0.40872797E+03</pdfrwt>
<pdfrwt beam="2">  1       -1 0.84042087E-02 0.40872797E+03</pdfrwt>
<totfact> 0.19766319E+03</totfact>
</mgrwt>
</event>
<event>
 4    1  0.1774755E-004  0.2753502E+03  0.7818608E-02  0.1098256E+00
         -2   -1    0    0    0  501 -0.00000000000E+00  0.00000000000E+00  0.14977895247E+02  0.14977895247E+02  0.00000000000E+00 0. -1.
          2   -1    0    0  501    0  0.00000000000E+00 -0.00000000000E+00 -0.12654934132E+04  0.12654934132E+04  0.00000000000E+00 0. -1.
         25    1    1    2    0    0 -0.42768098906E+01 -0.19071800220E+02 -0.92564234772E+03  0.93359294157E+03  0.12000000000E+03 0.  0.
         25    1    1    2    0    0  0.42768098906E+01  0.19071800220E+02 -0.32487317024E+03  0.34687836688E+03  0.12000000000E+03 0.  0.
<mgrwt>
<rscale>  0 0.27535016E+03</rscale>
<asrwt>0</asrwt>
<pdfrwt beam="1">  1        2 0.19469137E+00 0.27535016E+03</pdfrwt>
<pdfrwt beam="2">  1       -2 0.23042906E-02 0.27535016E+03</pdfrwt>
<totfact> 0.11493190E+04</totfact>
</mgrwt>
</event>
<event>
 4    1  0.1774755E-004  0.2712309E+03  0.7818608E-02  0.1100577E+00
          1   -1    0    0  501    0  0.00000000000E+00  0.00000000000E+00  0.64810023638E+03  0.64810023638E+03  0.00000000000E+00 0.  1.
         -1   -1    0    0    0  501 -0.00000000000E+00 -0.00000000000E+00 -0.28377626846E+02  0.28377626846E+02  0.00000000000E+00 0.  1.
         25    1    1    2    0    0 -0.20798008233E+01  0.45316469893E+02  0.41953491162E+03  0.43871112373E+03  0.12000000000E+03 0.  0.
         25    1    1    2    0    0  0.20798008233E+01 -0.45316469893E+02  0.20018769791E+03  0.23776673949E+03  0.12000000000E+03 0.  0.
<mgrwt>
<rscale>  0 0.27123087E+03</rscale>
<asrwt>0</asrwt>
<pdfrwt beam="1">  1        1 0.99707718E-01 0.27123087E+03</pdfrwt>
<pdfrwt beam="2">  1       -1 0.43657892E-02 0.27123087E+03</pdfrwt>
<totfact> 0.67767133E+03</totfact>
</mgrwt>
</event>
<event>
 4    1  0.1774755E-004  0.2826598E+03  0.7818608E-02  0.1094245E+00
          2   -1    0    0  501    0  0.00000000000E+00  0.00000000000E+00  0.10909514991E+04  0.10909514991E+04  0.00000000000E+00 0.  1.
         -2   -1    0    0    0  501 -0.00000000000E+00 -0.00000000000E+00 -0.18308916173E+02  0.18308916173E+02  0.00000000000E+00 0.  1.
         25    1    1    2    0    0  0.48964766818E+02  0.55182831356E+02  0.58131415429E+03  0.59813780958E+03  0.12000000000E+03 0.  0.
         25    1    1    2    0    0 -0.48964766818E+02 -0.55182831356E+02  0.49132842860E+03  0.51112260566E+03  0.12000000000E+03 0.  0.
<mgrwt>
<rscale>  0 0.28265979E+03</rscale>
<asrwt>0</asrwt>
<pdfrwt beam="1">  1        2 0.16783864E+00 0.28265979E+03</pdfrwt>
<pdfrwt beam="2">  1       -2 0.28167572E-02 0.28265979E+03</pdfrwt>
<totfact> 0.10753759E+04</totfact>
</mgrwt>
</event>
<event>
 4    1  0.1774755E-004  0.2833346E+03  0.7818608E-02  0.1093881E+00
          2   -1    0    0  501    0  0.00000000000E+00  0.00000000000E+00  0.22014450508E+04  0.22014450508E+04  0.00000000000E+00 0. -1.
         -2   -1    0    0    0  501 -0.00000000000E+00 -0.00000000000E+00 -0.91165661061E+01  0.91165661061E+01  0.00000000000E+00 0. -1.
         25    1    1    2    0    0  0.35010425464E+02 -0.59843508846E+02  0.13253137019E+04  0.13325401998E+04  0.12000000000E+03 0.  0.
         25    1    1    2    0    0 -0.35010425464E+02  0.59843508846E+02  0.86701478271E+03  0.87802141710E+03  0.12000000000E+03 0.  0.
<mgrwt>
<rscale>  0 0.28333457E+03</rscale>
<asrwt>0</asrwt>
<pdfrwt beam="1">  1        2 0.33868343E+00 0.28333457E+03</pdfrwt>
<pdfrwt beam="2">  1       -2 0.14025504E-02 0.28333457E+03</pdfrwt>
<totfact> 0.75674905E+03</totfact>
</mgrwt>
</event>
<event>
 4    1  0.1774755E-004  0.2638962E+03  0.7818608E-02  0.1104825E+00
         -1   -1    0    0    0  501 -0.00000000000E+00  0.00000000000E+00  0.21511759209E+02  0.21511759209E+02  0.00000000000E+00 0. -1.
          1   -1    0    0  501    0  0.00000000000E+00 -0.00000000000E+00 -0.80933859900E+03  0.80933859900E+03  0.00000000000E+00 0. -1.
         25    1    1    2    0    0  0.24011331499E+02 -0.48390709496E+02 -0.42412693648E+03  0.44407416391E+03  0.12000000000E+03 0.  0.
         25    1    1    2    0    0 -0.24011331499E+02  0.48390709496E+02 -0.36369990331E+03  0.38677619429E+03  0.12000000000E+03 0.  0.
<mgrwt>
<rscale>  0 0.26389617E+03</rscale>
<asrwt>0</asrwt>
<pdfrwt beam="1">  1        1 0.12451363E+00 0.26389617E+03</pdfrwt>
<pdfrwt beam="2">  1       -1 0.33095015E-02 0.26389617E+03</pdfrwt>
<totfact> 0.73537544E+03</totfact>
</mgrwt>
</event>
<event>
 4    1  0.1774755E-004  0.2771515E+03  0.7818608E-02  0.1097255E+00
          2   -1    0    0  501    0  0.00000000000E+00  0.00000000000E+00  0.15997191819E+04  0.15997191819E+04  0.00000000000E+00 0.  1.
         -2   -1    0    0    0  501 -0.00000000000E+00 -0.00000000000E+00 -0.12004131210E+02  0.12004131210E+02  0.00000000000E+00 0.  1.
         25    1    1    2    0    0  0.43879065666E+02  0.40379267534E+02  0.99924448459E+03  0.10081891676E+04  0.12000000000E+03 0.  0.
         25    1    1    2    0    0 -0.43879065666E+02 -0.40379267534E+02  0.58847056609E+03  0.60353414552E+03  0.12000000000E+03 0.  0.
<mgrwt>
<rscale>  0 0.27715150E+03</rscale>
<asrwt>0</asrwt>
<pdfrwt beam="1">  1        2 0.24611047E+00 0.27715150E+03</pdfrwt>
<pdfrwt beam="2">  1       -2 0.18467907E-02 0.27715150E+03</pdfrwt>
<totfact> 0.10496087E+04</totfact>
</mgrwt>
</event>
<event>
 4    1  0.1774755E-004  0.2570500E+03  0.7818608E-02  0.1108929E+00
         -2   -1    0    0    0  501 -0.00000000000E+00  0.00000000000E+00  0.66098238728E+01  0.66098238728E+01  0.00000000000E+00 0.  1.
          2   -1    0    0  501    0  0.00000000000E+00 -0.00000000000E+00 -0.24991104005E+04  0.24991104005E+04  0.00000000000E+00 0.  1.
         25    1    1    2    0    0  0.17690414981E+02  0.41877187086E+02 -0.13165642962E+04  0.13228031583E+04  0.12000000000E+03 0.  0.
         25    1    1    2    0    0 -0.17690414981E+02 -0.41877187086E+02 -0.11759362804E+04  0.11829170660E+04  0.12000000000E+03 0.  0.
<mgrwt>
<rscale>  0 0.25705003E+03</rscale>
<asrwt>0</asrwt>
<pdfrwt beam="1">  1        2 0.38447936E+00 0.25705003E+03</pdfrwt>
<pdfrwt beam="2">  1       -2 0.10168938E-02 0.25705003E+03</pdfrwt>
<totfact> 0.83525571E+03</totfact>
</mgrwt>
</event>
<event>
 4    1  0.1774755E-004  0.3543435E+03  0.7818608E-02  0.1060846E+00
          2   -1    0    0  501    0  0.00000000000E+00  0.00000000000E+00  0.11505932283E+04  0.11505932283E+04  0.00000000000E+00 0. -1.
         -2   -1    0    0    0  501 -0.00000000000E+00 -0.00000000000E+00 -0.27281426765E+02  0.27281426765E+02  0.00000000000E+00 0. -1.
         25    1    1    2    0    0  0.89281734554E+02  0.40584797537E+02  0.27625738199E+03  0.31675936453E+03  0.12000000000E+03 0.  0.
         25    1    1    2    0    0 -0.89281734554E+02 -0.40584797537E+02  0.84705441953E+03  0.86111529051E+03  0.12000000000E+03 0.  0.
<mgrwt>
<rscale>  0 0.35434348E+03</rscale>
<asrwt>0</asrwt>
<pdfrwt beam="1">  1        2 0.17701430E+00 0.35434348E+03</pdfrwt>
<pdfrwt beam="2">  1       -2 0.41971435E-02 0.35434348E+03</pdfrwt>
<totfact> 0.54741405E+03</totfact>
</mgrwt>
</event>
<event>
 4    1  0.1774755E-004  0.2901510E+03  0.7818608E-02  0.1090270E+00
         -2   -1    0    0    0  501 -0.00000000000E+00  0.00000000000E+00  0.87902091618E+01  0.87902091618E+01  0.00000000000E+00 0.  1.
          2   -1    0    0  501    0  0.00000000000E+00 -0.00000000000E+00 -0.23943573957E+04  0.23943573957E+04  0.00000000000E+00 0.  1.
         25    1    1    2    0    0  0.76160523080E+02  0.14111366186E+02 -0.98205439167E+03  0.99238620714E+03  0.12000000000E+03 0.  0.
         25    1    1    2    0    0 -0.76160523080E+02 -0.14111366186E+02 -0.14035127949E+04  0.14107613977E+04  0.12000000000E+03 0.  0.
<mgrwt>
<rscale>  0 0.29015101E+03</rscale>
<asrwt>0</asrwt>
<pdfrwt beam="1">  1        2 0.36836278E+00 0.29015101E+03</pdfrwt>
<pdfrwt beam="2">  1       -2 0.13523395E-02 0.29015101E+03</pdfrwt>
<totfact> 0.62870872E+03</totfact>
</mgrwt>
</event>
<event>
 4    1  0.1774755E-004  0.2465687E+03  0.7818608E-02  0.1115493E+00
         -2   -1    0    0    0  501 -0.00000000000E+00  0.00000000000E+00  0.59196471869E+02  0.59196471869E+02  0.00000000000E+00 0. -1.
          2   -1    0    0  501    0  0.00000000000E+00 -0.00000000000E+00 -0.25675573687E+03  0.25675573687E+03  0.00000000000E+00 0. -1.
         25    1    1    2    0    0 -0.20149916219E+02 -0.17130895857E+02 -0.85994725229E+02  0.14998193052E+03  0.12000000000E+03 0.  0.
         25    1    1    2    0    0  0.20149916219E+02  0.17130895857E+02 -0.11156453977E+03  0.16597027822E+03  0.12000000000E+03 0.  0.
<mgrwt>
<rscale>  0 0.24656872E+03</rscale>
<asrwt>0</asrwt>
<pdfrwt beam="1">  1        2 0.39500883E-01 0.24656872E+03</pdfrwt>
<pdfrwt beam="2">  1       -2 0.91071494E-02 0.24656872E+03</pdfrwt>
<totfact> 0.98281544E+03</totfact>
</mgrwt>
</event>
<event>
 4    1  0.1774755E-004  0.2583516E+03  0.7818608E-02  0.1108138E+00
          2   -1    0    0  501    0  0.00000000000E+00  0.00000000000E+00  0.10576445162E+03  0.10576445162E+03  0.00000000000E+00 0. -1.
         -2   -1    0    0    0  501 -0.00000000000E+00 -0.00000000000E+00 -0.15776934468E+03  0.15776934468E+03  0.00000000000E+00 0. -1.
         25    1    1    2    0    0 -0.67262369731E+01  0.10572297866E+02 -0.73073180351E+02  0.14105568203E+03  0.12000000000E+03 0.  0.
         25    1    1    2    0    0  0.67262369731E+01 -0.10572297866E+02  0.21068287296E+02  0.12247811427E+03  0.12000000000E+03 0.  0.
<mgrwt>
<rscale>  0 0.25835161E+03</rscale>
<asrwt>0</asrwt>
<pdfrwt beam="1">  1        2 0.16271454E-01 0.25835161E+03</pdfrwt>
<pdfrwt beam="2">  1       -2 0.24272207E-01 0.25835161E+03</pdfrwt>
<totfact> 0.52441983E+03</totfact>
</mgrwt>
</event>
<event>
 4    1  0.1774755E-004  0.2420148E+03  0.7818608E-02  0.1118458E+00
         -2   -1    0    0    0  501 -0.00000000000E+00  0.00000000000E+00  0.18256951821E+02  0.18256951821E+02  0.00000000000E+00 0. -1.
          2   -1    0    0  501    0  0.00000000000E+00 -0.00000000000E+00 -0.80203897535E+03  0.80203897535E+03  0.00000000000E+00 0. -1.
         25    1    1    2    0    0  0.14163008853E+02 -0.56349632040E+01 -0.40284437783E+03  0.42061376151E+03  0.12000000000E+03 0.  0.
         25    1    1    2    0    0 -0.14163008853E+02  0.56349632040E+01 -0.38093764570E+03  0.39968216565E+03  0.12000000000E+03 0.  0.
<mgrwt>
<rscale>  0 0.24201477E+03</rscale>
<asrwt>0</asrwt>
<pdfrwt beam="1">  1        2 0.12339064E+00 0.24201477E+03</pdfrwt>
<pdfrwt beam="2">  1       -2 0.28087613E-02 0.24201477E+03</pdfrwt>
<totfact> 0.16344940E+04</totfact>
</mgrwt>
</event>
<event>
 4    1  0.1774755E-004  0.2962537E+03  0.7818608E-02  0.1087128E+00
          2   -1    0    0  501    0  0.00000000000E+00  0.00000000000E+00  0.35976148336E+04  0.35976148336E+04  0.00000000000E+00 0.  1.
         -2   -1    0    0    0  501 -0.00000000000E+00 -0.00000000000E+00 -0.60989215505E+01  0.60989215505E+01  0.00000000000E+00 0.  1.
         25    1    1    2    0    0 -0.84250456975E+02  0.57584275852E+01  0.15493684597E+04  0.15563013599E+04  0.12000000000E+03 0.  0.
         25    1    1    2    0    0  0.84250456975E+02 -0.57584275852E+01  0.20421474524E+04  0.20474123953E+04  0.12000000000E+03 0.  0.
<mgrwt>
<rscale>  0 0.29625375E+03</rscale>
<asrwt>0</asrwt>
<pdfrwt beam="1">  1        2 0.55347751E+00 0.29625375E+03</pdfrwt>
<pdfrwt beam="2">  1       -2 0.93829850E-03 0.29625375E+03</pdfrwt>
<totfact> 0.20331721E+03</totfact>
</mgrwt>
</event>
<event>
 4    1  0.1774755E-004  0.2588309E+03  0.7818608E-02  0.1107848E+00
         -1   -1    0    0    0  501 -0.00000000000E+00  0.00000000000E+00  0.54559705608E+01  0.54559705608E+01  0.00000000000E+00 0. -1.
          1   -1    0    0  501    0  0.00000000000E+00 -0.00000000000E+00 -0.30697311665E+04  0.30697311665E+04  0.00000000000E+00 0. -1.
         25    1    1    2    0    0  0.29562397286E+01 -0.44205857475E+02 -0.17654018748E+04  0.17700301344E+04  0.12000000000E+03 0.  0.
         25    1    1    2    0    0 -0.29562397286E+01  0.44205857475E+02 -0.12988733211E+04  0.13051570026E+04  0.12000000000E+03 0.  0.
<mgrwt>
<rscale>  0 0.25883093E+03</rscale>
<asrwt>0</asrwt>
<pdfrwt beam="1">  1        1 0.47226736E+00 0.25883093E+03</pdfrwt>
<pdfrwt beam="2">  1       -1 0.83937825E-03 0.25883093E+03</pdfrwt>
<totfact> 0.15690696E+03</totfact>
</mgrwt>
</event>
<event>
 4    1  0.1774755E-004  0.2723214E+03  0.7818608E-02  0.1099958E+00
         -2   -1    0    0    0  501 -0.00000000000E+00  0.00000000000E+00  0.90509432353E+01  0.90509432353E+01  0.00000000000E+00 0.  1.
          2   -1    0    0  501    0  0.00000000000E+00 -0.00000000000E+00 -0.20483768225E+04  0.20483768225E+04  0.00000000000E+00 0.  1.
         25    1    1    2    0    0  0.24851965708E+02  0.27975455962E+02 -0.62422522297E+03  0.63675534967E+03  0.12000000000E+03 0.  0.
         25    1    1    2    0    0 -0.24851965708E+02 -0.27975455962E+02 -0.14151006563E+04  0.14206724161E+04  0.12000000000E+03 0.  0.
<mgrwt>
<rscale>  0 0.27232144E+03</rscale>
<asrwt>0</asrwt>
<pdfrwt beam="1">  1        2 0.31513532E+00 0.27232144E+03</pdfrwt>
<pdfrwt beam="2">  1       -2 0.13924509E-02 0.27232144E+03</pdfrwt>
<totfact> 0.92152245E+03</totfact>
</mgrwt>
</event>
<event>
 4    1  0.1774755E-004  0.3062073E+03  0.7818608E-02  0.1082178E+00
          2   -1    0    0  501    0  0.00000000000E+00  0.00000000000E+00  0.24649958938E+04  0.24649958938E+04  0.00000000000E+00 0.  1.
         -2   -1    0    0    0  501 -0.00000000000E+00 -0.00000000000E+00 -0.95094398342E+01  0.95094398342E+01  0.00000000000E+00 0.  1.
         25    1    1    2    0    0 -0.62066742458E+02  0.19358005545E+02  0.17884207155E+04  0.17936208262E+04  0.12000000000E+03 0.  0.
         25    1    1    2    0    0  0.62066742458E+02 -0.19358005545E+02  0.66706573852E+03  0.68088450739E+03  0.12000000000E+03 0.  0.
<mgrwt>
<rscale>  0 0.30620732E+03</rscale>
<asrwt>0</asrwt>
<pdfrwt beam="1">  1        2 0.37922963E+00 0.30620732E+03</pdfrwt>
<pdfrwt beam="2">  1       -2 0.14629927E-02 0.30620732E+03</pdfrwt>
<totfact> 0.51256057E+03</totfact>
</mgrwt>
</event>
<event>
 4    1  0.1774755E-004  0.3341607E+03  0.7818608E-02  0.1069311E+00
         -2   -1    0    0    0  501 -0.00000000000E+00  0.00000000000E+00  0.45146602760E+02  0.45146602760E+02  0.00000000000E+00 0.  1.
          2   -1    0    0  501    0  0.00000000000E+00 -0.00000000000E+00 -0.61833770883E+03  0.61833770883E+03  0.00000000000E+00 0.  1.
         25    1    1    2    0    0  0.82380370894E+02 -0.50452918610E+02 -0.15816688361E+03  0.22079127151E+03  0.12000000000E+03 0.  0.
         25    1    1    2    0    0 -0.82380370894E+02  0.50452918610E+02 -0.41502422246E+03  0.44269304007E+03  0.12000000000E+03 0.  0.
<mgrwt>
<rscale>  0 0.33416072E+03</rscale>
<asrwt>0</asrwt>
<pdfrwt beam="1">  1        2 0.95128872E-01 0.33416072E+03</pdfrwt>
<pdfrwt beam="2">  1       -2 0.69456316E-02 0.33416072E+03</pdfrwt>
<totfact> 0.57613132E+03</totfact>
</mgrwt>
</event>
<event>
 4    1  0.1774755E-004  0.2847002E+03  0.7818608E-02  0.1093149E+00
         -4   -1    0    0    0  501 -0.00000000000E+00  0.00000000000E+00  0.67097374459E+02  0.67097374459E+02  0.00000000000E+00 0.  1.
          4   -1    0    0  501    0  0.00000000000E+00 -0.00000000000E+00 -0.30200204636E+03  0.30200204636E+03  0.00000000000E+00 0.  1.
         25    1    1    2    0    0 -0.16190489707E+02 -0.13549458714E+02 -0.22026025530E+02  0.12381787266E+03  0.12000000000E+03 0.  0.
         25    1    1    2    0    0  0.16190489707E+02  0.13549458714E+02 -0.21287864637E+03  0.24528154816E+03  0.12000000000E+03 0.  0.
<mgrwt>
<rscale>  0 0.28470015E+03</rscale>
<asrwt>0</asrwt>
<pdfrwt beam="1">  1        4 0.46461854E-01 0.28470015E+03</pdfrwt>
<pdfrwt beam="2">  1       -4 0.10322673E-01 0.28470015E+03</pdfrwt>
<totfact> 0.60983627E+02</totfact>
</mgrwt>
</event>
<event>
 4    1  0.1774755E-004  0.2514623E+03  0.7818608E-02  0.1112384E+00
          1   -1    0    0  501    0  0.00000000000E+00  0.00000000000E+00  0.13211403729E+03  0.13211403729E+03  0.00000000000E+00 0. -1.
         -1   -1    0    0    0  501 -0.00000000000E+00 -0.00000000000E+00 -0.11965662051E+03  0.11965662051E+03  0.00000000000E+00 0. -1.
         25    1    1    2    0    0  0.56355676683E+01 -0.35381267916E+02  0.17410460623E+02  0.12643859332E+03  0.12000000000E+03 0.  0.
         25    1    1    2    0    0 -0.56355676683E+01  0.35381267916E+02 -0.49530438440E+01  0.12533206448E+03  0.12000000000E+03 0.  0.
<mgrwt>
<rscale>  0 0.25146228E+03</rscale>
<asrwt>0</asrwt>
<pdfrwt beam="1">  1        1 0.20325236E-01 0.25146228E+03</pdfrwt>
<pdfrwt beam="2">  1       -1 0.18408711E-01 0.25146228E+03</pdfrwt>
<totfact> 0.57035118E+03</totfact>
</mgrwt>
</event>
<event>
 4    1  0.1774755E-004  0.2507945E+03  0.7818608E-02  0.1112804E+00
          1   -1    0    0  501    0  0.00000000000E+00  0.00000000000E+00  0.43108031427E+02  0.43108031427E+02  0.00000000000E+00 0. -1.
         -1   -1    0    0    0  501 -0.00000000000E+00 -0.00000000000E+00 -0.36476893668E+03  0.36476893668E+03  0.00000000000E+00 0. -1.
         25    1    1    2    0    0  0.17267971959E+02 -0.26042183489E+02 -0.19117345627E+03  0.22786765579E+03  0.12000000000E+03 0.  0.
         25    1    1    2    0    0 -0.17267971959E+02  0.26042183489E+02 -0.13048744899E+03  0.18000931232E+03  0.12000000000E+03 0.  0.
<mgrwt>
<rscale>  0 0.25079450E+03</rscale>
<asrwt>0</asrwt>
<pdfrwt beam="1">  1        1 0.66320050E-02 0.25079450E+03</pdfrwt>
<pdfrwt beam="2">  1       -1 0.56118297E-01 0.25079450E+03</pdfrwt>
<totfact> 0.36893769E+03</totfact>
</mgrwt>
</event>
<event>
 4    1  0.1774755E-004  0.4789354E+03  0.7818608E-02  0.1019428E+00
         -1   -1    0    0    0  501 -0.00000000000E+00  0.00000000000E+00  0.17830796629E+03  0.17830796629E+03  0.00000000000E+00 0.  1.
          1   -1    0    0  501    0  0.00000000000E+00 -0.00000000000E+00 -0.32160530419E+03  0.32160530419E+03  0.00000000000E+00 0.  1.
         25    1    1    2    0    0 -0.10444037572E+03  0.17548930369E+03 -0.34885235057E+02  0.23941860290E+03  0.12000000000E+03 0.  0.
         25    1    1    2    0    0  0.10444037572E+03 -0.17548930369E+03 -0.10841210284E+03  0.26049466757E+03  0.12000000000E+03 0.  0.
<mgrwt>
<rscale>  0 0.47893544E+03</rscale>
<asrwt>0</asrwt>
<pdfrwt beam="1">  1        1 0.49477739E-01 0.47893544E+03</pdfrwt>
<pdfrwt beam="2">  1       -1 0.27431995E-01 0.47893544E+03</pdfrwt>
<totfact> 0.95764348E+02</totfact>
</mgrwt>
</event>
<event>
 4    1  0.1774755E-004  0.2665447E+03  0.7818608E-02  0.1103274E+00
         -1   -1    0    0    0  501 -0.00000000000E+00  0.00000000000E+00  0.76686171868E+01  0.76686171868E+01  0.00000000000E+00 0. -1.
          1   -1    0    0  501    0  0.00000000000E+00 -0.00000000000E+00 -0.23161308577E+04  0.23161308577E+04  0.00000000000E+00 0. -1.
         25    1    1    2    0    0 -0.49093659884E+02 -0.29894405767E+02 -0.10880310830E+04  0.10961366250E+04  0.12000000000E+03 0.  0.
         25    1    1    2    0    0  0.49093659884E+02  0.29894405767E+02 -0.12204311575E+04  0.12276628499E+04  0.12000000000E+03 0.  0.
<mgrwt>
<rscale>  0 0.26654471E+03</rscale>
<asrwt>0</asrwt>
<pdfrwt beam="1">  1        1 0.35632823E+00 0.26654471E+03</pdfrwt>
<pdfrwt beam="2">  1       -1 0.11797859E-02 0.26654471E+03</pdfrwt>
<totfact> 0.31055965E+03</totfact>
</mgrwt>
</event>
<event>
 4    1  0.1774755E-004  0.2806094E+03  0.7818608E-02  0.1095357E+00
          2   -1    0    0  501    0  0.00000000000E+00  0.00000000000E+00  0.75687048772E+03  0.75687048772E+03  0.00000000000E+00 0.  1.
         -2   -1    0    0    0  501 -0.00000000000E+00 -0.00000000000E+00 -0.26008960782E+02  0.26008960782E+02  0.00000000000E+00 0.  1.
         25    1    1    2    0    0 -0.68710117046E+02  0.23376345471E+02  0.35363326387E+03  0.38042610193E+03  0.12000000000E+03 0.  0.
         25    1    1    2    0    0  0.68710117046E+02 -0.23376345471E+02  0.37722826306E+03  0.40245334657E+03  0.12000000000E+03 0.  0.
<mgrwt>
<rscale>  0 0.28060944E+03</rscale>
<asrwt>0</asrwt>
<pdfrwt beam="1">  1        2 0.11644160E+00 0.28060944E+03</pdfrwt>
<pdfrwt beam="2">  1       -2 0.40013792E-02 0.28060944E+03</pdfrwt>
<totfact> 0.10428559E+04</totfact>
</mgrwt>
</event>
<event>
 4    1  0.1774755E-004  0.2739147E+03  0.7818608E-02  0.1099060E+00
         -2   -1    0    0    0  501 -0.00000000000E+00  0.00000000000E+00  0.86081611717E+01  0.86081611717E+01  0.00000000000E+00 0. -1.
          2   -1    0    0  501    0  0.00000000000E+00 -0.00000000000E+00 -0.21790160050E+04  0.21790160050E+04  0.00000000000E+00 0. -1.
         25    1    1    2    0    0 -0.19012880808E+02  0.62013459768E+02 -0.11830712052E+04  0.11909091634E+04  0.12000000000E+03 0.  0.
         25    1    1    2    0    0  0.19012880808E+02 -0.62013459768E+02 -0.98733663863E+03  0.99671500280E+03  0.12000000000E+03 0.  0.
<mgrwt>
<rscale>  0 0.27391474E+03</rscale>
<asrwt>0</asrwt>
<pdfrwt beam="1">  1        2 0.33523328E+00 0.27391474E+03</pdfrwt>
<pdfrwt beam="2">  1       -2 0.13243323E-02 0.27391474E+03</pdfrwt>
<totfact> 0.84573445E+03</totfact>
</mgrwt>
</event>
<event>
 4    1  0.1774755E-004  0.2496156E+03  0.7818608E-02  0.1113548E+00
         -2   -1    0    0    0  501 -0.00000000000E+00  0.00000000000E+00  0.54684548116E+03  0.54684548116E+03  0.00000000000E+00 0.  1.
          2   -1    0    0  501    0  0.00000000000E+00 -0.00000000000E+00 -0.28485174173E+02  0.28485174173E+02  0.00000000000E+00 0.  1.
         25    1    1    2    0    0  0.33226659081E+02 -0.17091986387E+01  0.23988847049E+03  0.27028394423E+03  0.12000000000E+03 0.  0.
         25    1    1    2    0    0 -0.33226659081E+02  0.17091986387E+01  0.27847183649E+03  0.30504671110E+03  0.12000000000E+03 0.  0.
<mgrwt>
<rscale>  0 0.24961561E+03</rscale>
<asrwt>0</asrwt>
<pdfrwt beam="1">  1        2 0.43823349E-02 0.24961561E+03</pdfrwt>
<pdfrwt beam="2">  1       -2 0.84130066E-01 0.24961561E+03</pdfrwt>
<totfact> 0.23715161E+03</totfact>
</mgrwt>
</event>
<event>
 4    1  0.1774755E-004  0.2908199E+03  0.7818608E-02  0.1089922E+00
         -2   -1    0    0    0  501 -0.00000000000E+00  0.00000000000E+00  0.23959279856E+02  0.23959279856E+02  0.00000000000E+00 0.  1.
          2   -1    0    0  501    0  0.00000000000E+00 -0.00000000000E+00 -0.88249952241E+03  0.88249952241E+03  0.00000000000E+00 0.  1.
         25    1    1    2    0    0  0.34522656973E+02 -0.27663648298E+02 -0.21361790101E+03  0.24897730602E+03  0.12000000000E+03 0.  0.
         25    1    1    2    0    0 -0.34522656973E+02  0.27663648298E+02 -0.64492234155E+03  0.65748149625E+03  0.12000000000E+03 0.  0.
<mgrwt>
<rscale>  0 0.29081990E+03</rscale>
<asrwt>0</asrwt>
<pdfrwt beam="1">  1        2 0.13576914E+00 0.29081990E+03</pdfrwt>
<pdfrwt beam="2">  1       -2 0.36860434E-02 0.29081990E+03</pdfrwt>
<totfact> 0.96931775E+03</totfact>
</mgrwt>
</event>
<event>
 4    1  0.1774755E-004  0.2582358E+03  0.7818608E-02  0.1108208E+00
          2   -1    0    0  501    0  0.00000000000E+00  0.00000000000E+00  0.54875197642E+03  0.54875197642E+03  0.00000000000E+00 0.  1.
         -2   -1    0    0    0  501 -0.00000000000E+00 -0.00000000000E+00 -0.30380634382E+02  0.30380634382E+02  0.00000000000E+00 0.  1.
         25    1    1    2    0    0 -0.24459392349E+02 -0.40833035069E+02  0.25376859793E+03  0.28471757923E+03  0.12000000000E+03 0.  0.
         25    1    1    2    0    0  0.24459392349E+02  0.40833035069E+02  0.26460274411E+03  0.29441503158E+03  0.12000000000E+03 0.  0.
<mgrwt>
<rscale>  0 0.25823581E+03</rscale>
<asrwt>0</asrwt>
<pdfrwt beam="1">  1        2 0.84423373E-01 0.25823581E+03</pdfrwt>
<pdfrwt beam="2">  1       -2 0.46739442E-02 0.25823581E+03</pdfrwt>
<totfact> 0.12039292E+04</totfact>
</mgrwt>
</event>
<event>
 4    1  0.1774755E-004  0.2434569E+03  0.7818608E-02  0.1117511E+00
         -2   -1    0    0    0  501 -0.00000000000E+00  0.00000000000E+00  0.66236716380E+01  0.66236716380E+01  0.00000000000E+00 0. -1.
          2   -1    0    0  501    0  0.00000000000E+00 -0.00000000000E+00 -0.22371004990E+04  0.22371004990E+04  0.00000000000E+00 0. -1.
         25    1    1    2    0    0 -0.78910850915E+01 -0.18261112379E+01 -0.12882006874E+04  0.12938031592E+04  0.12000000000E+03 0.  0.
         25    1    1    2    0    0  0.78910850915E+01  0.18261112379E+01 -0.94227613997E+03  0.94992101138E+03  0.12000000000E+03 0.  0.
<mgrwt>
<rscale>  0 0.24345693E+03</rscale>
<asrwt>0</asrwt>
<pdfrwt beam="1">  1        2 0.34416941E+00 0.24345693E+03</pdfrwt>
<pdfrwt beam="2">  1       -2 0.10190261E-02 0.24345693E+03</pdfrwt>
<totfact> 0.11517866E+04</totfact>
</mgrwt>
</event>
<event>
 4    1  0.1774755E-004  0.2873853E+03  0.7818608E-02  0.1091722E+00
          2   -1    0    0  501    0  0.00000000000E+00  0.00000000000E+00  0.84298014451E+03  0.84298014451E+03  0.00000000000E+00 0.  1.
         -2   -1    0    0    0  501 -0.00000000000E+00 -0.00000000000E+00 -0.24493546670E+02  0.24493546670E+02  0.00000000000E+00 0.  1.
         25    1    1    2    0    0  0.14916698610E+02  0.79245253220E+01  0.17616731024E+03  0.21382288745E+03  0.12000000000E+03 0.  0.
         25    1    1    2    0    0 -0.14916698610E+02 -0.79245253220E+01  0.64231928760E+03  0.65365080373E+03  0.12000000000E+03 0.  0.
<mgrwt>
<rscale>  0 0.28738527E+03</rscale>
<asrwt>0</asrwt>
<pdfrwt beam="1">  1        2 0.12968923E+00 0.28738527E+03</pdfrwt>
<pdfrwt beam="2">  1       -2 0.37682386E-02 0.28738527E+03</pdfrwt>
<totfact> 0.99567847E+03</totfact>
</mgrwt>
</event>
<event>
 4    1  0.1774755E-004  0.3854160E+03  0.7818608E-02  0.1048950E+00
          3   -1    0    0  501    0  0.00000000000E+00  0.00000000000E+00  0.20694618572E+03  0.20694618572E+03  0.00000000000E+00 0. -1.
         -3   -1    0    0    0  501 -0.00000000000E+00 -0.00000000000E+00 -0.17944944125E+03  0.17944944125E+03  0.00000000000E+00 0. -1.
         25    1    1    2    0    0 -0.14345760260E+03  0.31652747656E+02 -0.20314406596E+02  0.19077383283E+03  0.12000000000E+03 0.  0.
         25    1    1    2    0    0  0.14345760260E+03 -0.31652747656E+02  0.47811151069E+02  0.19562179414E+03  0.12000000000E+03 0.  0.
<mgrwt>
<rscale>  0 0.38541602E+03</rscale>
<asrwt>0</asrwt>
<pdfrwt beam="1">  1        3 0.31837875E-01 0.38541602E+03</pdfrwt>
<pdfrwt beam="2">  1       -3 0.27607606E-01 0.38541602E+03</pdfrwt>
<totfact> 0.31318293E+02</totfact>
</mgrwt>
</event>
<event>
 4    1  0.1774755E-004  0.2868412E+03  0.7818608E-02  0.1092010E+00
         -2   -1    0    0    0  501 -0.00000000000E+00  0.00000000000E+00  0.43761519779E+02  0.43761519779E+02  0.00000000000E+00 0.  1.
          2   -1    0    0  501    0  0.00000000000E+00 -0.00000000000E+00 -0.47003553340E+03  0.47003553340E+03  0.00000000000E+00 0.  1.
         25    1    1    2    0    0  0.44314463731E+02  0.29216786307E+02 -0.31684376597E+03  0.34293930124E+03  0.12000000000E+03 0.  0.
         25    1    1    2    0    0 -0.44314463731E+02 -0.29216786307E+02 -0.10943024765E+03  0.17085775194E+03  0.12000000000E+03 0.  0.
<mgrwt>
<rscale>  0 0.28684121E+03</rscale>
<asrwt>0</asrwt>
<pdfrwt beam="1">  1        2 0.72313159E-01 0.28684121E+03</pdfrwt>
<pdfrwt beam="2">  1       -2 0.67325415E-02 0.28684121E+03</pdfrwt>
<totfact> 0.82323967E+03</totfact>
</mgrwt>
</event>
<event>
 4    1  0.1774755E-004  0.2500843E+03  0.7818608E-02  0.1113252E+00
         -3   -1    0    0    0  501 -0.00000000000E+00  0.00000000000E+00  0.75401502507E+02  0.75401502507E+02  0.00000000000E+00 0.  1.
          3   -1    0    0  501    0  0.00000000000E+00 -0.00000000000E+00 -0.20736381152E+03  0.20736381152E+03  0.00000000000E+00 0.  1.
         25    1    1    2    0    0 -0.34096424998E+02  0.79169863175E+01 -0.69609577163E+02  0.14307598716E+03  0.12000000000E+03 0.  0.
         25    1    1    2    0    0  0.34096424998E+02 -0.79169863175E+01 -0.62352731847E+02  0.13968932686E+03  0.12000000000E+03 0.  0.
<mgrwt>
<rscale>  0 0.25008433E+03</rscale>
<asrwt>0</asrwt>
<pdfrwt beam="1">  1        3 0.31902124E-01 0.25008433E+03</pdfrwt>
<pdfrwt beam="2">  1       -3 0.11600231E-01 0.25008433E+03</pdfrwt>
<totfact> 0.13857815E+03</totfact>
</mgrwt>
</event>
<event>
 4    1  0.1774755E-004  0.3399527E+03  0.7818608E-02  0.1066816E+00
         -2   -1    0    0    0  501 -0.00000000000E+00  0.00000000000E+00  0.43651177205E+03  0.43651177205E+03  0.00000000000E+00 0.  1.
          2   -1    0    0  501    0  0.00000000000E+00 -0.00000000000E+00 -0.66188256860E+02  0.66188256860E+02  0.00000000000E+00 0.  1.
         25    1    1    2    0    0  0.62921289347E+01  0.10179002508E+03  0.90578703397E+02  0.18167361284E+03  0.12000000000E+03 0.  0.
         25    1    1    2    0    0 -0.62921289347E+01 -0.10179002508E+03  0.27974481179E+03  0.32102641607E+03  0.12000000000E+03 0.  0.
<mgrwt>
<rscale>  0 0.33995266E+03</rscale>
<asrwt>0</asrwt>
<pdfrwt beam="1">  1        2 0.10182809E-01 0.33995266E+03</pdfrwt>
<pdfrwt beam="2">  1       -2 0.67155656E-01 0.33995266E+03</pdfrwt>
<totfact> 0.13123124E+03</totfact>
</mgrwt>
</event>
<event>
 4    1  0.1774755E-004  0.2589007E+03  0.7818608E-02  0.1107805E+00
          2   -1    0    0  501    0  0.00000000000E+00  0.00000000000E+00  0.19452898397E+03  0.19452898397E+03  0.00000000000E+00 0. -1.
         -2   -1    0    0    0  501 -0.00000000000E+00 -0.00000000000E+00 -0.86143456583E+02  0.86143456583E+02  0.00000000000E+00 0. -1.
         25    1    1    2    0    0  0.24789466763E+02 -0.21023893995E+02  0.93293473141E+02  0.15543549759E+03  0.12000000000E+03 0.  0.
         25    1    1    2    0    0 -0.24789466763E+02  0.21023893995E+02  0.15092054248E+02  0.12523694296E+03  0.12000000000E+03 0.  0.
<mgrwt>
<rscale>  0 0.25890075E+03</rscale>
<asrwt>0</asrwt>
<pdfrwt beam="1">  1        2 0.29927536E-01 0.25890075E+03</pdfrwt>
<pdfrwt beam="2">  1       -2 0.13252839E-01 0.25890075E+03</pdfrwt>
<totfact> 0.73034673E+03</totfact>
</mgrwt>
</event>
<event>
 4    1  0.1774755E-004  0.2439800E+03  0.7818608E-02  0.1117170E+00
          1   -1    0    0  501    0  0.00000000000E+00  0.00000000000E+00  0.75772990756E+03  0.75772990756E+03  0.00000000000E+00 0.  1.
         -1   -1    0    0    0  501 -0.00000000000E+00 -0.00000000000E+00 -0.19639658417E+02  0.19639658417E+02  0.00000000000E+00 0.  1.
         25    1    1    2    0    0  0.19120561765E+02  0.67732306447E+01  0.34237144892E+03  0.36335888812E+03  0.12000000000E+03 0.  0.
         25    1    1    2    0    0 -0.19120561765E+02 -0.67732306447E+01  0.39571880022E+03  0.41401067786E+03  0.12000000000E+03 0.  0.
<mgrwt>
<rscale>  0 0.24397997E+03</rscale>
<asrwt>0</asrwt>
<pdfrwt beam="1">  1        1 0.11657381E+00 0.24397997E+03</pdfrwt>
<pdfrwt beam="2">  1       -1 0.30214865E-02 0.24397997E+03</pdfrwt>
<totfact> 0.92741846E+03</totfact>
</mgrwt>
</event>
<event>
 4    1  0.1774755E-004  0.2944962E+03  0.7818608E-02  0.1088025E+00
         -2   -1    0    0    0  501 -0.00000000000E+00  0.00000000000E+00  0.15078374607E+02  0.15078374607E+02  0.00000000000E+00 0.  1.
          2   -1    0    0  501    0  0.00000000000E+00 -0.00000000000E+00 -0.14379531449E+04  0.14379531449E+04  0.00000000000E+00 0.  1.
         25    1    1    2    0    0 -0.25809125857E+02  0.43975809287E+02 -0.10490446117E+04  0.10571161621E+04  0.12000000000E+03 0.  0.
         25    1    1    2    0    0  0.25809125857E+02 -0.43975809287E+02 -0.37383015862E+03  0.39591535747E+03  0.12000000000E+03 0.  0.
<mgrwt>
<rscale>  0 0.29449615E+03</rscale>
<asrwt>0</asrwt>
<pdfrwt beam="1">  1        2 0.22122361E+00 0.29449615E+03</pdfrwt>
<pdfrwt beam="2">  1       -2 0.23197494E-02 0.29449615E+03</pdfrwt>
<totfact> 0.91638907E+03</totfact>
</mgrwt>
</event>
<event>
 4    1  0.1774755E-004  0.2717507E+03  0.7818608E-02  0.1100282E+00
          2   -1    0    0  501    0  0.00000000000E+00  0.00000000000E+00  0.29452015628E+03  0.29452015628E+03  0.00000000000E+00 0. -1.
         -2   -1    0    0    0  501 -0.00000000000E+00 -0.00000000000E+00 -0.62685402652E+02  0.62685402652E+02  0.00000000000E+00 0. -1.
         25    1    1    2    0    0  0.12924742050E+02  0.62207855778E+02  0.12252223702E+03  0.18288948806E+03  0.12000000000E+03 0.  0.
         25    1    1    2    0    0 -0.12924742050E+02 -0.62207855778E+02  0.10931251661E+03  0.17431607087E+03  0.12000000000E+03 0.  0.
<mgrwt>
<rscale>  0 0.27175073E+03</rscale>
<asrwt>0</asrwt>
<pdfrwt beam="1">  1        2 0.45310793E-01 0.27175073E+03</pdfrwt>
<pdfrwt beam="2">  1       -2 0.96439082E-02 0.27175073E+03</pdfrwt>
<totfact> 0.77796236E+03</totfact>
</mgrwt>
</event>
<event>
 4    1  0.1774755E-004  0.4019356E+03  0.7818608E-02  0.1043111E+00
          2   -1    0    0  501    0  0.00000000000E+00  0.00000000000E+00  0.13305200176E+03  0.13305200176E+03  0.00000000000E+00 0.  1.
         -2   -1    0    0    0  501 -0.00000000000E+00 -0.00000000000E+00 -0.30355096271E+03  0.30355096271E+03  0.00000000000E+00 0.  1.
         25    1    1    2    0    0 -0.50102384137E+01 -0.16062519885E+03 -0.71402178058E+02  0.21289393610E+03  0.12000000000E+03 0.  0.
         25    1    1    2    0    0  0.50102384137E+01  0.16062519885E+03 -0.99096782887E+02  0.22370902837E+03  0.12000000000E+03 0.  0.
<mgrwt>
<rscale>  0 0.40193563E+03</rscale>
<asrwt>0</asrwt>
<pdfrwt beam="1">  1        2 0.20469539E-01 0.40193563E+03</pdfrwt>
<pdfrwt beam="2">  1       -2 0.46700148E-01 0.40193563E+03</pdfrwt>
<totfact> 0.11985484E+03</totfact>
</mgrwt>
</event>
<event>
 4    1  0.1774755E-004  0.2737427E+03  0.7818608E-02  0.1099156E+00
          1   -1    0    0  501    0  0.00000000000E+00  0.00000000000E+00  0.16190245069E+03  0.16190245069E+03  0.00000000000E+00 0. -1.
         -1   -1    0    0    0  501 -0.00000000000E+00 -0.00000000000E+00 -0.11571018026E+03  0.11571018026E+03  0.00000000000E+00 0. -1.
         25    1    1    2    0    0  0.11663439075E+02 -0.42012388519E+02  0.73115673919E+02  0.14712912143E+03  0.12000000000E+03 0.  0.
         25    1    1    2    0    0 -0.11663439075E+02  0.42012388519E+02 -0.26923403494E+02  0.13048350952E+03  0.12000000000E+03 0.  0.
<mgrwt>
<rscale>  0 0.27374267E+03</rscale>
<asrwt>0</asrwt>
<pdfrwt beam="1">  1        1 0.24908069E-01 0.27374267E+03</pdfrwt>
<pdfrwt beam="2">  1       -1 0.17801566E-01 0.27374267E+03</pdfrwt>
<totfact> 0.46554317E+03</totfact>
</mgrwt>
</event>
<event>
 4    1  0.1774755E-004  0.2876135E+03  0.7818608E-02  0.1091602E+00
          2   -1    0    0  501    0  0.00000000000E+00  0.00000000000E+00  0.33141308463E+02  0.33141308463E+02  0.00000000000E+00 0. -1.
         -2   -1    0    0    0  501 -0.00000000000E+00 -0.00000000000E+00 -0.62400599152E+03  0.62400599152E+03  0.00000000000E+00 0. -1.
         25    1    1    2    0    0 -0.28319321002E+02  0.67906611731E+02 -0.36271202042E+03  0.38906721992E+03  0.12000000000E+03 0.  0.
         25    1    1    2    0    0  0.28319321002E+02 -0.67906611731E+02 -0.22815266264E+03  0.26808008006E+03  0.12000000000E+03 0.  0.
<mgrwt>
<rscale>  0 0.28761346E+03</rscale>
<asrwt>0</asrwt>
<pdfrwt beam="1">  1        2 0.50986632E-02 0.28761346E+03</pdfrwt>
<pdfrwt beam="2">  1       -2 0.96000914E-01 0.28761346E+03</pdfrwt>
<totfact> 0.14452107E+03</totfact>
</mgrwt>
</event>
<event>
 4    1  0.1774755E-004  0.2936792E+03  0.7818608E-02  0.1088444E+00
          1   -1    0    0  501    0  0.00000000000E+00  0.00000000000E+00  0.10019666240E+04  0.10019666240E+04  0.00000000000E+00 0. -1.
         -1   -1    0    0    0  501 -0.00000000000E+00 -0.00000000000E+00 -0.21519554129E+02  0.21519554129E+02  0.00000000000E+00 0. -1.
         25    1    1    2    0    0  0.12640633769E+01 -0.62857605264E+02  0.29279631880E+03  0.32261797950E+03  0.12000000000E+03 0.  0.
         25    1    1    2    0    0 -0.12640633769E+01  0.62857605264E+02  0.68765075108E+03  0.70086819863E+03  0.12000000000E+03 0.  0.
<mgrwt>
<rscale>  0 0.29367925E+03</rscale>
<asrwt>0</asrwt>
<pdfrwt beam="1">  1        1 0.15414868E+00 0.29367925E+03</pdfrwt>
<pdfrwt beam="2">  1       -1 0.33107014E-02 0.29367925E+03</pdfrwt>
<totfact> 0.51994067E+03</totfact>
</mgrwt>
</event>
<event>
 4    1  0.1774755E-004  0.2788732E+03  0.7818608E-02  0.1096306E+00
          2   -1    0    0  501    0  0.00000000000E+00  0.00000000000E+00  0.81252247056E+02  0.81252247056E+02  0.00000000000E+00 0.  1.
         -2   -1    0    0    0  501 -0.00000000000E+00 -0.00000000000E+00 -0.23928644044E+03  0.23928644044E+03  0.00000000000E+00 0.  1.
         25    1    1    2    0    0  0.48274513550E+02 -0.45699609865E+02 -0.50312336186E+02  0.14611712484E+03  0.12000000000E+03 0.  0.
         25    1    1    2    0    0 -0.48274513550E+02  0.45699609865E+02 -0.10772185720E+03  0.17442156266E+03  0.12000000000E+03 0.  0.
<mgrwt>
<rscale>  0 0.27887317E+03</rscale>
<asrwt>0</asrwt>
<pdfrwt beam="1">  1        2 0.12500346E-01 0.27887317E+03</pdfrwt>
<pdfrwt beam="2">  1       -2 0.36813298E-01 0.27887317E+03</pdfrwt>
<totfact> 0.33797797E+03</totfact>
</mgrwt>
</event>
<event>
 4    1  0.1774755E-004  0.3229841E+03  0.7818608E-02  0.1074284E+00
         -1   -1    0    0    0  501 -0.00000000000E+00  0.00000000000E+00  0.81295166868E+02  0.81295166868E+02  0.00000000000E+00 0.  1.
          1   -1    0    0  501    0  0.00000000000E+00 -0.00000000000E+00 -0.32080231467E+03  0.32080231467E+03  0.00000000000E+00 0.  1.
         25    1    1    2    0    0  0.47220347683E+02  0.54652045529E+02 -0.21983873445E+03  0.26066391480E+03  0.12000000000E+03 0.  0.
         25    1    1    2    0    0 -0.47220347683E+02 -0.54652045529E+02 -0.19668413352E+02  0.14143356674E+03  0.12000000000E+03 0.  0.
<mgrwt>
<rscale>  0 0.32298407E+03</rscale>
<asrwt>0</asrwt>
<pdfrwt beam="1">  1        1 0.49354202E-01 0.32298407E+03</pdfrwt>
<pdfrwt beam="2">  1       -1 0.12506949E-01 0.32298407E+03</pdfrwt>
<totfact> 0.34546841E+03</totfact>
</mgrwt>
</event>
<event>
 4    1  0.1774755E-004  0.2606846E+03  0.7818608E-02  0.1106733E+00
         -4   -1    0    0    0  501 -0.00000000000E+00  0.00000000000E+00  0.13579961966E+03  0.13579961966E+03  0.00000000000E+00 0. -1.
          4   -1    0    0  501    0  0.00000000000E+00 -0.00000000000E+00 -0.12510433553E+03  0.12510433553E+03  0.00000000000E+00 0. -1.
         25    1    1    2    0    0 -0.30140525639E+02 -0.19212505075E+02  0.41593431309E+02  0.13193780794E+03  0.12000000000E+03 0.  0.
         25    1    1    2    0    0  0.30140525639E+02  0.19212505075E+02 -0.30898147176E+02  0.12896614725E+03  0.12000000000E+03 0.  0.
<mgrwt>
<rscale>  0 0.26068465E+03</rscale>
<asrwt>0</asrwt>
<pdfrwt beam="1">  1        4 0.19246821E-01 0.26068465E+03</pdfrwt>
<pdfrwt beam="2">  1       -4 0.20892249E-01 0.26068465E+03</pdfrwt>
<totfact> 0.93843573E+02</totfact>
</mgrwt>
</event>
<event>
 4    1  0.1774755E-004  0.2598923E+03  0.7818608E-02  0.1107208E+00
          2   -1    0    0  501    0  0.00000000000E+00  0.00000000000E+00  0.55908056508E+03  0.55908056508E+03  0.00000000000E+00 0. -1.
         -2   -1    0    0    0  501 -0.00000000000E+00 -0.00000000000E+00 -0.30203170858E+02  0.30203170858E+02  0.00000000000E+00 0. -1.
         25    1    1    2    0    0  0.53416019179E+01 -0.45559526670E+02  0.30874346447E+03  0.33440503889E+03  0.12000000000E+03 0.  0.
         25    1    1    2    0    0 -0.53416019179E+01  0.45559526670E+02  0.22013392976E+03  0.25487869706E+03  0.12000000000E+03 0.  0.
<mgrwt>
<rscale>  0 0.25989233E+03</rscale>
<asrwt>0</asrwt>
<pdfrwt beam="1">  1        2 0.86012387E-01 0.25989233E+03</pdfrwt>
<pdfrwt beam="2">  1       -2 0.46466421E-02 0.25989233E+03</pdfrwt>
<totfact> 0.11894681E+04</totfact>
</mgrwt>
</event>
<event>
 4    1  0.1774755E-004  0.2812611E+03  0.7818608E-02  0.1095002E+00
         -2   -1    0    0    0  501 -0.00000000000E+00  0.00000000000E+00  0.90594897962E+02  0.90594897962E+02  0.00000000000E+00 0. -1.
          2   -1    0    0  501    0  0.00000000000E+00 -0.00000000000E+00 -0.21830089088E+03  0.21830089088E+03  0.00000000000E+00 0. -1.
         25    1    1    2    0    0  0.63675720858E+02  0.49062396753E+01 -0.24281154112E+02  0.13808780924E+03  0.12000000000E+03 0.  0.
         25    1    1    2    0    0 -0.63675720858E+02 -0.49062396753E+01 -0.10342483880E+03  0.17080797960E+03  0.12000000000E+03 0.  0.
<mgrwt>
<rscale>  0 0.28126107E+03</rscale>
<asrwt>0</asrwt>
<pdfrwt beam="1">  1        2 0.33584752E-01 0.28126107E+03</pdfrwt>
<pdfrwt beam="2">  1       -2 0.13937677E-01 0.28126107E+03</pdfrwt>
<totfact> 0.59488647E+03</totfact>
</mgrwt>
</event>
<event>
 4    1  0.1774755E-004  0.2491100E+03  0.7818608E-02  0.1113869E+00
         -1   -1    0    0    0  501 -0.00000000000E+00  0.00000000000E+00  0.31652576617E+02  0.31652576617E+02  0.00000000000E+00 0.  1.
          1   -1    0    0  501    0  0.00000000000E+00 -0.00000000000E+00 -0.49013213642E+03  0.49013213642E+03  0.00000000000E+00 0.  1.
         25    1    1    2    0    0 -0.81248858119E+01 -0.32077929324E+02 -0.22012463383E+03  0.25288309895E+03  0.12000000000E+03 0.  0.
         25    1    1    2    0    0  0.81248858119E+01  0.32077929324E+02 -0.23835492598E+03  0.26890161409E+03  0.12000000000E+03 0.  0.
<mgrwt>
<rscale>  0 0.24910998E+03</rscale>
<asrwt>0</asrwt>
<pdfrwt beam="1">  1        1 0.75404934E-01 0.24910998E+03</pdfrwt>
<pdfrwt beam="2">  1       -1 0.48696278E-02 0.24910998E+03</pdfrwt>
<totfact> 0.84073731E+03</totfact>
</mgrwt>
</event>
<event>
 4    1  0.1774755E-004  0.2680875E+03  0.7818608E-02  0.1102379E+00
          2   -1    0    0  501    0  0.00000000000E+00  0.00000000000E+00  0.20658060562E+03  0.20658060562E+03  0.00000000000E+00 0. -1.
         -2   -1    0    0    0  501 -0.00000000000E+00 -0.00000000000E+00 -0.86976863625E+02  0.86976863625E+02  0.00000000000E+00 0. -1.
         25    1    1    2    0    0  0.23778469590E+02  0.46264841916E+02  0.27654875656E+02  0.13368112567E+03  0.12000000000E+03 0.  0.
         25    1    1    2    0    0 -0.23778469590E+02 -0.46264841916E+02  0.91948866340E+02  0.15987634357E+03  0.12000000000E+03 0.  0.
<mgrwt>
<rscale>  0 0.26808755E+03</rscale>
<asrwt>0</asrwt>
<pdfrwt beam="1">  1        2 0.31781632E-01 0.26808755E+03</pdfrwt>
<pdfrwt beam="2">  1       -2 0.13381056E-01 0.26808755E+03</pdfrwt>
<totfact> 0.67414909E+03</totfact>
</mgrwt>
</event>
<event>
 4    1  0.1774755E-004  0.3498207E+03  0.7818608E-02  0.1062689E+00
          1   -1    0    0  501    0  0.00000000000E+00  0.00000000000E+00  0.68233941766E+03  0.68233941766E+03  0.00000000000E+00 0. -1.
         -1   -1    0    0    0  501 -0.00000000000E+00 -0.00000000000E+00 -0.44836383508E+02  0.44836383508E+02  0.00000000000E+00 0. -1.
         25    1    1    2    0    0  0.59740610462E+02  0.10687141082E+03  0.24664715795E+03  0.30037519790E+03  0.12000000000E+03 0.  0.
         25    1    1    2    0    0 -0.59740610462E+02 -0.10687141082E+03  0.39085587620E+03  0.42680060327E+03  0.12000000000E+03 0.  0.
<mgrwt>
<rscale>  0 0.34982071E+03</rscale>
<asrwt>0</asrwt>
<pdfrwt beam="1">  1        1 0.10497529E+00 0.34982071E+03</pdfrwt>
<pdfrwt beam="2">  1       -1 0.68979056E-02 0.34982071E+03</pdfrwt>
<totfact> 0.31717696E+03</totfact>
</mgrwt>
</event>
<event>
 4    1  0.1774755E-004  0.2604527E+03  0.7818608E-02  0.1106872E+00
         -2   -1    0    0    0  501 -0.00000000000E+00  0.00000000000E+00  0.31406756573E+02  0.31406756573E+02  0.00000000000E+00 0.  1.
          2   -1    0    0  501    0  0.00000000000E+00 -0.00000000000E+00 -0.53997604987E+03  0.53997604987E+03  0.00000000000E+00 0.  1.
         25    1    1    2    0    0  0.46075317415E+02  0.10278849551E+02 -0.21441365007E+03  0.25020352308E+03  0.12000000000E+03 0.  0.
         25    1    1    2    0    0 -0.46075317415E+02 -0.10278849551E+02 -0.29415564323E+03  0.32117928337E+03  0.12000000000E+03 0.  0.
<mgrwt>
<rscale>  0 0.26045265E+03</rscale>
<asrwt>0</asrwt>
<pdfrwt beam="1">  1        2 0.83073240E-01 0.26045265E+03</pdfrwt>
<pdfrwt beam="2">  1       -2 0.48318086E-02 0.26045265E+03</pdfrwt>
<totfact> 0.11664274E+04</totfact>
</mgrwt>
</event>
<event>
 4    1  0.1774755E-004  0.2711374E+03  0.7818608E-02  0.1100630E+00
          1   -1    0    0  501    0  0.00000000000E+00  0.00000000000E+00  0.22076553179E+03  0.22076553179E+03  0.00000000000E+00 0.  1.
         -1   -1    0    0    0  501 -0.00000000000E+00 -0.00000000000E+00 -0.83250657346E+02  0.83250657346E+02  0.00000000000E+00 0.  1.
         25    1    1    2    0    0  0.62084179368E+02 -0.57279881147E+00  0.56266442878E+02  0.14635807467E+03  0.12000000000E+03 0.  0.
         25    1    1    2    0    0 -0.62084179368E+02  0.57279881147E+00  0.81248431569E+02  0.15765811447E+03  0.12000000000E+03 0.  0.
<mgrwt>
<rscale>  0 0.27113742E+03</rscale>
<asrwt>0</asrwt>
<pdfrwt beam="1">  1        1 0.33963928E-01 0.27113742E+03</pdfrwt>
<pdfrwt beam="2">  1       -1 0.12807793E-01 0.27113742E+03</pdfrwt>
<totfact> 0.53043081E+03</totfact>
</mgrwt>
</event>
<event>
 4    1  0.1774755E-004  0.2568914E+03  0.7818608E-02  0.1109025E+00
          4   -1    0    0  501    0  0.00000000000E+00  0.00000000000E+00  0.34589278790E+03  0.34589278790E+03  0.00000000000E+00 0. -1.
         -4   -1    0    0    0  501 -0.00000000000E+00 -0.00000000000E+00 -0.47697723157E+02  0.47697723157E+02  0.00000000000E+00 0. -1.
         25    1    1    2    0    0 -0.21423627211E+02 -0.25845088715E+02  0.10134628589E+03  0.16061758956E+03  0.12000000000E+03 0.  0.
         25    1    1    2    0    0  0.21423627211E+02  0.25845088715E+02  0.19684877885E+03  0.23297292150E+03  0.12000000000E+03 0.  0.
<mgrwt>
<rscale>  0 0.25689140E+03</rscale>
<asrwt>0</asrwt>
<pdfrwt beam="1">  1        4 0.53214274E-01 0.25689140E+03</pdfrwt>
<pdfrwt beam="2">  1       -4 0.73381115E-02 0.25689140E+03</pdfrwt>
<totfact> 0.80751974E+02</totfact>
</mgrwt>
</event>
<event>
 4    1  0.1774755E-004  0.2739370E+03  0.7818608E-02  0.1099047E+00
         -3   -1    0    0    0  501 -0.00000000000E+00  0.00000000000E+00  0.26124202578E+02  0.26124202578E+02  0.00000000000E+00 0. -1.
          3   -1    0    0  501    0  0.00000000000E+00 -0.00000000000E+00 -0.71812227046E+03  0.71812227046E+03  0.00000000000E+00 0. -1.
         25    1    1    2    0    0  0.47292654070E+00 -0.48288508993E+02 -0.46835902483E+03  0.48589317745E+03  0.12000000000E+03 0.  0.
         25    1    1    2    0    0 -0.47292654070E+00  0.48288508993E+02 -0.22363904306E+03  0.25835329559E+03  0.12000000000E+03 0.  0.
<mgrwt>
<rscale>  0 0.27393701E+03</rscale>
<asrwt>0</asrwt>
<pdfrwt beam="1">  1        3 0.11048037E+00 0.27393701E+03</pdfrwt>
<pdfrwt beam="2">  1       -3 0.40191074E-02 0.27393701E+03</pdfrwt>
<totfact> 0.58843544E+02</totfact>
</mgrwt>
</event>
<event>
 4    1  0.1774755E-004  0.2999966E+03  0.7818608E-02  0.1085242E+00
         -1   -1    0    0    0  501 -0.00000000000E+00  0.00000000000E+00  0.27522480148E+03  0.27522480148E+03  0.00000000000E+00 0.  1.
          1   -1    0    0  501    0  0.00000000000E+00 -0.00000000000E+00 -0.81749486429E+02  0.81749486429E+02  0.00000000000E+00 0.  1.
         25    1    1    2    0    0 -0.64405843844E+02 -0.16934136001E+02  0.24704171638E+02  0.13944595290E+03  0.12000000000E+03 0.  0.
         25    1    1    2    0    0  0.64405843844E+02  0.16934136001E+02  0.16877114341E+03  0.21752833501E+03  0.12000000000E+03 0.  0.
<mgrwt>
<rscale>  0 0.29999657E+03</rscale>
<asrwt>0</asrwt>
<pdfrwt beam="1">  1        1 0.12576844E-01 0.29999657E+03</pdfrwt>
<pdfrwt beam="2">  1       -1 0.42342277E-01 0.29999657E+03</pdfrwt>
<totfact> 0.26240556E+03</totfact>
</mgrwt>
</event>
<event>
 4    1  0.1774755E-004  0.3692555E+03  0.7818608E-02  0.1054978E+00
         -2   -1    0    0    0  501 -0.00000000000E+00  0.00000000000E+00  0.62343802928E+02  0.62343802928E+02  0.00000000000E+00 0.  1.
          2   -1    0    0  501    0  0.00000000000E+00 -0.00000000000E+00 -0.54676506555E+03  0.54676506555E+03  0.00000000000E+00 0.  1.
         25    1    1    2    0    0  0.42006627416E+02 -0.10574879471E+03 -0.10678544712E+03  0.19685145680E+03  0.12000000000E+03 0.  0.
         25    1    1    2    0    0 -0.42006627416E+02  0.10574879471E+03 -0.37763581550E+03  0.41225741167E+03  0.12000000000E+03 0.  0.
<mgrwt>
<rscale>  0 0.36925554E+03</rscale>
<asrwt>0</asrwt>
<pdfrwt beam="1">  1        2 0.84117702E-01 0.36925554E+03</pdfrwt>
<pdfrwt beam="2">  1       -2 0.95913544E-02 0.36925554E+03</pdfrwt>
<totfact> 0.40068249E+03</totfact>
</mgrwt>
</event>
<event>
 4    1  0.1774755E-004  0.3002962E+03  0.7818608E-02  0.1085093E+00
          1   -1    0    0  501    0  0.00000000000E+00  0.00000000000E+00  0.14927108573E+03  0.14927108573E+03  0.00000000000E+00 0. -1.
         -1   -1    0    0    0  501 -0.00000000000E+00 -0.00000000000E+00 -0.15103026382E+03  0.15103026382E+03  0.00000000000E+00 0. -1.
         25    1    1    2    0    0  0.77816095924E+02 -0.15419704922E+02 -0.43907520776E+02  0.15040273424E+03  0.12000000000E+03 0.  0.
         25    1    1    2    0    0 -0.77816095924E+02  0.15419704922E+02  0.42148342685E+02  0.14989861532E+03  0.12000000000E+03 0.  0.
<mgrwt>
<rscale>  0 0.30029620E+03</rscale>
<asrwt>0</asrwt>
<pdfrwt beam="1">  1        1 0.22964783E-01 0.30029620E+03</pdfrwt>
<pdfrwt beam="2">  1       -1 0.23235425E-01 0.30029620E+03</pdfrwt>
<totfact> 0.33531652E+03</totfact>
</mgrwt>
</event>
<event>
 4    1  0.1774755E-004  0.3239112E+03  0.7818608E-02  0.1073863E+00
          2   -1    0    0  501    0  0.00000000000E+00  0.00000000000E+00  0.78753162901E+03  0.78753162901E+03  0.00000000000E+00 0. -1.
         -2   -1    0    0    0  501 -0.00000000000E+00 -0.00000000000E+00 -0.33306107769E+02  0.33306107769E+02  0.00000000000E+00 0. -1.
         25    1    1    2    0    0  0.95299999627E+02  0.40267649873E+01  0.50955202384E+03  0.53211048643E+03  0.12000000000E+03 0.  0.
         25    1    1    2    0    0 -0.95299999627E+02 -0.40267649873E+01  0.24467349739E+03  0.28872725035E+03  0.12000000000E+03 0.  0.
<mgrwt>
<rscale>  0 0.32391118E+03</rscale>
<asrwt>0</asrwt>
<pdfrwt beam="1">  1        2 0.12115870E+00 0.32391118E+03</pdfrwt>
<pdfrwt beam="2">  1       -2 0.51240172E-02 0.32391118E+03</pdfrwt>
<totfact> 0.68446702E+03</totfact>
</mgrwt>
</event>
<event>
 4    1  0.1774755E-004  0.2782106E+03  0.7818608E-02  0.1096670E+00
          2   -1    0    0  501    0  0.00000000000E+00  0.00000000000E+00  0.22827697459E+02  0.22827697459E+02  0.00000000000E+00 0.  1.
         -2   -1    0    0    0  501 -0.00000000000E+00 -0.00000000000E+00 -0.84766704523E+03  0.84766704523E+03  0.00000000000E+00 0.  1.
         25    1    1    2    0    0 -0.42997727184E+02  0.43947851440E+02 -0.30539149702E+03  0.33383256977E+03  0.12000000000E+03 0.  0.
         25    1    1    2    0    0  0.42997727184E+02 -0.43947851440E+02 -0.51944785075E+03  0.53666217292E+03  0.12000000000E+03 0.  0.
<mgrwt>
<rscale>  0 0.27821062E+03</rscale>
<asrwt>0</asrwt>
<pdfrwt beam="1">  1        2 0.35119535E-02 0.27821062E+03</pdfrwt>
<pdfrwt beam="2">  1       -2 0.13041031E+00 0.27821062E+03</pdfrwt>
<totfact> 0.11439560E+03</totfact>
</mgrwt>
</event>
<event>
 4    1  0.1774755E-004  0.2666163E+03  0.7818608E-02  0.1103232E+00
          1   -1    0    0  501    0  0.00000000000E+00  0.00000000000E+00  0.40877439237E+03  0.40877439237E+03  0.00000000000E+00 0. -1.
         -1   -1    0    0    0  501 -0.00000000000E+00 -0.00000000000E+00 -0.43474018289E+02  0.43474018289E+02  0.00000000000E+00 0. -1.
         25    1    1    2    0    0  0.19047977787E+02 -0.40974326961E+02  0.12080454683E+03  0.17616883794E+03  0.12000000000E+03 0.  0.
         25    1    1    2    0    0 -0.19047977787E+02  0.40974326961E+02  0.24449582725E+03  0.27607957272E+03  0.12000000000E+03 0.  0.
<mgrwt>
<rscale>  0 0.26661632E+03</rscale>
<asrwt>0</asrwt>
<pdfrwt beam="1">  1        1 0.62888366E-01 0.26661632E+03</pdfrwt>
<pdfrwt beam="2">  1       -1 0.66883108E-02 0.26661632E+03</pdfrwt>
<totfact> 0.66232475E+03</totfact>
</mgrwt>
</event>
<event>
 4    1  0.1774755E-004  0.4355244E+03  0.7818608E-02  0.1032129E+00
         -2   -1    0    0    0  501 -0.00000000000E+00  0.00000000000E+00  0.22506425231E+03  0.22506425231E+03  0.00000000000E+00 0. -1.
          2   -1    0    0  501    0  0.00000000000E+00 -0.00000000000E+00 -0.21069706184E+03  0.21069706184E+03  0.00000000000E+00 0. -1.
         25    1    1    2    0    0  0.12624347202E+03 -0.56539018526E+02  0.12508784989E+03  0.22176799822E+03  0.12000000000E+03 0.  0.
         25    1    1    2    0    0 -0.12624347202E+03  0.56539018526E+02 -0.11072065941E+03  0.21399331593E+03  0.12000000000E+03 0.  0.
<mgrwt>
<rscale>  0 0.43552440E+03</rscale>
<asrwt>0</asrwt>
<pdfrwt beam="1">  1        2 0.32414933E-01 0.43552440E+03</pdfrwt>
<pdfrwt beam="2">  1       -2 0.34625270E-01 0.43552440E+03</pdfrwt>
<totfact> 0.12710118E+03</totfact>
</mgrwt>
</event>
<event>
 4    1  0.1774755E-004  0.2768293E+03  0.7818608E-02  0.1097433E+00
          2   -1    0    0  501    0  0.00000000000E+00  0.00000000000E+00  0.32011464167E+03  0.32011464167E+03  0.00000000000E+00 0.  1.
         -2   -1    0    0    0  501 -0.00000000000E+00 -0.00000000000E+00 -0.59849230502E+02  0.59849230502E+02  0.00000000000E+00 0.  1.
         25    1    1    2    0    0 -0.19126917670E+02  0.20780315517E+02  0.43749328123E+02  0.13081155990E+03  0.12000000000E+03 0.  0.
         25    1    1    2    0    0  0.19126917670E+02 -0.20780315517E+02  0.21651608305E+03  0.24915231227E+03  0.12000000000E+03 0.  0.
<mgrwt>
<rscale>  0 0.27682930E+03</rscale>
<asrwt>0</asrwt>
<pdfrwt beam="1">  1        2 0.49248405E-01 0.27682930E+03</pdfrwt>
<pdfrwt beam="2">  1       -2 0.92075741E-02 0.27682930E+03</pdfrwt>
<totfact> 0.76586203E+03</totfact>
</mgrwt>
</event>
<event>
 4    1  0.1774755E-004  0.2518554E+03  0.7818608E-02  0.1112138E+00
         -2   -1    0    0    0  501 -0.00000000000E+00  0.00000000000E+00  0.55829134085E+02  0.55829134085E+02  0.00000000000E+00 0. -1.
          2   -1    0    0  501    0  0.00000000000E+00 -0.00000000000E+00 -0.28404134116E+03  0.28404134116E+03  0.00000000000E+00 0. -1.
         25    1    1    2    0    0  0.26445406441E+01  0.32761126327E+02 -0.87886927123E+02  0.15232989514E+03  0.12000000000E+03 0.  0.
         25    1    1    2    0    0 -0.26445406441E+01 -0.32761126327E+02 -0.14032527995E+03  0.18754058010E+03  0.12000000000E+03 0.  0.
<mgrwt>
<rscale>  0 0.25185537E+03</rscale>
<asrwt>0</asrwt>
<pdfrwt beam="1">  1        2 0.43698667E-01 0.25185537E+03</pdfrwt>
<pdfrwt beam="2">  1       -2 0.85890977E-02 0.25185537E+03</pdfrwt>
<totfact> 0.96770769E+03</totfact>
</mgrwt>
</event>
<event>
 4    1  0.1774755E-004  0.3199407E+03  0.7818608E-02  0.1075677E+00
         -1   -1    0    0    0  501 -0.00000000000E+00  0.00000000000E+00  0.95112928580E+01  0.95112928580E+01  0.00000000000E+00 0. -1.
          1   -1    0    0  501    0  0.00000000000E+00 -0.00000000000E+00 -0.26905390830E+04  0.26905390830E+04  0.00000000000E+00 0. -1.
         25    1    1    2    0    0  0.37342263741E+02 -0.98791637949E+02 -0.12896870880E+04  0.12995564695E+04  0.12000000000E+03 0.  0.
         25    1    1    2    0    0 -0.37342263741E+02  0.98791637949E+02 -0.13913407021E+04  0.14004939063E+04  0.12000000000E+03 0.  0.
<mgrwt>
<rscale>  0 0.31994065E+03</rscale>
<asrwt>0</asrwt>
<pdfrwt beam="1">  1        1 0.41392967E+00 0.31994065E+03</pdfrwt>
<pdfrwt beam="2">  1       -1 0.14632738E-02 0.31994065E+03</pdfrwt>
<totfact> 0.12728364E+03</totfact>
</mgrwt>
</event>
<event>
 4    1  0.1774755E-004  0.4869339E+03  0.7818608E-02  0.1017247E+00
          2   -1    0    0  501    0  0.00000000000E+00  0.00000000000E+00  0.25309402120E+04  0.25309402120E+04  0.00000000000E+00 0. -1.
         -2   -1    0    0    0  501 -0.00000000000E+00 -0.00000000000E+00 -0.23420607529E+02  0.23420607529E+02  0.00000000000E+00 0. -1.
         25    1    1    2    0    0  0.19966117365E+03  0.28486157362E+02  0.15937314191E+04  0.16109177141E+04  0.12000000000E+03 0.  0.
         25    1    1    2    0    0 -0.19966117365E+03 -0.28486157362E+02  0.91378818530E+03  0.94344310534E+03  0.12000000000E+03 0.  0.
<mgrwt>
<rscale>  0 0.48693391E+03</rscale>
<asrwt>0</asrwt>
<pdfrwt beam="1">  1        2 0.38937520E+00 0.48693391E+03</pdfrwt>
<pdfrwt beam="2">  1       -2 0.36031724E-02 0.48693391E+03</pdfrwt>
<totfact> 0.12118981E+03</totfact>
</mgrwt>
</event>
<event>
 4    1  0.1774755E-004  0.2578315E+03  0.7818608E-02  0.1108453E+00
         -3   -1    0    0    0  501 -0.00000000000E+00  0.00000000000E+00  0.28731681861E+03  0.28731681861E+03  0.00000000000E+00 0.  1.
          3   -1    0    0  501    0  0.00000000000E+00 -0.00000000000E+00 -0.57843034208E+02  0.57843034208E+02  0.00000000000E+00 0.  1.
         25    1    1    2    0    0  0.46630558573E+02 -0.64192275884E+01  0.11217542073E+03  0.17087697473E+03  0.12000000000E+03 0.  0.
         25    1    1    2    0    0 -0.46630558573E+02  0.64192275884E+01  0.11729836367E+03  0.17428287809E+03  0.12000000000E+03 0.  0.
<mgrwt>
<rscale>  0 0.25783155E+03</rscale>
<asrwt>0</asrwt>
<pdfrwt beam="1">  1        3 0.88989285E-02 0.25783155E+03</pdfrwt>
<pdfrwt beam="2">  1       -3 0.44202587E-01 0.25783155E+03</pdfrwt>
<totfact> 0.11547372E+03</totfact>
</mgrwt>
</event>
<event>
 4    1  0.1774755E-004  0.2504710E+03  0.7818608E-02  0.1113007E+00
          3   -1    0    0  501    0  0.00000000000E+00  0.00000000000E+00  0.21840613106E+03  0.21840613106E+03  0.00000000000E+00 0. -1.
         -3   -1    0    0    0  501 -0.00000000000E+00 -0.00000000000E+00 -0.71810875877E+02  0.71810875877E+02  0.00000000000E+00 0. -1.
         25    1    1    2    0    0  0.23388062005E+02 -0.20805270888E+02  0.93502474893E+02  0.15531443446E+03  0.12000000000E+03 0.  0.
         25    1    1    2    0    0 -0.23388062005E+02  0.20805270888E+02  0.53092780286E+02  0.13490257247E+03  0.12000000000E+03 0.  0.
<mgrwt>
<rscale>  0 0.25047104E+03</rscale>
<asrwt>0</asrwt>
<pdfrwt beam="1">  1        3 0.33600943E-01 0.25047104E+03</pdfrwt>
<pdfrwt beam="2">  1       -3 0.11047827E-01 0.25047104E+03</pdfrwt>
<totfact> 0.13642901E+03</totfact>
</mgrwt>
</event>
<event>
 4    1  0.1774755E-004  0.3032425E+03  0.7818608E-02  0.1083631E+00
         -1   -1    0    0    0  501 -0.00000000000E+00  0.00000000000E+00  0.21033236085E+02  0.21033236085E+02  0.00000000000E+00 0.  1.
          1   -1    0    0  501    0  0.00000000000E+00 -0.00000000000E+00 -0.10929846907E+04  0.10929846907E+04  0.00000000000E+00 0.  1.
         25    1    1    2    0    0  0.67781631893E+02  0.62398217459E+02 -0.57291735754E+03  0.59255563936E+03  0.12000000000E+03 0.  0.
         25    1    1    2    0    0 -0.67781631893E+02 -0.62398217459E+02 -0.49903409706E+03  0.52146228742E+03  0.12000000000E+03 0.  0.
<mgrwt>
<rscale>  0 0.30324251E+03</rscale>
<asrwt>0</asrwt>
<pdfrwt beam="1">  1        1 0.16815151E+00 0.30324251E+03</pdfrwt>
<pdfrwt beam="2">  1       -1 0.32358821E-02 0.30324251E+03</pdfrwt>
<totfact> 0.46108534E+03</totfact>
</mgrwt>
</event>
<event>
 4    1  0.1774755E-004  0.2988189E+03  0.7818608E-02  0.1085833E+00
          2   -1    0    0  501    0  0.00000000000E+00  0.00000000000E+00  0.22137821801E+04  0.22137821801E+04  0.00000000000E+00 0.  1.
         -2   -1    0    0    0  501 -0.00000000000E+00 -0.00000000000E+00 -0.10083730395E+02  0.10083730395E+02  0.00000000000E+00 0.  1.
         25    1    1    2    0    0  0.61498710006E+02  0.64280534167E+02  0.10793937260E+04  0.10896810974E+04  0.12000000000E+03 0.  0.
         25    1    1    2    0    0 -0.61498710006E+02 -0.64280534167E+02  0.11243047237E+04  0.11341848131E+04  0.12000000000E+03 0.  0.
<mgrwt>
<rscale>  0 0.29881889E+03</rscale>
<asrwt>0</asrwt>
<pdfrwt beam="1">  1        2 0.34058149E+00 0.29881889E+03</pdfrwt>
<pdfrwt beam="2">  1       -2 0.15513449E-02 0.29881889E+03</pdfrwt>
<totfact> 0.64304141E+03</totfact>
</mgrwt>
</event>
<event>
 4    1  0.1774755E-004  0.2418324E+03  0.7818608E-02  0.1118578E+00
          1   -1    0    0  501    0  0.00000000000E+00  0.00000000000E+00  0.11323061946E+04  0.11323061946E+04  0.00000000000E+00 0. -1.
         -1   -1    0    0    0  501 -0.00000000000E+00 -0.00000000000E+00 -0.12912346133E+02  0.12912346133E+02  0.00000000000E+00 0. -1.
         25    1    1    2    0    0  0.12849164010E+02  0.71838664457E+01  0.56919240968E+03  0.58189063250E+03  0.12000000000E+03 0.  0.
         25    1    1    2    0    0 -0.12849164010E+02 -0.71838664457E+01  0.55020143884E+03  0.56332790828E+03  0.12000000000E+03 0.  0.
<mgrwt>
<rscale>  0 0.24183242E+03</rscale>
<asrwt>0</asrwt>
<pdfrwt beam="1">  1        1 0.17420087E+00 0.24183242E+03</pdfrwt>
<pdfrwt beam="2">  1       -1 0.19865157E-02 0.24183242E+03</pdfrwt>
<totfact> 0.88107670E+03</totfact>
</mgrwt>
</event>
<event>
 4    1  0.1774755E-004  0.2816226E+03  0.7818608E-02  0.1094806E+00
         -2   -1    0    0    0  501 -0.00000000000E+00  0.00000000000E+00  0.37010895491E+02  0.37010895491E+02  0.00000000000E+00 0. -1.
          2   -1    0    0  501    0  0.00000000000E+00 -0.00000000000E+00 -0.53572935300E+03  0.53572935300E+03  0.00000000000E+00 0. -1.
         25    1    1    2    0    0  0.12101195401E+02 -0.60911262858E+02 -0.32997244202E+03  0.35656476742E+03  0.12000000000E+03 0.  0.
         25    1    1    2    0    0 -0.12101195401E+02  0.60911262858E+02 -0.16874601550E+03  0.21617548108E+03  0.12000000000E+03 0.  0.
<mgrwt>
<rscale>  0 0.28162261E+03</rscale>
<asrwt>0</asrwt>
<pdfrwt beam="1">  1        2 0.82419894E-01 0.28162261E+03</pdfrwt>
<pdfrwt beam="2">  1       -2 0.56939843E-02 0.28162261E+03</pdfrwt>
<totfact> 0.91938786E+03</totfact>
</mgrwt>
</event>
<event>
 4    1  0.1774755E-004  0.2565711E+03  0.7818608E-02  0.1109221E+00
          2   -1    0    0  501    0  0.00000000000E+00  0.00000000000E+00  0.17167883703E+02  0.17167883703E+02  0.00000000000E+00 0. -1.
         -2   -1    0    0    0  501 -0.00000000000E+00 -0.00000000000E+00 -0.95860308939E+03  0.95860308939E+03  0.00000000000E+00 0. -1.
         25    1    1    2    0    0  0.29719301768E+02 -0.59539538765E+01 -0.59904122282E+03  0.61169361048E+03  0.12000000000E+03 0.  0.
         25    1    1    2    0    0 -0.29719301768E+02  0.59539538765E+01 -0.34239398287E+03  0.36407736262E+03  0.12000000000E+03 0.  0.
<mgrwt>
<rscale>  0 0.25657113E+03</rscale>
<asrwt>0</asrwt>
<pdfrwt beam="1">  1        2 0.26412131E-02 0.25657113E+03</pdfrwt>
<pdfrwt beam="2">  1       -2 0.14747738E+00 0.25657113E+03</pdfrwt>
<totfact> 0.12328955E+03</totfact>
</mgrwt>
</event>
<event>
 4    1  0.1774755E-004  0.3283805E+03  0.7818608E-02  0.1071856E+00
          2   -1    0    0  501    0  0.00000000000E+00  0.00000000000E+00  0.39624483540E+03  0.39624483540E+03  0.00000000000E+00 0.  1.
         -2   -1    0    0    0  501 -0.00000000000E+00 -0.00000000000E+00 -0.68034784422E+02  0.68034784422E+02  0.00000000000E+00 0.  1.
         25    1    1    2    0    0 -0.60349374858E+01 -0.62065042715E+02  0.29575185540E+03  0.32520401284E+03  0.12000000000E+03 0.  0.
         25    1    1    2    0    0  0.60349374858E+01  0.62065042715E+02  0.32458195586E+02  0.13907560699E+03  0.12000000000E+03 0.  0.
<mgrwt>
<rscale>  0 0.32838046E+03</rscale>
<asrwt>0</asrwt>
<pdfrwt beam="1">  1        2 0.60960743E-01 0.32838046E+03</pdfrwt>
<pdfrwt beam="2">  1       -2 0.10466890E-01 0.32838046E+03</pdfrwt>
<totfact> 0.49822952E+03</totfact>
</mgrwt>
</event>
<event>
 4    1  0.1774755E-004  0.2540939E+03  0.7818608E-02  0.1110745E+00
          2   -1    0    0  501    0  0.00000000000E+00  0.00000000000E+00  0.14352565965E+04  0.14352565965E+04  0.00000000000E+00 0. -1.
         -2   -1    0    0    0  501 -0.00000000000E+00 -0.00000000000E+00 -0.11246023979E+02  0.11246023979E+02  0.00000000000E+00 0. -1.
         25    1    1    2    0    0  0.94144257350E+01 -0.10334610752E+02  0.93580456562E+03  0.94357067601E+03  0.12000000000E+03 0.  0.
         25    1    1    2    0    0 -0.94144257350E+01  0.10334610752E+02  0.48820600686E+03  0.50293194442E+03  0.12000000000E+03 0.  0.
<mgrwt>
<rscale>  0 0.25409392E+03</rscale>
<asrwt>0</asrwt>
<pdfrwt beam="1">  1        2 0.22080856E+00 0.25409392E+03</pdfrwt>
<pdfrwt beam="2">  1       -2 0.17301587E-02 0.25409392E+03</pdfrwt>
<totfact> 0.14107543E+04</totfact>
</mgrwt>
</event>
<event>
 4    1  0.1774755E-004  0.3396669E+03  0.7818608E-02  0.1066938E+00
          2   -1    0    0  501    0  0.00000000000E+00  0.00000000000E+00  0.92020197037E+02  0.92020197037E+02  0.00000000000E+00 0.  1.
         -2   -1    0    0    0  501 -0.00000000000E+00 -0.00000000000E+00 -0.31344632642E+03  0.31344632642E+03  0.00000000000E+00 0.  1.
         25    1    1    2    0    0 -0.10408617937E+03 -0.59546616196E+02 -0.10118868293E+03  0.19753197663E+03  0.12000000000E+03 0.  0.
         25    1    1    2    0    0  0.10408617937E+03  0.59546616196E+02 -0.12023744646E+03  0.20793454683E+03  0.12000000000E+03 0.  0.
<mgrwt>
<rscale>  0 0.33966685E+03</rscale>
<asrwt>0</asrwt>
<pdfrwt beam="1">  1        2 0.14156954E-01 0.33966685E+03</pdfrwt>
<pdfrwt beam="2">  1       -2 0.48222511E-01 0.33966685E+03</pdfrwt>
<totfact> 0.17330724E+03</totfact>
</mgrwt>
</event>
<event>
 4    1  0.1774755E-004  0.2536095E+03  0.7818608E-02  0.1111045E+00
          1   -1    0    0  501    0  0.00000000000E+00  0.00000000000E+00  0.55341029798E+02  0.55341029798E+02  0.00000000000E+00 0.  1.
         -1   -1    0    0    0  501 -0.00000000000E+00 -0.00000000000E+00 -0.29055185520E+03  0.29055185520E+03  0.00000000000E+00 0.  1.
         25    1    1    2    0    0  0.16584706018E+02 -0.33993664590E+02 -0.96091650583E+02  0.15831685639E+03  0.12000000000E+03 0.  0.
         25    1    1    2    0    0 -0.16584706018E+02  0.33993664590E+02 -0.13911917482E+03  0.18757602861E+03  0.12000000000E+03 0.  0.
<mgrwt>
<rscale>  0 0.25360945E+03</rscale>
<asrwt>0</asrwt>
<pdfrwt beam="1">  1        1 0.85140045E-02 0.25360945E+03</pdfrwt>
<pdfrwt beam="2">  1       -1 0.44700286E-01 0.25360945E+03</pdfrwt>
<totfact> 0.39991151E+03</totfact>
</mgrwt>
</event>
<event>
 4    1  0.1774755E-004  0.2465128E+03  0.7818608E-02  0.1115529E+00
         -1   -1    0    0    0  501 -0.00000000000E+00  0.00000000000E+00  0.12929911393E+02  0.12929911393E+02  0.00000000000E+00 0.  1.
          1   -1    0    0  501    0  0.00000000000E+00 -0.00000000000E+00 -0.11749605142E+04  0.11749605142E+04  0.00000000000E+00 0.  1.
         25    1    1    2    0    0  0.22154656807E+02  0.10929366666E+01 -0.66449457531E+03  0.67560718169E+03  0.12000000000E+03 0.  0.
         25    1    1    2    0    0 -0.22154656807E+02 -0.10929366666E+01 -0.49753602745E+03  0.51228324386E+03  0.12000000000E+03 0.  0.
<mgrwt>
<rscale>  0 0.24651276E+03</rscale>
<asrwt>0</asrwt>
<pdfrwt beam="1">  1        1 0.18076318E+00 0.24651276E+03</pdfrwt>
<pdfrwt beam="2">  1       -1 0.19892169E-02 0.24651276E+03</pdfrwt>
<totfact> 0.82085558E+03</totfact>
</mgrwt>
</event>
<event>
 4    1  0.1774755E-004  0.2671138E+03  0.7818608E-02  0.1102943E+00
          2   -1    0    0  501    0  0.00000000000E+00  0.00000000000E+00  0.42252005698E+04  0.42252005698E+04  0.00000000000E+00 0. -1.
         -2   -1    0    0    0  501 -0.00000000000E+00 -0.00000000000E+00 -0.42216796967E+01  0.42216796967E+01  0.00000000000E+00 0. -1.
         25    1    1    2    0    0 -0.41188458754E+02  0.28466133630E+02  0.16274594497E+04  0.16326454209E+04  0.12000000000E+03 0.  0.
         25    1    1    2    0    0  0.41188458754E+02 -0.28466133630E+02  0.25935194404E+04  0.25967768286E+04  0.12000000000E+03 0.  0.
<mgrwt>
<rscale>  0 0.26711378E+03</rscale>
<asrwt>0</asrwt>
<pdfrwt beam="1">  1        2 0.65002748E+00 0.26711378E+03</pdfrwt>
<pdfrwt beam="2">  1       -2 0.64949256E-03 0.26711378E+03</pdfrwt>
<totfact> 0.11807281E+03</totfact>
</mgrwt>
</event>
<event>
 4    1  0.1774755E-004  0.2617502E+03  0.7818608E-02  0.1106096E+00
         -2   -1    0    0    0  501 -0.00000000000E+00  0.00000000000E+00  0.13520129635E+02  0.13520129635E+02  0.00000000000E+00 0.  1.
          2   -1    0    0  501    0  0.00000000000E+00 -0.00000000000E+00 -0.12668737248E+04  0.12668737248E+04  0.00000000000E+00 0.  1.
         25    1    1    2    0    0  0.41172636915E+02 -0.11376879131E+02 -0.47962740081E+03  0.49625302318E+03  0.12000000000E+03 0.  0.
         25    1    1    2    0    0 -0.41172636915E+02  0.11376879131E+02 -0.77372619437E+03  0.78414083127E+03  0.12000000000E+03 0.  0.
<mgrwt>
<rscale>  0 0.26175024E+03</rscale>
<asrwt>0</asrwt>
<pdfrwt beam="1">  1        2 0.19490365E+00 0.26175024E+03</pdfrwt>
<pdfrwt beam="2">  1       -2 0.20800199E-02 0.26175024E+03</pdfrwt>
<totfact> 0.13322625E+04</totfact>
</mgrwt>
</event>
<event>
 4    1  0.1774755E-004  0.3790692E+03  0.7818608E-02  0.1051278E+00
         -2   -1    0    0    0  501 -0.00000000000E+00  0.00000000000E+00  0.15962663384E+03  0.15962663384E+03  0.00000000000E+00 0.  1.
          2   -1    0    0  501    0  0.00000000000E+00 -0.00000000000E+00 -0.22504612668E+03  0.22504612668E+03  0.00000000000E+00 0.  1.
         25    1    1    2    0    0 -0.91390929991E+02  0.11056599584E+03 -0.14944325088E+01  0.18702773818E+03  0.12000000000E+03 0.  0.
         25    1    1    2    0    0  0.91390929991E+02 -0.11056599584E+03 -0.63925060332E+02  0.19764502235E+03  0.12000000000E+03 0.  0.
<mgrwt>
<rscale>  0 0.37906915E+03</rscale>
<asrwt>0</asrwt>
<pdfrwt beam="1">  1        2 0.34622481E-01 0.37906915E+03</pdfrwt>
<pdfrwt beam="2">  1       -2 0.24557944E-01 0.37906915E+03</pdfrwt>
<totfact> 0.22092943E+03</totfact>
</mgrwt>
</event>
<event>
 4    1  0.1774755E-004  0.2466526E+03  0.7818608E-02  0.1115439E+00
         -2   -1    0    0    0  501 -0.00000000000E+00  0.00000000000E+00  0.20536812837E+02  0.20536812837E+02  0.00000000000E+00 0. -1.
          2   -1    0    0  501    0  0.00000000000E+00 -0.00000000000E+00 -0.74059084672E+03  0.74059084672E+03  0.00000000000E+00 0. -1.
         25    1    1    2    0    0 -0.22091924813E+02 -0.81642115935E+01 -0.40927167243E+03  0.42715103810E+03  0.12000000000E+03 0.  0.
         25    1    1    2    0    0  0.22091924813E+02  0.81642115935E+01 -0.31078236145E+03  0.33397662146E+03  0.12000000000E+03 0.  0.
<mgrwt>
<rscale>  0 0.24665259E+03</rscale>
<asrwt>0</asrwt>
<pdfrwt beam="1">  1        2 0.11393705E+00 0.24665259E+03</pdfrwt>
<pdfrwt beam="2">  1       -2 0.31595099E-02 0.24665259E+03</pdfrwt>
<totfact> 0.15176807E+04</totfact>
</mgrwt>
</event>
<event>
 4    1  0.1774755E-004  0.2492685E+03  0.7818608E-02  0.1113768E+00
         -1   -1    0    0    0  501 -0.00000000000E+00  0.00000000000E+00  0.11106052849E+02  0.11106052849E+02  0.00000000000E+00 0.  1.
          1   -1    0    0  501    0  0.00000000000E+00 -0.00000000000E+00 -0.13986693465E+04  0.13986693465E+04  0.00000000000E+00 0.  1.
         25    1    1    2    0    0  0.34464628411E+01  0.31046798026E+02 -0.62271059793E+03  0.63493643032E+03  0.12000000000E+03 0.  0.
         25    1    1    2    0    0 -0.34464628411E+01 -0.31046798026E+02 -0.76485269574E+03  0.77483896904E+03  0.12000000000E+03 0.  0.
<mgrwt>
<rscale>  0 0.24926850E+03</rscale>
<asrwt>0</asrwt>
<pdfrwt beam="1">  1        1 0.21517991E+00 0.24926850E+03</pdfrwt>
<pdfrwt beam="2">  1       -1 0.17086235E-02 0.24926850E+03</pdfrwt>
<totfact> 0.72029238E+03</totfact>
</mgrwt>
</event>
<event>
 4    1  0.1774755E-004  0.2657281E+03  0.7818608E-02  0.1103750E+00
         -1   -1    0    0    0  501 -0.00000000000E+00  0.00000000000E+00  0.81154002748E+01  0.81154002748E+01  0.00000000000E+00 0. -1.
          1   -1    0    0  501    0  0.00000000000E+00 -0.00000000000E+00 -0.21752299709E+04  0.21752299709E+04  0.00000000000E+00 0. -1.
         25    1    1    2    0    0  0.20245424229E+01 -0.34919439673E+02 -0.71341537017E+03  0.72428237341E+03  0.12000000000E+03 0.  0.
         25    1    1    2    0    0 -0.20245424229E+01  0.34919439673E+02 -0.14536992004E+04  0.14590629977E+04  0.12000000000E+03 0.  0.
<mgrwt>
<rscale>  0 0.26572815E+03</rscale>
<asrwt>0</asrwt>
<pdfrwt beam="1">  1        1 0.33465107E+00 0.26572815E+03</pdfrwt>
<pdfrwt beam="2">  1       -1 0.12485220E-02 0.26572815E+03</pdfrwt>
<totfact> 0.35369891E+03</totfact>
</mgrwt>
</event>
<event>
 4    1  0.1774755E-004  0.2825205E+03  0.7818608E-02  0.1094320E+00
         -2   -1    0    0    0  501 -0.00000000000E+00  0.00000000000E+00  0.19314300308E+03  0.19314300308E+03  0.00000000000E+00 0. -1.
          2   -1    0    0  501    0  0.00000000000E+00 -0.00000000000E+00 -0.10331445001E+03  0.10331445001E+03  0.00000000000E+00 0. -1.
         25    1    1    2    0    0  0.50059318615E+02  0.41420834782E+02  0.83223356438E+02  0.15983662907E+03  0.12000000000E+03 0.  0.
         25    1    1    2    0    0 -0.50059318615E+02 -0.41420834782E+02  0.66051966291E+01  0.13662082402E+03  0.12000000000E+03 0.  0.
<mgrwt>
<rscale>  0 0.28252053E+03</rscale>
<asrwt>0</asrwt>
<pdfrwt beam="1">  1        2 0.15894531E-01 0.28252053E+03</pdfrwt>
<pdfrwt beam="2">  1       -2 0.29714308E-01 0.28252053E+03</pdfrwt>
<totfact> 0.37692318E+03</totfact>
</mgrwt>
</event>
<event>
 4    1  0.1774755E-004  0.2432111E+03  0.7818608E-02  0.1117672E+00
         -1   -1    0    0    0  501 -0.00000000000E+00  0.00000000000E+00  0.15242297566E+03  0.15242297566E+03  0.00000000000E+00 0.  1.
          1   -1    0    0  501    0  0.00000000000E+00 -0.00000000000E+00 -0.97018935477E+02  0.97018935477E+02  0.00000000000E+00 0.  1.
         25    1    1    2    0    0 -0.13929199730E+02 -0.13223988380E+01  0.13485319926E+02  0.12156325595E+03  0.12000000000E+03 0.  0.
         25    1    1    2    0    0  0.13929199730E+02  0.13223988380E+01  0.41918720254E+02  0.12787865518E+03  0.12000000000E+03 0.  0.
<mgrwt>
<rscale>  0 0.24321114E+03</rscale>
<asrwt>0</asrwt>
<pdfrwt beam="1">  1        1 0.14925990E-01 0.24321114E+03</pdfrwt>
<pdfrwt beam="2">  1       -1 0.23449688E-01 0.24321114E+03</pdfrwt>
<totfact> 0.57318931E+03</totfact>
</mgrwt>
</event>
<event>
 4    1  0.1774755E-004  0.2518575E+03  0.7818608E-02  0.1112137E+00
         -2   -1    0    0    0  501 -0.00000000000E+00  0.00000000000E+00  0.55850047076E+03  0.55850047076E+03  0.00000000000E+00 0. -1.
          2   -1    0    0  501    0  0.00000000000E+00 -0.00000000000E+00 -0.28393979103E+02  0.28393979103E+02  0.00000000000E+00 0. -1.
         25    1    1    2    0    0  0.24215454204E+02  0.26188675533E+02  0.29681806330E+03  0.32213847589E+03  0.12000000000E+03 0.  0.
         25    1    1    2    0    0 -0.24215454204E+02 -0.26188675533E+02  0.23328842835E+03  0.26475597397E+03  0.12000000000E+03 0.  0.
<mgrwt>
<rscale>  0 0.25185750E+03</rscale>
<asrwt>0</asrwt>
<pdfrwt beam="1">  1        2 0.43683049E-02 0.25185750E+03</pdfrwt>
<pdfrwt beam="2">  1       -2 0.85923141E-01 0.25185750E+03</pdfrwt>
<totfact> 0.22729179E+03</totfact>
</mgrwt>
</event>
<event>
 4    1  0.1774755E-004  0.2572011E+03  0.7818608E-02  0.1108837E+00
          2   -1    0    0  501    0  0.00000000000E+00  0.00000000000E+00  0.96264089213E+03  0.96264089213E+03  0.00000000000E+00 0.  1.
         -2   -1    0    0    0  501 -0.00000000000E+00 -0.00000000000E+00 -0.17179930344E+02  0.17179930344E+02  0.00000000000E+00 0.  1.
         25    1    1    2    0    0  0.20101997960E+02 -0.15381883959E+02  0.62014637013E+03  0.63215679468E+03  0.12000000000E+03 0.  0.
         25    1    1    2    0    0 -0.20101997960E+02  0.15381883959E+02  0.32531459165E+03  0.34766402779E+03  0.12000000000E+03 0.  0.
<mgrwt>
<rscale>  0 0.25720112E+03</rscale>
<asrwt>0</asrwt>
<pdfrwt beam="1">  1        2 0.14809856E+00 0.25720112E+03</pdfrwt>
<pdfrwt beam="2">  1       -2 0.26430670E-02 0.25720112E+03</pdfrwt>
<totfact> 0.14088514E+04</totfact>
</mgrwt>
</event>
<event>
 4    1  0.1774755E-004  0.2901519E+03  0.7818608E-02  0.1090270E+00
          1   -1    0    0  501    0  0.00000000000E+00  0.00000000000E+00  0.69527197678E+02  0.69527197678E+02  0.00000000000E+00 0. -1.
         -1   -1    0    0    0  501 -0.00000000000E+00 -0.00000000000E+00 -0.30271650619E+03  0.30271650619E+03  0.00000000000E+00 0. -1.
         25    1    1    2    0    0  0.44712619028E+02  0.39201112661E+02 -0.18815260223E+03  0.23094879792E+03  0.12000000000E+03 0.  0.
         25    1    1    2    0    0 -0.44712619028E+02 -0.39201112661E+02 -0.45036706282E+02  0.14129490595E+03  0.12000000000E+03 0.  0.
<mgrwt>
<rscale>  0 0.29015189E+03</rscale>
<asrwt>0</asrwt>
<pdfrwt beam="1">  1        1 0.10696492E-01 0.29015189E+03</pdfrwt>
<pdfrwt beam="2">  1       -1 0.46571770E-01 0.29015189E+03</pdfrwt>
<totfact> 0.27397785E+03</totfact>
</mgrwt>
</event>
<event>
 4    1  0.1774755E-004  0.2710569E+03  0.7818608E-02  0.1100676E+00
         -2   -1    0    0    0  501 -0.00000000000E+00  0.00000000000E+00  0.30036146783E+02  0.30036146783E+02  0.00000000000E+00 0. -1.
          2   -1    0    0  501    0  0.00000000000E+00 -0.00000000000E+00 -0.61152863908E+03  0.61152863908E+03  0.00000000000E+00 0. -1.
         25    1    1    2    0    0 -0.27077911193E+02  0.56104010801E+02 -0.31283472515E+03  0.34080263873E+03  0.12000000000E+03 0.  0.
         25    1    1    2    0    0  0.27077911193E+02 -0.56104010801E+02 -0.26865776714E+03  0.30076214713E+03  0.12000000000E+03 0.  0.
<mgrwt>
<rscale>  0 0.27105692E+03</rscale>
<asrwt>0</asrwt>
<pdfrwt beam="1">  1        2 0.94081316E-01 0.27105692E+03</pdfrwt>
<pdfrwt beam="2">  1       -2 0.46209463E-02 0.27105692E+03</pdfrwt>
<totfact> 0.10835186E+04</totfact>
</mgrwt>
</event>
<event>
 4    1  0.1774755E-004  0.3355168E+03  0.7818608E-02  0.1068722E+00
          2   -1    0    0  501    0  0.00000000000E+00  0.00000000000E+00  0.29818504282E+04  0.29818504282E+04  0.00000000000E+00 0.  1.
         -2   -1    0    0    0  501 -0.00000000000E+00 -0.00000000000E+00 -0.94380611567E+01  0.94380611567E+01  0.00000000000E+00 0.  1.
         25    1    1    2    0    0  0.11550398333E+03 -0.19230515964E+02  0.15365637974E+04  0.15456840836E+04  0.12000000000E+03 0.  0.
         25    1    1    2    0    0 -0.11550398333E+03  0.19230515964E+02  0.14358485696E+04  0.14456044057E+04  0.12000000000E+03 0.  0.
<mgrwt>
<rscale>  0 0.33551684E+03</rscale>
<asrwt>0</asrwt>
<pdfrwt beam="1">  1        2 0.45874547E+00 0.33551684E+03</pdfrwt>
<pdfrwt beam="2">  1       -2 0.14520118E-02 0.33551684E+03</pdfrwt>
<totfact> 0.26266138E+03</totfact>
</mgrwt>
</event>
<event>
 4    1  0.1774755E-004  0.2946074E+03  0.7818608E-02  0.1087968E+00
          1   -1    0    0  501    0  0.00000000000E+00  0.00000000000E+00  0.94295293834E+03  0.94295293834E+03  0.00000000000E+00 0.  1.
         -1   -1    0    0    0  501 -0.00000000000E+00 -0.00000000000E+00 -0.23011092964E+02  0.23011092964E+02  0.00000000000E+00 0.  1.
         25    1    1    2    0    0 -0.61364607375E+02  0.29927248164E+02  0.62834781107E+03  0.64333679119E+03  0.12000000000E+03 0.  0.
         25    1    1    2    0    0  0.61364607375E+02 -0.29927248164E+02  0.29159403431E+03  0.32262724011E+03  0.12000000000E+03 0.  0.
<mgrwt>
<rscale>  0 0.29460738E+03</rscale>
<asrwt>0</asrwt>
<pdfrwt beam="1">  1        1 0.14506965E+00 0.29460738E+03</pdfrwt>
<pdfrwt beam="2">  1       -1 0.35401689E-02 0.29460738E+03</pdfrwt>
<totfact> 0.52196033E+03</totfact>
</mgrwt>
</event>
<event>
 4    1  0.1774755E-004  0.2538581E+03  0.7818608E-02  0.1110891E+00
         -2   -1    0    0    0  501 -0.00000000000E+00  0.00000000000E+00  0.12788007996E+02  0.12788007996E+02  0.00000000000E+00 0. -1.
          2   -1    0    0  501    0  0.00000000000E+00 -0.00000000000E+00 -0.12598506872E+04  0.12598506872E+04  0.00000000000E+00 0. -1.
         25    1    1    2    0    0 -0.32068552850E+02 -0.19623815043E+01 -0.49292474476E+03  0.50833753257E+03  0.12000000000E+03 0.  0.
         25    1    1    2    0    0  0.32068552850E+02  0.19623815043E+01 -0.75413793448E+03  0.76430116266E+03  0.12000000000E+03 0.  0.
<mgrwt>
<rscale>  0 0.25385808E+03</rscale>
<asrwt>0</asrwt>
<pdfrwt beam="1">  1        2 0.19382324E+00 0.25385808E+03</pdfrwt>
<pdfrwt beam="2">  1       -2 0.19673852E-02 0.25385808E+03</pdfrwt>
<totfact> 0.14574914E+04</totfact>
</mgrwt>
</event>
<event>
 4    1  0.1774755E-004  0.2942846E+03  0.7818608E-02  0.1088133E+00
         -1   -1    0    0    0  501 -0.00000000000E+00  0.00000000000E+00  0.11153359387E+03  0.11153359387E+03  0.00000000000E+00 0. -1.
          1   -1    0    0  501    0  0.00000000000E+00 -0.00000000000E+00 -0.19411959407E+03  0.19411959407E+03  0.00000000000E+00 0. -1.
         25    1    1    2    0    0 -0.61307167577E+02 -0.45193480623E+02 -0.17453293196E+01  0.14214100626E+03  0.12000000000E+03 0.  0.
         25    1    1    2    0    0  0.61307167577E+02  0.45193480623E+02 -0.80840670882E+02  0.16351218167E+03  0.12000000000E+03 0.  0.
<mgrwt>
<rscale>  0 0.29428460E+03</rscale>
<asrwt>0</asrwt>
<pdfrwt beam="1">  1        1 0.29864553E-01 0.29428460E+03</pdfrwt>
<pdfrwt beam="2">  1       -1 0.17159015E-01 0.29428460E+03</pdfrwt>
<totfact> 0.39312041E+03</totfact>
</mgrwt>
</event>
<event>
 4    1  0.1774755E-004  0.5115048E+03  0.7818608E-02  0.1010819E+00
          1   -1    0    0  501    0  0.00000000000E+00  0.00000000000E+00  0.14482243821E+04  0.14482243821E+04  0.00000000000E+00 0. -1.
         -1   -1    0    0    0  501 -0.00000000000E+00 -0.00000000000E+00 -0.45165158479E+02  0.45165158479E+02  0.00000000000E+00 0. -1.
         25    1    1    2    0    0  0.11110306142E+03  0.18831662904E+03  0.86674496368E+03  0.90191677837E+03  0.12000000000E+03 0.  0.
         25    1    1    2    0    0 -0.11110306142E+03 -0.18831662904E+03  0.53631425996E+03  0.59147276223E+03  0.12000000000E+03 0.  0.
<mgrwt>
<rscale>  0 0.51150478E+03</rscale>
<asrwt>0</asrwt>
<pdfrwt beam="1">  1        1 0.22280372E+00 0.51150478E+03</pdfrwt>
<pdfrwt beam="2">  1       -1 0.69484870E-02 0.51150478E+03</pdfrwt>
<totfact> 0.81598591E+02</totfact>
</mgrwt>
</event>
<event>
 4    1  0.1774755E-004  0.2658994E+03  0.7818608E-02  0.1103650E+00
         -1   -1    0    0    0  501 -0.00000000000E+00  0.00000000000E+00  0.45332375965E+02  0.45332375965E+02  0.00000000000E+00 0.  1.
          1   -1    0    0  501    0  0.00000000000E+00 -0.00000000000E+00 -0.38991160657E+03  0.38991160657E+03  0.00000000000E+00 0.  1.
         25    1    1    2    0    0  0.41866542065E+02  0.19645027830E+02 -0.22748131142E+03  0.26131682209E+03  0.12000000000E+03 0.  0.
         25    1    1    2    0    0 -0.41866542065E+02 -0.19645027830E+02 -0.11709791919E+03  0.17392716045E+03  0.12000000000E+03 0.  0.
<mgrwt>
<rscale>  0 0.26589938E+03</rscale>
<asrwt>0</asrwt>
<pdfrwt beam="1">  1        1 0.59986401E-01 0.26589938E+03</pdfrwt>
<pdfrwt beam="2">  1       -1 0.69742117E-02 0.26589938E+03</pdfrwt>
<totfact> 0.66034666E+03</totfact>
</mgrwt>
</event>
<event>
 4    1  0.1774755E-004  0.2608532E+03  0.7818608E-02  0.1106632E+00
         -2   -1    0    0    0  501 -0.00000000000E+00  0.00000000000E+00  0.73593286382E+02  0.73593286382E+02  0.00000000000E+00 0. -1.
          2   -1    0    0  501    0  0.00000000000E+00 -0.00000000000E+00 -0.23115018891E+03  0.23115018891E+03  0.00000000000E+00 0. -1.
         25    1    1    2    0    0 -0.13963319260E+02  0.15249897557E+02 -0.13336951974E+03  0.18059613079E+03  0.12000000000E+03 0.  0.
         25    1    1    2    0    0  0.13963319260E+02 -0.15249897557E+02 -0.24187382784E+02  0.12414734450E+03  0.12000000000E+03 0.  0.
<mgrwt>
<rscale>  0 0.26085323E+03</rscale>
<asrwt>0</asrwt>
<pdfrwt beam="1">  1        2 0.35561568E-01 0.26085323E+03</pdfrwt>
<pdfrwt beam="2">  1       -2 0.11322044E-01 0.26085323E+03</pdfrwt>
<totfact> 0.78088910E+03</totfact>
</mgrwt>
</event>
<event>
 4    1  0.1774755E-004  0.4097490E+03  0.7818608E-02  0.1040455E+00
         -1   -1    0    0    0  501 -0.00000000000E+00  0.00000000000E+00  0.11571958490E+03  0.11571958490E+03  0.00000000000E+00 0. -1.
          1   -1    0    0  501    0  0.00000000000E+00 -0.00000000000E+00 -0.36271783126E+03  0.36271783126E+03  0.00000000000E+00 0. -1.
         25    1    1    2    0    0  0.45164295592E+02 -0.82166390999E+02 -0.28352238338E+03  0.32183236519E+03  0.12000000000E+03 0.  0.
         25    1    1    2    0    0 -0.45164295592E+02  0.82166390999E+02  0.36524137017E+02  0.15660505098E+03  0.12000000000E+03 0.  0.
<mgrwt>
<rscale>  0 0.40974898E+03</rscale>
<asrwt>0</asrwt>
<pdfrwt beam="1">  1        1 0.55802742E-01 0.40974898E+03</pdfrwt>
<pdfrwt beam="2">  1       -1 0.17803014E-01 0.40974898E+03</pdfrwt>
<totfact> 0.16841869E+03</totfact>
</mgrwt>
</event>
<event>
 4    1  0.1774755E-004  0.3808043E+03  0.7818608E-02  0.1050637E+00
          2   -1    0    0  501    0  0.00000000000E+00  0.00000000000E+00  0.88522008005E+03  0.88522008005E+03  0.00000000000E+00 0.  1.
         -2   -1    0    0    0  501 -0.00000000000E+00 -0.00000000000E+00 -0.40953632648E+02  0.40953632648E+02  0.00000000000E+00 0.  1.
         25    1    1    2    0    0 -0.10259901441E+03  0.10321595102E+03  0.35904302490E+03  0.40557611374E+03  0.12000000000E+03 0.  0.
         25    1    1    2    0    0  0.10259901441E+03 -0.10321595102E+03  0.48522342250E+03  0.52059759896E+03  0.12000000000E+03 0.  0.
<mgrwt>
<rscale>  0 0.38080430E+03</rscale>
<asrwt>0</asrwt>
<pdfrwt beam="1">  1        2 0.13618769E+00 0.38080430E+03</pdfrwt>
<pdfrwt beam="2">  1       -2 0.63005595E-02 0.38080430E+03</pdfrwt>
<totfact> 0.42835288E+03</totfact>
</mgrwt>
</event>
<event>
 4    1  0.1774755E-004  0.2419246E+03  0.7818608E-02  0.1118517E+00
          2   -1    0    0  501    0  0.00000000000E+00  0.00000000000E+00  0.53128466488E+03  0.53128466488E+03  0.00000000000E+00 0. -1.
         -2   -1    0    0    0  501 -0.00000000000E+00 -0.00000000000E+00 -0.27540555061E+02  0.27540555061E+02  0.00000000000E+00 0. -1.
         25    1    1    2    0    0 -0.27490709608E+00 -0.14629214617E+02  0.24213059989E+03  0.27063133022E+03  0.12000000000E+03 0.  0.
         25    1    1    2    0    0  0.27490709608E+00  0.14629214617E+02  0.26161350994E+03  0.28819388973E+03  0.12000000000E+03 0.  0.
<mgrwt>
<rscale>  0 0.24192457E+03</rscale>
<asrwt>0</asrwt>
<pdfrwt beam="1">  1        2 0.81736095E-01 0.24192457E+03</pdfrwt>
<pdfrwt beam="2">  1       -2 0.42370089E-02 0.24192457E+03</pdfrwt>
<totfact> 0.14437065E+04</totfact>
</mgrwt>
</event>
<event>
 4    1  0.1774755E-004  0.2744297E+03  0.7818608E-02  0.1098771E+00
          2   -1    0    0  501    0  0.00000000000E+00  0.00000000000E+00  0.94012438590E+02  0.94012438590E+02  0.00000000000E+00 0. -1.
         -2   -1    0    0    0  501 -0.00000000000E+00 -0.00000000000E+00 -0.20027046267E+03  0.20027046267E+03  0.00000000000E+00 0. -1.
         25    1    1    2    0    0  0.61783828640E+02 -0.19268250587E+01 -0.26710149480E+02  0.13760227550E+03  0.12000000000E+03 0.  0.
         25    1    1    2    0    0 -0.61783828640E+02  0.19268250587E+01 -0.79547874598E+02  0.15668062576E+03  0.12000000000E+03 0.  0.
<mgrwt>
<rscale>  0 0.27442970E+03</rscale>
<asrwt>0</asrwt>
<pdfrwt beam="1">  1        2 0.14463452E-01 0.27442970E+03</pdfrwt>
<pdfrwt beam="2">  1       -2 0.30810840E-01 0.27442970E+03</pdfrwt>
<totfact> 0.39423723E+03</totfact>
</mgrwt>
</event>
<event>
 4    1  0.1774755E-004  0.3094873E+03  0.7818608E-02  0.1080592E+00
         -1   -1    0    0    0  501 -0.00000000000E+00  0.00000000000E+00  0.82584181681E+01  0.82584181681E+01  0.00000000000E+00 0. -1.
          1   -1    0    0  501    0  0.00000000000E+00 -0.00000000000E+00 -0.28995385146E+04  0.28995385146E+04  0.00000000000E+00 0. -1.
         25    1    1    2    0    0 -0.65043056533E+02 -0.72524536133E+02 -0.13758381629E+04  0.13844930690E+04  0.12000000000E+03 0.  0.
         25    1    1    2    0    0  0.65043056533E+02  0.72524536133E+02 -0.15154419336E+04  0.15233038638E+04  0.12000000000E+03 0.  0.
<mgrwt>
<rscale>  0 0.30948733E+03</rscale>
<asrwt>0</asrwt>
<pdfrwt beam="1">  1        1 0.44608264E+00 0.30948733E+03</pdfrwt>
<pdfrwt beam="2">  1       -1 0.12705265E-02 0.30948733E+03</pdfrwt>
<totfact> 0.11255389E+03</totfact>
</mgrwt>
</event>
<event>
 4    1  0.1774755E-004  0.2417836E+03  0.7818608E-02  0.1118610E+00
          2   -1    0    0  501    0  0.00000000000E+00  0.00000000000E+00  0.72203631228E+03  0.72203631228E+03  0.00000000000E+00 0. -1.
         -2   -1    0    0    0  501 -0.00000000000E+00 -0.00000000000E+00 -0.20241127605E+02  0.20241127605E+02  0.00000000000E+00 0. -1.
         25    1    1    2    0    0  0.19643344559E+01 -0.42614266638E+01  0.30826860331E+03  0.33083462660E+03  0.12000000000E+03 0.  0.
         25    1    1    2    0    0 -0.19643344559E+01  0.42614266638E+01  0.39352658136E+03  0.41144281328E+03  0.12000000000E+03 0.  0.
<mgrwt>
<rscale>  0 0.24178362E+03</rscale>
<asrwt>0</asrwt>
<pdfrwt beam="1">  1        2 0.11108249E+00 0.24178362E+03</pdfrwt>
<pdfrwt beam="2">  1       -2 0.31140202E-02 0.24178362E+03</pdfrwt>
<totfact> 0.15982970E+04</totfact>
</mgrwt>
</event>
<event>
 4    1  0.1774755E-004  0.3771843E+03  0.7818608E-02  0.1051979E+00
          3   -1    0    0  501    0  0.00000000000E+00  0.00000000000E+00  0.11740592085E+03  0.11740592085E+03  0.00000000000E+00 0. -1.
         -3   -1    0    0    0  501 -0.00000000000E+00 -0.00000000000E+00 -0.30294042501E+03  0.30294042501E+03  0.00000000000E+00 0. -1.
         25    1    1    2    0    0 -0.14241847952E+03 -0.27908722737E+02 -0.10419110375E+03  0.21521548786E+03  0.12000000000E+03 0.  0.
         25    1    1    2    0    0  0.14241847952E+03  0.27908722737E+02 -0.81343400423E+02  0.20513085800E+03  0.12000000000E+03 0.  0.
<mgrwt>
<rscale>  0 0.37718430E+03</rscale>
<asrwt>0</asrwt>
<pdfrwt beam="1">  1        3 0.18062450E-01 0.37718430E+03</pdfrwt>
<pdfrwt beam="2">  1       -3 0.46606219E-01 0.37718430E+03</pdfrwt>
<totfact> 0.32113129E+02</totfact>
</mgrwt>
</event>
<event>
 4    1  0.1774755E-004  0.2413898E+03  0.7818608E-02  0.1118870E+00
         -2   -1    0    0    0  501 -0.00000000000E+00  0.00000000000E+00  0.55690796710E+02  0.55690796710E+02  0.00000000000E+00 0.  1.
          2   -1    0    0  501    0  0.00000000000E+00 -0.00000000000E+00 -0.26157391764E+03  0.26157391764E+03  0.00000000000E+00 0.  1.
         25    1    1    2    0    0 -0.12152584569E+02  0.11549373625E+00 -0.97128553681E+02  0.15486011297E+03  0.12000000000E+03 0.  0.
         25    1    1    2    0    0  0.12152584569E+02 -0.11549373625E+00 -0.10875456725E+03  0.16240460138E+03  0.12000000000E+03 0.  0.
<mgrwt>
<rscale>  0 0.24138981E+03</rscale>
<asrwt>0</asrwt>
<pdfrwt beam="1">  1        2 0.40242142E-01 0.24138981E+03</pdfrwt>
<pdfrwt beam="2">  1       -2 0.85678147E-02 0.24138981E+03</pdfrwt>
<totfact> 0.10592158E+04</totfact>
</mgrwt>
</event>
<event>
 4    1  0.1774755E-004  0.2892526E+03  0.7818608E-02  0.1090740E+00
          2   -1    0    0  501    0  0.00000000000E+00  0.00000000000E+00  0.78270220342E+03  0.78270220342E+03  0.00000000000E+00 0. -1.
         -2   -1    0    0    0  501 -0.00000000000E+00 -0.00000000000E+00 -0.26723778026E+02  0.26723778026E+02  0.00000000000E+00 0. -1.
         25    1    1    2    0    0 -0.36148960529E+02 -0.53443896183E+02  0.51375216196E+03  0.53151131813E+03  0.12000000000E+03 0.  0.
         25    1    1    2    0    0  0.36148960529E+02  0.53443896183E+02  0.24222626343E+03  0.27791466331E+03  0.12000000000E+03 0.  0.
<mgrwt>
<rscale>  0 0.28925255E+03</rscale>
<asrwt>0</asrwt>
<pdfrwt beam="1">  1        2 0.12041571E+00 0.28925255E+03</pdfrwt>
<pdfrwt beam="2">  1       -2 0.41113511E-02 0.28925255E+03</pdfrwt>
<totfact> 0.96071168E+03</totfact>
</mgrwt>
</event>
<event>
 4    1  0.1774755E-004  0.2578093E+03  0.7818608E-02  0.1108467E+00
          1   -1    0    0  501    0  0.00000000000E+00  0.00000000000E+00  0.52602470012E+03  0.52602470012E+03  0.00000000000E+00 0. -1.
         -1   -1    0    0    0  501 -0.00000000000E+00 -0.00000000000E+00 -0.31588636691E+02  0.31588636691E+02  0.00000000000E+00 0. -1.
         25    1    1    2    0    0 -0.22328502955E+02 -0.37963337668E+02  0.28319140936E+03  0.31070428286E+03  0.12000000000E+03 0.  0.
         25    1    1    2    0    0  0.22328502955E+02  0.37963337668E+02  0.21124465406E+03  0.24690905395E+03  0.12000000000E+03 0.  0.
<mgrwt>
<rscale>  0 0.25780926E+03</rscale>
<asrwt>0</asrwt>
<pdfrwt beam="1">  1        1 0.80926870E-01 0.25780926E+03</pdfrwt>
<pdfrwt beam="2">  1       -1 0.48597906E-02 0.25780926E+03</pdfrwt>
<totfact> 0.76862020E+03</totfact>
</mgrwt>
</event>
<event>
 4    1  0.1774755E-004  0.2881630E+03  0.7818608E-02  0.1091312E+00
         -1   -1    0    0    0  501 -0.00000000000E+00  0.00000000000E+00  0.22106608911E+02  0.22106608911E+02  0.00000000000E+00 0. -1.
          1   -1    0    0  501    0  0.00000000000E+00 -0.00000000000E+00 -0.93906219735E+03  0.93906219735E+03  0.00000000000E+00 0. -1.
         25    1    1    2    0    0 -0.66496773135E+02 -0.33169604501E+02 -0.55500229494E+03  0.57266883177E+03  0.12000000000E+03 0.  0.
         25    1    1    2    0    0  0.66496773135E+02  0.33169604501E+02 -0.36195329350E+03  0.38849997449E+03  0.12000000000E+03 0.  0.
<mgrwt>
<rscale>  0 0.28816301E+03</rscale>
<asrwt>0</asrwt>
<pdfrwt beam="1">  1        1 0.14447110E+00 0.28816301E+03</pdfrwt>
<pdfrwt beam="2">  1       -1 0.34010168E-02 0.28816301E+03</pdfrwt>
<totfact> 0.55758115E+03</totfact>
</mgrwt>
</event>
<event>
 4    1  0.1774755E-004  0.2736655E+03  0.7818608E-02  0.1099200E+00
         -1   -1    0    0    0  501 -0.00000000000E+00  0.00000000000E+00  0.98579800817E+02  0.98579800817E+02  0.00000000000E+00 0. -1.
          1   -1    0    0  501    0  0.00000000000E+00 -0.00000000000E+00 -0.18992941963E+03  0.18992941963E+03  0.00000000000E+00 0. -1.
         25    1    1    2    0    0  0.51003969574E+01  0.54007338228E+02 -0.65058773807E+01  0.13185269460E+03  0.12000000000E+03 0.  0.
         25    1    1    2    0    0 -0.51003969574E+01 -0.54007338228E+02 -0.84843741430E+02  0.15665652585E+03  0.12000000000E+03 0.  0.
<mgrwt>
<rscale>  0 0.27366552E+03</rscale>
<asrwt>0</asrwt>
<pdfrwt beam="1">  1        1 0.29219911E-01 0.27366552E+03</pdfrwt>
<pdfrwt beam="2">  1       -1 0.15166123E-01 0.27366552E+03</pdfrwt>
<totfact> 0.49117663E+03</totfact>
</mgrwt>
</event>
<event>
 4    1  0.1774755E-004  0.3162212E+03  0.7818608E-02  0.1077402E+00
         -2   -1    0    0    0  501 -0.00000000000E+00  0.00000000000E+00  0.27702326465E+02  0.27702326465E+02  0.00000000000E+00 0. -1.
          2   -1    0    0  501    0  0.00000000000E+00 -0.00000000000E+00 -0.90241406186E+03  0.90241406186E+03  0.00000000000E+00 0. -1.
         25    1    1    2    0    0 -0.82406977095E+02 -0.25583492237E+02 -0.60253139417E+03  0.62039463723E+03  0.12000000000E+03 0.  0.
         25    1    1    2    0    0  0.82406977095E+02  0.25583492237E+02 -0.27218034123E+03  0.30972175109E+03  0.12000000000E+03 0.  0.
<mgrwt>
<rscale>  0 0.31622125E+03</rscale>
<asrwt>0</asrwt>
<pdfrwt beam="1">  1        2 0.13883292E+00 0.31622125E+03</pdfrwt>
<pdfrwt beam="2">  1       -2 0.42618966E-02 0.31622125E+03</pdfrwt>
<totfact> 0.75747176E+03</totfact>
</mgrwt>
</event>
<event>
 4    1  0.1774755E-004  0.2882648E+03  0.7818608E-02  0.1091259E+00
         -2   -1    0    0    0  501 -0.00000000000E+00  0.00000000000E+00  0.25086765431E+02  0.25086765431E+02  0.00000000000E+00 0.  1.
          2   -1    0    0  501    0  0.00000000000E+00 -0.00000000000E+00 -0.82809204391E+03  0.82809204391E+03  0.00000000000E+00 0.  1.
         25    1    1    2    0    0  0.56254929534E+02  0.78564660306E+01 -0.56755790768E+03  0.58287933547E+03  0.12000000000E+03 0.  0.
         25    1    1    2    0    0 -0.56254929534E+02 -0.78564660306E+01 -0.23544737080E+03  0.27029947386E+03  0.12000000000E+03 0.  0.
<mgrwt>
<rscale>  0 0.28826481E+03</rscale>
<asrwt>0</asrwt>
<pdfrwt beam="1">  1        2 0.12739876E+00 0.28826481E+03</pdfrwt>
<pdfrwt beam="2">  1       -2 0.38595027E-02 0.28826481E+03</pdfrwt>
<totfact> 0.98306382E+03</totfact>
</mgrwt>
</event>
<event>
 4    1  0.1774755E-004  0.2656589E+03  0.7818608E-02  0.1103790E+00
         -2   -1    0    0    0  501 -0.00000000000E+00  0.00000000000E+00  0.10151356246E+04  0.10151356246E+04  0.00000000000E+00 0.  1.
          2   -1    0    0  501    0  0.00000000000E+00 -0.00000000000E+00 -0.17380591219E+02  0.17380591219E+02  0.00000000000E+00 0.  1.
         25    1    1    2    0    0  0.45633526072E+02  0.27635929865E+02  0.57636612635E+03  0.59113794915E+03  0.12000000000E+03 0.  0.
         25    1    1    2    0    0 -0.45633526072E+02 -0.27635929865E+02  0.42138890707E+03  0.44137826671E+03  0.12000000000E+03 0.  0.
<mgrwt>
<rscale>  0 0.26565886E+03</rscale>
<asrwt>0</asrwt>
<pdfrwt beam="1">  1        2 0.26739379E-02 0.26565886E+03</pdfrwt>
<pdfrwt beam="2">  1       -2 0.15617467E+00 0.26565886E+03</pdfrwt>
<totfact> 0.10460020E+03</totfact>
</mgrwt>
</event>
<event>
 4    1  0.1774755E-004  0.2961114E+03  0.7818608E-02  0.1087201E+00
          2   -1    0    0  501    0  0.00000000000E+00  0.00000000000E+00  0.66847969865E+03  0.66847969865E+03  0.00000000000E+00 0.  1.
         -2   -1    0    0    0  501 -0.00000000000E+00 -0.00000000000E+00 -0.32791558884E+02  0.32791558884E+02  0.00000000000E+00 0.  1.
         25    1    1    2    0    0  0.50396791368E+02  0.26990015543E+01  0.15082875563E+03  0.19923964142E+03  0.12000000000E+03 0.  0.
         25    1    1    2    0    0 -0.50396791368E+02 -0.26990015543E+01  0.48485938414E+03  0.50203161611E+03  0.12000000000E+03 0.  0.
<mgrwt>
<rscale>  0 0.29611141E+03</rscale>
<asrwt>0</asrwt>
<pdfrwt beam="1">  1        2 0.10284302E+00 0.29611141E+03</pdfrwt>
<pdfrwt beam="2">  1       -2 0.50448557E-02 0.29611141E+03</pdfrwt>
<totfact> 0.85611440E+03</totfact>
</mgrwt>
</event>
<event>
 4    1  0.1774755E-004  0.2514682E+03  0.7818608E-02  0.1112380E+00
         -2   -1    0    0    0  501 -0.00000000000E+00  0.00000000000E+00  0.18375319724E+03  0.18375319724E+03  0.00000000000E+00 0.  1.
          2   -1    0    0  501    0  0.00000000000E+00 -0.00000000000E+00 -0.86034217162E+02  0.86034217162E+02  0.00000000000E+00 0.  1.
         25    1    1    2    0    0 -0.36373623464E+01 -0.34392685489E+02  0.33202682749E+02  0.12922269677E+03  0.12000000000E+03 0.  0.
         25    1    1    2    0    0  0.36373623464E+01  0.34392685489E+02  0.64516297325E+02  0.14056471762E+03  0.12000000000E+03 0.  0.
<mgrwt>
<rscale>  0 0.25146819E+03</rscale>
<asrwt>0</asrwt>
<pdfrwt beam="1">  1        2 0.13236033E-01 0.25146819E+03</pdfrwt>
<pdfrwt beam="2">  1       -2 0.28269723E-01 0.25146819E+03</pdfrwt>
<totfact> 0.51064076E+03</totfact>
</mgrwt>
</event>
<event>
 4    1  0.1774755E-004  0.3037340E+03  0.7818608E-02  0.1083389E+00
         -1   -1    0    0    0  501 -0.00000000000E+00  0.00000000000E+00  0.32179226426E+02  0.32179226426E+02  0.00000000000E+00 0.  1.
          1   -1    0    0  501    0  0.00000000000E+00 -0.00000000000E+00 -0.71672281813E+03  0.71672281813E+03  0.00000000000E+00 0.  1.
         25    1    1    2    0    0 -0.75959054082E+02  0.50362762460E+02 -0.29565859288E+03  0.33184362173E+03  0.12000000000E+03 0.  0.
         25    1    1    2    0    0  0.75959054082E+02 -0.50362762460E+02 -0.38888499882E+03  0.41705842282E+03  0.12000000000E+03 0.  0.
<mgrwt>
<rscale>  0 0.30373400E+03</rscale>
<asrwt>0</asrwt>
<pdfrwt beam="1">  1        1 0.11026504E+00 0.30373400E+03</pdfrwt>
<pdfrwt beam="2">  1       -1 0.49506507E-02 0.30373400E+03</pdfrwt>
<totfact> 0.48658810E+03</totfact>
</mgrwt>
</event>
<event>
 4    1  0.1774755E-004  0.2564586E+03  0.7818608E-02  0.1109290E+00
         -1   -1    0    0    0  501 -0.00000000000E+00  0.00000000000E+00  0.34811429732E+02  0.34811429732E+02  0.00000000000E+00 0.  1.
          1   -1    0    0  501    0  0.00000000000E+00 -0.00000000000E+00 -0.47233768706E+03  0.47233768706E+03  0.00000000000E+00 0.  1.
         25    1    1    2    0    0  0.30505278910E+02  0.11745052996E+02 -0.15703976015E+03  0.20032474780E+03  0.12000000000E+03 0.  0.
         25    1    1    2    0    0 -0.30505278910E+02 -0.11745052996E+02 -0.28048649718E+03  0.30682436900E+03  0.12000000000E+03 0.  0.
<mgrwt>
<rscale>  0 0.25645858E+03</rscale>
<asrwt>0</asrwt>
<pdfrwt beam="1">  1        1 0.72667335E-01 0.25645858E+03</pdfrwt>
<pdfrwt beam="2">  1       -1 0.53556047E-02 0.25645858E+03</pdfrwt>
<totfact> 0.76637071E+03</totfact>
</mgrwt>
</event>
<event>
 4    1  0.1774755E-004  0.3606578E+03  0.7818608E-02  0.1058324E+00
         -1   -1    0    0    0  501 -0.00000000000E+00  0.00000000000E+00  0.87938203596E+01  0.87938203596E+01  0.00000000000E+00 0. -1.
          1   -1    0    0  501    0  0.00000000000E+00 -0.00000000000E+00 -0.36978828950E+04  0.36978828950E+04  0.00000000000E+00 0. -1.
         25    1    1    2    0    0 -0.57221836111E+02  0.11179515129E+03 -0.13467438149E+04  0.13578996271E+04  0.12000000000E+03 0.  0.
         25    1    1    2    0    0  0.57221836111E+02 -0.11179515129E+03 -0.23423452597E+04  0.23487770882E+04  0.12000000000E+03 0.  0.
<mgrwt>
<rscale>  0 0.36065783E+03</rscale>
<asrwt>0</asrwt>
<pdfrwt beam="1">  1        1 0.56890584E+00 0.36065783E+03</pdfrwt>
<pdfrwt beam="2">  1       -1 0.13528936E-02 0.36065783E+03</pdfrwt>
<totfact> 0.26294013E+02</totfact>
</mgrwt>
</event>
<event>
 4    1  0.1774755E-004  0.2467654E+03  0.7818608E-02  0.1115366E+00
          2   -1    0    0  501    0  0.00000000000E+00  0.00000000000E+00  0.76491277205E+03  0.76491277205E+03  0.00000000000E+00 0. -1.
         -2   -1    0    0    0  501 -0.00000000000E+00 -0.00000000000E+00 -0.19901995353E+02  0.19901995353E+02  0.00000000000E+00 0. -1.
         25    1    1    2    0    0 -0.14382972250E+02  0.23196411129E+02  0.34435436140E+03  0.36568411176E+03  0.12000000000E+03 0.  0.
         25    1    1    2    0    0  0.14382972250E+02 -0.23196411129E+02  0.40065641530E+03  0.41913065564E+03  0.12000000000E+03 0.  0.
<mgrwt>
<rscale>  0 0.24676540E+03</rscale>
<asrwt>0</asrwt>
<pdfrwt beam="1">  1        2 0.11767887E+00 0.24676540E+03</pdfrwt>
<pdfrwt beam="2">  1       -2 0.30618460E-02 0.24676540E+03</pdfrwt>
<totfact> 0.15278189E+04</totfact>
</mgrwt>
</event>
<event>
 4    1  0.1774755E-004  0.2579838E+03  0.7818608E-02  0.1108361E+00
         -2   -1    0    0    0  501 -0.00000000000E+00  0.00000000000E+00  0.41731432308E+02  0.41731432308E+02  0.00000000000E+00 0. -1.
          2   -1    0    0  501    0  0.00000000000E+00 -0.00000000000E+00 -0.39871402885E+03  0.39871402885E+03  0.00000000000E+00 0. -1.
         25    1    1    2    0    0  0.14773540802E+02  0.75319259737E+01 -0.10283211555E+03  0.15890069668E+03  0.12000000000E+03 0.  0.
         25    1    1    2    0    0 -0.14773540802E+02 -0.75319259737E+01 -0.25415048099E+03  0.28154476448E+03  0.12000000000E+03 0.  0.
<mgrwt>
<rscale>  0 0.25798378E+03</rscale>
<asrwt>0</asrwt>
<pdfrwt beam="1">  1        2 0.61340620E-01 0.25798378E+03</pdfrwt>
<pdfrwt beam="2">  1       -2 0.64202204E-02 0.25798378E+03</pdfrwt>
<totfact> 0.10565110E+04</totfact>
</mgrwt>
</event>
<event>
 4    1  0.1774755E-004  0.2595633E+03  0.7818608E-02  0.1107406E+00
          2   -1    0    0  501    0  0.00000000000E+00  0.00000000000E+00  0.39712228065E+03  0.39712228065E+03  0.00000000000E+00 0.  1.
         -2   -1    0    0    0  501 -0.00000000000E+00 -0.00000000000E+00 -0.42413327536E+02  0.42413327536E+02  0.00000000000E+00 0.  1.
         25    1    1    2    0    0  0.62737195050E+01  0.48584899546E+02  0.16619555083E+03  0.21076245666E+03  0.12000000000E+03 0.  0.
         25    1    1    2    0    0 -0.62737195050E+01 -0.48584899546E+02  0.18851340228E+03  0.22877315153E+03  0.12000000000E+03 0.  0.
<mgrwt>
<rscale>  0 0.25956331E+03</rscale>
<asrwt>0</asrwt>
<pdfrwt beam="1">  1        2 0.61095733E-01 0.25956331E+03</pdfrwt>
<pdfrwt beam="2">  1       -2 0.65251276E-02 0.25956331E+03</pdfrwt>
<totfact> 0.10352340E+04</totfact>
</mgrwt>
</event>
<event>
 4    1  0.1774755E-004  0.5597180E+03  0.7818608E-02  0.9992693E-01
          1   -1    0    0  501    0  0.00000000000E+00  0.00000000000E+00  0.41811604255E+03  0.41811604255E+03  0.00000000000E+00 0.  1.
         -1   -1    0    0    0  501 -0.00000000000E+00 -0.00000000000E+00 -0.18731895881E+03  0.18731895881E+03  0.00000000000E+00 0.  1.
         25    1    1    2    0    0 -0.65354215304E+02  0.24404958857E+03  0.10515471917E+03  0.29881246644E+03  0.12000000000E+03 0.  0.
         25    1    1    2    0    0  0.65354215304E+02 -0.24404958857E+03  0.12564236457E+03  0.30662253491E+03  0.12000000000E+03 0.  0.
<mgrwt>
<rscale>  0 0.55971801E+03</rscale>
<asrwt>0</asrwt>
<pdfrwt beam="1">  1        1 0.64325545E-01 0.55971801E+03</pdfrwt>
<pdfrwt beam="2">  1       -1 0.28818301E-01 0.55971801E+03</pdfrwt>
<totfact> 0.62446022E+02</totfact>
</mgrwt>
</event>
<event>
 4    1  0.1774755E-004  0.3030283E+03  0.7818608E-02  0.1083737E+00
         -1   -1    0    0    0  501 -0.00000000000E+00  0.00000000000E+00  0.20701859990E+02  0.20701859990E+02  0.00000000000E+00 0. -1.
          1   -1    0    0  501    0  0.00000000000E+00 -0.00000000000E+00 -0.11089119871E+04  0.11089119871E+04  0.00000000000E+00 0. -1.
         25    1    1    2    0    0  0.26874618426E+02 -0.26463905486E+02 -0.22924901437E+03  0.26149128857E+03  0.12000000000E+03 0.  0.
         25    1    1    2    0    0 -0.26874618426E+02  0.26463905486E+02 -0.85896111278E+03  0.86812255856E+03  0.12000000000E+03 0.  0.
<mgrwt>
<rscale>  0 0.30302832E+03</rscale>
<asrwt>0</asrwt>
<pdfrwt beam="1">  1        1 0.17060187E+00 0.30302832E+03</pdfrwt>
<pdfrwt beam="2">  1       -1 0.31849011E-02 0.30302832E+03</pdfrwt>
<totfact> 0.45970890E+03</totfact>
</mgrwt>
</event>
<event>
 4    1  0.1774755E-004  0.2494217E+03  0.7818608E-02  0.1113671E+00
         -1   -1    0    0    0  501 -0.00000000000E+00  0.00000000000E+00  0.39510538409E+02  0.39510538409E+02  0.00000000000E+00 0. -1.
          1   -1    0    0  501    0  0.00000000000E+00 -0.00000000000E+00 -0.39363663458E+03  0.39363663458E+03  0.00000000000E+00 0. -1.
         25    1    1    2    0    0  0.32394366710E+02 -0.57162373239E+01 -0.16245851233E+03  0.20463342491E+03  0.12000000000E+03 0.  0.
         25    1    1    2    0    0 -0.32394366710E+02  0.57162373239E+01 -0.19166758385E+03  0.22851374808E+03  0.12000000000E+03 0.  0.
<mgrwt>
<rscale>  0 0.24942169E+03</rscale>
<asrwt>0</asrwt>
<pdfrwt beam="1">  1        1 0.60559481E-01 0.24942169E+03</pdfrwt>
<pdfrwt beam="2">  1       -1 0.60785445E-02 0.24942169E+03</pdfrwt>
<totfact> 0.80110490E+03</totfact>
</mgrwt>
</event>
<event>
 4    1  0.1774755E-004  0.2858955E+03  0.7818608E-02  0.1092512E+00
         -2   -1    0    0    0  501 -0.00000000000E+00  0.00000000000E+00  0.20829000319E+03  0.20829000319E+03  0.00000000000E+00 0. -1.
          2   -1    0    0  501    0  0.00000000000E+00 -0.00000000000E+00 -0.98103922030E+02  0.98103922030E+02  0.00000000000E+00 0. -1.
         25    1    1    2    0    0 -0.40443765023E+02 -0.26913674306E+02  0.12005268616E+03  0.17655789829E+03  0.12000000000E+03 0.  0.
         25    1    1    2    0    0  0.40443765023E+02  0.26913674306E+02 -0.98666050047E+01  0.12983602693E+03  0.12000000000E+03 0.  0.
<mgrwt>
<rscale>  0 0.28589555E+03</rscale>
<asrwt>0</asrwt>
<pdfrwt beam="1">  1        2 0.15092911E-01 0.28589555E+03</pdfrwt>
<pdfrwt beam="2">  1       -2 0.32044616E-01 0.28589555E+03</pdfrwt>
<totfact> 0.34921100E+03</totfact>
</mgrwt>
</event>
<event>
 4    1  0.1774755E-004  0.2850801E+03  0.7818608E-02  0.1092946E+00
          1   -1    0    0  501    0  0.00000000000E+00  0.00000000000E+00  0.23390172500E+03  0.23390172500E+03  0.00000000000E+00 0. -1.
         -1   -1    0    0    0  501 -0.00000000000E+00 -0.00000000000E+00 -0.86864099406E+02  0.86864099406E+02  0.00000000000E+00 0. -1.
         25    1    1    2    0    0 -0.36292188648E+02  0.38709108272E+02  0.10849887671E+02  0.13165575598E+03  0.12000000000E+03 0.  0.
         25    1    1    2    0    0  0.36292188648E+02 -0.38709108272E+02  0.13618773793E+03  0.18911006843E+03  0.12000000000E+03 0.  0.
<mgrwt>
<rscale>  0 0.28508008E+03</rscale>
<asrwt>0</asrwt>
<pdfrwt beam="1">  1        1 0.35984881E-01 0.28508008E+03</pdfrwt>
<pdfrwt beam="2">  1       -1 0.13363708E-01 0.28508008E+03</pdfrwt>
<totfact> 0.46210526E+03</totfact>
</mgrwt>
</event>
<event>
 4    1  0.1774755E-004  0.3127657E+03  0.7818608E-02  0.1079028E+00
          2   -1    0    0  501    0  0.00000000000E+00  0.00000000000E+00  0.47421974706E+03  0.47421974706E+03  0.00000000000E+00 0. -1.
         -2   -1    0    0    0  501 -0.00000000000E+00 -0.00000000000E+00 -0.51570175233E+02  0.51570175233E+02  0.00000000000E+00 0. -1.
         25    1    1    2    0    0  0.69244572392E+02 -0.67773147340E+02  0.25476045090E+03  0.29781017049E+03  0.12000000000E+03 0.  0.
         25    1    1    2    0    0 -0.69244572392E+02  0.67773147340E+02  0.16788912093E+03  0.22797975181E+03  0.12000000000E+03 0.  0.
<mgrwt>
<rscale>  0 0.31276570E+03</rscale>
<asrwt>0</asrwt>
<pdfrwt beam="1">  1        2 0.72956881E-01 0.31276570E+03</pdfrwt>
<pdfrwt beam="2">  1       -2 0.79338734E-02 0.31276570E+03</pdfrwt>
<totfact> 0.63302911E+03</totfact>
</mgrwt>
</event>
<event>
 4    1  0.1774755E-004  0.2410009E+03  0.7818608E-02  0.1119128E+00
         -3   -1    0    0    0  501 -0.00000000000E+00  0.00000000000E+00  0.13167346565E+03  0.13167346565E+03  0.00000000000E+00 0.  1.
          3   -1    0    0  501    0  0.00000000000E+00 -0.00000000000E+00 -0.11027553401E+03  0.11027553401E+03  0.00000000000E+00 0.  1.
         25    1    1    2    0    0  0.10758340469E+02  0.24982443262E-01  0.85412724569E+01  0.12078367377E+03  0.12000000000E+03 0.  0.
         25    1    1    2    0    0 -0.10758340469E+02 -0.24982443262E-01  0.12856659179E+02  0.12116532589E+03  0.12000000000E+03 0.  0.
<mgrwt>
<rscale>  0 0.24100093E+03</rscale>
<asrwt>0</asrwt>
<pdfrwt beam="1">  1        3 0.16965467E-01 0.24100093E+03</pdfrwt>
<pdfrwt beam="2">  1       -3 0.20257456E-01 0.24100093E+03</pdfrwt>
<totfact> 0.16482673E+03</totfact>
</mgrwt>
</event>
<event>
 4    1  0.1774755E-004  0.2798706E+03  0.7818608E-02  0.1095760E+00
         -2   -1    0    0    0  501 -0.00000000000E+00  0.00000000000E+00  0.71342857628E+02  0.71342857628E+02  0.00000000000E+00 0. -1.
          2   -1    0    0  501    0  0.00000000000E+00 -0.00000000000E+00 -0.27447586674E+03  0.27447586674E+03  0.00000000000E+00 0. -1.
         25    1    1    2    0    0  0.51320483743E+02  0.19709857624E+02 -0.15898873552E+03  0.20663902962E+03  0.12000000000E+03 0.  0.
         25    1    1    2    0    0 -0.51320483743E+02 -0.19709857624E+02 -0.44144273589E+02  0.13917969475E+03  0.12000000000E+03 0.  0.
<mgrwt>
<rscale>  0 0.27987063E+03</rscale>
<asrwt>0</asrwt>
<pdfrwt beam="1">  1        2 0.42227057E-01 0.27987063E+03</pdfrwt>
<pdfrwt beam="2">  1       -2 0.10975824E-01 0.27987063E+03</pdfrwt>
<totfact> 0.68368133E+03</totfact>
</mgrwt>
</event>
<event>
 4    1  0.1774755E-004  0.2769131E+03  0.7818608E-02  0.1097387E+00
          2   -1    0    0  501    0  0.00000000000E+00  0.00000000000E+00  0.48908539935E+03  0.48908539935E+03  0.00000000000E+00 0.  1.
         -2   -1    0    0    0  501 -0.00000000000E+00 -0.00000000000E+00 -0.39196054550E+02  0.39196054550E+02  0.00000000000E+00 0.  1.
         25    1    1    2    0    0  0.41711159591E+02  0.17941342513E+02  0.32423037074E+03  0.34869334080E+03  0.12000000000E+03 0.  0.
         25    1    1    2    0    0 -0.41711159591E+02 -0.17941342513E+02  0.12565897406E+03  0.17958811310E+03  0.12000000000E+03 0.  0.
<mgrwt>
<rscale>  0 0.27691311E+03</rscale>
<asrwt>0</asrwt>
<pdfrwt beam="1">  1        2 0.75243903E-01 0.27691311E+03</pdfrwt>
<pdfrwt beam="2">  1       -2 0.60301626E-02 0.27691311E+03</pdfrwt>
<totfact> 0.93221645E+03</totfact>
</mgrwt>
</event>
<event>
 4    1  0.1774755E-004  0.3300560E+03  0.7818608E-02  0.1071112E+00
         -2   -1    0    0    0  501 -0.00000000000E+00  0.00000000000E+00  0.20376468683E+03  0.20376468683E+03  0.00000000000E+00 0. -1.
          2   -1    0    0  501    0  0.00000000000E+00 -0.00000000000E+00 -0.13365535474E+03  0.13365535474E+03  0.00000000000E+00 0. -1.
         25    1    1    2    0    0 -0.80583950318E+02  0.47721533957E+02 -0.30110162404E+02  0.15517003490E+03  0.12000000000E+03 0.  0.
         25    1    1    2    0    0  0.80583950318E+02 -0.47721533957E+02  0.10021949450E+03  0.18225000667E+03  0.12000000000E+03 0.  0.
<mgrwt>
<rscale>  0 0.33005600E+03</rscale>
<asrwt>0</asrwt>
<pdfrwt beam="1">  1        2 0.20562362E-01 0.33005600E+03</pdfrwt>
<pdfrwt beam="2">  1       -2 0.31348413E-01 0.33005600E+03</pdfrwt>
<totfact> 0.25434457E+03</totfact>
</mgrwt>
</event>
<event>
 4    1  0.1774755E-004  0.2539740E+03  0.7818608E-02  0.1110819E+00
         -2   -1    0    0    0  501 -0.00000000000E+00  0.00000000000E+00  0.43253468390E+02  0.43253468390E+02  0.00000000000E+00 0. -1.
          2   -1    0    0  501    0  0.00000000000E+00 -0.00000000000E+00 -0.37281848764E+03  0.37281848764E+03  0.00000000000E+00 0. -1.
         25    1    1    2    0    0  0.38077885107E+02 -0.64109070926E+01 -0.13968643302E+03  0.18815771213E+03  0.12000000000E+03 0.  0.
         25    1    1    2    0    0 -0.38077885107E+02  0.64109070926E+01 -0.18987858623E+03  0.22791424390E+03  0.12000000000E+03 0.  0.
<mgrwt>
<rscale>  0 0.25397396E+03</rscale>
<asrwt>0</asrwt>
<pdfrwt beam="1">  1        2 0.57356690E-01 0.25397396E+03</pdfrwt>
<pdfrwt beam="2">  1       -2 0.66543798E-02 0.25397396E+03</pdfrwt>
<totfact> 0.10743833E+04</totfact>
</mgrwt>
</event>
<event>
 4    1  0.1774755E-004  0.3169345E+03  0.7818608E-02  0.1077069E+00
         -2   -1    0    0    0  501 -0.00000000000E+00  0.00000000000E+00  0.80922453502E+02  0.80922453502E+02  0.00000000000E+00 0.  1.
          2   -1    0    0  501    0  0.00000000000E+00 -0.00000000000E+00 -0.31032015168E+03  0.31032015168E+03  0.00000000000E+00 0.  1.
         25    1    1    2    0    0 -0.15122924459E+02  0.10071020250E+03 -0.91915796753E+02  0.18226289097E+03  0.12000000000E+03 0.  0.
         25    1    1    2    0    0  0.15122924459E+02 -0.10071020250E+03 -0.13748190142E+03  0.20897971421E+03  0.12000000000E+03 0.  0.
<mgrwt>
<rscale>  0 0.31693449E+03</rscale>
<asrwt>0</asrwt>
<pdfrwt beam="1">  1        2 0.47741562E-01 0.31693449E+03</pdfrwt>
<pdfrwt beam="2">  1       -2 0.12449608E-01 0.31693449E+03</pdfrwt>
<totfact> 0.49056780E+03</totfact>
</mgrwt>
</event>
<event>
 4    1  0.1774755E-004  0.2796415E+03  0.7818608E-02  0.1095885E+00
         -1   -1    0    0    0  501 -0.00000000000E+00  0.00000000000E+00  0.16566704182E+02  0.16566704182E+02  0.00000000000E+00 0.  1.
          1   -1    0    0  501    0  0.00000000000E+00 -0.00000000000E+00 -0.11800682362E+04  0.11800682362E+04  0.00000000000E+00 0.  1.
         25    1    1    2    0    0  0.20940276758E+01 -0.65340140595E+02 -0.45508989463E+03  0.47516368877E+03  0.12000000000E+03 0.  0.
         25    1    1    2    0    0 -0.20940276758E+01  0.65340140595E+02 -0.70841163737E+03  0.72147125160E+03  0.12000000000E+03 0.  0.
<mgrwt>
<rscale>  0 0.27964149E+03</rscale>
<asrwt>0</asrwt>
<pdfrwt beam="1">  1        1 0.18154895E+00 0.27964149E+03</pdfrwt>
<pdfrwt beam="2">  1       -1 0.25487238E-02 0.27964149E+03</pdfrwt>
<totfact> 0.56778710E+03</totfact>
</mgrwt>
</event>
<event>
 4    1  0.1774755E-004  0.2417285E+03  0.7818608E-02  0.1118647E+00
         -1   -1    0    0    0  501 -0.00000000000E+00  0.00000000000E+00  0.74705168931E+02  0.74705168931E+02  0.00000000000E+00 0.  1.
          1   -1    0    0  501    0  0.00000000000E+00 -0.00000000000E+00 -0.19554429355E+03  0.19554429355E+03  0.00000000000E+00 0.  1.
         25    1    1    2    0    0  0.62154493123E+01  0.12844290215E+02 -0.62807422941E+02  0.13619243730E+03  0.12000000000E+03 0.  0.
         25    1    1    2    0    0 -0.62154493123E+01 -0.12844290215E+02 -0.58031701681E+02  0.13405702518E+03  0.12000000000E+03 0.  0.
<mgrwt>
<rscale>  0 0.24172852E+03</rscale>
<asrwt>0</asrwt>
<pdfrwt beam="1">  1        1 0.30083737E-01 0.24172852E+03</pdfrwt>
<pdfrwt beam="2">  1       -1 0.11493103E-01 0.24172852E+03</pdfrwt>
<totfact> 0.72844320E+03</totfact>
</mgrwt>
</event>
<event>
 4    1  0.1774755E-004  0.2760716E+03  0.7818608E-02  0.1097854E+00
          2   -1    0    0  501    0  0.00000000000E+00  0.00000000000E+00  0.64316807511E+03  0.64316807511E+03  0.00000000000E+00 0.  1.
         -2   -1    0    0    0  501 -0.00000000000E+00 -0.00000000000E+00 -0.29625050927E+02  0.29625050927E+02  0.00000000000E+00 0.  1.
         25    1    1    2    0    0  0.62501987404E+02 -0.23616046925E+02  0.27320856525E+03  0.30578936579E+03  0.12000000000E+03 0.  0.
         25    1    1    2    0    0 -0.62501987404E+02  0.23616046925E+02  0.34033445893E+03  0.36700376025E+03  0.12000000000E+03 0.  0.
<mgrwt>
<rscale>  0 0.27607164E+03</rscale>
<asrwt>0</asrwt>
<pdfrwt beam="1">  1        2 0.98948925E-01 0.27607164E+03</pdfrwt>
<pdfrwt beam="2">  1       -2 0.45577006E-02 0.27607164E+03</pdfrwt>
<totfact> 0.10434193E+04</totfact>
</mgrwt>
</event>
<event>
 4    1  0.1774755E-004  0.2830163E+03  0.7818608E-02  0.1094053E+00
         -1   -1    0    0    0  501 -0.00000000000E+00  0.00000000000E+00  0.70152622031E+02  0.70152622031E+02  0.00000000000E+00 0. -1.
          1   -1    0    0  501    0  0.00000000000E+00 -0.00000000000E+00 -0.28544276616E+03  0.28544276616E+03  0.00000000000E+00 0. -1.
         25    1    1    2    0    0 -0.35709505715E+02 -0.55868267899E+02 -0.63613299328E+02  0.15113928678E+03  0.12000000000E+03 0.  0.
         25    1    1    2    0    0  0.35709505715E+02  0.55868267899E+02 -0.15167684480E+03  0.20445610142E+03  0.12000000000E+03 0.  0.
<mgrwt>
<rscale>  0 0.28301631E+03</rscale>
<asrwt>0</asrwt>
<pdfrwt beam="1">  1        1 0.43914272E-01 0.28301631E+03</pdfrwt>
<pdfrwt beam="2">  1       -1 0.10792711E-01 0.28301631E+03</pdfrwt>
<totfact> 0.50245412E+03</totfact>
</mgrwt>
</event>
<event>
 4    1  0.1774755E-004  0.3157335E+03  0.7818608E-02  0.1077630E+00
         -2   -1    0    0    0  501 -0.00000000000E+00  0.00000000000E+00  0.51549242018E+02  0.51549242018E+02  0.00000000000E+00 0. -1.
          2   -1    0    0  501    0  0.00000000000E+00 -0.00000000000E+00 -0.48345824131E+03  0.48345824131E+03  0.00000000000E+00 0. -1.
         25    1    1    2    0    0  0.86253068382E+02  0.15881998431E+02 -0.12581019349E+03  0.19473067161E+03  0.12000000000E+03 0.  0.
         25    1    1    2    0    0 -0.86253068382E+02 -0.15881998431E+02 -0.30609880580E+03  0.34027681171E+03  0.12000000000E+03 0.  0.
<mgrwt>
<rscale>  0 0.31573347E+03</rscale>
<asrwt>0</asrwt>
<pdfrwt beam="1">  1        2 0.74378192E-01 0.31573347E+03</pdfrwt>
<pdfrwt beam="2">  1       -2 0.79306525E-02 0.31573347E+03</pdfrwt>
<totfact> 0.62009594E+03</totfact>
</mgrwt>
</event>
<event>
 4    1  0.1774755E-004  0.2483532E+03  0.7818608E-02  0.1114350E+00
         -1   -1    0    0    0  501 -0.00000000000E+00  0.00000000000E+00  0.11642151823E+03  0.11642151823E+03  0.00000000000E+00 0. -1.
          1   -1    0    0  501    0  0.00000000000E+00 -0.00000000000E+00 -0.13244829135E+03  0.13244829135E+03  0.00000000000E+00 0. -1.
         25    1    1    2    0    0 -0.26325855707E+02 -0.76197319450E+01  0.84133973604E+01  0.12337704912E+03  0.12000000000E+03 0.  0.
         25    1    1    2    0    0  0.26325855707E+02  0.76197319450E+01 -0.24440170479E+02  0.12549276046E+03  0.12000000000E+03 0.  0.
<mgrwt>
<rscale>  0 0.24835323E+03</rscale>
<asrwt>0</asrwt>
<pdfrwt beam="1">  1        1 0.20376660E-01 0.24835323E+03</pdfrwt>
<pdfrwt beam="2">  1       -1 0.17911003E-01 0.24835323E+03</pdfrwt>
<totfact> 0.59383562E+03</totfact>
</mgrwt>
</event>
<event>
 4    1  0.1774755E-004  0.3932138E+03  0.7818608E-02  0.1046155E+00
         -1   -1    0    0    0  501 -0.00000000000E+00  0.00000000000E+00  0.50967830052E+02  0.50967830052E+02  0.00000000000E+00 0.  1.
          1   -1    0    0  501    0  0.00000000000E+00 -0.00000000000E+00 -0.75840540598E+03  0.75840540598E+03  0.00000000000E+00 0.  1.
         25    1    1    2    0    0 -0.44739332687E+02 -0.33323208800E+02 -0.54426520709E+02  0.14308840027E+03  0.12000000000E+03 0.  0.
         25    1    1    2    0    0  0.44739332687E+02  0.33323208800E+02 -0.65301105522E+03  0.66628483577E+03  0.12000000000E+03 0.  0.
<mgrwt>
<rscale>  0 0.39321382E+03</rscale>
<asrwt>0</asrwt>
<pdfrwt beam="1">  1        1 0.11667776E+00 0.39321382E+03</pdfrwt>
<pdfrwt beam="2">  1       -1 0.78412046E-02 0.39321382E+03</pdfrwt>
<totfact> 0.22272064E+03</totfact>
</mgrwt>
</event>
<event>
 4    1  0.1774755E-004  0.3136672E+03  0.7818608E-02  0.1078601E+00
         -1   -1    0    0    0  501 -0.00000000000E+00  0.00000000000E+00  0.30882148461E+03  0.30882148461E+03  0.00000000000E+00 0. -1.
          1   -1    0    0  501    0  0.00000000000E+00 -0.00000000000E+00 -0.79647243512E+02  0.79647243512E+02  0.00000000000E+00 0. -1.
         25    1    1    2    0    0 -0.19302009698E+02 -0.54932216839E+02  0.12409897584E+02  0.13395567022E+03  0.12000000000E+03 0.  0.
         25    1    1    2    0    0  0.19302009698E+02  0.54932216839E+02  0.21676434351E+03  0.25451305790E+03  0.12000000000E+03 0.  0.
<mgrwt>
<rscale>  0 0.31366721E+03</rscale>
<asrwt>0</asrwt>
<pdfrwt beam="1">  1        1 0.12253422E-01 0.31366721E+03</pdfrwt>
<pdfrwt beam="2">  1       -1 0.47510997E-01 0.31366721E+03</pdfrwt>
<totfact> 0.22056333E+03</totfact>
</mgrwt>
</event>
<event>
 4    1  0.1774755E-004  0.2606874E+03  0.7818608E-02  0.1106731E+00
         -1   -1    0    0    0  501 -0.00000000000E+00  0.00000000000E+00  0.10831272459E+02  0.10831272459E+02  0.00000000000E+00 0. -1.
          1   -1    0    0  501    0  0.00000000000E+00 -0.00000000000E+00 -0.15685575759E+04  0.15685575759E+04  0.00000000000E+00 0. -1.
         25    1    1    2    0    0  0.39961445551E+02 -0.20636506593E+02 -0.63463746496E+03  0.64744690475E+03  0.12000000000E+03 0.  0.
         25    1    1    2    0    0 -0.39961445551E+02  0.20636506593E+02 -0.92308883849E+03  0.93194194362E+03  0.12000000000E+03 0.  0.
<mgrwt>
<rscale>  0 0.26068736E+03</rscale>
<asrwt>0</asrwt>
<pdfrwt beam="1">  1        1 0.24131650E+00 0.26068736E+03</pdfrwt>
<pdfrwt beam="2">  1       -1 0.16663499E-02 0.26068736E+03</pdfrwt>
<totfact> 0.57680039E+03</totfact>
</mgrwt>
</event>
<event>
 4    1  0.1774755E-004  0.2411153E+03  0.7818608E-02  0.1119052E+00
         -1   -1    0    0    0  501 -0.00000000000E+00  0.00000000000E+00  0.67374072290E+02  0.67374072290E+02  0.00000000000E+00 0.  1.
          1   -1    0    0  501    0  0.00000000000E+00 -0.00000000000E+00 -0.21572317585E+03  0.21572317585E+03  0.00000000000E+00 0.  1.
         25    1    1    2    0    0 -0.11253090818E+02 -0.18414031252E+01 -0.76559488270E+02  0.14279838256E+03  0.12000000000E+03 0.  0.
         25    1    1    2    0    0  0.11253090818E+02  0.18414031252E+01 -0.71789615287E+02  0.14029886557E+03  0.12000000000E+03 0.  0.
<mgrwt>
<rscale>  0 0.24111532E+03</rscale>
<asrwt>0</asrwt>
<pdfrwt beam="1">  1        1 0.33188181E-01 0.24111532E+03</pdfrwt>
<pdfrwt beam="2">  1       -1 0.10365242E-01 0.24111532E+03</pdfrwt>
<totfact> 0.75556239E+03</totfact>
</mgrwt>
</event>
<event>
 4    1  0.1774755E-004  0.2716989E+03  0.7818608E-02  0.1100311E+00
          2   -1    0    0  501    0  0.00000000000E+00  0.00000000000E+00  0.29008595071E+03  0.29008595071E+03  0.00000000000E+00 0. -1.
         -2   -1    0    0    0  501 -0.00000000000E+00 -0.00000000000E+00 -0.63619314014E+02  0.63619314014E+02  0.00000000000E+00 0. -1.
         25    1    1    2    0    0 -0.27368376943E+02  0.34589308342E+02  0.53439553752E+02  0.13856851812E+03  0.12000000000E+03 0.  0.
         25    1    1    2    0    0  0.27368376943E+02 -0.34589308342E+02  0.17302708294E+03  0.21513674661E+03  0.12000000000E+03 0.  0.
<mgrwt>
<rscale>  0 0.27169887E+03</rscale>
<asrwt>0</asrwt>
<pdfrwt beam="1">  1        2 0.44628607E-01 0.27169887E+03</pdfrwt>
<pdfrwt beam="2">  1       -2 0.97875869E-02 0.27169887E+03</pdfrwt>
<totfact> 0.77242454E+03</totfact>
</mgrwt>
</event>
<event>
 4    1  0.1774755E-004  0.3373293E+03  0.7818608E-02  0.1067939E+00
          1   -1    0    0  501    0  0.00000000000E+00  0.00000000000E+00  0.11169189335E+04  0.11169189335E+04  0.00000000000E+00 0. -1.
         -1   -1    0    0    0  501 -0.00000000000E+00 -0.00000000000E+00 -0.25469861350E+02  0.25469861350E+02  0.00000000000E+00 0. -1.
         25    1    1    2    0    0 -0.95947340379E+02 -0.25090796648E+02  0.32592790852E+03  0.36119861815E+03  0.12000000000E+03 0.  0.
         25    1    1    2    0    0  0.95947340379E+02  0.25090796648E+02  0.76552116360E+03  0.78119017666E+03  0.12000000000E+03 0.  0.
<mgrwt>
<rscale>  0 0.33732934E+03</rscale>
<asrwt>0</asrwt>
<pdfrwt beam="1">  1        1 0.17183364E+00 0.33732934E+03</pdfrwt>
<pdfrwt beam="2">  1       -1 0.39184411E-02 0.33732934E+03</pdfrwt>
<totfact> 0.33348678E+03</totfact>
</mgrwt>
</event>
<event>
 4    1  0.1774755E-004  0.2823661E+03  0.7818608E-02  0.1094404E+00
          1   -1    0    0  501    0  0.00000000000E+00  0.00000000000E+00  0.17073908315E+03  0.17073908315E+03  0.00000000000E+00 0. -1.
         -1   -1    0    0    0  501 -0.00000000000E+00 -0.00000000000E+00 -0.11674336713E+03  0.11674336713E+03  0.00000000000E+00 0. -1.
         25    1    1    2    0    0  0.36480681252E+02  0.50376618972E+01  0.92794199551E+02  0.15609926846E+03  0.12000000000E+03 0.  0.
         25    1    1    2    0    0 -0.36480681252E+02 -0.50376618972E+01 -0.38798483531E+02  0.13138318182E+03  0.12000000000E+03 0.  0.
<mgrwt>
<rscale>  0 0.28236611E+03</rscale>
<asrwt>0</asrwt>
<pdfrwt beam="1">  1        1 0.26267551E-01 0.28236611E+03</pdfrwt>
<pdfrwt beam="2">  1       -1 0.17960518E-01 0.28236611E+03</pdfrwt>
<totfact> 0.42934170E+03</totfact>
</mgrwt>
</event>
<event>
 4    1  0.1774755E-004  0.3523138E+03  0.7818608E-02  0.1061669E+00
          2   -1    0    0  501    0  0.00000000000E+00  0.00000000000E+00  0.11241670621E+04  0.11241670621E+04  0.00000000000E+00 0.  1.
         -2   -1    0    0    0  501 -0.00000000000E+00 -0.00000000000E+00 -0.27603769821E+02  0.27603769821E+02  0.00000000000E+00 0.  1.
         25    1    1    2    0    0 -0.85983880753E+02  0.47736217916E+02  0.27556073493E+03  0.31623676713E+03  0.12000000000E+03 0.  0.
         25    1    1    2    0    0  0.85983880753E+02 -0.47736217916E+02  0.82100255731E+03  0.83553406475E+03  0.12000000000E+03 0.  0.
<mgrwt>
<rscale>  0 0.35231377E+03</rscale>
<asrwt>0</asrwt>
<pdfrwt beam="1">  1        2 0.17294874E+00 0.35231377E+03</pdfrwt>
<pdfrwt beam="2">  1       -2 0.42467347E-02 0.35231377E+03</pdfrwt>
<totfact> 0.55721909E+03</totfact>
</mgrwt>
</event>
<event>
 4    1  0.1774755E-004  0.2648222E+03  0.7818608E-02  0.1104280E+00
         -2   -1    0    0    0  501 -0.00000000000E+00  0.00000000000E+00  0.12733585382E+02  0.12733585382E+02  0.00000000000E+00 0.  1.
          2   -1    0    0  501    0  0.00000000000E+00 -0.00000000000E+00 -0.13768864981E+04  0.13768864981E+04  0.00000000000E+00 0.  1.
         25    1    1    2    0    0 -0.42456540103E+02 -0.36348812818E+02 -0.69773771862E+03  0.71018428452E+03  0.12000000000E+03 0.  0.
         25    1    1    2    0    0  0.42456540103E+02  0.36348812818E+02 -0.66641519415E+03  0.67943579901E+03  0.12000000000E+03 0.  0.
<mgrwt>
<rscale>  0 0.26482222E+03</rscale>
<asrwt>0</asrwt>
<pdfrwt beam="1">  1        2 0.21182872E+00 0.26482222E+03</pdfrwt>
<pdfrwt beam="2">  1       -2 0.19590129E-02 0.26482222E+03</pdfrwt>
<totfact> 0.12660380E+04</totfact>
</mgrwt>
</event>
<event>
 4    1  0.1774755E-004  0.2695289E+03  0.7818608E-02  0.1101550E+00
         -1   -1    0    0    0  501 -0.00000000000E+00  0.00000000000E+00  0.29966496262E+02  0.29966496262E+02  0.00000000000E+00 0.  1.
          1   -1    0    0  501    0  0.00000000000E+00 -0.00000000000E+00 -0.60605859214E+03  0.60605859214E+03  0.00000000000E+00 0.  1.
         25    1    1    2    0    0  0.37871662375E+02  0.41576306263E+02 -0.23031127095E+03  0.26571814688E+03  0.12000000000E+03 0.  0.
         25    1    1    2    0    0 -0.37871662375E+02 -0.41576306263E+02 -0.34578082493E+03  0.37030694153E+03  0.12000000000E+03 0.  0.
<mgrwt>
<rscale>  0 0.26952887E+03</rscale>
<asrwt>0</asrwt>
<pdfrwt beam="1">  1        1 0.93239774E-01 0.26952887E+03</pdfrwt>
<pdfrwt beam="2">  1       -1 0.46102307E-02 0.26952887E+03</pdfrwt>
<totfact> 0.68641541E+03</totfact>
</mgrwt>
</event>
<event>
 4    1  0.1774755E-004  0.2936426E+03  0.7818608E-02  0.1088462E+00
         -1   -1    0    0    0  501 -0.00000000000E+00  0.00000000000E+00  0.44322578122E+02  0.44322578122E+02  0.00000000000E+00 0.  1.
          1   -1    0    0  501    0  0.00000000000E+00 -0.00000000000E+00 -0.48635477794E+03  0.48635477794E+03  0.00000000000E+00 0.  1.
         25    1    1    2    0    0  0.15446977957E+02 -0.12081014175E+02 -0.72296593722E+02  0.14146150535E+03  0.12000000000E+03 0.  0.
         25    1    1    2    0    0 -0.15446977957E+02  0.12081014175E+02 -0.36973560610E+03  0.38921585072E+03  0.12000000000E+03 0.  0.
<mgrwt>
<rscale>  0 0.29364262E+03</rscale>
<asrwt>0</asrwt>
<pdfrwt beam="1">  1        1 0.74823806E-01 0.29364262E+03</pdfrwt>
<pdfrwt beam="2">  1       -1 0.68188587E-02 0.29364262E+03</pdfrwt>
<totfact> 0.51428727E+03</totfact>
</mgrwt>
</event>
<event>
 4    1  0.1774755E-004  0.2434711E+03  0.7818608E-02  0.1117502E+00
          2   -1    0    0  501    0  0.00000000000E+00  0.00000000000E+00  0.52547027876E+03  0.52547027876E+03  0.00000000000E+00 0.  1.
         -2   -1    0    0    0  501 -0.00000000000E+00 -0.00000000000E+00 -0.28202429002E+02  0.28202429002E+02  0.00000000000E+00 0.  1.
         25    1    1    2    0    0  0.12753780125E+02  0.91155935974E+01  0.27861258877E+03  0.30376097112E+03  0.12000000000E+03 0.  0.
         25    1    1    2    0    0 -0.12753780125E+02 -0.91155935974E+01  0.21865526099E+03  0.24991173664E+03  0.12000000000E+03 0.  0.
<mgrwt>
<rscale>  0 0.24347105E+03</rscale>
<asrwt>0</asrwt>
<pdfrwt beam="1">  1        2 0.80841574E-01 0.24347105E+03</pdfrwt>
<pdfrwt beam="2">  1       -2 0.43388356E-02 0.24347105E+03</pdfrwt>
<totfact> 0.14108198E+04</totfact>
</mgrwt>
</event>
<event>
 4    1  0.1774755E-004  0.2827634E+03  0.7818608E-02  0.1094189E+00
         -1   -1    0    0    0  501 -0.00000000000E+00  0.00000000000E+00  0.23642270065E+02  0.23642270065E+02  0.00000000000E+00 0. -1.
          1   -1    0    0  501    0  0.00000000000E+00 -0.00000000000E+00 -0.84546839534E+03  0.84546839534E+03  0.00000000000E+00 0. -1.
         25    1    1    2    0    0  0.20047672383E+02  0.35592641818E+02 -0.60335398716E+03  0.61652638155E+03  0.12000000000E+03 0.  0.
         25    1    1    2    0    0 -0.20047672383E+02 -0.35592641818E+02 -0.21847213811E+03  0.25258428385E+03  0.12000000000E+03 0.  0.
<mgrwt>
<rscale>  0 0.28276345E+03</rscale>
<asrwt>0</asrwt>
<pdfrwt beam="1">  1        1 0.13007205E+00 0.28276345E+03</pdfrwt>
<pdfrwt beam="2">  1       -1 0.36372727E-02 0.28276345E+03</pdfrwt>
<totfact> 0.59824798E+03</totfact>
</mgrwt>
</event>
<event>
 4    1  0.1774755E-004  0.2560014E+03  0.7818608E-02  0.1109570E+00
          1   -1    0    0  501    0  0.00000000000E+00  0.00000000000E+00  0.76903560089E+03  0.76903560089E+03  0.00000000000E+00 0.  1.
         -1   -1    0    0    0  501 -0.00000000000E+00 -0.00000000000E+00 -0.21304832435E+02  0.21304832435E+02  0.00000000000E+00 0.  1.
         25    1    1    2    0    0  0.42444598733E+02 -0.13472574521E+02  0.37059757911E+03  0.39207858890E+03  0.12000000000E+03 0.  0.
         25    1    1    2    0    0 -0.42444598733E+02  0.13472574521E+02  0.37713318934E+03  0.39826184443E+03  0.12000000000E+03 0.  0.
<mgrwt>
<rscale>  0 0.25600136E+03</rscale>
<asrwt>0</asrwt>
<pdfrwt beam="1">  1        1 0.11831315E+00 0.25600136E+03</pdfrwt>
<pdfrwt beam="2">  1       -1 0.32776671E-02 0.25600136E+03</pdfrwt>
<totfact> 0.80577099E+03</totfact>
</mgrwt>
</event>
<event>
 4    1  0.1774755E-004  0.2472324E+03  0.7818608E-02  0.1115066E+00
         -1   -1    0    0    0  501 -0.00000000000E+00  0.00000000000E+00  0.35991732320E+01  0.35991732320E+01  0.00000000000E+00 0. -1.
          1   -1    0    0  501    0  0.00000000000E+00 -0.00000000000E+00 -0.42456869253E+04  0.42456869253E+04  0.00000000000E+00 0. -1.
         25    1    1    2    0    0  0.57201021446E+00  0.82781217020E+01 -0.16312452341E+04  0.16356741327E+04  0.12000000000E+03 0.  0.
         25    1    1    2    0    0 -0.57201021446E+00 -0.82781217020E+01 -0.26108425179E+04  0.26136119658E+04  0.12000000000E+03 0.  0.
<mgrwt>
<rscale>  0 0.24723238E+03</rscale>
<asrwt>0</asrwt>
<pdfrwt beam="1">  1        1 0.65317851E+00 0.24723238E+03</pdfrwt>
<pdfrwt beam="2">  1       -1 0.55372243E-03 0.24723238E+03</pdfrwt>
<totfact> 0.34037824E+02</totfact>
</mgrwt>
</event>
<event>
 4    1  0.1774755E-004  0.2839388E+03  0.7818608E-02  0.1093557E+00
          2   -1    0    0  501    0  0.00000000000E+00  0.00000000000E+00  0.21578614622E+04  0.21578614622E+04  0.00000000000E+00 0. -1.
         -2   -1    0    0    0  501 -0.00000000000E+00 -0.00000000000E+00 -0.93404131037E+01  0.93404131037E+01  0.00000000000E+00 0. -1.
         25    1    1    2    0    0  0.46596246940E+02  0.44812251892E+02  0.13772645728E+04  0.13839931545E+04  0.12000000000E+03 0.  0.
         25    1    1    2    0    0 -0.46596246940E+02 -0.44812251892E+02  0.77125647621E+03  0.78320872074E+03  0.12000000000E+03 0.  0.
<mgrwt>
<rscale>  0 0.28393885E+03</rscale>
<asrwt>0</asrwt>
<pdfrwt beam="1">  1        2 0.33197829E+00 0.28393885E+03</pdfrwt>
<pdfrwt beam="2">  1       -2 0.14369883E-02 0.28393885E+03</pdfrwt>
<totfact> 0.77041383E+03</totfact>
</mgrwt>
</event>
<event>
 4    1  0.1774755E-004  0.2823153E+03  0.7818608E-02  0.1094431E+00
          1   -1    0    0  501    0  0.00000000000E+00  0.00000000000E+00  0.54302211002E+02  0.54302211002E+02  0.00000000000E+00 0.  1.
         -1   -1    0    0    0  501 -0.00000000000E+00 -0.00000000000E+00 -0.36693688357E+03  0.36693688357E+03  0.00000000000E+00 0.  1.
         25    1    1    2    0    0  0.52801812914E+02 -0.47033347361E+02 -0.19051566688E+03  0.23600081893E+03  0.12000000000E+03 0.  0.
         25    1    1    2    0    0 -0.52801812914E+02  0.47033347361E+02 -0.12211900569E+03  0.18523827564E+03  0.12000000000E+03 0.  0.
<mgrwt>
<rscale>  0 0.28231531E+03</rscale>
<asrwt>0</asrwt>
<pdfrwt beam="1">  1        1 0.83541865E-02 0.28231531E+03</pdfrwt>
<pdfrwt beam="2">  1       -1 0.56451827E-01 0.28231531E+03</pdfrwt>
<totfact> 0.26721411E+03</totfact>
</mgrwt>
</event>
<event>
 4    1  0.1774755E-004  0.2677192E+03  0.7818608E-02  0.1102592E+00
         -1   -1    0    0    0  501 -0.00000000000E+00  0.00000000000E+00  0.39059225915E+03  0.39059225915E+03  0.00000000000E+00 0.  1.
          1   -1    0    0  501    0  0.00000000000E+00 -0.00000000000E+00 -0.45874913405E+02  0.45874913405E+02  0.00000000000E+00 0.  1.
         25    1    1    2    0    0  0.32161645080E+02  0.25870388840E+02  0.10290758267E+03  0.16338181968E+03  0.12000000000E+03 0.  0.
         25    1    1    2    0    0 -0.32161645080E+02 -0.25870388840E+02  0.24180976308E+03  0.27308535287E+03  0.12000000000E+03 0.  0.
<mgrwt>
<rscale>  0 0.26771915E+03</rscale>
<asrwt>0</asrwt>
<pdfrwt beam="1">  1        1 0.70576792E-02 0.26771915E+03</pdfrwt>
<pdfrwt beam="2">  1       -1 0.60091115E-01 0.26771915E+03</pdfrwt>
<totfact> 0.29798901E+03</totfact>
</mgrwt>
</event>
<event>
 4    1  0.1774755E-004  0.2487400E+03  0.7818608E-02  0.1114104E+00
          1   -1    0    0  501    0  0.00000000000E+00  0.00000000000E+00  0.36301259744E+02  0.36301259744E+02  0.00000000000E+00 0. -1.
         -1   -1    0    0    0  501 -0.00000000000E+00 -0.00000000000E+00 -0.42609806507E+03  0.42609806507E+03  0.00000000000E+00 0. -1.
         25    1    1    2    0    0  0.27122316969E+02  0.65024246986E+00 -0.22876291777E+03  0.25974702201E+03  0.12000000000E+03 0.  0.
         25    1    1    2    0    0 -0.27122316969E+02 -0.65024246986E+00 -0.16103388755E+03  0.20265230281E+03  0.12000000000E+03 0.  0.
<mgrwt>
<rscale>  0 0.24874000E+03</rscale>
<asrwt>0</asrwt>
<pdfrwt beam="1">  1        1 0.55848093E-02 0.24874000E+03</pdfrwt>
<pdfrwt beam="2">  1       -1 0.65553548E-01 0.24874000E+03</pdfrwt>
<totfact> 0.34620516E+03</totfact>
</mgrwt>
</event>
<event>
 4    1  0.1774755E-004  0.2933682E+03  0.7818608E-02  0.1088604E+00
         -2   -1    0    0    0  501 -0.00000000000E+00  0.00000000000E+00  0.61830152243E+03  0.61830152243E+03  0.00000000000E+00 0. -1.
          2   -1    0    0  501    0  0.00000000000E+00 -0.00000000000E+00 -0.34798927086E+02  0.34798927086E+02  0.00000000000E+00 0. -1.
         25    1    1    2    0    0 -0.10772203915E+02 -0.37973136631E+02  0.45772342611E+03  0.47483548129E+03  0.12000000000E+03 0.  0.
         25    1    1    2    0    0  0.10772203915E+02  0.37973136631E+02  0.12577916923E+03  0.17826496822E+03  0.12000000000E+03 0.  0.
<mgrwt>
<rscale>  0 0.29336823E+03</rscale>
<asrwt>0</asrwt>
<pdfrwt beam="1">  1        2 0.53536815E-02 0.29336823E+03</pdfrwt>
<pdfrwt beam="2">  1       -2 0.95123303E-01 0.29336823E+03</pdfrwt>
<totfact> 0.13845191E+03</totfact>
</mgrwt>
</event>
<event>
 4    1  0.1774755E-004  0.2513633E+03  0.7818608E-02  0.1112446E+00
         -2   -1    0    0    0  501 -0.00000000000E+00  0.00000000000E+00  0.45026772606E+03  0.45026772606E+03  0.00000000000E+00 0.  1.
          2   -1    0    0  501    0  0.00000000000E+00 -0.00000000000E+00 -0.35081070945E+02  0.35081070945E+02  0.00000000000E+00 0.  1.
         25    1    1    2    0    0 -0.16735095855E+02 -0.17335803201E+02  0.26272557136E+03  0.28983671153E+03  0.12000000000E+03 0.  0.
         25    1    1    2    0    0  0.16735095855E+02  0.17335803201E+02  0.15246108376E+03  0.19551208547E+03  0.12000000000E+03 0.  0.
<mgrwt>
<rscale>  0 0.25136328E+03</rscale>
<asrwt>0</asrwt>
<pdfrwt beam="1">  1        2 0.53970882E-02 0.25136328E+03</pdfrwt>
<pdfrwt beam="2">  1       -2 0.69271954E-01 0.25136328E+03</pdfrwt>
<totfact> 0.27514716E+03</totfact>
</mgrwt>
</event>
<event>
 4    1  0.1774755E-004  0.2556656E+03  0.7818608E-02  0.1109776E+00
          2   -1    0    0  501    0  0.00000000000E+00  0.00000000000E+00  0.15398861165E+04  0.15398861165E+04  0.00000000000E+00 0.  1.
         -2   -1    0    0    0  501 -0.00000000000E+00 -0.00000000000E+00 -0.10611966065E+02  0.10611966065E+02  0.00000000000E+00 0.  1.
         25    1    1    2    0    0  0.29034624785E+02  0.23808234498E+02  0.62483916129E+03  0.63736474561E+03  0.12000000000E+03 0.  0.
         25    1    1    2    0    0 -0.29034624785E+02 -0.23808234498E+02  0.90443498915E+03  0.91313333696E+03  0.12000000000E+03 0.  0.
<mgrwt>
<rscale>  0 0.25566556E+03</rscale>
<asrwt>0</asrwt>
<pdfrwt beam="1">  1        2 0.23690538E+00 0.25566556E+03</pdfrwt>
<pdfrwt beam="2">  1       -2 0.16326114E-02 0.25566556E+03</pdfrwt>
<totfact> 0.13503726E+04</totfact>
</mgrwt>
</event>
<event>
 4    1  0.1774755E-004  0.2602926E+03  0.7818608E-02  0.1106968E+00
         -3   -1    0    0    0  501 -0.00000000000E+00  0.00000000000E+00  0.32550751475E+03  0.32550751475E+03  0.00000000000E+00 0. -1.
          3   -1    0    0  501    0  0.00000000000E+00 -0.00000000000E+00 -0.52035857144E+02  0.52035857144E+02  0.00000000000E+00 0. -1.
         25    1    1    2    0    0  0.39502414598E+02  0.28243058095E+02  0.15619313262E+03  0.20286548688E+03  0.12000000000E+03 0.  0.
         25    1    1    2    0    0 -0.39502414598E+02 -0.28243058095E+02  0.11727852499E+03  0.17467788501E+03  0.12000000000E+03 0.  0.
<mgrwt>
<rscale>  0 0.26029262E+03</rscale>
<asrwt>0</asrwt>
<pdfrwt beam="1">  1        3 0.80055166E-02 0.26029262E+03</pdfrwt>
<pdfrwt beam="2">  1       -3 0.50078078E-01 0.26029262E+03</pdfrwt>
<totfact> 0.10727332E+03</totfact>
</mgrwt>
</event>
<event>
 4    1  0.1774755E-004  0.2652784E+03  0.7818608E-02  0.1104013E+00
         -1   -1    0    0    0  501 -0.00000000000E+00  0.00000000000E+00  0.40324449903E+02  0.40324449903E+02  0.00000000000E+00 0. -1.
          1   -1    0    0  501    0  0.00000000000E+00 -0.00000000000E+00 -0.43629005947E+03  0.43629005947E+03  0.00000000000E+00 0. -1.
         25    1    1    2    0    0  0.34943553820E+02 -0.30120910263E+00 -0.11819796598E+03  0.17202296894E+03  0.12000000000E+03 0.  0.
         25    1    1    2    0    0 -0.34943553820E+02  0.30120910263E+00 -0.27776764359E+03  0.30459154044E+03  0.12000000000E+03 0.  0.
<mgrwt>
<rscale>  0 0.26527839E+03</rscale>
<asrwt>0</asrwt>
<pdfrwt beam="1">  1        1 0.67121545E-01 0.26527839E+03</pdfrwt>
<pdfrwt beam="2">  1       -1 0.62037618E-02 0.26527839E+03</pdfrwt>
<totfact> 0.68212567E+03</totfact>
</mgrwt>
</event>
<event>
 4    1  0.1774755E-004  0.2643390E+03  0.7818608E-02  0.1104564E+00
          1   -1    0    0  501    0  0.00000000000E+00  0.00000000000E+00  0.19649969347E+02  0.19649969347E+02  0.00000000000E+00 0. -1.
         -1   -1    0    0    0  501 -0.00000000000E+00 -0.00000000000E+00 -0.88899793056E+03  0.88899793056E+03  0.00000000000E+00 0. -1.
         25    1    1    2    0    0 -0.31206401933E+02  0.10668846284E+02 -0.58767330771E+03  0.60070590175E+03  0.12000000000E+03 0.  0.
         25    1    1    2    0    0  0.31206401933E+02 -0.10668846284E+02 -0.28167465351E+03  0.30794199816E+03  0.12000000000E+03 0.  0.
<mgrwt>
<rscale>  0 0.26433904E+03</rscale>
<asrwt>0</asrwt>
<pdfrwt beam="1">  1        1 0.30230720E-02 0.26433904E+03</pdfrwt>
<pdfrwt beam="2">  1       -1 0.13676892E+00 0.26433904E+03</pdfrwt>
<totfact> 0.16147882E+03</totfact>
</mgrwt>
</event>
<event>
 4    1  0.1774755E-004  0.2777266E+03  0.7818608E-02  0.1096937E+00
         -1   -1    0    0    0  501 -0.00000000000E+00  0.00000000000E+00  0.61484723552E+03  0.61484723552E+03  0.00000000000E+00 0.  1.
          1   -1    0    0  501    0  0.00000000000E+00 -0.00000000000E+00 -0.31362290453E+02  0.31362290453E+02  0.00000000000E+00 0.  1.
         25    1    1    2    0    0  0.13585856651E+02 -0.23795813800E+02  0.14217174779E+03  0.18805217926E+03  0.12000000000E+03 0.  0.
         25    1    1    2    0    0 -0.13585856651E+02  0.23795813800E+02  0.44131319727E+03  0.45815734671E+03  0.12000000000E+03 0.  0.
<mgrwt>
<rscale>  0 0.27772661E+03</rscale>
<asrwt>0</asrwt>
<pdfrwt beam="1">  1        1 0.48249682E-02 0.27772661E+03</pdfrwt>
<pdfrwt beam="2">  1       -1 0.94591874E-01 0.27772661E+03</pdfrwt>
<totfact> 0.19925670E+03</totfact>
</mgrwt>
</event>
<event>
 4    1  0.1774755E-004  0.2798873E+03  0.7818608E-02  0.1095751E+00
          1   -1    0    0  501    0  0.00000000000E+00  0.00000000000E+00  0.13847196603E+04  0.13847196603E+04  0.00000000000E+00 0.  1.
         -1   -1    0    0    0  501 -0.00000000000E+00 -0.00000000000E+00 -0.14143094800E+02  0.14143094800E+02  0.00000000000E+00 0.  1.
         25    1    1    2    0    0 -0.42605893620E+01 -0.52193638956E+02  0.43831199508E+03  0.45744915958E+03  0.12000000000E+03 0.  0.
         25    1    1    2    0    0  0.42605893620E+01  0.52193638956E+02  0.93226457044E+03  0.94141359554E+03  0.12000000000E+03 0.  0.
<mgrwt>
<rscale>  0 0.27988727E+03</rscale>
<asrwt>0</asrwt>
<pdfrwt beam="1">  1        1 0.21303369E+00 0.27988727E+03</pdfrwt>
<pdfrwt beam="2">  1       -1 0.21758618E-02 0.27988727E+03</pdfrwt>
<totfact> 0.51802114E+03</totfact>
</mgrwt>
</event>
<event>
 4    1  0.1774755E-004  0.2451714E+03  0.7818608E-02  0.1116395E+00
         -2   -1    0    0    0  501 -0.00000000000E+00  0.00000000000E+00  0.60732239655E+01  0.60732239655E+01  0.00000000000E+00 0.  1.
          2   -1    0    0  501    0  0.00000000000E+00 -0.00000000000E+00 -0.24743445975E+04  0.24743445975E+04  0.00000000000E+00 0.  1.
         25    1    1    2    0    0  0.16416353904E+02  0.17468130141E+02 -0.13075222850E+04  0.13132361395E+04  0.12000000000E+03 0.  0.
         25    1    1    2    0    0 -0.16416353904E+02 -0.17468130141E+02 -0.11607490886E+04  0.11671816820E+04  0.12000000000E+03 0.  0.
<mgrwt>
<rscale>  0 0.24517136E+03</rscale>
<asrwt>0</asrwt>
<pdfrwt beam="1">  1        2 0.38066835E+00 0.24517136E+03</pdfrwt>
<pdfrwt beam="2">  1       -2 0.93434227E-03 0.24517136E+03</pdfrwt>
<totfact> 0.97390527E+03</totfact>
</mgrwt>
</event>
<event>
 4    1  0.1774755E-004  0.3153780E+03  0.7818608E-02  0.1077796E+00
         -4   -1    0    0    0  501 -0.00000000000E+00  0.00000000000E+00  0.20578306678E+03  0.20578306678E+03  0.00000000000E+00 0. -1.
          4   -1    0    0  501    0  0.00000000000E+00 -0.00000000000E+00 -0.12083514152E+03  0.12083514152E+03  0.00000000000E+00 0. -1.
         25    1    1    2    0    0 -0.49167865646E+02 -0.75879706018E+01  0.13505099564E+03  0.18738683981E+03  0.12000000000E+03 0.  0.
         25    1    1    2    0    0  0.49167865646E+02  0.75879706018E+01 -0.50103070384E+02  0.13923136849E+03  0.12000000000E+03 0.  0.
<mgrwt>
<rscale>  0 0.31537803E+03</rscale>
<asrwt>0</asrwt>
<pdfrwt beam="1">  1        4 0.18590022E-01 0.31537803E+03</pdfrwt>
<pdfrwt beam="2">  1       -4 0.31658933E-01 0.31537803E+03</pdfrwt>
<totfact> 0.47056533E+02</totfact>
</mgrwt>
</event>
<event>
 4    1  0.1774755E-004  0.2886610E+03  0.7818608E-02  0.1091050E+00
          1   -1    0    0  501    0  0.00000000000E+00  0.00000000000E+00  0.19450590647E+04  0.19450590647E+04  0.00000000000E+00 0. -1.
         -1   -1    0    0    0  501 -0.00000000000E+00 -0.00000000000E+00 -0.10709853730E+02  0.10709853730E+02  0.00000000000E+00 0. -1.
         25    1    1    2    0    0 -0.75916618797E+02  0.25777555623E+02  0.95453052644E+03  0.96537885894E+03  0.12000000000E+03 0.  0.
         25    1    1    2    0    0  0.75916618797E+02 -0.25777555623E+02  0.97981868454E+03  0.99039005950E+03  0.12000000000E+03 0.  0.
<mgrwt>
<rscale>  0 0.28866103E+03</rscale>
<asrwt>0</asrwt>
<pdfrwt beam="1">  1        1 0.29923957E+00 0.28866103E+03</pdfrwt>
<pdfrwt beam="2">  1       -1 0.16476714E-02 0.28866103E+03</pdfrwt>
<totfact> 0.33332507E+03</totfact>
</mgrwt>
</event>
<event>
 4    1  0.1774755E-004  0.3760502E+03  0.7818608E-02  0.1052403E+00
          4   -1    0    0  501    0  0.00000000000E+00  0.00000000000E+00  0.19519099550E+03  0.19519099550E+03  0.00000000000E+00 0.  1.
         -4   -1    0    0    0  501 -0.00000000000E+00 -0.00000000000E+00 -0.18112226308E+03  0.18112226308E+03  0.00000000000E+00 0.  1.
         25    1    1    2    0    0 -0.13836570349E+01  0.54685434096E+02  0.14114686641E+03  0.19317051821E+03  0.12000000000E+03 0.  0.
         25    1    1    2    0    0  0.13836570349E+01 -0.54685434096E+02 -0.12707813399E+03  0.18314274036E+03  0.12000000000E+03 0.  0.
<mgrwt>
<rscale>  0 0.37605018E+03</rscale>
<asrwt>0</asrwt>
<pdfrwt beam="1">  1        4 0.30029384E-01 0.37605018E+03</pdfrwt>
<pdfrwt beam="2">  1       -4 0.27864963E-01 0.37605018E+03</pdfrwt>
<totfact> 0.25112307E+02</totfact>
</mgrwt>
</event>
<event>
 4    1  0.1774755E-004  0.2745698E+03  0.7818608E-02  0.1098692E+00
          1   -1    0    0  501    0  0.00000000000E+00  0.00000000000E+00  0.72882396739E+02  0.72882396739E+02  0.00000000000E+00 0. -1.
         -1   -1    0    0    0  501 -0.00000000000E+00 -0.00000000000E+00 -0.25859672697E+03  0.25859672697E+03  0.00000000000E+00 0. -1.
         25    1    1    2    0    0 -0.32947453399E+02  0.21208040889E+02 -0.27711334523E+02  0.12924099096E+03  0.12000000000E+03 0.  0.
         25    1    1    2    0    0  0.32947453399E+02 -0.21208040889E+02 -0.15800299571E+03  0.20223813275E+03  0.12000000000E+03 0.  0.
<mgrwt>
<rscale>  0 0.27456984E+03</rscale>
<asrwt>0</asrwt>
<pdfrwt beam="1">  1        1 0.11212677E-01 0.27456984E+03</pdfrwt>
<pdfrwt beam="2">  1       -1 0.39784111E-01 0.27456984E+03</pdfrwt>
<totfact> 0.34107902E+03</totfact>
</mgrwt>
</event>
<event>
 4    1  0.1774755E-004  0.2514489E+03  0.7818608E-02  0.1112393E+00
         -2   -1    0    0    0  501 -0.00000000000E+00  0.00000000000E+00  0.10235771193E+02  0.10235771193E+02  0.00000000000E+00 0. -1.
          2   -1    0    0  501    0  0.00000000000E+00 -0.00000000000E+00 -0.15442543430E+04  0.15442543430E+04  0.00000000000E+00 0. -1.
         25    1    1    2    0    0  0.34678024596E+02  0.13892419417E+02 -0.78757768718E+03  0.79754258698E+03  0.12000000000E+03 0.  0.
         25    1    1    2    0    0 -0.34678024596E+02 -0.13892419417E+02 -0.74644088461E+03  0.75694752719E+03  0.12000000000E+03 0.  0.
<mgrwt>
<rscale>  0 0.25144887E+03</rscale>
<asrwt>0</asrwt>
<pdfrwt beam="1">  1        2 0.23757738E+00 0.25144887E+03</pdfrwt>
<pdfrwt beam="2">  1       -2 0.15747354E-02 0.25144887E+03</pdfrwt>
<totfact> 0.14152789E+04</totfact>
</mgrwt>
</event>
<event>
 4    1  0.1774755E-004  0.3102836E+03  0.7818608E-02  0.1080210E+00
         -2   -1    0    0    0  501 -0.00000000000E+00  0.00000000000E+00  0.26615006531E+02  0.26615006531E+02  0.00000000000E+00 0. -1.
          2   -1    0    0  501    0  0.00000000000E+00 -0.00000000000E+00 -0.90433887659E+03  0.90433887659E+03  0.00000000000E+00 0. -1.
         25    1    1    2    0    0 -0.35828074813E+01  0.76286937158E+02 -0.62469977848E+03  0.64068896239E+03  0.12000000000E+03 0.  0.
         25    1    1    2    0    0  0.35828074813E+01 -0.76286937158E+02 -0.25302409158E+03  0.29026492074E+03  0.12000000000E+03 0.  0.
<mgrwt>
<rscale>  0 0.31028365E+03</rscale>
<asrwt>0</asrwt>
<pdfrwt beam="1">  1        2 0.13912904E+00 0.31028365E+03</pdfrwt>
<pdfrwt beam="2">  1       -2 0.40946168E-02 0.31028365E+03</pdfrwt>
<totfact> 0.80209523E+03</totfact>
</mgrwt>
</event>
<event>
 4    1  0.1774755E-004  0.2485107E+03  0.7818608E-02  0.1114250E+00
         -2   -1    0    0    0  501 -0.00000000000E+00  0.00000000000E+00  0.16665137956E+02  0.16665137956E+02  0.00000000000E+00 0.  1.
          2   -1    0    0  501    0  0.00000000000E+00 -0.00000000000E+00 -0.92644878466E+03  0.92644878466E+03  0.00000000000E+00 0.  1.
         25    1    1    2    0    0 -0.44827598595E+01 -0.31309335210E+02 -0.47860024714E+03  0.49442751356E+03  0.12000000000E+03 0.  0.
         25    1    1    2    0    0  0.44827598595E+01  0.31309335210E+02 -0.43118339957E+03  0.44868640905E+03  0.12000000000E+03 0.  0.
<mgrwt>
<rscale>  0 0.24851074E+03</rscale>
<asrwt>0</asrwt>
<pdfrwt beam="1">  1        2 0.14253059E+00 0.24851074E+03</pdfrwt>
<pdfrwt beam="2">  1       -2 0.25638673E-02 0.24851074E+03</pdfrwt>
<totfact> 0.15507401E+04</totfact>
</mgrwt>
</event>
<event>
 4    1  0.1774755E-004  0.2950046E+03  0.7818608E-02  0.1087765E+00
         -2   -1    0    0    0  501 -0.00000000000E+00  0.00000000000E+00  0.14845142574E+02  0.14845142574E+02  0.00000000000E+00 0.  1.
          2   -1    0    0  501    0  0.00000000000E+00 -0.00000000000E+00 -0.14655922044E+04  0.14655922044E+04  0.00000000000E+00 0.  1.
         25    1    1    2    0    0 -0.44847296725E+02  0.54287108037E+01 -0.35947481682E+03  0.38165808632E+03  0.12000000000E+03 0.  0.
         25    1    1    2    0    0  0.44847296725E+02 -0.54287108037E+01 -0.10912722450E+04  0.10987792607E+04  0.12000000000E+03 0.  0.
<mgrwt>
<rscale>  0 0.29500458E+03</rscale>
<asrwt>0</asrwt>
<pdfrwt beam="1">  1        2 0.22547575E+00 0.29500458E+03</pdfrwt>
<pdfrwt beam="2">  1       -2 0.22838678E-02 0.29500458E+03</pdfrwt>
<totfact> 0.90610040E+03</totfact>
</mgrwt>
</event>
<event>
 4    1  0.1774755E-004  0.2550652E+03  0.7818608E-02  0.1110145E+00
          2   -1    0    0  501    0  0.00000000000E+00  0.00000000000E+00  0.69253238506E+02  0.69253238506E+02  0.00000000000E+00 0.  1.
         -2   -1    0    0    0  501 -0.00000000000E+00 -0.00000000000E+00 -0.23485630448E+03  0.23485630448E+03  0.00000000000E+00 0.  1.
         25    1    1    2    0    0 -0.24945491028E+02  0.12454438490E+01 -0.12479847970E+03  0.17492423842E+03  0.12000000000E+03 0.  0.
         25    1    1    2    0    0  0.24945491028E+02 -0.12454438490E+01 -0.40804586272E+02  0.12918530456E+03  0.12000000000E+03 0.  0.
<mgrwt>
<rscale>  0 0.25506517E+03</rscale>
<asrwt>0</asrwt>
<pdfrwt beam="1">  1        2 0.10654344E-01 0.25506517E+03</pdfrwt>
<pdfrwt beam="2">  1       -2 0.36131739E-01 0.25506517E+03</pdfrwt>
<totfact> 0.42424996E+03</totfact>
</mgrwt>
</event>
<event>
 4    1  0.1774755E-004  0.2752413E+03  0.7818608E-02  0.1098317E+00
          2   -1    0    0  501    0  0.00000000000E+00  0.00000000000E+00  0.11579598957E+04  0.11579598957E+04  0.00000000000E+00 0. -1.
         -2   -1    0    0    0  501 -0.00000000000E+00 -0.00000000000E+00 -0.16355876212E+02  0.16355876212E+02  0.00000000000E+00 0. -1.
         25    1    1    2    0    0  0.36561759286E+02  0.44328338347E+02  0.42070353612E+03  0.44124055698E+03  0.12000000000E+03 0.  0.
         25    1    1    2    0    0 -0.36561759286E+02 -0.44328338347E+02  0.72090048338E+03  0.73307521494E+03  0.12000000000E+03 0.  0.
<mgrwt>
<rscale>  0 0.27524134E+03</rscale>
<asrwt>0</asrwt>
<pdfrwt beam="1">  1        2 0.17814761E+00 0.27524134E+03</pdfrwt>
<pdfrwt beam="2">  1       -2 0.25162896E-02 0.27524134E+03</pdfrwt>
<totfact> 0.11610594E+04</totfact>
</mgrwt>
</event>
<event>
 4    1  0.1774755E-004  0.2945371E+03  0.7818608E-02  0.1088004E+00
          2   -1    0    0  501    0  0.00000000000E+00  0.00000000000E+00  0.85601070943E+03  0.85601070943E+03  0.00000000000E+00 0. -1.
         -2   -1    0    0    0  501 -0.00000000000E+00 -0.00000000000E+00 -0.25336158373E+02  0.25336158373E+02  0.00000000000E+00 0. -1.
         25    1    1    2    0    0 -0.34379304903E+02 -0.58706422135E+02  0.56965595692E+03  0.58611968902E+03  0.12000000000E+03 0.  0.
         25    1    1    2    0    0  0.34379304903E+02  0.58706422135E+02  0.26101859414E+03  0.29522717878E+03  0.12000000000E+03 0.  0.
<mgrwt>
<rscale>  0 0.29453708E+03</rscale>
<asrwt>0</asrwt>
<pdfrwt beam="1">  1        2 0.13169393E+00 0.29453708E+03</pdfrwt>
<pdfrwt beam="2">  1       -2 0.38978712E-02 0.29453708E+03</pdfrwt>
<totfact> 0.92816046E+03</totfact>
</mgrwt>
</event>
<event>
 4    1  0.1774755E-004  0.2690899E+03  0.7818608E-02  0.1101802E+00
         -2   -1    0    0    0  501 -0.00000000000E+00  0.00000000000E+00  0.70737347824E+03  0.70737347824E+03  0.00000000000E+00 0. -1.
          2   -1    0    0  501    0  0.00000000000E+00 -0.00000000000E+00 -0.25590921464E+02  0.25590921464E+02  0.00000000000E+00 0. -1.
         25    1    1    2    0    0  0.11769389864E+02  0.46526976703E+02  0.44277478100E+03  0.46125132497E+03  0.12000000000E+03 0.  0.
         25    1    1    2    0    0 -0.11769389864E+02 -0.46526976703E+02  0.23900777578E+03  0.27171307473E+03  0.12000000000E+03 0.  0.
<mgrwt>
<rscale>  0 0.26908987E+03</rscale>
<asrwt>0</asrwt>
<pdfrwt beam="1">  1        2 0.39370654E-02 0.26908987E+03</pdfrwt>
<pdfrwt beam="2">  1       -2 0.10882667E+00 0.26908987E+03</pdfrwt>
<totfact> 0.15188564E+03</totfact>
</mgrwt>
</event>
<event>
 4    1  0.1774755E-004  0.2578184E+03  0.7818608E-02  0.1108461E+00
          1   -1    0    0  501    0  0.00000000000E+00  0.00000000000E+00  0.24357050681E+02  0.24357050681E+02  0.00000000000E+00 0.  1.
         -1   -1    0    0    0  501 -0.00000000000E+00 -0.00000000000E+00 -0.68224939372E+03  0.68224939372E+03  0.00000000000E+00 0.  1.
         25    1    1    2    0    0 -0.45637675632E+02 -0.42741830029E+01 -0.35853026618E+03  0.38084776203E+03  0.12000000000E+03 0.  0.
         25    1    1    2    0    0  0.45637675632E+02  0.42741830029E+01 -0.29936207686E+03  0.32575868237E+03  0.12000000000E+03 0.  0.
<mgrwt>
<rscale>  0 0.25781841E+03</rscale>
<asrwt>0</asrwt>
<pdfrwt beam="1">  1        1 0.37472386E-02 0.25781841E+03</pdfrwt>
<pdfrwt beam="2">  1       -1 0.10496144E+00 0.25781841E+03</pdfrwt>
<totfact> 0.22439116E+03</totfact>
</mgrwt>
</event>
<event>
 4    1  0.1774755E-004  0.3370558E+03  0.7818608E-02  0.1068057E+00
         -1   -1    0    0    0  501 -0.00000000000E+00  0.00000000000E+00  0.73563505622E+02  0.73563505622E+02  0.00000000000E+00 0.  1.
          1   -1    0    0  501    0  0.00000000000E+00 -0.00000000000E+00 -0.38608351632E+03  0.38608351632E+03  0.00000000000E+00 0.  1.
         25    1    1    2    0    0  0.13858763200E+02  0.10890123501E+03 -0.21648162930E+03  0.27076897926E+03  0.12000000000E+03 0.  0.
         25    1    1    2    0    0 -0.13858763200E+02 -0.10890123501E+03 -0.96038381392E+02  0.18887804268E+03  0.12000000000E+03 0.  0.
<mgrwt>
<rscale>  0 0.33705582E+03</rscale>
<asrwt>0</asrwt>
<pdfrwt beam="1">  1        1 0.59397464E-01 0.33705582E+03</pdfrwt>
<pdfrwt beam="2">  1       -1 0.11317462E-01 0.33705582E+03</pdfrwt>
<totfact> 0.31926155E+03</totfact>
</mgrwt>
</event>
<event>
 4    1  0.1774755E-004  0.2526946E+03  0.7818608E-02  0.1111614E+00
         -1   -1    0    0    0  501 -0.00000000000E+00  0.00000000000E+00  0.80760859241E+02  0.80760859241E+02  0.00000000000E+00 0.  1.
          1   -1    0    0  501    0  0.00000000000E+00 -0.00000000000E+00 -0.19766559215E+03  0.19766559215E+03  0.00000000000E+00 0.  1.
         25    1    1    2    0    0  0.35757492628E+02  0.10809313208E+02 -0.44162372348E+02  0.13321319252E+03  0.12000000000E+03 0.  0.
         25    1    1    2    0    0 -0.35757492628E+02 -0.10809313208E+02 -0.72742360561E+02  0.14521325887E+03  0.12000000000E+03 0.  0.
<mgrwt>
<rscale>  0 0.25269462E+03</rscale>
<asrwt>0</asrwt>
<pdfrwt beam="1">  1        1 0.30410091E-01 0.25269462E+03</pdfrwt>
<pdfrwt beam="2">  1       -1 0.12424748E-01 0.25269462E+03</pdfrwt>
<totfact> 0.63757963E+03</totfact>
</mgrwt>
</event>
<event>
 4    1  0.1774755E-004  0.3276320E+03  0.7818608E-02  0.1072189E+00
         -2   -1    0    0    0  501 -0.00000000000E+00  0.00000000000E+00  0.15352893092E+03  0.15352893092E+03  0.00000000000E+00 0. -1.
          2   -1    0    0  501    0  0.00000000000E+00 -0.00000000000E+00 -0.17479235352E+03  0.17479235352E+03  0.00000000000E+00 0. -1.
         25    1    1    2    0    0  0.92034570481E+01  0.44124635804E+02 -0.11284628087E+03  0.17078047375E+03  0.12000000000E+03 0.  0.
         25    1    1    2    0    0 -0.92034570481E+01 -0.44124635804E+02  0.91582858264E+02  0.15754081069E+03  0.12000000000E+03 0.  0.
<mgrwt>
<rscale>  0 0.32763201E+03</rscale>
<asrwt>0</asrwt>
<pdfrwt beam="1">  1        2 0.26891131E-01 0.32763201E+03</pdfrwt>
<pdfrwt beam="2">  1       -2 0.23619835E-01 0.32763201E+03</pdfrwt>
<totfact> 0.31210049E+03</totfact>
</mgrwt>
</event>
<event>
 4    1  0.1774755E-004  0.2441852E+03  0.7818608E-02  0.1117036E+00
          1   -1    0    0  501    0  0.00000000000E+00  0.00000000000E+00  0.11499414775E+02  0.11499414775E+02  0.00000000000E+00 0. -1.
         -1   -1    0    0    0  501 -0.00000000000E+00 -0.00000000000E+00 -0.12962927503E+04  0.12962927503E+04  0.00000000000E+00 0. -1.
         25    1    1    2    0    0 -0.29477650201E+01  0.20390659579E+02 -0.69093622911E+03  0.70158202728E+03  0.12000000000E+03 0.  0.
         25    1    1    2    0    0  0.29477650201E+01 -0.20390659579E+02 -0.59385710641E+03  0.60621013778E+03  0.12000000000E+03 0.  0.
<mgrwt>
<rscale>  0 0.24418524E+03</rscale>
<asrwt>0</asrwt>
<pdfrwt beam="1">  1        1 0.17691405E-02 0.24418524E+03</pdfrwt>
<pdfrwt beam="2">  1       -1 0.19942968E+00 0.24418524E+03</pdfrwt>
<totfact> 0.12094044E+03</totfact>
</mgrwt>
</event>
<event>
 4    1  0.1774755E-004  0.4855784E+03  0.7818608E-02  0.1017613E+00
         -2   -1    0    0    0  501 -0.00000000000E+00  0.00000000000E+00  0.34110620169E+02  0.34110620169E+02  0.00000000000E+00 0.  1.
          2   -1    0    0  501    0  0.00000000000E+00 -0.00000000000E+00 -0.17281010023E+04  0.17281010023E+04  0.00000000000E+00 0.  1.
         25    1    1    2    0    0  0.74067048987E+02  0.17152617442E+03 -0.12033024036E+04  0.12236191527E+04  0.12000000000E+03 0.  0.
         25    1    1    2    0    0 -0.74067048987E+02 -0.17152617442E+03 -0.49068797852E+03  0.53859246980E+03  0.12000000000E+03 0.  0.
<mgrwt>
<rscale>  0 0.48557841E+03</rscale>
<asrwt>0</asrwt>
<pdfrwt beam="1">  1        2 0.26586163E+00 0.48557841E+03</pdfrwt>
<pdfrwt beam="2">  1       -2 0.52477890E-02 0.48557841E+03</pdfrwt>
<totfact> 0.18599957E+03</totfact>
</mgrwt>
</event>
<event>
 4    1  0.1774755E-004  0.3033791E+03  0.7818608E-02  0.1083564E+00
         -2   -1    0    0    0  501 -0.00000000000E+00  0.00000000000E+00  0.50867676494E+03  0.50867676494E+03  0.00000000000E+00 0. -1.
          2   -1    0    0  501    0  0.00000000000E+00 -0.00000000000E+00 -0.45234466057E+02  0.45234466057E+02  0.00000000000E+00 0. -1.
         25    1    1    2    0    0  0.65004885106E+02  0.11773743477E+01  0.11084923789E+03  0.17582541010E+03  0.12000000000E+03 0.  0.
         25    1    1    2    0    0 -0.65004885106E+02 -0.11773743477E+01  0.35259306100E+03  0.37808582090E+03  0.12000000000E+03 0.  0.
<mgrwt>
<rscale>  0 0.30337912E+03</rscale>
<asrwt>0</asrwt>
<pdfrwt beam="1">  1        2 0.69591490E-02 0.30337912E+03</pdfrwt>
<pdfrwt beam="2">  1       -2 0.78257960E-01 0.30337912E+03</pdfrwt>
<totfact> 0.15251803E+03</totfact>
</mgrwt>
</event>
<event>
 4    1  0.1774755E-004  0.2491667E+03  0.7818608E-02  0.1113833E+00
          2   -1    0    0  501    0  0.00000000000E+00  0.00000000000E+00  0.28695429964E+03  0.28695429964E+03  0.00000000000E+00 0. -1.
         -2   -1    0    0    0  501 -0.00000000000E+00 -0.00000000000E+00 -0.54088785175E+02  0.54088785175E+02  0.00000000000E+00 0. -1.
         25    1    1    2    0    0 -0.12503759720E+02 -0.14232543004E+02  0.78647245987E+02  0.14472145172E+03  0.12000000000E+03 0.  0.
         25    1    1    2    0    0  0.12503759720E+02  0.14232543004E+02  0.15421826848E+03  0.19632163309E+03  0.12000000000E+03 0.  0.
<mgrwt>
<rscale>  0 0.24916669E+03</rscale>
<asrwt>0</asrwt>
<pdfrwt beam="1">  1        2 0.44146814E-01 0.24916669E+03</pdfrwt>
<pdfrwt beam="2">  1       -2 0.83213518E-02 0.24916669E+03</pdfrwt>
<totfact> 0.10053320E+04</totfact>
</mgrwt>
</event>
<event>
 4    1  0.1774755E-004  0.3773862E+03  0.7818608E-02  0.1051904E+00
          1   -1    0    0  501    0  0.00000000000E+00  0.00000000000E+00  0.15672627752E+03  0.15672627752E+03  0.00000000000E+00 0. -1.
         -1   -1    0    0    0  501 -0.00000000000E+00 -0.00000000000E+00 -0.22718001376E+03  0.22718001376E+03  0.00000000000E+00 0. -1.
         25    1    1    2    0    0  0.65843195284E+01 -0.36233655457E+02  0.10809316626E+03  0.16565133155E+03  0.12000000000E+03 0.  0.
         25    1    1    2    0    0 -0.65843195284E+01  0.36233655457E+02 -0.17854690251E+03  0.21825495973E+03  0.12000000000E+03 0.  0.
<mgrwt>
<rscale>  0 0.37738616E+03</rscale>
<asrwt>0</asrwt>
<pdfrwt beam="1">  1        1 0.24111735E-01 0.37738616E+03</pdfrwt>
<pdfrwt beam="2">  1       -1 0.34950771E-01 0.37738616E+03</pdfrwt>
<totfact> 0.15787192E+03</totfact>
</mgrwt>
</event>
<event>
 4    1  0.1774755E-004  0.2742148E+03  0.7818608E-02  0.1098891E+00
         -1   -1    0    0    0  501 -0.00000000000E+00  0.00000000000E+00  0.19509625659E+03  0.19509625659E+03  0.00000000000E+00 0.  1.
          1   -1    0    0  501    0  0.00000000000E+00 -0.00000000000E+00 -0.96354709516E+02  0.96354709516E+02  0.00000000000E+00 0.  1.
         25    1    1    2    0    0 -0.33369858330E+02  0.56916900163E+02  0.56529263770E+02  0.14815072943E+03  0.12000000000E+03 0.  0.
         25    1    1    2    0    0  0.33369858330E+02 -0.56916900163E+02  0.42212283305E+02  0.14330023667E+03  0.12000000000E+03 0.  0.
<mgrwt>
<rscale>  0 0.27421483E+03</rscale>
<asrwt>0</asrwt>
<pdfrwt beam="1">  1        1 0.14823801E-01 0.27421483E+03</pdfrwt>
<pdfrwt beam="2">  1       -1 0.30014809E-01 0.27421483E+03</pdfrwt>
<totfact> 0.38426311E+03</totfact>
</mgrwt>
</event>
<event>
 4    1  0.1774755E-004  0.2827779E+03  0.7818608E-02  0.1094181E+00
          2   -1    0    0  501    0  0.00000000000E+00  0.00000000000E+00  0.11767906023E+04  0.11767906023E+04  0.00000000000E+00 0.  1.
         -2   -1    0    0    0  501 -0.00000000000E+00 -0.00000000000E+00 -0.16987591172E+02  0.16987591172E+02  0.00000000000E+00 0.  1.
         25    1    1    2    0    0 -0.50181230290E+02  0.44987739953E+02  0.71661814958E+03  0.72971475586E+03  0.12000000000E+03 0.  0.
         25    1    1    2    0    0  0.50181230290E+02 -0.44987739953E+02  0.44318486156E+03  0.46406343762E+03  0.12000000000E+03 0.  0.
<mgrwt>
<rscale>  0 0.28277792E+03</rscale>
<asrwt>0</asrwt>
<pdfrwt beam="1">  1        2 0.18104464E+00 0.28277792E+03</pdfrwt>
<pdfrwt beam="2">  1       -2 0.26134765E-02 0.28277792E+03</pdfrwt>
<totfact> 0.10714550E+04</totfact>
</mgrwt>
</event>
<event>
 4    1  0.1774755E-004  0.2885273E+03  0.7818608E-02  0.1091121E+00
          1   -1    0    0  501    0  0.00000000000E+00  0.00000000000E+00  0.22815288797E+04  0.22815288797E+04  0.00000000000E+00 0. -1.
         -1   -1    0    0    0  501 -0.00000000000E+00 -0.00000000000E+00 -0.91219539136E+01  0.91219539136E+01  0.00000000000E+00 0. -1.
         25    1    1    2    0    0 -0.48759358513E+02 -0.22018889984E+02  0.16092103668E+04  0.16145650532E+04  0.12000000000E+03 0.  0.
         25    1    1    2    0    0  0.48759358513E+02  0.22018889984E+02  0.66319655899E+03  0.67608578037E+03  0.12000000000E+03 0.  0.
<mgrwt>
<rscale>  0 0.28852730E+03</rscale>
<asrwt>0</asrwt>
<pdfrwt beam="1">  1        1 0.35100399E+00 0.28852730E+03</pdfrwt>
<pdfrwt beam="2">  1       -1 0.14033793E-02 0.28852730E+03</pdfrwt>
<totfact> 0.25408379E+03</totfact>
</mgrwt>
</event>
<event>
 4    1  0.1774755E-004  0.2455044E+03  0.7818608E-02  0.1116179E+00
          2   -1    0    0  501    0  0.00000000000E+00  0.00000000000E+00  0.21454179442E+04  0.21454179442E+04  0.00000000000E+00 0.  1.
         -2   -1    0    0    0  501 -0.00000000000E+00 -0.00000000000E+00 -0.70233864481E+01  0.70233864481E+01  0.00000000000E+00 0.  1.
         25    1    1    2    0    0  0.10444968597E+02 -0.16476831937E+02  0.92053421979E+03  0.92852777727E+03  0.12000000000E+03 0.  0.
         25    1    1    2    0    0 -0.10444968597E+02  0.16476831937E+02  0.12178603380E+04  0.12239135534E+04  0.12000000000E+03 0.  0.
<mgrwt>
<rscale>  0 0.24550437E+03</rscale>
<asrwt>0</asrwt>
<pdfrwt beam="1">  1        2 0.33006378E+00 0.24550437E+03</pdfrwt>
<pdfrwt beam="2">  1       -2 0.10805227E-02 0.24550437E+03</pdfrwt>
<totfact> 0.11832389E+04</totfact>
</mgrwt>
</event>
<event>
 4    1  0.1774755E-004  0.2713808E+03  0.7818608E-02  0.1100492E+00
          2   -1    0    0  501    0  0.00000000000E+00  0.00000000000E+00  0.33753236187E+03  0.33753236187E+03  0.00000000000E+00 0. -1.
         -2   -1    0    0    0  501 -0.00000000000E+00 -0.00000000000E+00 -0.54548521430E+02  0.54548521430E+02  0.00000000000E+00 0. -1.
         25    1    1    2    0    0  0.59740521354E+02  0.16525616535E+01  0.11117839129E+03  0.17416169367E+03  0.12000000000E+03 0.  0.
         25    1    1    2    0    0 -0.59740521354E+02 -0.16525616535E+01  0.17180544915E+03  0.21791918963E+03  0.12000000000E+03 0.  0.
<mgrwt>
<rscale>  0 0.27138085E+03</rscale>
<asrwt>0</asrwt>
<pdfrwt beam="1">  1        2 0.51928055E-01 0.27138085E+03</pdfrwt>
<pdfrwt beam="2">  1       -2 0.83920804E-02 0.27138085E+03</pdfrwt>
<totfact> 0.83635826E+03</totfact>
</mgrwt>
</event>
<event>
 4    1  0.1774755E-004  0.4688089E+03  0.7818608E-02  0.1022257E+00
          2   -1    0    0  501    0  0.00000000000E+00  0.00000000000E+00  0.76713812303E+03  0.76713812303E+03  0.00000000000E+00 0.  1.
         -2   -1    0    0    0  501 -0.00000000000E+00 -0.00000000000E+00 -0.71623914093E+02  0.71623914093E+02  0.00000000000E+00 0.  1.
         25    1    1    2    0    0 -0.14232334908E+02 -0.18556942455E+03  0.48526304482E+03  0.53340303088E+03  0.12000000000E+03 0.  0.
         25    1    1    2    0    0  0.14232334908E+02  0.18556942455E+03  0.21025116412E+03  0.30535900625E+03  0.12000000000E+03 0.  0.
<mgrwt>
<rscale>  0 0.46880885E+03</rscale>
<asrwt>0</asrwt>
<pdfrwt beam="1">  1        2 0.11802124E+00 0.46880885E+03</pdfrwt>
<pdfrwt beam="2">  1       -2 0.11019064E-01 0.46880885E+03</pdfrwt>
<totfact> 0.21324090E+03</totfact>
</mgrwt>
</event>
<event>
 4    1  0.1774755E-004  0.3201759E+03  0.7818608E-02  0.1075568E+00
          2   -1    0    0  501    0  0.00000000000E+00  0.00000000000E+00  0.22116505157E+03  0.22116505157E+03  0.00000000000E+00 0. -1.
         -2   -1    0    0    0  501 -0.00000000000E+00 -0.00000000000E+00 -0.11587791992E+03  0.11587791992E+03  0.00000000000E+00 0. -1.
         25    1    1    2    0    0 -0.58817524006E+02 -0.34916341224E+02  0.13783590867E+03  0.19513428641E+03  0.12000000000E+03 0.  0.
         25    1    1    2    0    0  0.58817524006E+02  0.34916341224E+02 -0.32548777020E+02  0.14190868508E+03  0.12000000000E+03 0.  0.
<mgrwt>
<rscale>  0 0.32017587E+03</rscale>
<asrwt>0</asrwt>
<pdfrwt beam="1">  1        2 0.34025393E-01 0.32017587E+03</pdfrwt>
<pdfrwt beam="2">  1       -2 0.17827372E-01 0.32017587E+03</pdfrwt>
<totfact> 0.39075316E+03</totfact>
</mgrwt>
</event>
<event>
 4    1  0.1774755E-004  0.3802214E+03  0.7818608E-02  0.1050852E+00
         -2   -1    0    0    0  501 -0.00000000000E+00  0.00000000000E+00  0.21534269415E+02  0.21534269415E+02  0.00000000000E+00 0. -1.
          2   -1    0    0  501    0  0.00000000000E+00 -0.00000000000E+00 -0.16783514525E+04  0.16783514525E+04  0.00000000000E+00 0. -1.
         25    1    1    2    0    0  0.87977442943E+02  0.14994489873E+02 -0.30364487497E+03  0.33847463020E+03  0.12000000000E+03 0.  0.
         25    1    1    2    0    0 -0.87977442943E+02 -0.14994489873E+02 -0.13531723081E+04  0.13614110917E+04  0.12000000000E+03 0.  0.
<mgrwt>
<rscale>  0 0.38022137E+03</rscale>
<asrwt>0</asrwt>
<pdfrwt beam="1">  1        2 0.25820796E+00 0.38022137E+03</pdfrwt>
<pdfrwt beam="2">  1       -2 0.33129640E-02 0.38022137E+03</pdfrwt>
<totfact> 0.40044826E+03</totfact>
</mgrwt>
</event>
<event>
 4    1  0.1774755E-004  0.3589190E+03  0.7818608E-02  0.1059013E+00
          1   -1    0    0  501    0  0.00000000000E+00  0.00000000000E+00  0.21110179056E+03  0.21110179056E+03  0.00000000000E+00 0. -1.
         -1   -1    0    0    0  501 -0.00000000000E+00 -0.00000000000E+00 -0.15256012611E+03  0.15256012611E+03  0.00000000000E+00 0. -1.
         25    1    1    2    0    0  0.99881796394E+02 -0.82011428121E+02  0.62928286176E+02  0.18724907689E+03  0.12000000000E+03 0.  0.
         25    1    1    2    0    0 -0.99881796394E+02  0.82011428121E+02 -0.43866217256E+01  0.17641283979E+03  0.12000000000E+03 0.  0.
<mgrwt>
<rscale>  0 0.35891902E+03</rscale>
<asrwt>0</asrwt>
<pdfrwt beam="1">  1        1 0.32477198E-01 0.35891902E+03</pdfrwt>
<pdfrwt beam="2">  1       -1 0.23470789E-01 0.35891902E+03</pdfrwt>
<totfact> 0.21267398E+03</totfact>
</mgrwt>
</event>
<event>
 4    1  0.1774755E-004  0.2669209E+03  0.7818608E-02  0.1103055E+00
         -2   -1    0    0    0  501 -0.00000000000E+00  0.00000000000E+00  0.24879756419E+02  0.24879756419E+02  0.00000000000E+00 0.  1.
          2   -1    0    0  501    0  0.00000000000E+00 -0.00000000000E+00 -0.71591114076E+03  0.71591114076E+03  0.00000000000E+00 0.  1.
         25    1    1    2    0    0 -0.19175139498E+02  0.54389420392E+02 -0.37122297004E+03  0.39437594819E+03  0.12000000000E+03 0.  0.
         25    1    1    2    0    0  0.19175139498E+02 -0.54389420392E+02 -0.31980841430E+03  0.34641494899E+03  0.12000000000E+03 0.  0.
<mgrwt>
<rscale>  0 0.26692092E+03</rscale>
<asrwt>0</asrwt>
<pdfrwt beam="1">  1        2 0.11014018E+00 0.26692092E+03</pdfrwt>
<pdfrwt beam="2">  1       -2 0.38276548E-02 0.26692092E+03</pdfrwt>
<totfact> 0.11918324E+04</totfact>
</mgrwt>
</event>
<event>
 4    1  0.1774755E-004  0.2624668E+03  0.7818608E-02  0.1105670E+00
         -2   -1    0    0    0  501 -0.00000000000E+00  0.00000000000E+00  0.95339111462E+02  0.95339111462E+02  0.00000000000E+00 0.  1.
          2   -1    0    0  501    0  0.00000000000E+00 -0.00000000000E+00 -0.18064150927E+03  0.18064150927E+03  0.00000000000E+00 0.  1.
         25    1    1    2    0    0  0.98280119597E+01  0.37144415458E+02 -0.81226669872E+02  0.14991353947E+03  0.12000000000E+03 0.  0.
         25    1    1    2    0    0 -0.98280119597E+01 -0.37144415458E+02 -0.40757279358E+01  0.12606708126E+03  0.12000000000E+03 0.  0.
<mgrwt>
<rscale>  0 0.26246677E+03</rscale>
<asrwt>0</asrwt>
<pdfrwt beam="1">  1        2 0.27791001E-01 0.26246677E+03</pdfrwt>
<pdfrwt beam="2">  1       -2 0.14667556E-01 0.26246677E+03</pdfrwt>
<totfact> 0.67143407E+03</totfact>
</mgrwt>
</event>
<event>
 4    1  0.1774755E-004  0.2652794E+03  0.7818608E-02  0.1104012E+00
         -2   -1    0    0    0  501 -0.00000000000E+00  0.00000000000E+00  0.17120395793E+03  0.17120395793E+03  0.00000000000E+00 0. -1.
          2   -1    0    0  501    0  0.00000000000E+00 -0.00000000000E+00 -0.10276218374E+03  0.10276218374E+03  0.00000000000E+00 0. -1.
         25    1    1    2    0    0 -0.39312978114E+02 -0.17730550317E+02 -0.34907317783E+01  0.12756201578E+03  0.12000000000E+03 0.  0.
         25    1    1    2    0    0  0.39312978114E+02  0.17730550317E+02  0.71932505963E+02  0.14640412589E+03  0.12000000000E+03 0.  0.
<mgrwt>
<rscale>  0 0.26527942E+03</rscale>
<asrwt>0</asrwt>
<pdfrwt beam="1">  1        2 0.15809567E-01 0.26527942E+03</pdfrwt>
<pdfrwt beam="2">  1       -2 0.26339070E-01 0.26527942E+03</pdfrwt>
<totfact> 0.47002660E+03</totfact>
</mgrwt>
</event>
<event>
 4    1  0.1774755E-004  0.2786041E+03  0.7818608E-02  0.1096454E+00
         -3   -1    0    0    0  501 -0.00000000000E+00  0.00000000000E+00  0.23027977683E+03  0.23027977683E+03  0.00000000000E+00 0. -1.
          3   -1    0    0  501    0  0.00000000000E+00 -0.00000000000E+00 -0.84267315855E+02  0.84267315855E+02  0.00000000000E+00 0. -1.
         25    1    1    2    0    0 -0.71290519525E+01  0.56175622947E+01 -0.62072192483E+01  0.12050273839E+03  0.12000000000E+03 0.  0.
         25    1    1    2    0    0  0.71290519525E+01 -0.56175622947E+01  0.15221968023E+03  0.19404435430E+03  0.12000000000E+03 0.  0.
<mgrwt>
<rscale>  0 0.27860408E+03</rscale>
<asrwt>0</asrwt>
<pdfrwt beam="1">  1        3 0.12964203E-01 0.27860408E+03</pdfrwt>
<pdfrwt beam="2">  1       -3 0.35427658E-01 0.27860408E+03</pdfrwt>
<totfact> 0.95198928E+02</totfact>
</mgrwt>
</event>
<event>
 4    1  0.1774755E-004  0.3109628E+03  0.7818608E-02  0.1079885E+00
          2   -1    0    0  501    0  0.00000000000E+00  0.00000000000E+00  0.21303232479E+04  0.21303232479E+04  0.00000000000E+00 0.  1.
         -2   -1    0    0    0  501 -0.00000000000E+00 -0.00000000000E+00 -0.11347791483E+02  0.11347791483E+02  0.00000000000E+00 0.  1.
         25    1    1    2    0    0 -0.96987933746E+02  0.16743889220E+02  0.99508318167E+03  0.10071134770E+04  0.12000000000E+03 0.  0.
         25    1    1    2    0    0  0.96987933746E+02 -0.16743889220E+02  0.11238922747E+04  0.11345575624E+04  0.12000000000E+03 0.  0.
<mgrwt>
<rscale>  0 0.31096279E+03</rscale>
<asrwt>0</asrwt>
<pdfrwt beam="1">  1        2 0.32774172E+00 0.31096279E+03</pdfrwt>
<pdfrwt beam="2">  1       -2 0.17458158E-02 0.31096279E+03</pdfrwt>
<totfact> 0.59880675E+03</totfact>
</mgrwt>
</event>
<event>
 4    1  0.1774755E-004  0.2632350E+03  0.7818608E-02  0.1105215E+00
          2   -1    0    0  501    0  0.00000000000E+00  0.00000000000E+00  0.52575116064E+03  0.52575116064E+03  0.00000000000E+00 0.  1.
         -2   -1    0    0    0  501 -0.00000000000E+00 -0.00000000000E+00 -0.32949375553E+02  0.32949375553E+02  0.00000000000E+00 0.  1.
         25    1    1    2    0    0  0.22619554322E+02  0.13526763865E+02  0.14620566334E+03  0.19097307028E+03  0.12000000000E+03 0.  0.
         25    1    1    2    0    0 -0.22619554322E+02 -0.13526763865E+02  0.34659612175E+03  0.36772746592E+03  0.12000000000E+03 0.  0.
<mgrwt>
<rscale>  0 0.26323505E+03</rscale>
<asrwt>0</asrwt>
<pdfrwt beam="1">  1        2 0.80884787E-01 0.26323505E+03</pdfrwt>
<pdfrwt beam="2">  1       -2 0.50691351E-02 0.26323505E+03</pdfrwt>
<totfact> 0.11183025E+04</totfact>
</mgrwt>
</event>
<event>
 4    1  0.1774755E-004  0.2548623E+03  0.7818608E-02  0.1110270E+00
         -2   -1    0    0    0  501 -0.00000000000E+00  0.00000000000E+00  0.18255813319E+03  0.18255813319E+03  0.00000000000E+00 0. -1.
          2   -1    0    0  501    0  0.00000000000E+00 -0.00000000000E+00 -0.88950855385E+02  0.88950855385E+02  0.00000000000E+00 0. -1.
         25    1    1    2    0    0  0.32654175014E+01 -0.42354414966E+02  0.40578810241E+02  0.13360838020E+03  0.12000000000E+03 0.  0.
         25    1    1    2    0    0 -0.32654175014E+01  0.42354414966E+02  0.53028467562E+02  0.13790060838E+03  0.12000000000E+03 0.  0.
<mgrwt>
<rscale>  0 0.25486233E+03</rscale>
<asrwt>0</asrwt>
<pdfrwt beam="1">  1        2 0.13684747E-01 0.25486233E+03</pdfrwt>
<pdfrwt beam="2">  1       -2 0.28085867E-01 0.25486233E+03</pdfrwt>
<totfact> 0.49667447E+03</totfact>
</mgrwt>
</event>
<event>
 4    1  0.1774755E-004  0.2761376E+03  0.7818608E-02  0.1097817E+00
          2   -1    0    0  501    0  0.00000000000E+00  0.00000000000E+00  0.49165417745E+02  0.49165417745E+02  0.00000000000E+00 0. -1.
         -2   -1    0    0    0  501 -0.00000000000E+00 -0.00000000000E+00 -0.38773166832E+03  0.38773166832E+03  0.00000000000E+00 0. -1.
         25    1    1    2    0    0 -0.45432777603E+01 -0.60641499556E+02 -0.12013493396E+03  0.18036195607E+03  0.12000000000E+03 0.  0.
         25    1    1    2    0    0  0.45432777603E+01  0.60641499556E+02 -0.21843131662E+03  0.25653512999E+03  0.12000000000E+03 0.  0.
<mgrwt>
<rscale>  0 0.27613757E+03</rscale>
<asrwt>0</asrwt>
<pdfrwt beam="1">  1        2 0.75639103E-02 0.27613757E+03</pdfrwt>
<pdfrwt beam="2">  1       -2 0.59651027E-01 0.27613757E+03</pdfrwt>
<totfact> 0.24397513E+03</totfact>
</mgrwt>
</event>
<event>
 4    1  0.1774755E-004  0.2426758E+03  0.7818608E-02  0.1118023E+00
         -2   -1    0    0    0  501 -0.00000000000E+00  0.00000000000E+00  0.12360936336E+03  0.12360936336E+03  0.00000000000E+00 0.  1.
          2   -1    0    0  501    0  0.00000000000E+00 -0.00000000000E+00 -0.11910814063E+03  0.11910814063E+03  0.00000000000E+00 0.  1.
         25    1    1    2    0    0  0.93000966500E+01 -0.13750980718E+02 -0.46280831906E+01  0.12123118585E+03  0.12000000000E+03 0.  0.
         25    1    1    2    0    0 -0.93000966500E+01  0.13750980718E+02  0.91293059144E+01  0.12148631814E+03  0.12000000000E+03 0.  0.
<mgrwt>
<rscale>  0 0.24267576E+03</rscale>
<asrwt>0</asrwt>
<pdfrwt beam="1">  1        2 0.18324329E-01 0.24267576E+03</pdfrwt>
<pdfrwt beam="2">  1       -2 0.19016825E-01 0.24267576E+03</pdfrwt>
<totfact> 0.69386378E+03</totfact>
</mgrwt>
</event>
<event>
 4    1  0.1774755E-004  0.5108080E+03  0.7818608E-02  0.1010996E+00
          2   -1    0    0  501    0  0.00000000000E+00  0.00000000000E+00  0.13846066782E+03  0.13846066782E+03  0.00000000000E+00 0.  1.
         -2   -1    0    0    0  501 -0.00000000000E+00 -0.00000000000E+00 -0.47111713215E+03  0.47111713215E+03  0.00000000000E+00 0.  1.
         25    1    1    2    0    0 -0.66821553263E+02 -0.18174460281E+03 -0.28522417580E+02  0.22958603820E+03  0.12000000000E+03 0.  0.
         25    1    1    2    0    0  0.66821553263E+02  0.18174460281E+03 -0.30413404674E+03  0.37999176178E+03  0.12000000000E+03 0.  0.
<mgrwt>
<rscale>  0 0.51080796E+03</rscale>
<asrwt>0</asrwt>
<pdfrwt beam="1">  1        2 0.21301641E-01 0.51080796E+03</pdfrwt>
<pdfrwt beam="2">  1       -2 0.72479559E-01 0.51080796E+03</pdfrwt>
<totfact> 0.45862382E+02</totfact>
</mgrwt>
</event>
<event>
 4    1  0.1774755E-004  0.3391432E+03  0.7818608E-02  0.1067161E+00
          1   -1    0    0  501    0  0.00000000000E+00  0.00000000000E+00  0.81420270512E+03  0.81420270512E+03  0.00000000000E+00 0.  1.
         -1   -1    0    0    0  501 -0.00000000000E+00 -0.00000000000E+00 -0.35316174008E+02  0.35316174008E+02  0.00000000000E+00 0.  1.
         25    1    1    2    0    0  0.70799401097E+02  0.96516226312E+02  0.40235923040E+03  0.43660152018E+03  0.12000000000E+03 0.  0.
         25    1    1    2    0    0 -0.70799401097E+02 -0.96516226312E+02  0.37652730071E+03  0.41291735894E+03  0.12000000000E+03 0.  0.
<mgrwt>
<rscale>  0 0.33914318E+03</rscale>
<asrwt>0</asrwt>
<pdfrwt beam="1">  1        1 0.12526194E+00 0.33914318E+03</pdfrwt>
<pdfrwt beam="2">  1       -1 0.54332581E-02 0.33914318E+03</pdfrwt>
<totfact> 0.34903716E+03</totfact>
</mgrwt>
</event>
<event>
 4    1  0.1774755E-004  0.4480669E+03  0.7818608E-02  0.1028300E+00
          2   -1    0    0  501    0  0.00000000000E+00  0.00000000000E+00  0.51167681511E+03  0.51167681511E+03  0.00000000000E+00 0.  1.
         -2   -1    0    0    0  501 -0.00000000000E+00 -0.00000000000E+00 -0.98091208639E+02  0.98091208639E+02  0.00000000000E+00 0.  1.
         25    1    1    2    0    0  0.15077497487E+03  0.45896647347E+02  0.34920808640E+03  0.40147961703E+03  0.12000000000E+03 0.  0.
         25    1    1    2    0    0 -0.15077497487E+03 -0.45896647347E+02  0.64377520077E+02  0.20828840672E+03  0.12000000000E+03 0.  0.
<mgrwt>
<rscale>  0 0.44806695E+03</rscale>
<asrwt>0</asrwt>
<pdfrwt beam="1">  1        2 0.78719509E-01 0.44806695E+03</pdfrwt>
<pdfrwt beam="2">  1       -2 0.15090955E-01 0.44806695E+03</pdfrwt>
<totfact> 0.20674998E+03</totfact>
</mgrwt>
</event>
<event>
 4    1  0.1774755E-004  0.2607946E+03  0.7818608E-02  0.1106667E+00
         -2   -1    0    0    0  501 -0.00000000000E+00  0.00000000000E+00  0.10169011913E+03  0.10169011913E+03  0.00000000000E+00 0.  1.
          2   -1    0    0  501    0  0.00000000000E+00 -0.00000000000E+00 -0.16720855900E+03  0.16720855900E+03  0.00000000000E+00 0.  1.
         25    1    1    2    0    0  0.90598528985E+01 -0.13512472606E+02  0.17104617252E+02  0.12229977834E+03  0.12000000000E+03 0.  0.
         25    1    1    2    0    0 -0.90598528985E+01  0.13512472606E+02 -0.82623057122E+02  0.14659889979E+03  0.12000000000E+03 0.  0.
<mgrwt>
<rscale>  0 0.26079462E+03</rscale>
<asrwt>0</asrwt>
<pdfrwt beam="1">  1        2 0.25724394E-01 0.26079462E+03</pdfrwt>
<pdfrwt beam="2">  1       -2 0.15644634E-01 0.26079462E+03</pdfrwt>
<totfact> 0.65737565E+03</totfact>
</mgrwt>
</event>
<event>
 4    1  0.1774755E-004  0.3299620E+03  0.7818608E-02  0.1071154E+00
          1   -1    0    0  501    0  0.00000000000E+00  0.00000000000E+00  0.38603394621E+03  0.38603394621E+03  0.00000000000E+00 0.  1.
         -1   -1    0    0    0  501 -0.00000000000E+00 -0.00000000000E+00 -0.70508623539E+02  0.70508623539E+02  0.00000000000E+00 0.  1.
         25    1    1    2    0    0 -0.63211511533E+02  0.89676193550E+02  0.11909031120E+03  0.20154408228E+03  0.12000000000E+03 0.  0.
         25    1    1    2    0    0  0.63211511533E+02 -0.89676193550E+02  0.19643501147E+03  0.25499848747E+03  0.12000000000E+03 0.  0.
<mgrwt>
<rscale>  0 0.32996195E+03</rscale>
<asrwt>0</asrwt>
<pdfrwt beam="1">  1        1 0.59389837E-01 0.32996195E+03</pdfrwt>
<pdfrwt beam="2">  1       -1 0.10847481E-01 0.32996195E+03</pdfrwt>
<totfact> 0.34106043E+03</totfact>
</mgrwt>
</event>
<event>
 4    1  0.1774755E-004  0.4309248E+03  0.7818608E-02  0.1033568E+00
          2   -1    0    0  501    0  0.00000000000E+00  0.00000000000E+00  0.15583112764E+04  0.15583112764E+04  0.00000000000E+00 0.  1.
         -2   -1    0    0    0  501 -0.00000000000E+00 -0.00000000000E+00 -0.29791259082E+02  0.29791259082E+02  0.00000000000E+00 0.  1.
         25    1    1    2    0    0 -0.76570285037E+02 -0.15064325814E+03  0.54724240636E+03  0.58517574377E+03  0.12000000000E+03 0.  0.
         25    1    1    2    0    0  0.76570285037E+02  0.15064325814E+03  0.98127761093E+03  0.10029267917E+04  0.12000000000E+03 0.  0.
<mgrwt>
<rscale>  0 0.43092484E+03</rscale>
<asrwt>0</asrwt>
<pdfrwt beam="1">  1        2 0.23974013E+00 0.43092484E+03</pdfrwt>
<pdfrwt beam="2">  1       -2 0.45832718E-02 0.43092484E+03</pdfrwt>
<totfact> 0.28345561E+03</totfact>
</mgrwt>
</event>
<event>
 4    1  0.1774755E-004  0.2737723E+03  0.7818608E-02  0.1099140E+00
         -2   -1    0    0    0  501 -0.00000000000E+00  0.00000000000E+00  0.33862588253E+02  0.33862588253E+02  0.00000000000E+00 0. -1.
          2   -1    0    0  501    0  0.00000000000E+00 -0.00000000000E+00 -0.55334846686E+03  0.55334846686E+03  0.00000000000E+00 0. -1.
         25    1    1    2    0    0 -0.61659869814E+02 -0.21913462702E+02 -0.27574672845E+03  0.30776354177E+03  0.12000000000E+03 0.  0.
         25    1    1    2    0    0  0.61659869814E+02  0.21913462702E+02 -0.24373915016E+03  0.27944751334E+03  0.12000000000E+03 0.  0.
<mgrwt>
<rscale>  0 0.27377225E+03</rscale>
<asrwt>0</asrwt>
<pdfrwt beam="1">  1        2 0.85130532E-01 0.27377225E+03</pdfrwt>
<pdfrwt beam="2">  1       -2 0.52096290E-02 0.27377225E+03</pdfrwt>
<totfact> 0.10139188E+04</totfact>
</mgrwt>
</event>
<event>
 4    1  0.1774755E-004  0.3608850E+03  0.7818608E-02  0.1058234E+00
         -1   -1    0    0    0  501 -0.00000000000E+00  0.00000000000E+00  0.93341093517E+03  0.93341093517E+03  0.00000000000E+00 0.  1.
          1   -1    0    0  501    0  0.00000000000E+00 -0.00000000000E+00 -0.34882278656E+02  0.34882278656E+02  0.00000000000E+00 0.  1.
         25    1    1    2    0    0 -0.62819939476E+02 -0.50846337454E+02  0.73858995747E+03  0.75262661400E+03  0.12000000000E+03 0.  0.
         25    1    1    2    0    0  0.62819939476E+02  0.50846337454E+02  0.15993869905E+03  0.21566659983E+03  0.12000000000E+03 0.  0.
<mgrwt>
<rscale>  0 0.36088503E+03</rscale>
<asrwt>0</asrwt>
<pdfrwt beam="1">  1        1 0.53665051E-02 0.36088503E+03</pdfrwt>
<pdfrwt beam="2">  1       -1 0.14360166E+00 0.36088503E+03</pdfrwt>
<totfact> 0.63982147E+02</totfact>
</mgrwt>
</event>
<event>
 4    1  0.1774755E-004  0.2553874E+03  0.7818608E-02  0.1109947E+00
         -2   -1    0    0    0  501 -0.00000000000E+00  0.00000000000E+00  0.16608567072E+04  0.16608567072E+04  0.00000000000E+00 0.  1.
          2   -1    0    0  501    0  0.00000000000E+00 -0.00000000000E+00 -0.98176317459E+01  0.98176317459E+01  0.00000000000E+00 0.  1.
         25    1    1    2    0    0 -0.38019799289E+01 -0.40537941466E+02  0.92851792619E+03  0.93712502848E+03  0.12000000000E+03 0.  0.
         25    1    1    2    0    0  0.38019799289E+01  0.40537941466E+02  0.72252114928E+03  0.73354931048E+03  0.12000000000E+03 0.  0.
<mgrwt>
<rscale>  0 0.25538739E+03</rscale>
<asrwt>0</asrwt>
<pdfrwt beam="1">  1        2 0.15104062E-02 0.25538739E+03</pdfrwt>
<pdfrwt beam="2">  1       -2 0.25551619E+00 0.25538739E+03</pdfrwt>
<totfact> 0.53828107E+02</totfact>
</mgrwt>
</event>
<event>
 4    1  0.1774755E-004  0.5213344E+03  0.7818608E-02  0.1008356E+00
          2   -1    0    0  501    0  0.00000000000E+00  0.00000000000E+00  0.41792246229E+03  0.41792246229E+03  0.00000000000E+00 0. -1.
         -2   -1    0    0    0  501 -0.00000000000E+00 -0.00000000000E+00 -0.16258372621E+03  0.16258372621E+03  0.00000000000E+00 0. -1.
         25    1    1    2    0    0  0.20947891783E+03  0.96632513280E+02  0.10749897057E+03  0.28138103759E+03  0.12000000000E+03 0.  0.
         25    1    1    2    0    0 -0.20947891783E+03 -0.96632513280E+02  0.14783976551E+03  0.29912515091E+03  0.12000000000E+03 0.  0.
<mgrwt>
<rscale>  0 0.52133441E+03</rscale>
<asrwt>0</asrwt>
<pdfrwt beam="1">  1        2 0.64295763E-01 0.52133441E+03</pdfrwt>
<pdfrwt beam="2">  1       -2 0.25012881E-01 0.52133441E+03</pdfrwt>
<totfact> 0.10852024E+03</totfact>
</mgrwt>
</event>
<event>
 4    1  0.1774755E-004  0.2802958E+03  0.7818608E-02  0.1095527E+00
          1   -1    0    0  501    0  0.00000000000E+00  0.00000000000E+00  0.13104510154E+04  0.13104510154E+04  0.00000000000E+00 0. -1.
         -1   -1    0    0    0  501 -0.00000000000E+00 -0.00000000000E+00 -0.14988305470E+02  0.14988305470E+02  0.00000000000E+00 0. -1.
         25    1    1    2    0    0 -0.44901707299E+02  0.56231682271E+02  0.61011659616E+03  0.62595561051E+03  0.12000000000E+03 0.  0.
         25    1    1    2    0    0  0.44901707299E+02 -0.56231682271E+02  0.68534611373E+03  0.69948371033E+03  0.12000000000E+03 0.  0.
<mgrwt>
<rscale>  0 0.28029584E+03</rscale>
<asrwt>0</asrwt>
<pdfrwt beam="1">  1        1 0.20160776E+00 0.28029584E+03</pdfrwt>
<pdfrwt beam="2">  1       -1 0.23058942E-02 0.28029584E+03</pdfrwt>
<totfact> 0.53425975E+03</totfact>
</mgrwt>
</event>
<event>
 4    1  0.1774755E-004  0.2628778E+03  0.7818608E-02  0.1105426E+00
          4   -1    0    0  501    0  0.00000000000E+00  0.00000000000E+00  0.11957659663E+03  0.11957659663E+03  0.00000000000E+00 0.  1.
         -4   -1    0    0    0  501 -0.00000000000E+00 -0.00000000000E+00 -0.14447798647E+03  0.14447798647E+03  0.00000000000E+00 0.  1.
         25    1    1    2    0    0 -0.45579863736E+02  0.23846299480E+02  0.27834730358E+01  0.13059064936E+03  0.12000000000E+03 0.  0.
         25    1    1    2    0    0  0.45579863736E+02 -0.23846299480E+02 -0.27684862884E+02  0.13346393374E+03  0.12000000000E+03 0.  0.
<mgrwt>
<rscale>  0 0.26287781E+03</rscale>
<asrwt>0</asrwt>
<pdfrwt beam="1">  1        4 0.18396400E-01 0.26287781E+03</pdfrwt>
<pdfrwt beam="2">  1       -4 0.22227382E-01 0.26287781E+03</pdfrwt>
<totfact> 0.91007864E+02</totfact>
</mgrwt>
</event>
<event>
 4    1  0.1774755E-004  0.2739863E+03  0.7818608E-02  0.1099020E+00
          3   -1    0    0  501    0  0.00000000000E+00  0.00000000000E+00  0.55631525164E+02  0.55631525164E+02  0.00000000000E+00 0.  1.
         -3   -1    0    0    0  501 -0.00000000000E+00 -0.00000000000E+00 -0.33734689493E+03  0.33734689493E+03  0.00000000000E+00 0.  1.
         25    1    1    2    0    0 -0.38202530066E+02  0.43310786968E+02 -0.94784180820E+02  0.16346038818E+03  0.12000000000E+03 0.  0.
         25    1    1    2    0    0  0.38202530066E+02 -0.43310786968E+02 -0.18693118894E+03  0.22951803191E+03  0.12000000000E+03 0.  0.
<mgrwt>
<rscale>  0 0.27398629E+03</rscale>
<asrwt>0</asrwt>
<pdfrwt beam="1">  1        3 0.85586963E-02 0.27398629E+03</pdfrwt>
<pdfrwt beam="2">  1       -3 0.51899522E-01 0.27398629E+03</pdfrwt>
<totfact> 0.89901414E+02</totfact>
</mgrwt>
</event>
<event>
 4    1  0.1774755E-004  0.3296966E+03  0.7818608E-02  0.1071271E+00
          1   -1    0    0  501    0  0.00000000000E+00  0.00000000000E+00  0.19758140548E+03  0.19758140548E+03  0.00000000000E+00 0. -1.
         -1   -1    0    0    0  501 -0.00000000000E+00 -0.00000000000E+00 -0.13753805786E+03  0.13753805786E+03  0.00000000000E+00 0. -1.
         25    1    1    2    0    0  0.94541383427E+02 -0.61280164027E+02  0.39205274406E+02  0.16920515721E+03  0.12000000000E+03 0.  0.
         25    1    1    2    0    0 -0.94541383427E+02  0.61280164027E+02  0.20838073216E+02  0.16591430613E+03  0.12000000000E+03 0.  0.
<mgrwt>
<rscale>  0 0.32969660E+03</rscale>
<asrwt>0</asrwt>
<pdfrwt beam="1">  1        1 0.30397139E-01 0.32969660E+03</pdfrwt>
<pdfrwt beam="2">  1       -1 0.21159701E-01 0.32969660E+03</pdfrwt>
<totfact> 0.27419705E+03</totfact>
</mgrwt>
</event>
<event>
 4    1  0.1774755E-004  0.3458014E+03  0.7818608E-02  0.1064352E+00
          2   -1    0    0  501    0  0.00000000000E+00  0.00000000000E+00  0.15080913359E+04  0.15080913359E+04  0.00000000000E+00 0. -1.
         -2   -1    0    0    0  501 -0.00000000000E+00 -0.00000000000E+00 -0.19822838239E+02  0.19822838239E+02  0.00000000000E+00 0. -1.
         25    1    1    2    0    0 -0.11714260443E+03 -0.28680384272E+01  0.55855652461E+03  0.58319465584E+03  0.12000000000E+03 0.  0.
         25    1    1    2    0    0  0.11714260443E+03  0.28680384272E+01  0.92971197302E+03  0.94471951827E+03  0.12000000000E+03 0.  0.
<mgrwt>
<rscale>  0 0.34580139E+03</rscale>
<asrwt>0</asrwt>
<pdfrwt beam="1">  1        2 0.23201396E+00 0.34580139E+03</pdfrwt>
<pdfrwt beam="2">  1       -2 0.30496686E-02 0.34580139E+03</pdfrwt>
<totfact> 0.55974079E+03</totfact>
</mgrwt>
</event>
<event>
 4    1  0.1774755E-004  0.2487353E+03  0.7818608E-02  0.1114107E+00
          1   -1    0    0  501    0  0.00000000000E+00  0.00000000000E+00  0.81923014983E+02  0.81923014983E+02  0.00000000000E+00 0.  1.
         -1   -1    0    0    0  501 -0.00000000000E+00 -0.00000000000E+00 -0.18880301214E+03  0.18880301214E+03  0.00000000000E+00 0.  1.
         25    1    1    2    0    0 -0.14828963872E+02 -0.13297642189E+02 -0.81625126225E+02  0.14649022728E+03  0.12000000000E+03 0.  0.
         25    1    1    2    0    0  0.14828963872E+02  0.13297642189E+02 -0.25254870935E+02  0.12423579985E+03  0.12000000000E+03 0.  0.
<mgrwt>
<rscale>  0 0.24873530E+03</rscale>
<asrwt>0</asrwt>
<pdfrwt beam="1">  1        1 0.12603541E-01 0.24873530E+03</pdfrwt>
<pdfrwt beam="2">  1       -1 0.29046617E-01 0.24873530E+03</pdfrwt>
<totfact> 0.50147978E+03</totfact>
</mgrwt>
</event>
<event>
 4    1  0.1774755E-004  0.2493774E+03  0.7818608E-02  0.1113699E+00
          2   -1    0    0  501    0  0.00000000000E+00  0.00000000000E+00  0.26158248133E+04  0.26158248133E+04  0.00000000000E+00 0. -1.
         -2   -1    0    0    0  501 -0.00000000000E+00 -0.00000000000E+00 -0.59435466431E+01  0.59435466431E+01  0.00000000000E+00 0. -1.
         25    1    1    2    0    0  0.25524749638E+02 -0.98829343759E+01  0.15147035137E+04  0.15196959958E+04  0.12000000000E+03 0.  0.
         25    1    1    2    0    0 -0.25524749638E+02  0.98829343759E+01  0.10951777529E+04  0.11020723641E+04  0.12000000000E+03 0.  0.
<mgrwt>
<rscale>  0 0.24937744E+03</rscale>
<asrwt>0</asrwt>
<pdfrwt beam="1">  1        2 0.40243367E+00 0.24937744E+03</pdfrwt>
<pdfrwt beam="2">  1       -2 0.91439388E-03 0.24937744E+03</pdfrwt>
<totfact> 0.84025843E+03</totfact>
</mgrwt>
</event>
<event>
 4    1  0.1774755E-004  0.6958185E+03  0.7818608E-02  0.9724410E-01
          1   -1    0    0  501    0  0.00000000000E+00  0.00000000000E+00  0.10846057056E+04  0.10846057056E+04  0.00000000000E+00 0.  1.
         -1   -1    0    0    0  501 -0.00000000000E+00 -0.00000000000E+00 -0.11159894555E+03  0.11159894555E+03  0.00000000000E+00 0.  1.
         25    1    1    2    0    0 -0.14185334923E+03  0.28782264071E+03  0.59074308200E+03  0.68289211016E+03  0.12000000000E+03 0.  0.
         25    1    1    2    0    0  0.14185334923E+03 -0.28782264071E+03  0.38226367808E+03  0.51331254102E+03  0.12000000000E+03 0.  0.
<mgrwt>
<rscale>  0 0.69581852E+03</rscale>
<asrwt>0</asrwt>
<pdfrwt beam="1">  1        1 0.16686241E+00 0.69581852E+03</pdfrwt>
<pdfrwt beam="2">  1       -1 0.17169069E-01 0.69581852E+03</pdfrwt>
<totfact> 0.34802533E+02</totfact>
</mgrwt>
</event>
<event>
 4    1  0.1774755E-004  0.2604844E+03  0.7818608E-02  0.1106853E+00
         -2   -1    0    0    0  501 -0.00000000000E+00  0.00000000000E+00  0.11711459696E+02  0.11711459696E+02  0.00000000000E+00 0. -1.
          2   -1    0    0  501    0  0.00000000000E+00 -0.00000000000E+00 -0.14484131729E+04  0.14484131729E+04  0.00000000000E+00 0. -1.
         25    1    1    2    0    0  0.33404532481E+02 -0.36498828483E+02 -0.65823805432E+03  0.67091382712E+03  0.12000000000E+03 0.  0.
         25    1    1    2    0    0 -0.33404532481E+02  0.36498828483E+02 -0.77846365892E+03  0.78921080551E+03  0.12000000000E+03 0.  0.
<mgrwt>
<rscale>  0 0.26048441E+03</rscale>
<asrwt>0</asrwt>
<pdfrwt beam="1">  1        2 0.22283277E+00 0.26048441E+03</pdfrwt>
<pdfrwt beam="2">  1       -2 0.18017633E-02 0.26048441E+03</pdfrwt>
<totfact> 0.13088215E+04</totfact>
</mgrwt>
</event>
<event>
 4    1  0.1774755E-004  0.2940564E+03  0.7818608E-02  0.1088250E+00
         -2   -1    0    0    0  501 -0.00000000000E+00  0.00000000000E+00  0.56608094766E+02  0.56608094766E+02  0.00000000000E+00 0. -1.
          2   -1    0    0  501    0  0.00000000000E+00 -0.00000000000E+00 -0.38187626916E+03  0.38187626916E+03  0.00000000000E+00 0. -1.
         25    1    1    2    0    0  0.25608714119E+02  0.62640057728E+02 -0.86050338773E+02  0.16243227473E+03  0.12000000000E+03 0.  0.
         25    1    1    2    0    0 -0.25608714119E+02 -0.62640057728E+02 -0.23921783562E+03  0.27605208920E+03  0.12000000000E+03 0.  0.
<mgrwt>
<rscale>  0 0.29405638E+03</rscale>
<asrwt>0</asrwt>
<pdfrwt beam="1">  1        2 0.58750195E-01 0.29405638E+03</pdfrwt>
<pdfrwt beam="2">  1       -2 0.87089377E-02 0.29405638E+03</pdfrwt>
<totfact> 0.69241229E+03</totfact>
</mgrwt>
</event>
<event>
 4    1  0.1774755E-004  0.2742147E+03  0.7818608E-02  0.1098891E+00
         -1   -1    0    0    0  501 -0.00000000000E+00  0.00000000000E+00  0.39654621210E+02  0.39654621210E+02  0.00000000000E+00 0. -1.
          1   -1    0    0  501    0  0.00000000000E+00 -0.00000000000E+00 -0.47405380283E+03  0.47405380283E+03  0.00000000000E+00 0. -1.
         25    1    1    2    0    0 -0.43240142979E+02  0.34788410426E+02 -0.14917548676E+03  0.19933205792E+03  0.12000000000E+03 0.  0.
         25    1    1    2    0    0  0.43240142979E+02 -0.34788410426E+02 -0.28522369485E+03  0.31437636611E+03  0.12000000000E+03 0.  0.
<mgrwt>
<rscale>  0 0.27421469E+03</rscale>
<asrwt>0</asrwt>
<pdfrwt beam="1">  1        1 0.72931353E-01 0.27421469E+03</pdfrwt>
<pdfrwt beam="2">  1       -1 0.61007110E-02 0.27421469E+03</pdfrwt>
<totfact> 0.62842833E+03</totfact>
</mgrwt>
</event>
<event>
 4    1  0.1774755E-004  0.2754673E+03  0.7818608E-02  0.1098191E+00
          1   -1    0    0  501    0  0.00000000000E+00  0.00000000000E+00  0.57539358951E+03  0.57539358951E+03  0.00000000000E+00 0.  1.
         -1   -1    0    0    0  501 -0.00000000000E+00 -0.00000000000E+00 -0.32969711415E+02  0.32969711415E+02  0.00000000000E+00 0.  1.
         25    1    1    2    0    0  0.37954072392E+02 -0.46765927610E+02  0.33903042424E+03  0.36464940993E+03  0.12000000000E+03 0.  0.
         25    1    1    2    0    0 -0.37954072392E+02  0.46765927610E+02  0.20339345385E+03  0.24371389100E+03  0.12000000000E+03 0.  0.
<mgrwt>
<rscale>  0 0.27546732E+03</rscale>
<asrwt>0</asrwt>
<pdfrwt beam="1">  1        1 0.88522083E-01 0.27546732E+03</pdfrwt>
<pdfrwt beam="2">  1       -1 0.50722637E-02 0.27546732E+03</pdfrwt>
<totfact> 0.63970929E+03</totfact>
</mgrwt>
</event>
<event>
 4    1  0.1774755E-004  0.3221528E+03  0.7818608E-02  0.1074663E+00
          2   -1    0    0  501    0  0.00000000000E+00  0.00000000000E+00  0.23224415013E+04  0.23224415013E+04  0.00000000000E+00 0. -1.
         -2   -1    0    0    0  501 -0.00000000000E+00 -0.00000000000E+00 -0.11171692219E+02  0.11171692219E+02  0.00000000000E+00 0. -1.
         25    1    1    2    0    0 -0.47838265220E+02 -0.50473031700E+02  0.17489897757E+04  0.17544803396E+04  0.12000000000E+03 0.  0.
         25    1    1    2    0    0  0.47838265220E+02  0.50473031700E+02  0.56228003343E+03  0.57913285397E+03  0.12000000000E+03 0.  0.
<mgrwt>
<rscale>  0 0.32215277E+03</rscale>
<asrwt>0</asrwt>
<pdfrwt beam="1">  1        2 0.35729831E+00 0.32215277E+03</pdfrwt>
<pdfrwt beam="2">  1       -2 0.17187237E-02 0.32215277E+03</pdfrwt>
<totfact> 0.48329762E+03</totfact>
</mgrwt>
</event>
<event>
 4    1  0.1774755E-004  0.3038584E+03  0.7818608E-02  0.1083328E+00
         -2   -1    0    0    0  501 -0.00000000000E+00  0.00000000000E+00  0.58013693447E+01  0.58013693447E+01  0.00000000000E+00 0. -1.
          2   -1    0    0  501    0  0.00000000000E+00 -0.00000000000E+00 -0.39787975753E+04  0.39787975753E+04  0.00000000000E+00 0. -1.
         25    1    1    2    0    0 -0.62748336804E+02 -0.58685444897E+02 -0.24595135224E+04  0.24639375200E+04  0.12000000000E+03 0.  0.
         25    1    1    2    0    0  0.62748336804E+02  0.58685444897E+02 -0.15134826835E+04  0.15206614246E+04  0.12000000000E+03 0.  0.
<mgrwt>
<rscale>  0 0.30385835E+03</rscale>
<asrwt>0</asrwt>
<pdfrwt beam="1">  1        2 0.61212161E+00 0.30385835E+03</pdfrwt>
<pdfrwt beam="2">  1       -2 0.89251996E-03 0.30385835E+03</pdfrwt>
<totfact> 0.11604383E+03</totfact>
</mgrwt>
</event>
<event>
 4    1  0.1774755E-004  0.2626289E+03  0.7818608E-02  0.1105574E+00
         -1   -1    0    0    0  501 -0.00000000000E+00  0.00000000000E+00  0.11951862284E+02  0.11951862284E+02  0.00000000000E+00 0. -1.
          1   -1    0    0  501    0  0.00000000000E+00 -0.00000000000E+00 -0.14427444069E+04  0.14427444069E+04  0.00000000000E+00 0. -1.
         25    1    1    2    0    0  0.42879232916E+02 -0.23200886804E+02 -0.59575266447E+03  0.60967052331E+03  0.12000000000E+03 0.  0.
         25    1    1    2    0    0 -0.42879232916E+02  0.23200886804E+02 -0.83503988016E+03  0.84502574589E+03  0.12000000000E+03 0.  0.
<mgrwt>
<rscale>  0 0.26262888E+03</rscale>
<asrwt>0</asrwt>
<pdfrwt beam="1">  1        1 0.22196068E+00 0.26262888E+03</pdfrwt>
<pdfrwt beam="2">  1       -1 0.18387481E-02 0.26262888E+03</pdfrwt>
<totfact> 0.60535909E+03</totfact>
</mgrwt>
</event>
<event>
 4    1  0.1774755E-004  0.2907231E+03  0.7818608E-02  0.1089972E+00
         -2   -1    0    0    0  501 -0.00000000000E+00  0.00000000000E+00  0.46910585804E+02  0.46910585804E+02  0.00000000000E+00 0. -1.
          2   -1    0    0  501    0  0.00000000000E+00 -0.00000000000E+00 -0.45043086823E+03  0.45043086823E+03  0.00000000000E+00 0. -1.
         25    1    1    2    0    0  0.18007772403E+02 -0.15927907434E+02 -0.33593873889E+03  0.35753715106E+03  0.12000000000E+03 0.  0.
         25    1    1    2    0    0 -0.18007772403E+02  0.15927907434E+02 -0.67581543530E+02  0.13980430297E+03  0.12000000000E+03 0.  0.
<mgrwt>
<rscale>  0 0.29072307E+03</rscale>
<asrwt>0</asrwt>
<pdfrwt beam="1">  1        2 0.69297061E-01 0.29072307E+03</pdfrwt>
<pdfrwt beam="2">  1       -2 0.72170128E-02 0.29072307E+03</pdfrwt>
<totfact> 0.77519380E+03</totfact>
</mgrwt>
</event>
<event>
 4    1  0.1774755E-004  0.3653202E+03  0.7818608E-02  0.1056497E+00
         -3   -1    0    0    0  501 -0.00000000000E+00  0.00000000000E+00  0.37395872496E+03  0.37395872496E+03  0.00000000000E+00 0.  1.
          3   -1    0    0  501    0  0.00000000000E+00 -0.00000000000E+00 -0.89220291029E+02  0.89220291029E+02  0.00000000000E+00 0.  1.
         25    1    1    2    0    0 -0.12828291097E+03 -0.25725425077E+02  0.87889036425E+02  0.19809791889E+03  0.12000000000E+03 0.  0.
         25    1    1    2    0    0  0.12828291097E+03  0.25725425077E+02  0.19684939751E+03  0.26508109710E+03  0.12000000000E+03 0.  0.
<mgrwt>
<rscale>  0 0.36532017E+03</rscale>
<asrwt>0</asrwt>
<pdfrwt beam="1">  1        3 0.13726199E-01 0.36532017E+03</pdfrwt>
<pdfrwt beam="2">  1       -3 0.57532111E-01 0.36532017E+03</pdfrwt>
<totfact> 0.33667735E+02</totfact>
</mgrwt>
</event>
<event>
 4    1  0.1774755E-004  0.3487965E+03  0.7818608E-02  0.1063110E+00
         -2   -1    0    0    0  501 -0.00000000000E+00  0.00000000000E+00  0.88432711420E+01  0.88432711420E+01  0.00000000000E+00 0.  1.
          2   -1    0    0  501    0  0.00000000000E+00 -0.00000000000E+00 -0.34393098502E+04  0.34393098502E+04  0.00000000000E+00 0.  1.
         25    1    1    2    0    0  0.11678876532E+03 -0.40452674075E+01 -0.12351051156E+04  0.12464110985E+04  0.12000000000E+03 0.  0.
         25    1    1    2    0    0 -0.11678876532E+03  0.40452674075E+01 -0.21953614635E+04  0.22017420229E+04  0.12000000000E+03 0.  0.
<mgrwt>
<rscale>  0 0.34879650E+03</rscale>
<asrwt>0</asrwt>
<pdfrwt beam="1">  1        2 0.52912465E+00 0.34879650E+03</pdfrwt>
<pdfrwt beam="2">  1       -2 0.13605031E-02 0.34879650E+03</pdfrwt>
<totfact> 0.14953519E+03</totfact>
</mgrwt>
</event>
<event>
 4    1  0.1774755E-004  0.3311407E+03  0.7818608E-02  0.1070633E+00
          1   -1    0    0  501    0  0.00000000000E+00  0.00000000000E+00  0.15671074122E+04  0.15671074122E+04  0.00000000000E+00 0. -1.
         -1   -1    0    0    0  501 -0.00000000000E+00 -0.00000000000E+00 -0.17493078616E+02  0.17493078616E+02  0.00000000000E+00 0. -1.
         25    1    1    2    0    0 -0.28384655880E+02 -0.10261411489E+03  0.97083944026E+03  0.98400435163E+03  0.12000000000E+03 0.  0.
         25    1    1    2    0    0  0.28384655880E+02  0.10261411489E+03  0.57877489335E+03  0.60059613922E+03  0.12000000000E+03 0.  0.
<mgrwt>
<rscale>  0 0.33114065E+03</rscale>
<asrwt>0</asrwt>
<pdfrwt beam="1">  1        1 0.24109334E+00 0.33114065E+03</pdfrwt>
<pdfrwt beam="2">  1       -1 0.26912441E-02 0.33114065E+03</pdfrwt>
<totfact> 0.28629368E+03</totfact>
</mgrwt>
</event>
<event>
 4    1  0.1774755E-004  0.2489377E+03  0.7818608E-02  0.1113978E+00
         -1   -1    0    0    0  501 -0.00000000000E+00  0.00000000000E+00  0.98281277973E+02  0.98281277973E+02  0.00000000000E+00 0. -1.
          1   -1    0    0  501    0  0.00000000000E+00 -0.00000000000E+00 -0.15763418002E+03  0.15763418002E+03  0.00000000000E+00 0. -1.
         25    1    1    2    0    0  0.12419602613E+02  0.84411424601E+01  0.59357443936E+00  0.12093738771E+03  0.12000000000E+03 0.  0.
         25    1    1    2    0    0 -0.12419602613E+02 -0.84411424601E+01 -0.59946476488E+02  0.13497807029E+03  0.12000000000E+03 0.  0.
<mgrwt>
<rscale>  0 0.24893765E+03</rscale>
<asrwt>0</asrwt>
<pdfrwt beam="1">  1        1 0.24251412E-01 0.24893765E+03</pdfrwt>
<pdfrwt beam="2">  1       -1 0.15120197E-01 0.24893765E+03</pdfrwt>
<totfact> 0.62290108E+03</totfact>
</mgrwt>
</event>
<event>
 4    1  0.1774755E-004  0.2824214E+03  0.7818608E-02  0.1094374E+00
          1   -1    0    0  501    0  0.00000000000E+00  0.00000000000E+00  0.75991588941E+03  0.75991588941E+03  0.00000000000E+00 0. -1.
         -1   -1    0    0    0  501 -0.00000000000E+00 -0.00000000000E+00 -0.26240349485E+02  0.26240349485E+02  0.00000000000E+00 0. -1.
         25    1    1    2    0    0  0.51634617272E+02 -0.48530269841E+02  0.30341392097E+03  0.33388819720E+03  0.12000000000E+03 0.  0.
         25    1    1    2    0    0 -0.51634617272E+02  0.48530269841E+02  0.43026161896E+03  0.45226804170E+03  0.12000000000E+03 0.  0.
<mgrwt>
<rscale>  0 0.28242138E+03</rscale>
<asrwt>0</asrwt>
<pdfrwt beam="1">  1        1 0.11691012E+00 0.28242138E+03</pdfrwt>
<pdfrwt beam="2">  1       -1 0.40369774E-02 0.28242138E+03</pdfrwt>
<totfact> 0.60404534E+03</totfact>
</mgrwt>
</event>
<event>
 4    1  0.1774755E-004  0.2574728E+03  0.7818608E-02  0.1108671E+00
         -3   -1    0    0    0  501 -0.00000000000E+00  0.00000000000E+00  0.31996106045E+03  0.31996106045E+03  0.00000000000E+00 0.  1.
          3   -1    0    0  501    0  0.00000000000E+00 -0.00000000000E+00 -0.51797132874E+02  0.51797132874E+02  0.00000000000E+00 0.  1.
         25    1    1    2    0    0 -0.13712281572E+02 -0.43264469896E+02  0.11871813660E+03  0.17479655883E+03  0.12000000000E+03 0.  0.
         25    1    1    2    0    0  0.13712281572E+02  0.43264469896E+02  0.14944579097E+03  0.19696163449E+03  0.12000000000E+03 0.  0.
<mgrwt>
<rscale>  0 0.25747284E+03</rscale>
<asrwt>0</asrwt>
<pdfrwt beam="1">  1        3 0.79687899E-02 0.25747284E+03</pdfrwt>
<pdfrwt beam="2">  1       -3 0.49224777E-01 0.25747284E+03</pdfrwt>
<totfact> 0.11175439E+03</totfact>
</mgrwt>
</event>
<event>
 4    1  0.1774755E-004  0.2587411E+03  0.7818608E-02  0.1107902E+00
         -2   -1    0    0    0  501 -0.00000000000E+00  0.00000000000E+00  0.13888016416E+03  0.13888016416E+03  0.00000000000E+00 0.  1.
          2   -1    0    0  501    0  0.00000000000E+00 -0.00000000000E+00 -0.12051210640E+03  0.12051210640E+03  0.00000000000E+00 0.  1.
         25    1    1    2    0    0  0.42177577319E+02 -0.44612442892E+01 -0.14066802094E+02  0.12804969992E+03  0.12000000000E+03 0.  0.
         25    1    1    2    0    0 -0.42177577319E+02  0.44612442892E+01  0.32434859847E+02  0.13134257064E+03  0.12000000000E+03 0.  0.
<mgrwt>
<rscale>  0 0.25874111E+03</rscale>
<asrwt>0</asrwt>
<pdfrwt beam="1">  1        2 0.18540324E-01 0.25874111E+03</pdfrwt>
<pdfrwt beam="2">  1       -2 0.21366179E-01 0.25874111E+03</pdfrwt>
<totfact> 0.56242354E+03</totfact>
</mgrwt>
</event>
<event>
 4    1  0.1774755E-004  0.4033576E+03  0.7818608E-02  0.1042623E+00
          1   -1    0    0  501    0  0.00000000000E+00  0.00000000000E+00  0.14921753971E+04  0.14921753971E+04  0.00000000000E+00 0.  1.
         -1   -1    0    0    0  501 -0.00000000000E+00 -0.00000000000E+00 -0.27258421031E+02  0.27258421031E+02  0.00000000000E+00 0.  1.
         25    1    1    2    0    0 -0.86962013364E+02  0.10397991602E+03  0.10672763669E+04  0.10825216201E+04  0.12000000000E+03 0.  0.
         25    1    1    2    0    0  0.86962013364E+02 -0.10397991602E+03  0.39764060919E+03  0.43691219802E+03  0.12000000000E+03 0.  0.
<mgrwt>
<rscale>  0 0.40335763E+03</rscale>
<asrwt>0</asrwt>
<pdfrwt beam="1">  1        1 0.22956538E+00 0.40335763E+03</pdfrwt>
<pdfrwt beam="2">  1       -1 0.41936044E-02 0.40335763E+03</pdfrwt>
<totfact> 0.16536405E+03</totfact>
</mgrwt>
</event>
<event>
 4    1  0.1774755E-004  0.2956077E+03  0.7818608E-02  0.1087457E+00
          1   -1    0    0  501    0  0.00000000000E+00  0.00000000000E+00  0.19493834873E+02  0.19493834873E+02  0.00000000000E+00 0. -1.
         -1   -1    0    0    0  501 -0.00000000000E+00 -0.00000000000E+00 -0.11206610480E+04  0.11206610480E+04  0.00000000000E+00 0. -1.
         25    1    1    2    0    0  0.24067270357E+02 -0.56296342833E+02 -0.31605253504E+03  0.34356617503E+03  0.12000000000E+03 0.  0.
         25    1    1    2    0    0 -0.24067270357E+02  0.56296342833E+02 -0.78511467811E+03  0.79658870787E+03  0.12000000000E+03 0.  0.
<mgrwt>
<rscale>  0 0.29560772E+03</rscale>
<asrwt>0</asrwt>
<pdfrwt beam="1">  1        1 0.29990508E-02 0.29560772E+03</pdfrwt>
<pdfrwt beam="2">  1       -1 0.17240943E+00 0.29560772E+03</pdfrwt>
<totfact> 0.88294611E+02</totfact>
</mgrwt>
</event>
<event>
 4    1  0.1774755E-004  0.3321211E+03  0.7818608E-02  0.1070202E+00
          2   -1    0    0  501    0  0.00000000000E+00  0.00000000000E+00  0.33026275968E+03  0.33026275968E+03  0.00000000000E+00 0.  1.
         -2   -1    0    0    0  501 -0.00000000000E+00 -0.00000000000E+00 -0.83497487261E+02  0.83497487261E+02  0.00000000000E+00 0.  1.
         25    1    1    2    0    0  0.16554380812E+02  0.10270427802E+03  0.62939673832E+02  0.17083213629E+03  0.12000000000E+03 0.  0.
         25    1    1    2    0    0 -0.16554380812E+02 -0.10270427802E+03  0.18382559859E+03  0.24292811065E+03  0.12000000000E+03 0.  0.
<mgrwt>
<rscale>  0 0.33212113E+03</rscale>
<asrwt>0</asrwt>
<pdfrwt beam="1">  1        2 0.50809655E-01 0.33212113E+03</pdfrwt>
<pdfrwt beam="2">  1       -2 0.12845767E-01 0.33212113E+03</pdfrwt>
<totfact> 0.43629473E+03</totfact>
</mgrwt>
</event>
<event>
 4    1  0.1774755E-004  0.3411581E+03  0.7818608E-02  0.1066304E+00
          1   -1    0    0  501    0  0.00000000000E+00  0.00000000000E+00  0.47986514970E+03  0.47986514970E+03  0.00000000000E+00 0.  1.
         -1   -1    0    0    0  501 -0.00000000000E+00 -0.00000000000E+00 -0.60636216413E+02  0.60636216413E+02  0.00000000000E+00 0.  1.
         25    1    1    2    0    0 -0.72342558763E+02  0.26265548235E+02  0.61213391142E+02  0.15514639566E+03  0.12000000000E+03 0.  0.
         25    1    1    2    0    0  0.72342558763E+02 -0.26265548235E+02  0.35801554214E+03  0.38535497045E+03  0.12000000000E+03 0.  0.
<mgrwt>
<rscale>  0 0.34115807E+03</rscale>
<asrwt>0</asrwt>
<pdfrwt beam="1">  1        1 0.73825405E-01 0.34115807E+03</pdfrwt>
<pdfrwt beam="2">  1       -1 0.93286490E-02 0.34115807E+03</pdfrwt>
<totfact> 0.32476540E+03</totfact>
</mgrwt>
</event>
<event>
 4    1  0.1774755E-004  0.2844169E+03  0.7818608E-02  0.1093301E+00
         -2   -1    0    0    0  501 -0.00000000000E+00  0.00000000000E+00  0.24007848289E+03  0.24007848289E+03  0.00000000000E+00 0. -1.
          2   -1    0    0  501    0  0.00000000000E+00 -0.00000000000E+00 -0.84235945233E+02  0.84235945233E+02  0.00000000000E+00 0. -1.
         25    1    1    2    0    0  0.11115551022E+02  0.73913303341E+02  0.95457330210E+02  0.17058380280E+03  0.12000000000E+03 0.  0.
         25    1    1    2    0    0 -0.11115551022E+02 -0.73913303341E+02  0.60385207448E+02  0.15373062533E+03  0.12000000000E+03 0.  0.
<mgrwt>
<rscale>  0 0.28441686E+03</rscale>
<asrwt>0</asrwt>
<pdfrwt beam="1">  1        2 0.12959376E-01 0.28441686E+03</pdfrwt>
<pdfrwt beam="2">  1       -2 0.36935151E-01 0.28441686E+03</pdfrwt>
<totfact> 0.32172089E+03</totfact>
</mgrwt>
</event>
<event>
 4    1  0.1774755E-004  0.2771170E+03  0.7818608E-02  0.1097274E+00
          2   -1    0    0  501    0  0.00000000000E+00  0.00000000000E+00  0.45262695797E+02  0.45262695797E+02  0.00000000000E+00 0.  1.
         -2   -1    0    0    0  501 -0.00000000000E+00 -0.00000000000E+00 -0.42415621281E+03  0.42415621281E+03  0.00000000000E+00 0.  1.
         25    1    1    2    0    0 -0.41676287505E+02  0.44948234866E+02 -0.24410603599E+03  0.27882792823E+03  0.12000000000E+03 0.  0.
         25    1    1    2    0    0  0.41676287505E+02 -0.44948234866E+02 -0.13478748102E+03  0.19059098037E+03  0.12000000000E+03 0.  0.
<mgrwt>
<rscale>  0 0.27711697E+03</rscale>
<asrwt>0</asrwt>
<pdfrwt beam="1">  1        2 0.69634918E-02 0.27711697E+03</pdfrwt>
<pdfrwt beam="2">  1       -2 0.65254800E-01 0.27711697E+03</pdfrwt>
<totfact> 0.22492175E+03</totfact>
</mgrwt>
</event>
<event>
 4    1  0.1774755E-004  0.2516740E+03  0.7818608E-02  0.1112251E+00
         -1   -1    0    0    0  501 -0.00000000000E+00  0.00000000000E+00  0.20387727758E+02  0.20387727758E+02  0.00000000000E+00 0. -1.
          1   -1    0    0  501    0  0.00000000000E+00 -0.00000000000E+00 -0.77669054203E+03  0.77669054203E+03  0.00000000000E+00 0. -1.
         25    1    1    2    0    0  0.25257546543E+02 -0.22589398674E+02 -0.43178040424E+03  0.44942467898E+03  0.12000000000E+03 0.  0.
         25    1    1    2    0    0 -0.25257546543E+02  0.22589398674E+02 -0.32452241003E+03  0.34765359081E+03  0.12000000000E+03 0.  0.
<mgrwt>
<rscale>  0 0.25167404E+03</rscale>
<asrwt>0</asrwt>
<pdfrwt beam="1">  1        1 0.11949086E+00 0.25167404E+03</pdfrwt>
<pdfrwt beam="2">  1       -1 0.31365733E-02 0.25167404E+03</pdfrwt>
<totfact> 0.84655143E+03</totfact>
</mgrwt>
</event>
<event>
 4    1  0.1774755E-004  0.3894392E+03  0.7818608E-02  0.1047499E+00
         -1   -1    0    0    0  501 -0.00000000000E+00  0.00000000000E+00  0.36962836053E+02  0.36962836053E+02  0.00000000000E+00 0. -1.
          1   -1    0    0  501    0  0.00000000000E+00 -0.00000000000E+00 -0.10257796042E+04  0.10257796042E+04  0.00000000000E+00 0. -1.
         25    1    1    2    0    0 -0.14430806371E+02 -0.15142780638E+03 -0.54740077615E+03  0.58067739619E+03  0.12000000000E+03 0.  0.
         25    1    1    2    0    0  0.14430806371E+02  0.15142780638E+03 -0.44141599202E+03  0.48206504408E+03  0.12000000000E+03 0.  0.
<mgrwt>
<rscale>  0 0.38943920E+03</rscale>
<asrwt>0</asrwt>
<pdfrwt beam="1">  1        1 0.15781223E+00 0.38943920E+03</pdfrwt>
<pdfrwt beam="2">  1       -1 0.56865907E-02 0.38943920E+03</pdfrwt>
<totfact> 0.22201539E+03</totfact>
</mgrwt>
</event>
<event>
 4    1  0.1774755E-004  0.2525073E+03  0.7818608E-02  0.1111730E+00
          2   -1    0    0  501    0  0.00000000000E+00  0.00000000000E+00  0.13880745225E+04  0.13880745225E+04  0.00000000000E+00 0.  1.
         -2   -1    0    0    0  501 -0.00000000000E+00 -0.00000000000E+00 -0.11483519092E+02  0.11483519092E+02  0.00000000000E+00 0.  1.
         25    1    1    2    0    0 -0.18585312107E+02  0.12326004042E+02  0.86726680598E+03  0.87581336880E+03  0.12000000000E+03 0.  0.
         25    1    1    2    0    0  0.18585312107E+02 -0.12326004042E+02  0.50932419747E+03  0.52374467284E+03  0.12000000000E+03 0.  0.
<mgrwt>
<rscale>  0 0.25250727E+03</rscale>
<asrwt>0</asrwt>
<pdfrwt beam="1">  1        2 0.21354979E+00 0.25250727E+03</pdfrwt>
<pdfrwt beam="2">  1       -2 0.17666963E-02 0.25250727E+03</pdfrwt>
<totfact> 0.14506986E+04</totfact>
</mgrwt>
</event>
<event>
 4    1  0.1774755E-004  0.4878233E+03  0.7818608E-02  0.1017007E+00
         -3   -1    0    0    0  501 -0.00000000000E+00  0.00000000000E+00  0.50182181854E+02  0.50182181854E+02  0.00000000000E+00 0.  1.
          3   -1    0    0  501    0  0.00000000000E+00 -0.00000000000E+00 -0.11855383984E+04  0.11855383984E+04  0.00000000000E+00 0.  1.
         25    1    1    2    0    0 -0.14000861664E+03  0.12118398651E+03 -0.30436727693E+03  0.37593538086E+03  0.12000000000E+03 0.  0.
         25    1    1    2    0    0  0.14000861664E+03 -0.12118398651E+03 -0.83098893958E+03  0.85978519935E+03  0.12000000000E+03 0.  0.
<mgrwt>
<rscale>  0 0.48782334E+03</rscale>
<asrwt>0</asrwt>
<pdfrwt beam="1">  1        3 0.18239051E+00 0.48782334E+03</pdfrwt>
<pdfrwt beam="2">  1       -3 0.77203362E-02 0.48782334E+03</pdfrwt>
<totfact> 0.60100746E+01</totfact>
</mgrwt>
</event>
<event>
 4    1  0.1774755E-004  0.2688792E+03  0.7818608E-02  0.1101923E+00
         -2   -1    0    0    0  501 -0.00000000000E+00  0.00000000000E+00  0.15748694120E+03  0.15748694120E+03  0.00000000000E+00 0. -1.
          2   -1    0    0  501    0  0.00000000000E+00 -0.00000000000E+00 -0.11476510105E+03  0.11476510105E+03  0.00000000000E+00 0. -1.
         25    1    1    2    0    0 -0.31761505115E+02 -0.22796228272E+02 -0.25540135351E+02  0.12876629895E+03  0.12000000000E+03 0.  0.
         25    1    1    2    0    0  0.31761505115E+02  0.22796228272E+02  0.68261975498E+02  0.14348574330E+03  0.12000000000E+03 0.  0.
<mgrwt>
<rscale>  0 0.26887919E+03</rscale>
<asrwt>0</asrwt>
<pdfrwt beam="1">  1        2 0.17656169E-01 0.26887919E+03</pdfrwt>
<pdfrwt beam="2">  1       -2 0.24228760E-01 0.26887919E+03</pdfrwt>
<totfact> 0.47893640E+03</totfact>
</mgrwt>
</event>
<event>
 4    1  0.1774755E-004  0.3491923E+03  0.7818608E-02  0.1062947E+00
          1   -1    0    0  501    0  0.00000000000E+00  0.00000000000E+00  0.32712164900E+03  0.32712164900E+03  0.00000000000E+00 0. -1.
         -1   -1    0    0    0  501 -0.00000000000E+00 -0.00000000000E+00 -0.93188024635E+02  0.93188024635E+02  0.00000000000E+00 0. -1.
         25    1    1    2    0    0 -0.69761142729E+02  0.10160428698E+03  0.15295152947E+03  0.23018301096E+03  0.12000000000E+03 0.  0.
         25    1    1    2    0    0  0.69761142729E+02 -0.10160428698E+03  0.80982094900E+02  0.19012666268E+03  0.12000000000E+03 0.  0.
<mgrwt>
<rscale>  0 0.34919233E+03</rscale>
<asrwt>0</asrwt>
<pdfrwt beam="1">  1        1 0.50326407E-01 0.34919233E+03</pdfrwt>
<pdfrwt beam="2">  1       -1 0.14336619E-01 0.34919233E+03</pdfrwt>
<totfact> 0.27190455E+03</totfact>
</mgrwt>
</event>
<event>
 4    1  0.1774755E-004  0.2831662E+03  0.7818608E-02  0.1093972E+00
         -3   -1    0    0    0  501 -0.00000000000E+00  0.00000000000E+00  0.13218078900E+03  0.13218078900E+03  0.00000000000E+00 0. -1.
          3   -1    0    0  501    0  0.00000000000E+00 -0.00000000000E+00 -0.15165423793E+03  0.15165423793E+03  0.00000000000E+00 0. -1.
         25    1    1    2    0    0  0.56349847987E+02 -0.11438567114E+02  0.38747248205E+02  0.13859110877E+03  0.12000000000E+03 0.  0.
         25    1    1    2    0    0 -0.56349847987E+02  0.11438567114E+02 -0.58220697135E+02  0.14524391815E+03  0.12000000000E+03 0.  0.
<mgrwt>
<rscale>  0 0.28316622E+03</rscale>
<asrwt>0</asrwt>
<pdfrwt beam="1">  1        3 0.23331421E-01 0.28316622E+03</pdfrwt>
<pdfrwt beam="2">  1       -3 0.20335506E-01 0.28316622E+03</pdfrwt>
<totfact> 0.94640660E+02</totfact>
</mgrwt>
</event>
<event>
 4    1  0.1774755E-004  0.2593955E+03  0.7818608E-02  0.1107507E+00
         -1   -1    0    0    0  501 -0.00000000000E+00  0.00000000000E+00  0.41764450602E+02  0.41764450602E+02  0.00000000000E+00 0. -1.
          1   -1    0    0  501    0  0.00000000000E+00 -0.00000000000E+00 -0.40277106590E+03  0.40277106590E+03  0.00000000000E+00 0. -1.
         25    1    1    2    0    0  0.33647976831E+02  0.31713981469E+02 -0.15164583745E+03  0.19883265069E+03  0.12000000000E+03 0.  0.
         25    1    1    2    0    0 -0.33647976831E+02 -0.31713981469E+02 -0.20936077785E+03  0.24570286581E+03  0.12000000000E+03 0.  0.
<mgrwt>
<rscale>  0 0.25939555E+03</rscale>
<asrwt>0</asrwt>
<pdfrwt beam="1">  1        1 0.61964781E-01 0.25939555E+03</pdfrwt>
<pdfrwt beam="2">  1       -1 0.64252999E-02 0.25939555E+03</pdfrwt>
<totfact> 0.71655302E+03</totfact>
</mgrwt>
</event>
<event>
 4    1  0.1774755E-004  0.3556408E+03  0.7818608E-02  0.1060323E+00
          2   -1    0    0  501    0  0.00000000000E+00  0.00000000000E+00  0.11926503110E+04  0.11926503110E+04  0.00000000000E+00 0.  1.
         -2   -1    0    0    0  501 -0.00000000000E+00 -0.00000000000E+00 -0.26512468270E+02  0.26512468270E+02  0.00000000000E+00 0.  1.
         25    1    1    2    0    0 -0.11232561084E+03 -0.67660623752E+02  0.60024376271E+03  0.62600924715E+03  0.12000000000E+03 0.  0.
         25    1    1    2    0    0  0.11232561084E+03  0.67660623752E+02  0.56589408005E+03  0.59315353214E+03  0.12000000000E+03 0.  0.
<mgrwt>
<rscale>  0 0.35564085E+03</rscale>
<asrwt>0</asrwt>
<pdfrwt beam="1">  1        2 0.18348462E+00 0.35564085E+03</pdfrwt>
<pdfrwt beam="2">  1       -2 0.40788422E-02 0.35564085E+03</pdfrwt>
<totfact> 0.54050258E+03</totfact>
</mgrwt>
</event>
<event>
 4    1  0.1774755E-004  0.3360488E+03  0.7818608E-02  0.1068491E+00
          1   -1    0    0  501    0  0.00000000000E+00  0.00000000000E+00  0.64158740209E+03  0.64158740209E+03  0.00000000000E+00 0.  1.
         -1   -1    0    0    0  501 -0.00000000000E+00 -0.00000000000E+00 -0.44003669182E+02  0.44003669182E+02  0.00000000000E+00 0.  1.
         25    1    1    2    0    0  0.79902590262E+02  0.18128650691E+01  0.47481925877E+03  0.49622680188E+03  0.12000000000E+03 0.  0.
         25    1    1    2    0    0 -0.79902590262E+02 -0.18128650691E+01  0.12276447414E+03  0.18936426939E+03  0.12000000000E+03 0.  0.
<mgrwt>
<rscale>  0 0.33604880E+03</rscale>
<asrwt>0</asrwt>
<pdfrwt beam="1">  1        1 0.98705748E-01 0.33604880E+03</pdfrwt>
<pdfrwt beam="2">  1       -1 0.67697957E-02 0.33604880E+03</pdfrwt>
<totfact> 0.35655839E+03</totfact>
</mgrwt>
</event>
<event>
 4    1  0.1774755E-004  0.2645249E+03  0.7818608E-02  0.1104455E+00
          2   -1    0    0  501    0  0.00000000000E+00  0.00000000000E+00  0.98205306448E+03  0.98205306448E+03  0.00000000000E+00 0.  1.
         -2   -1    0    0    0  501 -0.00000000000E+00 -0.00000000000E+00 -0.17813042828E+02  0.17813042828E+02  0.00000000000E+00 0.  1.
         25    1    1    2    0    0 -0.33680507675E+02  0.35713164007E+02  0.58094331871E+03  0.59523520245E+03  0.12000000000E+03 0.  0.
         25    1    1    2    0    0  0.33680507675E+02 -0.35713164007E+02  0.38329670294E+03  0.40463090485E+03  0.12000000000E+03 0.  0.
<mgrwt>
<rscale>  0 0.26452488E+03</rscale>
<asrwt>0</asrwt>
<pdfrwt beam="1">  1        2 0.15108504E+00 0.26452488E+03</pdfrwt>
<pdfrwt beam="2">  1       -2 0.27404689E-02 0.26452488E+03</pdfrwt>
<totfact> 0.13001747E+04</totfact>
</mgrwt>
</event>
<event>
 4    1  0.1774755E-004  0.2976372E+03  0.7818608E-02  0.1086428E+00
         -2   -1    0    0    0  501 -0.00000000000E+00  0.00000000000E+00  0.15322493660E+02  0.15322493660E+02  0.00000000000E+00 0.  1.
          2   -1    0    0  501    0  0.00000000000E+00 -0.00000000000E+00 -0.14453900910E+04  0.14453900910E+04  0.00000000000E+00 0.  1.
         25    1    1    2    0    0 -0.19740201233E+02 -0.29101427151E+02 -0.11110215447E+04  0.11180364222E+04  0.12000000000E+03 0.  0.
         25    1    1    2    0    0  0.19740201233E+02  0.29101427151E+02 -0.31904605268E+03  0.34267616249E+03  0.12000000000E+03 0.  0.
<mgrwt>
<rscale>  0 0.29763723E+03</rscale>
<asrwt>0</asrwt>
<pdfrwt beam="1">  1        2 0.22236776E+00 0.29763723E+03</pdfrwt>
<pdfrwt beam="2">  1       -2 0.23573062E-02 0.29763723E+03</pdfrwt>
<totfact> 0.88675942E+03</totfact>
</mgrwt>
</event>
<event>
 4    1  0.1774755E-004  0.2703575E+03  0.7818608E-02  0.1101075E+00
          1   -1    0    0  501    0  0.00000000000E+00  0.00000000000E+00  0.21468690001E+04  0.21468690001E+04  0.00000000000E+00 0.  1.
         -1   -1    0    0    0  501 -0.00000000000E+00 -0.00000000000E+00 -0.85115989135E+01  0.85115989135E+01  0.00000000000E+00 0.  1.
         25    1    1    2    0    0 -0.48822053364E+01 -0.56805942346E+02  0.87026341742E+03  0.88034604941E+03  0.12000000000E+03 0.  0.
         25    1    1    2    0    0  0.48822053364E+01  0.56805942346E+02  0.12680939838E+04  0.12750345497E+04  0.12000000000E+03 0.  0.
<mgrwt>
<rscale>  0 0.27035745E+03</rscale>
<asrwt>0</asrwt>
<pdfrwt beam="1">  1        1 0.33028711E+00 0.27035745E+03</pdfrwt>
<pdfrwt beam="2">  1       -1 0.13094785E-02 0.27035745E+03</pdfrwt>
<totfact> 0.34437476E+03</totfact>
</mgrwt>
</event>
<event>
 4    1  0.1774755E-004  0.2594218E+03  0.7818608E-02  0.1107491E+00
         -1   -1    0    0    0  501 -0.00000000000E+00  0.00000000000E+00  0.31078216504E+03  0.31078216504E+03  0.00000000000E+00 0. -1.
          1   -1    0    0  501    0  0.00000000000E+00 -0.00000000000E+00 -0.54137327095E+02  0.54137327095E+02  0.00000000000E+00 0. -1.
         25    1    1    2    0    0 -0.18911568903E+02  0.45451702310E+02  0.12999335862E+03  0.18363490400E+03  0.12000000000E+03 0.  0.
         25    1    1    2    0    0  0.18911568903E+02 -0.45451702310E+02  0.12665147932E+03  0.18128458814E+03  0.12000000000E+03 0.  0.
<mgrwt>
<rscale>  0 0.25942179E+03</rscale>
<asrwt>0</asrwt>
<pdfrwt beam="1">  1        1 0.83288197E-02 0.25942179E+03</pdfrwt>
<pdfrwt beam="2">  1       -1 0.47812640E-01 0.25942179E+03</pdfrwt>
<totfact> 0.36479115E+03</totfact>
</mgrwt>
</event>
<event>
 4    1  0.1774755E-004  0.4233231E+03  0.7818608E-02  0.1035990E+00
          3   -1    0    0  501    0  0.00000000000E+00  0.00000000000E+00  0.10369439728E+04  0.10369439728E+04  0.00000000000E+00 0. -1.
         -3   -1    0    0    0  501 -0.00000000000E+00 -0.00000000000E+00 -0.43204460644E+02  0.43204460644E+02  0.00000000000E+00 0. -1.
         25    1    1    2    0    0  0.85905471106E+02 -0.30658030566E+02  0.11771170168E+03  0.19124776996E+03  0.12000000000E+03 0.  0.
         25    1    1    2    0    0 -0.85905471106E+02  0.30658030566E+02  0.87602781047E+03  0.88890066347E+03  0.12000000000E+03 0.  0.
<mgrwt>
<rscale>  0 0.42332307E+03</rscale>
<asrwt>0</asrwt>
<pdfrwt beam="1">  1        3 0.15952982E+00 0.42332307E+03</pdfrwt>
<pdfrwt beam="2">  1       -3 0.66468409E-02 0.42332307E+03</pdfrwt>
<totfact> 0.10939248E+02</totfact>
</mgrwt>
</event>
<event>
 4    1  0.1774755E-004  0.2835617E+03  0.7818608E-02  0.1093759E+00
          3   -1    0    0  501    0  0.00000000000E+00  0.00000000000E+00  0.62144111684E+02  0.62144111684E+02  0.00000000000E+00 0. -1.
         -3   -1    0    0    0  501 -0.00000000000E+00 -0.00000000000E+00 -0.32347080135E+03  0.32347080135E+03  0.00000000000E+00 0. -1.
         25    1    1    2    0    0  0.70762449032E+02 -0.22267880305E+02 -0.11149780875E+03  0.17981919821E+03  0.12000000000E+03 0.  0.
         25    1    1    2    0    0 -0.70762449032E+02  0.22267880305E+02 -0.14982888091E+03  0.20579571482E+03  0.12000000000E+03 0.  0.
<mgrwt>
<rscale>  0 0.28356167E+03</rscale>
<asrwt>0</asrwt>
<pdfrwt beam="1">  1        3 0.95606323E-02 0.28356167E+03</pdfrwt>
<pdfrwt beam="2">  1       -3 0.49764740E-01 0.28356167E+03</pdfrwt>
<totfact> 0.81755085E+02</totfact>
</mgrwt>
</event>
<event>
 4    1  0.1774755E-004  0.2519134E+03  0.7818608E-02  0.1112102E+00
         -2   -1    0    0    0  501 -0.00000000000E+00  0.00000000000E+00  0.10749846516E+02  0.10749846516E+02  0.00000000000E+00 0.  1.
          2   -1    0    0  501    0  0.00000000000E+00 -0.00000000000E+00 -0.14758430315E+04  0.14758430315E+04  0.00000000000E+00 0.  1.
         25    1    1    2    0    0 -0.16454872738E+02 -0.80096246545E+01 -0.93093329525E+03  0.93881399496E+03  0.12000000000E+03 0.  0.
         25    1    1    2    0    0  0.16454872738E+02  0.80096246545E+01 -0.53415988977E+03  0.54777888309E+03  0.12000000000E+03 0.  0.
<mgrwt>
<rscale>  0 0.25191337E+03</rscale>
<asrwt>0</asrwt>
<pdfrwt beam="1">  1        2 0.22705267E+00 0.25191337E+03</pdfrwt>
<pdfrwt beam="2">  1       -2 0.16538233E-02 0.25191337E+03</pdfrwt>
<totfact> 0.14329223E+04</totfact>
</mgrwt>
</event>
<event>
 4    1  0.1774755E-004  0.2949048E+03  0.7818608E-02  0.1087816E+00
          2   -1    0    0  501    0  0.00000000000E+00  0.00000000000E+00  0.15753584875E+04  0.15753584875E+04  0.00000000000E+00 0.  1.
         -2   -1    0    0    0  501 -0.00000000000E+00 -0.00000000000E+00 -0.13801432128E+02  0.13801432128E+02  0.00000000000E+00 0.  1.
         25    1    1    2    0    0  0.15488917539E+02  0.31890277226E+02  0.36041301897E+03  0.38151597685E+03  0.12000000000E+03 0.  0.
         25    1    1    2    0    0 -0.15488917539E+02 -0.31890277226E+02  0.12011440364E+04  0.12076439428E+04  0.12000000000E+03 0.  0.
<mgrwt>
<rscale>  0 0.29490475E+03</rscale>
<asrwt>0</asrwt>
<pdfrwt beam="1">  1        2 0.24236270E+00 0.29490475E+03</pdfrwt>
<pdfrwt beam="2">  1       -2 0.21232985E-02 0.29490475E+03</pdfrwt>
<totfact> 0.88138875E+03</totfact>
</mgrwt>
</event>
<event>
 4    1  0.1774755E-004  0.3005111E+03  0.7818608E-02  0.1084985E+00
         -4   -1    0    0    0  501 -0.00000000000E+00  0.00000000000E+00  0.43604533351E+03  0.43604533351E+03  0.00000000000E+00 0. -1.
          4   -1    0    0  501    0  0.00000000000E+00 -0.00000000000E+00 -0.51776117772E+02  0.51776117772E+02  0.00000000000E+00 0. -1.
         25    1    1    2    0    0 -0.42112967824E+02 -0.65379457745E+02  0.11723775275E+03  0.18491259077E+03  0.12000000000E+03 0.  0.
         25    1    1    2    0    0  0.42112967824E+02  0.65379457745E+02  0.26703146299E+03  0.30290886052E+03  0.12000000000E+03 0.  0.
<mgrwt>
<rscale>  0 0.30051113E+03</rscale>
<asrwt>0</asrwt>
<pdfrwt beam="1">  1        4 0.79655569E-02 0.30051113E+03</pdfrwt>
<pdfrwt beam="2">  1       -4 0.67083895E-01 0.30051113E+03</pdfrwt>
<totfact> 0.44002122E+02</totfact>
</mgrwt>
</event>
<event>
 4    1  0.1774755E-004  0.3832349E+03  0.7818608E-02  0.1049745E+00
          2   -1    0    0  501    0  0.00000000000E+00  0.00000000000E+00  0.26452178600E+03  0.26452178600E+03  0.00000000000E+00 0.  1.
         -2   -1    0    0    0  501 -0.00000000000E+00 -0.00000000000E+00 -0.13880610118E+03  0.13880610118E+03  0.00000000000E+00 0.  1.
         25    1    1    2    0    0 -0.10778186700E+03 -0.98830424551E+02  0.30713827449E+02  0.19164478304E+03  0.12000000000E+03 0.  0.
         25    1    1    2    0    0  0.10778186700E+03  0.98830424551E+02  0.95001857372E+02  0.21168310413E+03  0.12000000000E+03 0.  0.
<mgrwt>
<rscale>  0 0.38323485E+03</rscale>
<asrwt>0</asrwt>
<pdfrwt beam="1">  1        2 0.40695659E-01 0.38323485E+03</pdfrwt>
<pdfrwt beam="2">  1       -2 0.21354785E-01 0.38323485E+03</pdfrwt>
<totfact> 0.23665458E+03</totfact>
</mgrwt>
</event>
<event>
 4    1  0.1774755E-004  0.2485951E+03  0.7818608E-02  0.1114196E+00
         -2   -1    0    0    0  501 -0.00000000000E+00  0.00000000000E+00  0.82231400373E+01  0.82231400373E+01  0.00000000000E+00 0. -1.
          2   -1    0    0  501    0  0.00000000000E+00 -0.00000000000E+00 -0.18788295134E+04  0.18788295134E+04  0.00000000000E+00 0. -1.
         25    1    1    2    0    0 -0.12275987199E+02  0.29875605782E+02 -0.95484361198E+03  0.96289645083E+03  0.12000000000E+03 0.  0.
         25    1    1    2    0    0  0.12275987199E+02 -0.29875605782E+02 -0.91576276143E+03  0.92415620265E+03  0.12000000000E+03 0.  0.
<mgrwt>
<rscale>  0 0.24859508E+03</rscale>
<asrwt>0</asrwt>
<pdfrwt beam="1">  1        2 0.28905068E+00 0.24859508E+03</pdfrwt>
<pdfrwt beam="2">  1       -2 0.12650985E-02 0.24859508E+03</pdfrwt>
<totfact> 0.12988296E+04</totfact>
</mgrwt>
</event>
<event>
 4    1  0.1774755E-004  0.2435390E+03  0.7818608E-02  0.1117457E+00
          1   -1    0    0  501    0  0.00000000000E+00  0.00000000000E+00  0.13765099683E+04  0.13765099683E+04  0.00000000000E+00 0. -1.
         -1   -1    0    0    0  501 -0.00000000000E+00 -0.00000000000E+00 -0.10772030642E+02  0.10772030642E+02  0.00000000000E+00 0. -1.
         25    1    1    2    0    0 -0.12649539175E+02 -0.10412717156E+02  0.61095680651E+03  0.62284561084E+03  0.12000000000E+03 0.  0.
         25    1    1    2    0    0  0.12649539175E+02  0.10412717156E+02  0.75478113116E+03  0.76443638812E+03  0.12000000000E+03 0.  0.
<mgrwt>
<rscale>  0 0.24353897E+03</rscale>
<asrwt>0</asrwt>
<pdfrwt beam="1">  1        1 0.21177062E+00 0.24353897E+03</pdfrwt>
<pdfrwt beam="2">  1       -1 0.16572366E-02 0.24353897E+03</pdfrwt>
<totfact> 0.77882488E+03</totfact>
</mgrwt>
</event>
<event>
 4    1  0.1774755E-004  0.2806126E+03  0.7818608E-02  0.1095355E+00
          1   -1    0    0  501    0  0.00000000000E+00  0.00000000000E+00  0.11971158244E+04  0.11971158244E+04  0.00000000000E+00 0.  1.
         -1   -1    0    0    0  501 -0.00000000000E+00 -0.00000000000E+00 -0.16444402880E+02  0.16444402880E+02  0.00000000000E+00 0.  1.
         25    1    1    2    0    0 -0.54131250462E+02  0.26906174766E+02  0.76502934087E+03  0.77673935584E+03  0.12000000000E+03 0.  0.
         25    1    1    2    0    0  0.54131250462E+02 -0.26906174766E+02  0.41564208061E+03  0.43682087140E+03  0.12000000000E+03 0.  0.
<mgrwt>
<rscale>  0 0.28061258E+03</rscale>
<asrwt>0</asrwt>
<pdfrwt beam="1">  1        1 0.18417160E+00 0.28061258E+03</pdfrwt>
<pdfrwt beam="2">  1       -1 0.25299091E-02 0.28061258E+03</pdfrwt>
<totfact> 0.55842722E+03</totfact>
</mgrwt>
</event>
<event>
 4    1  0.1774755E-004  0.2593446E+03  0.7818608E-02  0.1107538E+00
          1   -1    0    0  501    0  0.00000000000E+00  0.00000000000E+00  0.33167579044E+03  0.33167579044E+03  0.00000000000E+00 0.  1.
         -1   -1    0    0    0  501 -0.00000000000E+00 -0.00000000000E+00 -0.50696827732E+02  0.50696827732E+02  0.00000000000E+00 0.  1.
         25    1    1    2    0    0  0.14253579875E+02 -0.47025114960E+02  0.13957532400E+03  0.19051455862E+03  0.12000000000E+03 0.  0.
         25    1    1    2    0    0 -0.14253579875E+02  0.47025114960E+02  0.14140363871E+03  0.19185805956E+03  0.12000000000E+03 0.  0.
<mgrwt>
<rscale>  0 0.25934464E+03</rscale>
<asrwt>0</asrwt>
<pdfrwt beam="1">  1        1 0.51027043E-01 0.25934464E+03</pdfrwt>
<pdfrwt beam="2">  1       -1 0.77995122E-02 0.25934464E+03</pdfrwt>
<totfact> 0.68345437E+03</totfact>
</mgrwt>
</event>
<event>
 4    1  0.1774755E-004  0.4146642E+03  0.7818608E-02  0.1038817E+00
         -2   -1    0    0    0  501 -0.00000000000E+00  0.00000000000E+00  0.27279418887E+02  0.27279418887E+02  0.00000000000E+00 0.  1.
          2   -1    0    0  501    0  0.00000000000E+00 -0.00000000000E+00 -0.15757888934E+04  0.15757888934E+04  0.00000000000E+00 0.  1.
         25    1    1    2    0    0  0.12602135528E+03  0.33508215468E+02 -0.11903139723E+04  0.12034332284E+04  0.12000000000E+03 0.  0.
         25    1    1    2    0    0 -0.12602135528E+03 -0.33508215468E+02 -0.35819550221E+03  0.39963508391E+03  0.12000000000E+03 0.  0.
<mgrwt>
<rscale>  0 0.41466423E+03</rscale>
<asrwt>0</asrwt>
<pdfrwt beam="1">  1        2 0.24242909E+00 0.41466423E+03</pdfrwt>
<pdfrwt beam="2">  1       -2 0.41968331E-02 0.41466423E+03</pdfrwt>
<totfact> 0.31744366E+03</totfact>
</mgrwt>
</event>
<event>
 4    1  0.1774755E-004  0.3923237E+03  0.7818608E-02  0.1046471E+00
         -1   -1    0    0    0  501 -0.00000000000E+00  0.00000000000E+00  0.36068643918E+02  0.36068643918E+02  0.00000000000E+00 0. -1.
          1   -1    0    0  501    0  0.00000000000E+00 -0.00000000000E+00 -0.10668402295E+04  0.10668402295E+04  0.00000000000E+00 0. -1.
         25    1    1    2    0    0 -0.97684895858E+02  0.95956049167E+02 -0.31015550624E+03  0.35964752231E+03  0.12000000000E+03 0.  0.
         25    1    1    2    0    0  0.97684895858E+02 -0.95956049167E+02 -0.72061607932E+03  0.74326135109E+03  0.12000000000E+03 0.  0.
<mgrwt>
<rscale>  0 0.39232375E+03</rscale>
<asrwt>0</asrwt>
<pdfrwt beam="1">  1        1 0.16412924E+00 0.39232375E+03</pdfrwt>
<pdfrwt beam="2">  1       -1 0.55490230E-02 0.39232375E+03</pdfrwt>
<totfact> 0.21476474E+03</totfact>
</mgrwt>
</event>
<event>
 4    1  0.1774755E-004  0.2857204E+03  0.7818608E-02  0.1092605E+00
         -1   -1    0    0    0  501 -0.00000000000E+00  0.00000000000E+00  0.13595313744E+03  0.13595313744E+03  0.00000000000E+00 0.  1.
          1   -1    0    0  501    0  0.00000000000E+00 -0.00000000000E+00 -0.15011813152E+03  0.15011813152E+03  0.00000000000E+00 0.  1.
         25    1    1    2    0    0 -0.30121799080E+02 -0.19084233525E+02  0.61831537448E+02  0.13962331386E+03  0.12000000000E+03 0.  0.
         25    1    1    2    0    0  0.30121799080E+02  0.19084233525E+02 -0.75996531535E+02  0.14644795511E+03  0.12000000000E+03 0.  0.
<mgrwt>
<rscale>  0 0.28572036E+03</rscale>
<asrwt>0</asrwt>
<pdfrwt beam="1">  1        1 0.23095097E-01 0.28572036E+03</pdfrwt>
<pdfrwt beam="2">  1       -1 0.20915867E-01 0.28572036E+03</pdfrwt>
<totfact> 0.39525410E+03</totfact>
</mgrwt>
</event>
<event>
 4    1  0.1774755E-004  0.2504796E+03  0.7818608E-02  0.1113002E+00
          2   -1    0    0  501    0  0.00000000000E+00  0.00000000000E+00  0.84626046897E+02  0.84626046897E+02  0.00000000000E+00 0.  1.
         -2   -1    0    0    0  501 -0.00000000000E+00 -0.00000000000E+00 -0.18534485284E+03  0.18534485284E+03  0.00000000000E+00 0.  1.
         25    1    1    2    0    0  0.12757168316E+02 -0.25196431759E+02 -0.74154416434E+02  0.14386272274E+03  0.12000000000E+03 0.  0.
         25    1    1    2    0    0 -0.12757168316E+02  0.25196431759E+02 -0.26564389513E+02  0.12610817700E+03  0.12000000000E+03 0.  0.
<mgrwt>
<rscale>  0 0.25047956E+03</rscale>
<asrwt>0</asrwt>
<pdfrwt beam="1">  1        2 0.13019392E-01 0.25047956E+03</pdfrwt>
<pdfrwt beam="2">  1       -2 0.28514592E-01 0.25047956E+03</pdfrwt>
<totfact> 0.51278052E+03</totfact>
</mgrwt>
</event>
<event>
 4    1  0.1774755E-004  0.2536959E+03  0.7818608E-02  0.1110991E+00
         -2   -1    0    0    0  501 -0.00000000000E+00  0.00000000000E+00  0.64712458605E+02  0.64712458605E+02  0.00000000000E+00 0. -1.
          2   -1    0    0  501    0  0.00000000000E+00 -0.00000000000E+00 -0.24864463006E+03  0.24864463006E+03  0.00000000000E+00 0. -1.
         25    1    1    2    0    0  0.26713581272E+02 -0.30349116300E+02 -0.10118618645E+03  0.16209049514E+03  0.12000000000E+03 0.  0.
         25    1    1    2    0    0 -0.26713581272E+02  0.30349116300E+02 -0.82745985006E+02  0.15126659353E+03  0.12000000000E+03 0.  0.
<mgrwt>
<rscale>  0 0.25369592E+03</rscale>
<asrwt>0</asrwt>
<pdfrwt beam="1">  1        2 0.38253020E-01 0.25369592E+03</pdfrwt>
<pdfrwt beam="2">  1       -2 0.99557629E-02 0.25369592E+03</pdfrwt>
<totfact> 0.88494266E+03</totfact>
</mgrwt>
</event>
<event>
 4    1  0.1774755E-004  0.2898348E+03  0.7818608E-02  0.1090435E+00
         -1   -1    0    0    0  501 -0.00000000000E+00  0.00000000000E+00  0.20807626038E+02  0.20807626038E+02  0.00000000000E+00 0. -1.
          1   -1    0    0  501    0  0.00000000000E+00 -0.00000000000E+00 -0.10092958000E+04  0.10092958000E+04  0.00000000000E+00 0. -1.
         25    1    1    2    0    0  0.37826270973E+02  0.60137170529E+02 -0.35414993711E+03  0.38061724082E+03  0.12000000000E+03 0.  0.
         25    1    1    2    0    0 -0.37826270973E+02 -0.60137170529E+02 -0.63433823683E+03  0.64948618519E+03  0.12000000000E+03 0.  0.
<mgrwt>
<rscale>  0 0.28983478E+03</rscale>
<asrwt>0</asrwt>
<pdfrwt beam="1">  1        1 0.15527630E+00 0.28983478E+03</pdfrwt>
<pdfrwt beam="2">  1       -1 0.32011727E-02 0.28983478E+03</pdfrwt>
<totfact> 0.53953419E+03</totfact>
</mgrwt>
</event>
<event>
 4    1  0.1774755E-004  0.2812149E+03  0.7818608E-02  0.1095027E+00
         -2   -1    0    0    0  501 -0.00000000000E+00  0.00000000000E+00  0.93094852235E+02  0.93094852235E+02  0.00000000000E+00 0.  1.
          2   -1    0    0  501    0  0.00000000000E+00 -0.00000000000E+00 -0.21236898533E+03  0.21236898533E+03  0.00000000000E+00 0.  1.
         25    1    1    2    0    0  0.21446422157E+02 -0.67461803924E+02 -0.80230070697E+02  0.16077284676E+03  0.12000000000E+03 0.  0.
         25    1    1    2    0    0 -0.21446422157E+02  0.67461803924E+02 -0.39044062403E+02  0.14469099081E+03  0.12000000000E+03 0.  0.
<mgrwt>
<rscale>  0 0.28121493E+03</rscale>
<asrwt>0</asrwt>
<pdfrwt beam="1">  1        2 0.32672151E-01 0.28121493E+03</pdfrwt>
<pdfrwt beam="2">  1       -2 0.14322285E-01 0.28121493E+03</pdfrwt>
<totfact> 0.58621763E+03</totfact>
</mgrwt>
</event>
<event>
 4    1  0.1774755E-004  0.2465283E+03  0.7818608E-02  0.1115519E+00
          2   -1    0    0  501    0  0.00000000000E+00  0.00000000000E+00  0.45017703796E+03  0.45017703796E+03  0.00000000000E+00 0.  1.
         -2   -1    0    0    0  501 -0.00000000000E+00 -0.00000000000E+00 -0.33751287091E+02  0.33751287091E+02  0.00000000000E+00 0.  1.
         25    1    1    2    0    0  0.59470654347E+01  0.24250537061E+02  0.23385190460E+03  0.26402683466E+03  0.12000000000E+03 0.  0.
         25    1    1    2    0    0 -0.59470654347E+01 -0.24250537061E+02  0.18257384626E+03  0.21990149039E+03  0.12000000000E+03 0.  0.
<mgrwt>
<rscale>  0 0.24652833E+03</rscale>
<asrwt>0</asrwt>
<pdfrwt beam="1">  1        2 0.69258002E-01 0.24652833E+03</pdfrwt>
<pdfrwt beam="2">  1       -2 0.51925060E-02 0.24652833E+03</pdfrwt>
<totfact> 0.12774407E+04</totfact>
</mgrwt>
</event>
<event>
 4    1  0.1774755E-004  0.3294014E+03  0.7818608E-02  0.1071402E+00
         -2   -1    0    0    0  501 -0.00000000000E+00  0.00000000000E+00  0.22076762406E+02  0.22076762406E+02  0.00000000000E+00 0. -1.
          2   -1    0    0  501    0  0.00000000000E+00 -0.00000000000E+00 -0.12287272222E+04  0.12287272222E+04  0.00000000000E+00 0. -1.
         25    1    1    2    0    0 -0.14925635051E+02 -0.10372817375E+03 -0.44474890235E+03  0.47242342740E+03  0.12000000000E+03 0.  0.
         25    1    1    2    0    0  0.14925635051E+02  0.10372817375E+03 -0.76190155745E+03  0.77838055722E+03  0.12000000000E+03 0.  0.
<mgrwt>
<rscale>  0 0.32940139E+03</rscale>
<asrwt>0</asrwt>
<pdfrwt beam="1">  1        2 0.18903503E+00 0.32940139E+03</pdfrwt>
<pdfrwt beam="2">  1       -2 0.33964238E-02 0.32940139E+03</pdfrwt>
<totfact> 0.67887492E+03</totfact>
</mgrwt>
</event>
<event>
 4    1  0.1774755E-004  0.2637706E+03  0.7818608E-02  0.1104899E+00
          2   -1    0    0  501    0  0.00000000000E+00  0.00000000000E+00  0.15066923893E+04  0.15066923893E+04  0.00000000000E+00 0. -1.
         -2   -1    0    0    0  501 -0.00000000000E+00 -0.00000000000E+00 -0.11544317047E+02  0.11544317047E+02  0.00000000000E+00 0. -1.
         25    1    1    2    0    0 -0.37666200473E+02  0.36716593767E+02  0.83427316560E+03  0.84449900282E+03  0.12000000000E+03 0.  0.
         25    1    1    2    0    0  0.37666200473E+02 -0.36716593767E+02  0.66087490664E+03  0.67373770352E+03  0.12000000000E+03 0.  0.
<mgrwt>
<rscale>  0 0.26377062E+03</rscale>
<asrwt>0</asrwt>
<pdfrwt beam="1">  1        2 0.23179867E+00 0.26377062E+03</pdfrwt>
<pdfrwt beam="2">  1       -2 0.17760500E-02 0.26377062E+03</pdfrwt>
<totfact> 0.12443485E+04</totfact>
</mgrwt>
</event>
<event>
 4    1  0.1774755E-004  0.2511959E+03  0.7818608E-02  0.1112551E+00
          2   -1    0    0  501    0  0.00000000000E+00  0.00000000000E+00  0.84884386294E+02  0.84884386294E+02  0.00000000000E+00 0. -1.
         -2   -1    0    0    0  501 -0.00000000000E+00 -0.00000000000E+00 -0.18583912992E+03  0.18583912992E+03  0.00000000000E+00 0. -1.
         25    1    1    2    0    0 -0.26226249356E+02 -0.12267809316E+02 -0.25513694661E+02  0.12605262360E+03  0.12000000000E+03 0.  0.
         25    1    1    2    0    0  0.26226249356E+02  0.12267809316E+02 -0.75441048961E+02  0.14467089261E+03  0.12000000000E+03 0.  0.
<mgrwt>
<rscale>  0 0.25119586E+03</rscale>
<asrwt>0</asrwt>
<pdfrwt beam="1">  1        2 0.13059137E-01 0.25119586E+03</pdfrwt>
<pdfrwt beam="2">  1       -2 0.28590635E-01 0.25119586E+03</pdfrwt>
<totfact> 0.50851882E+03</totfact>
</mgrwt>
</event>
<event>
 4    1  0.1774755E-004  0.2474170E+03  0.7818608E-02  0.1114948E+00
         -3   -1    0    0    0  501 -0.00000000000E+00  0.00000000000E+00  0.15087726538E+02  0.15087726538E+02  0.00000000000E+00 0.  1.
          3   -1    0    0  501    0  0.00000000000E+00 -0.00000000000E+00 -0.10143210220E+04  0.10143210220E+04  0.00000000000E+00 0.  1.
         25    1    1    2    0    0 -0.26175233714E+02 -0.72256904373E+01 -0.55329427123E+03  0.56680852502E+03  0.12000000000E+03 0.  0.
         25    1    1    2    0    0  0.26175233714E+02  0.72256904373E+01 -0.44593902420E+03  0.46260022348E+03  0.12000000000E+03 0.  0.
<mgrwt>
<rscale>  0 0.24741704E+03</rscale>
<asrwt>0</asrwt>
<pdfrwt beam="1">  1        3 0.15604945E+00 0.24741704E+03</pdfrwt>
<pdfrwt beam="2">  1       -3 0.23211877E-02 0.24741704E+03</pdfrwt>
<totfact> 0.59144103E+02</totfact>
</mgrwt>
</event>
<event>
 4    1  0.1774755E-004  0.3191080E+03  0.7818608E-02  0.1076061E+00
          1   -1    0    0  501    0  0.00000000000E+00  0.00000000000E+00  0.16454093967E+03  0.16454093967E+03  0.00000000000E+00 0. -1.
         -1   -1    0    0    0  501 -0.00000000000E+00 -0.00000000000E+00 -0.15471824457E+03  0.15471824457E+03  0.00000000000E+00 0. -1.
         25    1    1    2    0    0  0.51957081545E+02  0.73049391276E+02 -0.50084984985E+02  0.15793751172E+03  0.12000000000E+03 0.  0.
         25    1    1    2    0    0 -0.51957081545E+02 -0.73049391276E+02  0.59907680084E+02  0.16132167251E+03  0.12000000000E+03 0.  0.
<mgrwt>
<rscale>  0 0.31910804E+03</rscale>
<asrwt>0</asrwt>
<pdfrwt beam="1">  1        1 0.25313991E-01 0.31910804E+03</pdfrwt>
<pdfrwt beam="2">  1       -1 0.23802807E-01 0.31910804E+03</pdfrwt>
<totfact> 0.28478261E+03</totfact>
</mgrwt>
</event>
<event>
 4    1  0.1774755E-004  0.2801289E+03  0.7818608E-02  0.1095619E+00
          1   -1    0    0  501    0  0.00000000000E+00  0.00000000000E+00  0.30453699350E+02  0.30453699350E+02  0.00000000000E+00 0.  1.
         -1   -1    0    0    0  501 -0.00000000000E+00 -0.00000000000E+00 -0.64419286377E+03  0.64419286377E+03  0.00000000000E+00 0.  1.
         25    1    1    2    0    0  0.33858669856E+02 -0.40879313290E+02 -0.42486678806E+03  0.44466764597E+03  0.12000000000E+03 0.  0.
         25    1    1    2    0    0 -0.33858669856E+02  0.40879313290E+02 -0.18887237636E+03  0.22997891714E+03  0.12000000000E+03 0.  0.
<mgrwt>
<rscale>  0 0.28012894E+03</rscale>
<asrwt>0</asrwt>
<pdfrwt beam="1">  1        1 0.46851845E-02 0.28012894E+03</pdfrwt>
<pdfrwt beam="2">  1       -1 0.99106595E-01 0.28012894E+03</pdfrwt>
<totfact> 0.18733752E+03</totfact>
</mgrwt>
</event>
<event>
 4    1  0.1774755E-004  0.2797603E+03  0.7818608E-02  0.1095820E+00
          2   -1    0    0  501    0  0.00000000000E+00  0.00000000000E+00  0.26062904015E+03  0.26062904015E+03  0.00000000000E+00 0. -1.
         -2   -1    0    0    0  501 -0.00000000000E+00 -0.00000000000E+00 -0.75073954990E+02  0.75073954990E+02  0.00000000000E+00 0. -1.
         25    1    1    2    0    0 -0.50888478663E+02  0.15570663930E+02  0.34800772582E+02  0.13580565750E+03  0.12000000000E+03 0.  0.
         25    1    1    2    0    0  0.50888478663E+02 -0.15570663930E+02  0.15075431257E+03  0.19989733764E+03  0.12000000000E+03 0.  0.
<mgrwt>
<rscale>  0 0.27976027E+03</rscale>
<asrwt>0</asrwt>
<pdfrwt beam="1">  1        2 0.40096775E-01 0.27976027E+03</pdfrwt>
<pdfrwt beam="2">  1       -2 0.11549839E-01 0.27976027E+03</pdfrwt>
<totfact> 0.66605376E+03</totfact>
</mgrwt>
</event>
<event>
 4    1  0.1774755E-004  0.3132975E+03  0.7818608E-02  0.1078776E+00
         -1   -1    0    0    0  501 -0.00000000000E+00  0.00000000000E+00  0.37951101221E+02  0.37951101221E+02  0.00000000000E+00 0.  1.
          1   -1    0    0  501    0  0.00000000000E+00 -0.00000000000E+00 -0.64659074227E+03  0.64659074227E+03  0.00000000000E+00 0.  1.
         25    1    1    2    0    0 -0.76421279858E+02 -0.14703447225E+02 -0.16471439275E+03  0.21814498517E+03  0.12000000000E+03 0.  0.
         25    1    1    2    0    0  0.76421279858E+02  0.14703447225E+02 -0.44392524830E+03  0.46639685832E+03  0.12000000000E+03 0.  0.
<mgrwt>
<rscale>  0 0.31329750E+03</rscale>
<asrwt>0</asrwt>
<pdfrwt beam="1">  1        1 0.99475496E-01 0.31329750E+03</pdfrwt>
<pdfrwt beam="2">  1       -1 0.58386311E-02 0.31329750E+03</pdfrwt>
<totfact> 0.44094451E+03</totfact>
</mgrwt>
</event>
<event>
 4    1  0.1774755E-004  0.2710375E+03  0.7818608E-02  0.1100687E+00
         -2   -1    0    0    0  501 -0.00000000000E+00  0.00000000000E+00  0.14500903480E+03  0.14500903480E+03  0.00000000000E+00 0. -1.
          2   -1    0    0  501    0  0.00000000000E+00 -0.00000000000E+00 -0.12664954920E+03  0.12664954920E+03  0.00000000000E+00 0. -1.
         25    1    1    2    0    0 -0.18065740650E+02  0.36859597513E+02  0.57041951846E+02  0.13906396077E+03  0.12000000000E+03 0.  0.
         25    1    1    2    0    0  0.18065740650E+02 -0.36859597513E+02 -0.38682466251E+02  0.13259462323E+03  0.12000000000E+03 0.  0.
<mgrwt>
<rscale>  0 0.27103748E+03</rscale>
<asrwt>0</asrwt>
<pdfrwt beam="1">  1        2 0.19484546E-01 0.27103748E+03</pdfrwt>
<pdfrwt beam="2">  1       -2 0.22309082E-01 0.27103748E+03</pdfrwt>
<totfact> 0.49378713E+03</totfact>
</mgrwt>
</event>
<event>
 4    1  0.1774755E-004  0.3019755E+03  0.7818608E-02  0.1084257E+00
         -2   -1    0    0    0  501 -0.00000000000E+00  0.00000000000E+00  0.48518200535E+02  0.48518200535E+02  0.00000000000E+00 0. -1.
          2   -1    0    0  501    0  0.00000000000E+00 -0.00000000000E+00 -0.46987110285E+03  0.46987110285E+03  0.00000000000E+00 0. -1.
         25    1    1    2    0    0  0.70181381958E+02  0.43449703492E+02 -0.14235429847E+03  0.20366160512E+03  0.12000000000E+03 0.  0.
         25    1    1    2    0    0 -0.70181381958E+02 -0.43449703492E+02 -0.27899860385E+03  0.31472769827E+03  0.12000000000E+03 0.  0.
<mgrwt>
<rscale>  0 0.30197550E+03</rscale>
<asrwt>0</asrwt>
<pdfrwt beam="1">  1        2 0.72287863E-01 0.30197550E+03</pdfrwt>
<pdfrwt beam="2">  1       -2 0.74643384E-02 0.30197550E+03</pdfrwt>
<totfact> 0.70279863E+03</totfact>
</mgrwt>
</event>
<event>
 4    1  0.1774755E-004  0.2795431E+03  0.7818608E-02  0.1095939E+00
          3   -1    0    0  501    0  0.00000000000E+00  0.00000000000E+00  0.52905503105E+03  0.52905503105E+03  0.00000000000E+00 0. -1.
         -3   -1    0    0    0  501 -0.00000000000E+00 -0.00000000000E+00 -0.36926368215E+02  0.36926368215E+02  0.00000000000E+00 0. -1.
         25    1    1    2    0    0 -0.14864068501E+02 -0.16107584126E+02  0.38421254882E+03  0.40311248737E+03  0.12000000000E+03 0.  0.
         25    1    1    2    0    0  0.14864068501E+02  0.16107584126E+02  0.10791611401E+03  0.16286891189E+03  0.12000000000E+03 0.  0.
<mgrwt>
<rscale>  0 0.27954306E+03</rscale>
<asrwt>0</asrwt>
<pdfrwt beam="1">  1        3 0.81393076E-01 0.27954306E+03</pdfrwt>
<pdfrwt beam="2">  1       -3 0.56809801E-02 0.27954306E+03</pdfrwt>
<totfact> 0.67956294E+02</totfact>
</mgrwt>
</event>
<event>
 4    1  0.1774755E-004  0.2910514E+03  0.7818608E-02  0.1089801E+00
         -2   -1    0    0    0  501 -0.00000000000E+00  0.00000000000E+00  0.61931490328E+03  0.61931490328E+03  0.00000000000E+00 0. -1.
          2   -1    0    0  501    0  0.00000000000E+00 -0.00000000000E+00 -0.34195422659E+02  0.34195422659E+02  0.00000000000E+00 0. -1.
         25    1    1    2    0    0 -0.59163572538E+02 -0.17453577244E+02  0.41498302620E+03  0.43636666658E+03  0.12000000000E+03 0.  0.
         25    1    1    2    0    0  0.59163572538E+02  0.17453577244E+02  0.17013645442E+03  0.21714365935E+03  0.12000000000E+03 0.  0.
<mgrwt>
<rscale>  0 0.29105144E+03</rscale>
<asrwt>0</asrwt>
<pdfrwt beam="1">  1        2 0.52608347E-02 0.29105144E+03</pdfrwt>
<pdfrwt beam="2">  1       -2 0.95279208E-01 0.29105144E+03</pdfrwt>
<totfact> 0.14112818E+03</totfact>
</mgrwt>
</event>
<event>
 4    1  0.1774755E-004  0.2615414E+03  0.7818608E-02  0.1106221E+00
         -1   -1    0    0    0  501 -0.00000000000E+00  0.00000000000E+00  0.27967001671E+02  0.27967001671E+02  0.00000000000E+00 0.  1.
          1   -1    0    0  501    0  0.00000000000E+00 -0.00000000000E+00 -0.61146974204E+03  0.61146974204E+03  0.00000000000E+00 0.  1.
         25    1    1    2    0    0 -0.16664836468E+01  0.29910228524E+02 -0.18792099581E+03  0.22497044163E+03  0.12000000000E+03 0.  0.
         25    1    1    2    0    0  0.16664836468E+01 -0.29910228524E+02 -0.39558174456E+03  0.41446630208E+03  0.12000000000E+03 0.  0.
<mgrwt>
<rscale>  0 0.26154139E+03</rscale>
<asrwt>0</asrwt>
<pdfrwt beam="1">  1        1 0.94072280E-01 0.26154139E+03</pdfrwt>
<pdfrwt beam="2">  1       -1 0.43026151E-02 0.26154139E+03</pdfrwt>
<totfact> 0.75078714E+03</totfact>
</mgrwt>
</event>
<event>
 4    1  0.1774755E-004  0.3382311E+03  0.7818608E-02  0.1067552E+00
          2   -1    0    0  501    0  0.00000000000E+00  0.00000000000E+00  0.65141600194E+03  0.65141600194E+03  0.00000000000E+00 0.  1.
         -2   -1    0    0    0  501 -0.00000000000E+00 -0.00000000000E+00 -0.43904462017E+02  0.43904462017E+02  0.00000000000E+00 0.  1.
         25    1    1    2    0    0  0.11062169325E+03  0.14116833398E+01  0.21272229785E+03  0.26812297155E+03  0.12000000000E+03 0.  0.
         25    1    1    2    0    0 -0.11062169325E+03 -0.14116833398E+01  0.39478924207E+03  0.42719749241E+03  0.12000000000E+03 0.  0.
<mgrwt>
<rscale>  0 0.33823110E+03</rscale>
<asrwt>0</asrwt>
<pdfrwt beam="1">  1        2 0.10021784E+00 0.33823110E+03</pdfrwt>
<pdfrwt beam="2">  1       -2 0.67545331E-02 0.33823110E+03</pdfrwt>
<totfact> 0.56569730E+03</totfact>
</mgrwt>
</event>
<event>
 4    1  0.1774755E-004  0.2430691E+03  0.7818608E-02  0.1117765E+00
          1   -1    0    0  501    0  0.00000000000E+00  0.00000000000E+00  0.11503929507E+04  0.11503929507E+04  0.00000000000E+00 0.  1.
         -1   -1    0    0    0  501 -0.00000000000E+00 -0.00000000000E+00 -0.12839655437E+02  0.12839655437E+02  0.00000000000E+00 0.  1.
         25    1    1    2    0    0  0.10328502562E+02 -0.15970436236E+02  0.58306654981E+03  0.59559074398E+03  0.12000000000E+03 0.  0.
         25    1    1    2    0    0 -0.10328502562E+02  0.15970436236E+02  0.55448674549E+03  0.56764186220E+03  0.12000000000E+03 0.  0.
<mgrwt>
<rscale>  0 0.24306912E+03</rscale>
<asrwt>0</asrwt>
<pdfrwt beam="1">  1        1 0.17698345E+00 0.24306912E+03</pdfrwt>
<pdfrwt beam="2">  1       -1 0.19753325E-02 0.24306912E+03</pdfrwt>
<totfact> 0.86265556E+03</totfact>
</mgrwt>
</event>
<event>
 4    1  0.1774755E-004  0.2890277E+03  0.7818608E-02  0.1090858E+00
          2   -1    0    0  501    0  0.00000000000E+00  0.00000000000E+00  0.20937819307E+04  0.20937819307E+04  0.00000000000E+00 0.  1.
         -2   -1    0    0    0  501 -0.00000000000E+00 -0.00000000000E+00 -0.99744196906E+01  0.99744196906E+01  0.00000000000E+00 0.  1.
         25    1    1    2    0    0  0.25360267862E+02  0.36668125623E+02  0.15299897479E+04  0.15353358991E+04  0.12000000000E+03 0.  0.
         25    1    1    2    0    0 -0.25360267862E+02 -0.36668125623E+02  0.55381776313E+03  0.56842045123E+03  0.12000000000E+03 0.  0.
<mgrwt>
<rscale>  0 0.28902775E+03</rscale>
<asrwt>0</asrwt>
<pdfrwt beam="1">  1        2 0.32211995E+00 0.28902775E+03</pdfrwt>
<pdfrwt beam="2">  1       -2 0.15345278E-02 0.28902775E+03</pdfrwt>
<totfact> 0.75676174E+03</totfact>
</mgrwt>
</event>
<event>
 4    1  0.1774755E-004  0.2442324E+03  0.7818608E-02  0.1117005E+00
          2   -1    0    0  501    0  0.00000000000E+00  0.00000000000E+00  0.76014126481E+03  0.76014126481E+03  0.00000000000E+00 0.  1.
         -2   -1    0    0    0  501 -0.00000000000E+00 -0.00000000000E+00 -0.19617891444E+02  0.19617891444E+02  0.00000000000E+00 0.  1.
         25    1    1    2    0    0 -0.93832527954E+01  0.85413609081E+01  0.43010816564E+03  0.44671471257E+03  0.12000000000E+03 0.  0.
         25    1    1    2    0    0  0.93832527954E+01 -0.85413609081E+01  0.31041520773E+03  0.33304444368E+03  0.12000000000E+03 0.  0.
<mgrwt>
<rscale>  0 0.24423242E+03</rscale>
<asrwt>0</asrwt>
<pdfrwt beam="1">  1        2 0.11694479E+00 0.24423242E+03</pdfrwt>
<pdfrwt beam="2">  1       -2 0.30181377E-02 0.24423242E+03</pdfrwt>
<totfact> 0.15722683E+04</totfact>
</mgrwt>
</event>
<event>
 4    1  0.1774755E-004  0.2816078E+03  0.7818608E-02  0.1094814E+00
         -1   -1    0    0    0  501 -0.00000000000E+00  0.00000000000E+00  0.51632588957E+02  0.51632588957E+02  0.00000000000E+00 0. -1.
          1   -1    0    0  501    0  0.00000000000E+00 -0.00000000000E+00 -0.38397711068E+03  0.38397711068E+03  0.00000000000E+00 0. -1.
         25    1    1    2    0    0 -0.89713678656E+01 -0.49662933425E+02 -0.24916912530E+03  0.28112656474E+03  0.12000000000E+03 0.  0.
         25    1    1    2    0    0  0.89713678656E+01  0.49662933425E+02 -0.83175396414E+02  0.15448313489E+03  0.12000000000E+03 0.  0.
<mgrwt>
<rscale>  0 0.28160776E+03</rscale>
<asrwt>0</asrwt>
<pdfrwt beam="1">  1        1 0.59073401E-01 0.28160776E+03</pdfrwt>
<pdfrwt beam="2">  1       -1 0.79434753E-02 0.28160776E+03</pdfrwt>
<totfact> 0.55343039E+03</totfact>
</mgrwt>
</event>
<event>
 4    1  0.1774755E-004  0.3131824E+03  0.7818608E-02  0.1078830E+00
          1   -1    0    0  501    0  0.00000000000E+00  0.00000000000E+00  0.11178962767E+04  0.11178962767E+04  0.00000000000E+00 0. -1.
         -1   -1    0    0    0  501 -0.00000000000E+00 -0.00000000000E+00 -0.21934777231E+02  0.21934777231E+02  0.00000000000E+00 0. -1.
         25    1    1    2    0    0  0.70077933947E+02  0.63944298939E+02  0.66983731967E+03  0.68708210937E+03  0.12000000000E+03 0.  0.
         25    1    1    2    0    0 -0.70077933947E+02 -0.63944298939E+02  0.42612417980E+03  0.45274894456E+03  0.12000000000E+03 0.  0.
<mgrwt>
<rscale>  0 0.31318241E+03</rscale>
<asrwt>0</asrwt>
<pdfrwt beam="1">  1        1 0.17198400E+00 0.31318241E+03</pdfrwt>
<pdfrwt beam="2">  1       -1 0.33745820E-02 0.31318241E+03</pdfrwt>
<totfact> 0.41578869E+03</totfact>
</mgrwt>
</event>
<event>
 4    1  0.1774755E-004  0.2792140E+03  0.7818608E-02  0.1096119E+00
         -2   -1    0    0    0  501 -0.00000000000E+00  0.00000000000E+00  0.79098017906E+01  0.79098017906E+01  0.00000000000E+00 0. -1.
          2   -1    0    0  501    0  0.00000000000E+00 -0.00000000000E+00 -0.24640458502E+04  0.24640458502E+04  0.00000000000E+00 0. -1.
         25    1    1    2    0    0 -0.91634456884E+00 -0.14045971230E+01 -0.18595300428E+04  0.18633987207E+04  0.12000000000E+03 0.  0.
         25    1    1    2    0    0  0.91634456884E+00  0.14045971230E+01 -0.59660600570E+03  0.60855693129E+03  0.12000000000E+03 0.  0.
<mgrwt>
<rscale>  0 0.27921400E+03</rscale>
<asrwt>0</asrwt>
<pdfrwt beam="1">  1        2 0.37908391E+00 0.27921400E+03</pdfrwt>
<pdfrwt beam="2">  1       -2 0.12168928E-02 0.27921400E+03</pdfrwt>
<totfact> 0.67221490E+03</totfact>
</mgrwt>
</event>
<event>
 4    1  0.1774755E-004  0.3508392E+03  0.7818608E-02  0.1062271E+00
          2   -1    0    0  501    0  0.00000000000E+00  0.00000000000E+00  0.12996097017E+04  0.12996097017E+04  0.00000000000E+00 0.  1.
         -2   -1    0    0    0  501 -0.00000000000E+00 -0.00000000000E+00 -0.23677909170E+02  0.23677909170E+02  0.00000000000E+00 0.  1.
         25    1    1    2    0    0 -0.99537684098E+02 -0.18853902505E+02  0.93276406230E+03  0.94589217996E+03  0.12000000000E+03 0.  0.
         25    1    1    2    0    0  0.99537684098E+02  0.18853902505E+02  0.34316773019E+03  0.37739543086E+03  0.12000000000E+03 0.  0.
<mgrwt>
<rscale>  0 0.35083923E+03</rscale>
<asrwt>0</asrwt>
<pdfrwt beam="1">  1        2 0.19993990E+00 0.35083923E+03</pdfrwt>
<pdfrwt beam="2">  1       -2 0.36427563E-02 0.35083923E+03</pdfrwt>
<totfact> 0.55763113E+03</totfact>
</mgrwt>
</event>
<event>
 4    1  0.1774755E-004  0.3976004E+03  0.7818608E-02  0.1044614E+00
          1   -1    0    0  501    0  0.00000000000E+00  0.00000000000E+00  0.13624657900E+04  0.13624657900E+04  0.00000000000E+00 0.  1.
         -1   -1    0    0    0  501 -0.00000000000E+00 -0.00000000000E+00 -0.29007355165E+02  0.29007355165E+02  0.00000000000E+00 0.  1.
         25    1    1    2    0    0 -0.55364407248E+02 -0.39972927163E+02  0.16615945778E+03  0.21603707530E+03  0.12000000000E+03 0.  0.
         25    1    1    2    0    0  0.55364407248E+02  0.39972927163E+02  0.11672989770E+04  0.11754360698E+04  0.12000000000E+03 0.  0.
<mgrwt>
<rscale>  0 0.39760045E+03</rscale>
<asrwt>0</asrwt>
<pdfrwt beam="1">  1        1 0.20961007E+00 0.39760045E+03</pdfrwt>
<pdfrwt beam="2">  1       -1 0.44626711E-02 0.39760045E+03</pdfrwt>
<totfact> 0.18441075E+03</totfact>
</mgrwt>
</event>
<event>
 4    1  0.1774755E-004  0.2776624E+03  0.7818608E-02  0.1096973E+00
          2   -1    0    0  501    0  0.00000000000E+00  0.00000000000E+00  0.63438885619E+02  0.63438885619E+02  0.00000000000E+00 0. -1.
         -2   -1    0    0    0  501 -0.00000000000E+00 -0.00000000000E+00 -0.30382155926E+03  0.30382155926E+03  0.00000000000E+00 0. -1.
         25    1    1    2    0    0  0.42691061613E+01 -0.18673647424E+02 -0.31392127239E+02  0.12550854962E+03  0.12000000000E+03 0.  0.
         25    1    1    2    0    0 -0.42691061613E+01  0.18673647424E+02 -0.20899054640E+03  0.24175189526E+03  0.12000000000E+03 0.  0.
<mgrwt>
<rscale>  0 0.27766239E+03</rscale>
<asrwt>0</asrwt>
<pdfrwt beam="1">  1        2 0.97598285E-02 0.27766239E+03</pdfrwt>
<pdfrwt beam="2">  1       -2 0.46741779E-01 0.27766239E+03</pdfrwt>
<totfact> 0.28934076E+03</totfact>
</mgrwt>
</event>
<event>
 4    1  0.1774755E-004  0.3170201E+03  0.7818608E-02  0.1077029E+00
          2   -1    0    0  501    0  0.00000000000E+00  0.00000000000E+00  0.18371318269E+04  0.18371318269E+04  0.00000000000E+00 0. -1.
         -2   -1    0    0    0  501 -0.00000000000E+00 -0.00000000000E+00 -0.13676446554E+02  0.13676446554E+02  0.00000000000E+00 0. -1.
         25    1    1    2    0    0 -0.17044005802E+01 -0.74389190060E+02  0.49118778496E+03  0.51107934479E+03  0.12000000000E+03 0.  0.
         25    1    1    2    0    0  0.17044005802E+01  0.74389190060E+02  0.13322675954E+04  0.13397289287E+04  0.12000000000E+03 0.  0.
<mgrwt>
<rscale>  0 0.31702010E+03</rscale>
<asrwt>0</asrwt>
<pdfrwt beam="1">  1        2 0.28263547E+00 0.31702010E+03</pdfrwt>
<pdfrwt beam="2">  1       -2 0.21040702E-02 0.31702010E+03</pdfrwt>
<totfact> 0.64973184E+03</totfact>
</mgrwt>
</event>
<event>
 4    1  0.1774755E-004  0.2663032E+03  0.7818608E-02  0.1103414E+00
         -1   -1    0    0    0  501 -0.00000000000E+00  0.00000000000E+00  0.10691164781E+04  0.10691164781E+04  0.00000000000E+00 0. -1.
          1   -1    0    0  501    0  0.00000000000E+00 -0.00000000000E+00 -0.16583179424E+02  0.16583179424E+02  0.00000000000E+00 0. -1.
         25    1    1    2    0    0  0.41738372342E+02 -0.11711356500E+02  0.37101626395E+03  0.39234209017E+03  0.12000000000E+03 0.  0.
         25    1    1    2    0    0 -0.41738372342E+02  0.11711356500E+02  0.68151703472E+03  0.69335756736E+03  0.12000000000E+03 0.  0.
<mgrwt>
<rscale>  0 0.26630321E+03</rscale>
<asrwt>0</asrwt>
<pdfrwt beam="1">  1        1 0.25512592E-02 0.26630321E+03</pdfrwt>
<pdfrwt beam="2">  1       -1 0.16447940E+00 0.26630321E+03</pdfrwt>
<totfact> 0.12628012E+03</totfact>
</mgrwt>
</event>
<event>
 4    1  0.1774755E-004  0.3223367E+03  0.7818608E-02  0.1074579E+00
          1   -1    0    0  501    0  0.00000000000E+00  0.00000000000E+00  0.22752733779E+04  0.22752733779E+04  0.00000000000E+00 0.  1.
         -1   -1    0    0    0  501 -0.00000000000E+00 -0.00000000000E+00 -0.11416317037E+02  0.11416317037E+02  0.00000000000E+00 0.  1.
         25    1    1    2    0    0  0.49524249622E+02 -0.52356829228E+02  0.16986293397E+04  0.17043871398E+04  0.12000000000E+03 0.  0.
         25    1    1    2    0    0 -0.49524249622E+02  0.52356829228E+02  0.56522772120E+03  0.58230255510E+03  0.12000000000E+03 0.  0.
<mgrwt>
<rscale>  0 0.32233673E+03</rscale>
<asrwt>0</asrwt>
<pdfrwt beam="1">  1        1 0.35004170E+00 0.32233673E+03</pdfrwt>
<pdfrwt beam="2">  1       -1 0.17563583E-02 0.32233673E+03</pdfrwt>
<totfact> 0.18446013E+03</totfact>
</mgrwt>
</event>
<event>
 4    1  0.1774755E-004  0.3291271E+03  0.7818608E-02  0.1071524E+00
         -1   -1    0    0    0  501 -0.00000000000E+00  0.00000000000E+00  0.22363525465E+02  0.22363525465E+02  0.00000000000E+00 0. -1.
          1   -1    0    0  501    0  0.00000000000E+00 -0.00000000000E+00 -0.12109524970E+04  0.12109524970E+04  0.00000000000E+00 0. -1.
         25    1    1    2    0    0 -0.67037967624E+02  0.38501244013E+02 -0.28746195278E+03  0.32095297037E+03  0.12000000000E+03 0.  0.
         25    1    1    2    0    0  0.67037967624E+02 -0.38501244013E+02 -0.90112701872E+03  0.91236305206E+03  0.12000000000E+03 0.  0.
<mgrwt>
<rscale>  0 0.32912713E+03</rscale>
<asrwt>0</asrwt>
<pdfrwt beam="1">  1        1 0.18630041E+00 0.32912713E+03</pdfrwt>
<pdfrwt beam="2">  1       -1 0.34405419E-02 0.32912713E+03</pdfrwt>
<totfact> 0.34702342E+03</totfact>
</mgrwt>
</event>
<event>
 4    1  0.1774755E-004  0.2682491E+03  0.7818608E-02  0.1102286E+00
         -2   -1    0    0    0  501 -0.00000000000E+00  0.00000000000E+00  0.33877228710E+03  0.33877228710E+03  0.00000000000E+00 0. -1.
          2   -1    0    0  501    0  0.00000000000E+00 -0.00000000000E+00 -0.53101738988E+02  0.53101738988E+02  0.00000000000E+00 0. -1.
         25    1    1    2    0    0  0.15588009631E+02 -0.15440565467E+02  0.61393221510E+02  0.13656692408E+03  0.12000000000E+03 0.  0.
         25    1    1    2    0    0 -0.15588009631E+02  0.15440565467E+02  0.22427732660E+03  0.25530710200E+03  0.12000000000E+03 0.  0.
<mgrwt>
<rscale>  0 0.26824912E+03</rscale>
<asrwt>0</asrwt>
<pdfrwt beam="1">  1        2 0.81694985E-02 0.26824912E+03</pdfrwt>
<pdfrwt beam="2">  1       -2 0.52118812E-01 0.26824912E+03</pdfrwt>
<totfact> 0.29104862E+03</totfact>
</mgrwt>
</event>
<event>
 4    1  0.1774755E-004  0.3018104E+03  0.7818608E-02  0.1084339E+00
         -1   -1    0    0    0  501 -0.00000000000E+00  0.00000000000E+00  0.10934489419E+02  0.10934489419E+02  0.00000000000E+00 0.  1.
          1   -1    0    0  501    0  0.00000000000E+00 -0.00000000000E+00 -0.20826191857E+04  0.20826191857E+04  0.00000000000E+00 0.  1.
         25    1    1    2    0    0 -0.11791963737E+01  0.42920703513E+02 -0.47535397870E+03  0.49214325390E+03  0.12000000000E+03 0.  0.
         25    1    1    2    0    0  0.11791963737E+01 -0.42920703513E+02 -0.15963307176E+04  0.16014104212E+04  0.12000000000E+03 0.  0.
<mgrwt>
<rscale>  0 0.30181039E+03</rscale>
<asrwt>0</asrwt>
<pdfrwt beam="1">  1        1 0.32040286E+00 0.30181039E+03</pdfrwt>
<pdfrwt beam="2">  1       -1 0.16822296E-02 0.30181039E+03</pdfrwt>
<totfact> 0.26302249E+03</totfact>
</mgrwt>
</event>
<event>
 4    1  0.1774755E-004  0.2748631E+03  0.7818608E-02  0.1098528E+00
          1   -1    0    0  501    0  0.00000000000E+00  0.00000000000E+00  0.29790450138E+03  0.29790450138E+03  0.00000000000E+00 0. -1.
         -1   -1    0    0    0  501 -0.00000000000E+00 -0.00000000000E+00 -0.63400980098E+02  0.63400980098E+02  0.00000000000E+00 0. -1.
         25    1    1    2    0    0 -0.31211604963E+02 -0.10239511905E+02  0.19399408299E+03  0.23046196242E+03  0.12000000000E+03 0.  0.
         25    1    1    2    0    0  0.31211604963E+02  0.10239511905E+02  0.40509438294E+02  0.13084351906E+03  0.12000000000E+03 0.  0.
<mgrwt>
<rscale>  0 0.27486315E+03</rscale>
<asrwt>0</asrwt>
<pdfrwt beam="1">  1        1 0.45831461E-01 0.27486315E+03</pdfrwt>
<pdfrwt beam="2">  1       -1 0.97539971E-02 0.27486315E+03</pdfrwt>
<totfact> 0.55643391E+03</totfact>
</mgrwt>
</event>
<event>
 4    1  0.1774755E-004  0.2633688E+03  0.7818608E-02  0.1105136E+00
          2   -1    0    0  501    0  0.00000000000E+00  0.00000000000E+00  0.34623226342E+03  0.34623226342E+03  0.00000000000E+00 0. -1.
         -2   -1    0    0    0  501 -0.00000000000E+00 -0.00000000000E+00 -0.50084235101E+02  0.50084235101E+02  0.00000000000E+00 0. -1.
         25    1    1    2    0    0 -0.43686357206E+02  0.30154443373E+02  0.13138570070E+03  0.18568788493E+03  0.12000000000E+03 0.  0.
         25    1    1    2    0    0  0.43686357206E+02 -0.30154443373E+02  0.16476232762E+03  0.21062861359E+03  0.12000000000E+03 0.  0.
<mgrwt>
<rscale>  0 0.26336878E+03</rscale>
<asrwt>0</asrwt>
<pdfrwt beam="1">  1        2 0.53266500E-01 0.26336878E+03</pdfrwt>
<pdfrwt beam="2">  1       -2 0.77052672E-02 0.26336878E+03</pdfrwt>
<totfact> 0.92869774E+03</totfact>
</mgrwt>
</event>
<event>
 4    1  0.1774755E-004  0.2911146E+03  0.7818608E-02  0.1089769E+00
          2   -1    0    0  501    0  0.00000000000E+00  0.00000000000E+00  0.50373944932E+03  0.50373944932E+03  0.00000000000E+00 0.  1.
         -2   -1    0    0    0  501 -0.00000000000E+00 -0.00000000000E+00 -0.42059296221E+02  0.42059296221E+02  0.00000000000E+00 0.  1.
         25    1    1    2    0    0  0.21639090318E+01  0.81466715731E+02  0.20823123550E+03  0.25377501002E+03  0.12000000000E+03 0.  0.
         25    1    1    2    0    0 -0.21639090318E+01 -0.81466715731E+02  0.25344891760E+03  0.29202373552E+03  0.12000000000E+03 0.  0.
<mgrwt>
<rscale>  0 0.29111459E+03</rscale>
<asrwt>0</asrwt>
<pdfrwt beam="1">  1        2 0.77498373E-01 0.29111459E+03</pdfrwt>
<pdfrwt beam="2">  1       -2 0.64706613E-02 0.29111459E+03</pdfrwt>
<totfact> 0.81058223E+03</totfact>
</mgrwt>
</event>
<event>
 4    1  0.1774755E-004  0.2892703E+03  0.7818608E-02  0.1090731E+00
          2   -1    0    0  501    0  0.00000000000E+00  0.00000000000E+00  0.14594890637E+04  0.14594890637E+04  0.00000000000E+00 0.  1.
         -2   -1    0    0    0  501 -0.00000000000E+00 -0.00000000000E+00 -0.14333325926E+02  0.14333325926E+02  0.00000000000E+00 0.  1.
         25    1    1    2    0    0  0.22487918014E+02 -0.56892182697E+02  0.45409177544E+03  0.47364730278E+03  0.12000000000E+03 0.  0.
         25    1    1    2    0    0 -0.22487918014E+02  0.56892182697E+02  0.99106396233E+03  0.10001750868E+04  0.12000000000E+03 0.  0.
<mgrwt>
<rscale>  0 0.28927034E+03</rscale>
<asrwt>0</asrwt>
<pdfrwt beam="1">  1        2 0.22453666E+00 0.28927034E+03</pdfrwt>
<pdfrwt beam="2">  1       -2 0.22051282E-02 0.28927034E+03</pdfrwt>
<totfact> 0.96127292E+03</totfact>
</mgrwt>
</event>
<event>
 4    1  0.1774755E-004  0.2573975E+03  0.7818608E-02  0.1108717E+00
          2   -1    0    0  501    0  0.00000000000E+00  0.00000000000E+00  0.16793241801E+04  0.16793241801E+04  0.00000000000E+00 0. -1.
         -2   -1    0    0    0  501 -0.00000000000E+00 -0.00000000000E+00 -0.98631174082E+01  0.98631174082E+01  0.00000000000E+00 0. -1.
         25    1    1    2    0    0 -0.37471003229E+02  0.24591763034E+02  0.75314844192E+03  0.76396427041E+03  0.12000000000E+03 0.  0.
         25    1    1    2    0    0  0.37471003229E+02 -0.24591763034E+02  0.91631262075E+03  0.92522302708E+03  0.12000000000E+03 0.  0.
<mgrwt>
<rscale>  0 0.25739753E+03</rscale>
<asrwt>0</asrwt>
<pdfrwt beam="1">  1        2 0.25835734E+00 0.25739753E+03</pdfrwt>
<pdfrwt beam="2">  1       -2 0.15174040E-02 0.25739753E+03</pdfrwt>
<totfact> 0.12685350E+04</totfact>
</mgrwt>
</event>
<event>
 4    1  0.1774755E-004  0.2703304E+03  0.7818608E-02  0.1101091E+00
         -2   -1    0    0    0  501 -0.00000000000E+00  0.00000000000E+00  0.19362008392E+04  0.19362008392E+04  0.00000000000E+00 0.  1.
          2   -1    0    0  501    0  0.00000000000E+00 -0.00000000000E+00 -0.94358165448E+01  0.94358165448E+01  0.00000000000E+00 0.  1.
         25    1    1    2    0    0 -0.35653279154E+02  0.35653933301E+02  0.70117355435E+03  0.71315265729E+03  0.12000000000E+03 0.  0.
         25    1    1    2    0    0  0.35653279154E+02 -0.35653933301E+02  0.12255914683E+04  0.12324839984E+04  0.12000000000E+03 0.  0.
<mgrwt>
<rscale>  0 0.27033043E+03</rscale>
<asrwt>0</asrwt>
<pdfrwt beam="1">  1        2 0.14516656E-02 0.27033043E+03</pdfrwt>
<pdfrwt beam="2">  1       -2 0.29787674E+00 0.27033043E+03</pdfrwt>
<totfact> 0.32223768E+02</totfact>
</mgrwt>
</event>
<event>
 4    1  0.1774755E-004  0.2656738E+03  0.7818608E-02  0.1103781E+00
          1   -1    0    0  501    0  0.00000000000E+00  0.00000000000E+00  0.43896946802E+02  0.43896946802E+02  0.00000000000E+00 0.  1.
         -1   -1    0    0    0  501 -0.00000000000E+00 -0.00000000000E+00 -0.40197877262E+03  0.40197877262E+03  0.00000000000E+00 0.  1.
         25    1    1    2    0    0  0.52074213205E+02 -0.15568469475E+02 -0.15038501036E+03  0.19992436636E+03  0.12000000000E+03 0.  0.
         25    1    1    2    0    0 -0.52074213205E+02  0.15568469475E+02 -0.20769681545E+03  0.24595135306E+03  0.12000000000E+03 0.  0.
<mgrwt>
<rscale>  0 0.26567379E+03</rscale>
<asrwt>0</asrwt>
<pdfrwt beam="1">  1        1 0.67533765E-02 0.26567379E+03</pdfrwt>
<pdfrwt beam="2">  1       -1 0.61842888E-01 0.26567379E+03</pdfrwt>
<totfact> 0.29936538E+03</totfact>
</mgrwt>
</event>
<event>
 4    1  0.1774755E-004  0.2626046E+03  0.7818608E-02  0.1105588E+00
         -2   -1    0    0    0  501 -0.00000000000E+00  0.00000000000E+00  0.63065938112E+02  0.63065938112E+02  0.00000000000E+00 0. -1.
          2   -1    0    0  501    0  0.00000000000E+00 -0.00000000000E+00 -0.27336937018E+03  0.27336937018E+03  0.00000000000E+00 0. -1.
         25    1    1    2    0    0 -0.19443049122E+01 -0.52764525208E+02 -0.95875964007E+02  0.16241944439E+03  0.12000000000E+03 0.  0.
         25    1    1    2    0    0  0.19443049122E+01  0.52764525208E+02 -0.11442746806E+03  0.17401586390E+03  0.12000000000E+03 0.  0.
<mgrwt>
<rscale>  0 0.26260461E+03</rscale>
<asrwt>0</asrwt>
<pdfrwt beam="1">  1        2 0.42056827E-01 0.26260461E+03</pdfrwt>
<pdfrwt beam="2">  1       -2 0.97024518E-02 0.26260461E+03</pdfrwt>
<totfact> 0.83364432E+03</totfact>
</mgrwt>
</event>
<event>
 4    1  0.1774755E-004  0.3712701E+03  0.7818608E-02  0.1054208E+00
         -2   -1    0    0    0  501 -0.00000000000E+00  0.00000000000E+00  0.19008826561E+03  0.19008826561E+03  0.00000000000E+00 0.  1.
          2   -1    0    0  501    0  0.00000000000E+00 -0.00000000000E+00 -0.18128615164E+03  0.18128615164E+03  0.00000000000E+00 0.  1.
         25    1    1    2    0    0 -0.16749513469E+02 -0.14063411861E+03  0.57684175532E+01  0.18571961706E+03  0.12000000000E+03 0.  0.
         25    1    1    2    0    0  0.16749513469E+02  0.14063411861E+03  0.30336964213E+01  0.18565480019E+03  0.12000000000E+03 0.  0.
<mgrwt>
<rscale>  0 0.37127009E+03</rscale>
<asrwt>0</asrwt>
<pdfrwt beam="1">  1        2 0.27890177E-01 0.37127009E+03</pdfrwt>
<pdfrwt beam="2">  1       -2 0.29244349E-01 0.37127009E+03</pdfrwt>
<totfact> 0.20498579E+03</totfact>
</mgrwt>
</event>
<event>
 4    1  0.1774755E-004  0.2740034E+03  0.7818608E-02  0.1099010E+00
          1   -1    0    0  501    0  0.00000000000E+00  0.00000000000E+00  0.32096484523E+03  0.32096484523E+03  0.00000000000E+00 0. -1.
         -1   -1    0    0    0  501 -0.00000000000E+00 -0.00000000000E+00 -0.58478240629E+02  0.58478240629E+02  0.00000000000E+00 0. -1.
         25    1    1    2    0    0  0.32693965999E+02  0.50021702883E+02  0.17037234311E+03  0.21678976330E+03  0.12000000000E+03 0.  0.
         25    1    1    2    0    0 -0.32693965999E+02 -0.50021702883E+02  0.92114261491E+02  0.16265332257E+03  0.12000000000E+03 0.  0.
<mgrwt>
<rscale>  0 0.27400335E+03</rscale>
<asrwt>0</asrwt>
<pdfrwt beam="1">  1        1 0.49379206E-01 0.27400335E+03</pdfrwt>
<pdfrwt beam="2">  1       -1 0.89966526E-02 0.27400335E+03</pdfrwt>
<totfact> 0.57365552E+03</totfact>
</mgrwt>
</event>
<event>
 4    1  0.1774755E-004  0.2852398E+03  0.7818608E-02  0.1092861E+00
         -2   -1    0    0    0  501 -0.00000000000E+00  0.00000000000E+00  0.79947308303E+01  0.79947308303E+01  0.00000000000E+00 0.  1.
          2   -1    0    0  501    0  0.00000000000E+00 -0.00000000000E+00 -0.25442303921E+04  0.25442303921E+04  0.00000000000E+00 0.  1.
         25    1    1    2    0    0  0.19534343479E+02 -0.11169899538E+02 -0.19277044751E+04  0.19315669547E+04  0.12000000000E+03 0.  0.
         25    1    1    2    0    0 -0.19534343479E+02  0.11169899538E+02 -0.60853118621E+03  0.62065816825E+03  0.12000000000E+03 0.  0.
<mgrwt>
<rscale>  0 0.28523981E+03</rscale>
<asrwt>0</asrwt>
<pdfrwt beam="1">  1        2 0.39141990E+00 0.28523981E+03</pdfrwt>
<pdfrwt beam="2">  1       -2 0.12299591E-02 0.28523981E+03</pdfrwt>
<totfact> 0.59796757E+03</totfact>
</mgrwt>
</event>
<event>
 4    1  0.1774755E-004  0.2847166E+03  0.7818608E-02  0.1093140E+00
         -2   -1    0    0    0  501 -0.00000000000E+00  0.00000000000E+00  0.68046037091E+02  0.68046037091E+02  0.00000000000E+00 0. -1.
          2   -1    0    0  501    0  0.00000000000E+00 -0.00000000000E+00 -0.29782618456E+03  0.29782618456E+03  0.00000000000E+00 0. -1.
         25    1    1    2    0    0  0.50481087617E+02  0.91920211339E+01 -0.18795742119E+03  0.22882487986E+03  0.12000000000E+03 0.  0.
         25    1    1    2    0    0 -0.50481087617E+02 -0.91920211339E+01 -0.41822726275E+02  0.13704734179E+03  0.12000000000E+03 0.  0.
<mgrwt>
<rscale>  0 0.28471664E+03</rscale>
<asrwt>0</asrwt>
<pdfrwt beam="1">  1        2 0.45819413E-01 0.28471664E+03</pdfrwt>
<pdfrwt beam="2">  1       -2 0.10468621E-01 0.28471664E+03</pdfrwt>
<totfact> 0.67578468E+03</totfact>
</mgrwt>
</event>
<event>
 4    1  0.1774755E-004  0.2636334E+03  0.7818608E-02  0.1104980E+00
         -2   -1    0    0    0  501 -0.00000000000E+00  0.00000000000E+00  0.61460293861E+02  0.61460293861E+02  0.00000000000E+00 0. -1.
          2   -1    0    0  501    0  0.00000000000E+00 -0.00000000000E+00 -0.28271320830E+03  0.28271320830E+03  0.00000000000E+00 0. -1.
         25    1    1    2    0    0  0.39955676346E+02 -0.37037791222E+02 -0.11417367544E+03  0.17436709040E+03  0.12000000000E+03 0.  0.
         25    1    1    2    0    0 -0.39955676346E+02  0.37037791222E+02 -0.10707923901E+03  0.16980641177E+03  0.12000000000E+03 0.  0.
<mgrwt>
<rscale>  0 0.26363336E+03</rscale>
<asrwt>0</asrwt>
<pdfrwt beam="1">  1        2 0.43494340E-01 0.26363336E+03</pdfrwt>
<pdfrwt beam="2">  1       -2 0.94554297E-02 0.26363336E+03</pdfrwt>
<totfact> 0.83770294E+03</totfact>
</mgrwt>
</event>
<event>
 4    1  0.1774755E-004  0.3474626E+03  0.7818608E-02  0.1063661E+00
         -2   -1    0    0    0  501 -0.00000000000E+00  0.00000000000E+00  0.13648305753E+02  0.13648305753E+02  0.00000000000E+00 0. -1.
          2   -1    0    0  501    0  0.00000000000E+00 -0.00000000000E+00 -0.22114514414E+04  0.22114514414E+04  0.00000000000E+00 0. -1.
         25    1    1    2    0    0 -0.49751743605E+02  0.11325337394E+03 -0.95845368912E+03  0.97382495188E+03  0.12000000000E+03 0.  0.
         25    1    1    2    0    0  0.49751743605E+02 -0.11325337394E+03 -0.12393494465E+04  0.12512747953E+04  0.12000000000E+03 0.  0.
<mgrwt>
<rscale>  0 0.34746260E+03</rscale>
<asrwt>0</asrwt>
<pdfrwt beam="1">  1        2 0.34022325E+00 0.34746260E+03</pdfrwt>
<pdfrwt beam="2">  1       -2 0.20997396E-02 0.34746260E+03</pdfrwt>
<totfact> 0.41215305E+03</totfact>
</mgrwt>
</event>
<event>
 4    1  0.1774755E-004  0.3284166E+03  0.7818608E-02  0.1071840E+00
         -2   -1    0    0    0  501 -0.00000000000E+00  0.00000000000E+00  0.14697676180E+02  0.14697676180E+02  0.00000000000E+00 0.  1.
          2   -1    0    0  501    0  0.00000000000E+00 -0.00000000000E+00 -0.18346008705E+04  0.18346008705E+04  0.00000000000E+00 0.  1.
         25    1    1    2    0    0 -0.67202105716E+02  0.19939886909E+01 -0.40491223137E+03  0.42763771362E+03  0.12000000000E+03 0.  0.
         25    1    1    2    0    0  0.67202105716E+02 -0.19939886909E+01 -0.14149909630E+04  0.14216608331E+04  0.12000000000E+03 0.  0.
<mgrwt>
<rscale>  0 0.32841662E+03</rscale>
<asrwt>0</asrwt>
<pdfrwt beam="1">  1        2 0.28224627E+00 0.32841662E+03</pdfrwt>
<pdfrwt beam="2">  1       -2 0.22611811E-02 0.32841662E+03</pdfrwt>
<totfact> 0.58580463E+03</totfact>
</mgrwt>
</event>
<event>
 4    1  0.1774755E-004  0.3773018E+03  0.7818608E-02  0.1051936E+00
         -2   -1    0    0    0  501 -0.00000000000E+00  0.00000000000E+00  0.25240388432E+02  0.25240388432E+02  0.00000000000E+00 0.  1.
          2   -1    0    0  501    0  0.00000000000E+00 -0.00000000000E+00 -0.14100087554E+04  0.14100087554E+04  0.00000000000E+00 0.  1.
         25    1    1    2    0    0 -0.41853686988E+02  0.11832717842E+03 -0.41191654796E+03  0.44702158197E+03  0.12000000000E+03 0.  0.
         25    1    1    2    0    0  0.41853686988E+02 -0.11832717842E+03 -0.97285181901E+03  0.98822756186E+03  0.12000000000E+03 0.  0.
<mgrwt>
<rscale>  0 0.37730184E+03</rscale>
<asrwt>0</asrwt>
<pdfrwt beam="1">  1        2 0.21692443E+00 0.37730184E+03</pdfrwt>
<pdfrwt beam="2">  1       -2 0.38831366E-02 0.37730184E+03</pdfrwt>
<totfact> 0.43987612E+03</totfact>
</mgrwt>
</event>
<event>
 4    1  0.1774755E-004  0.5571659E+03  0.7818608E-02  0.9998488E-01
          2   -1    0    0  501    0  0.00000000000E+00  0.00000000000E+00  0.22964114904E+04  0.22964114904E+04  0.00000000000E+00 0. -1.
         -2   -1    0    0    0  501 -0.00000000000E+00 -0.00000000000E+00 -0.33795537853E+02  0.33795537853E+02  0.00000000000E+00 0. -1.
         25    1    1    2    0    0  0.47054617909E+02 -0.23987473023E+03  0.13771174901E+04  0.14037829621E+04  0.12000000000E+03 0.  0.
         25    1    1    2    0    0 -0.47054617909E+02  0.23987473023E+03  0.88549846247E+03  0.92642406613E+03  0.12000000000E+03 0.  0.
<mgrwt>
<rscale>  0 0.55716591E+03</rscale>
<asrwt>0</asrwt>
<pdfrwt beam="1">  1        2 0.35329395E+00 0.55716591E+03</pdfrwt>
<pdfrwt beam="2">  1       -2 0.51993153E-02 0.55716591E+03</pdfrwt>
<totfact> 0.92566998E+02</totfact>
</mgrwt>
</event>
<event>
 4    1  0.1774755E-004  0.2694081E+03  0.7818608E-02  0.1101619E+00
          1   -1    0    0  501    0  0.00000000000E+00  0.00000000000E+00  0.52364892251E+03  0.52364892251E+03  0.00000000000E+00 0. -1.
         -1   -1    0    0    0  501 -0.00000000000E+00 -0.00000000000E+00 -0.34651420255E+02  0.34651420255E+02  0.00000000000E+00 0. -1.
         25    1    1    2    0    0 -0.29827217316E+02 -0.28451440955E+02  0.33823626462E+03  0.36125187624E+03  0.12000000000E+03 0.  0.
         25    1    1    2    0    0  0.29827217316E+02  0.28451440955E+02  0.15076123763E+03  0.19704846652E+03  0.12000000000E+03 0.  0.
<mgrwt>
<rscale>  0 0.26940808E+03</rscale>
<asrwt>0</asrwt>
<pdfrwt beam="1">  1        1 0.80561367E-01 0.26940808E+03</pdfrwt>
<pdfrwt beam="2">  1       -1 0.53309881E-02 0.26940808E+03</pdfrwt>
<totfact> 0.67421467E+03</totfact>
</mgrwt>
</event>
<event>
 4    1  0.1774755E-004  0.3199146E+03  0.7818608E-02  0.1075689E+00
         -1   -1    0    0    0  501 -0.00000000000E+00  0.00000000000E+00  0.42658288955E+02  0.42658288955E+02  0.00000000000E+00 0. -1.
          1   -1    0    0  501    0  0.00000000000E+00 -0.00000000000E+00 -0.59979745888E+03  0.59979745888E+03  0.00000000000E+00 0. -1.
         25    1    1    2    0    0  0.63390746325E+02 -0.80105732962E+02 -0.33360400711E+03  0.36895385719E+03  0.12000000000E+03 0.  0.
         25    1    1    2    0    0 -0.63390746325E+02  0.80105732962E+02 -0.22353516281E+03  0.27350189065E+03  0.12000000000E+03 0.  0.
<mgrwt>
<rscale>  0 0.31991457E+03</rscale>
<asrwt>0</asrwt>
<pdfrwt beam="1">  1        1 0.92276532E-01 0.31991457E+03</pdfrwt>
<pdfrwt beam="2">  1       -1 0.65628137E-02 0.31991457E+03</pdfrwt>
<totfact> 0.41077895E+03</totfact>
</mgrwt>
</event>
<event>
 4    1  0.1774755E-004  0.2526141E+03  0.7818608E-02  0.1111664E+00
         -1   -1    0    0    0  501 -0.00000000000E+00  0.00000000000E+00  0.19284291992E+02  0.19284291992E+02  0.00000000000E+00 0. -1.
          1   -1    0    0  501    0  0.00000000000E+00 -0.00000000000E+00 -0.82727789147E+03  0.82727789147E+03  0.00000000000E+00 0. -1.
         25    1    1    2    0    0  0.11994785169E+02 -0.32648264594E+02 -0.34186968307E+03  0.36398442859E+03  0.12000000000E+03 0.  0.
         25    1    1    2    0    0 -0.11994785169E+02  0.32648264594E+02 -0.46612391641E+03  0.48257775487E+03  0.12000000000E+03 0.  0.
<mgrwt>
<rscale>  0 0.25261408E+03</rscale>
<asrwt>0</asrwt>
<pdfrwt beam="1">  1        1 0.12727351E+00 0.25261408E+03</pdfrwt>
<pdfrwt beam="2">  1       -1 0.29668143E-02 0.25261408E+03</pdfrwt>
<totfact> 0.83403120E+03</totfact>
</mgrwt>
</event>
<event>
 4    1  0.1774755E-004  0.3210799E+03  0.7818608E-02  0.1075153E+00
         -2   -1    0    0    0  501 -0.00000000000E+00  0.00000000000E+00  0.68232386150E+02  0.68232386150E+02  0.00000000000E+00 0. -1.
          2   -1    0    0  501    0  0.00000000000E+00 -0.00000000000E+00 -0.37772487641E+03  0.37772487641E+03  0.00000000000E+00 0. -1.
         25    1    1    2    0    0 -0.58897904306E+02  0.72372001099E+02 -0.83025826127E+02  0.17320495801E+03  0.12000000000E+03 0.  0.
         25    1    1    2    0    0  0.58897904306E+02 -0.72372001099E+02 -0.22646666413E+03  0.27275230455E+03  0.12000000000E+03 0.  0.
<mgrwt>
<rscale>  0 0.32107986E+03</rscale>
<asrwt>0</asrwt>
<pdfrwt beam="1">  1        2 0.58111521E-01 0.32107986E+03</pdfrwt>
<pdfrwt beam="2">  1       -2 0.10497290E-01 0.32107986E+03</pdfrwt>
<totfact> 0.52218780E+03</totfact>
</mgrwt>
</event>
<event>
 4    1  0.1774755E-004  0.4318093E+03  0.7818608E-02  0.1033290E+00
          1   -1    0    0  501    0  0.00000000000E+00  0.00000000000E+00  0.72484111148E+03  0.72484111148E+03  0.00000000000E+00 0. -1.
         -1   -1    0    0    0  501 -0.00000000000E+00 -0.00000000000E+00 -0.64310400785E+02  0.64310400785E+02  0.00000000000E+00 0. -1.
         25    1    1    2    0    0  0.14751799717E+03 -0.13020065971E+01  0.14342998423E+03  0.23819197108E+03  0.12000000000E+03 0.  0.
         25    1    1    2    0    0 -0.14751799717E+03  0.13020065971E+01  0.51710072647E+03  0.55095954119E+03  0.12000000000E+03 0.  0.
<mgrwt>
<rscale>  0 0.43180932E+03</rscale>
<asrwt>0</asrwt>
<pdfrwt beam="1">  1        1 0.11151401E+00 0.43180932E+03</pdfrwt>
<pdfrwt beam="2">  1       -1 0.98939083E-02 0.43180932E+03</pdfrwt>
<totfact> 0.16625134E+03</totfact>
</mgrwt>
</event>
<event>
 4    1  0.1774755E-004  0.2599254E+03  0.7818608E-02  0.1107188E+00
          2   -1    0    0  501    0  0.00000000000E+00  0.00000000000E+00  0.31395590287E+03  0.31395590287E+03  0.00000000000E+00 0. -1.
         -2   -1    0    0    0  501 -0.00000000000E+00 -0.00000000000E+00 -0.53798340698E+02  0.53798340698E+02  0.00000000000E+00 0. -1.
         25    1    1    2    0    0 -0.17701472724E+02  0.46128350163E+02  0.12016074623E+03  0.17686088250E+03  0.12000000000E+03 0.  0.
         25    1    1    2    0    0  0.17701472724E+02 -0.46128350163E+02  0.13999681595E+03  0.19089336107E+03  0.12000000000E+03 0.  0.
<mgrwt>
<rscale>  0 0.25992542E+03</rscale>
<asrwt>0</asrwt>
<pdfrwt beam="1">  1        2 0.48300907E-01 0.25992542E+03</pdfrwt>
<pdfrwt beam="2">  1       -2 0.82766680E-02 0.25992542E+03</pdfrwt>
<totfact> 0.92228279E+03</totfact>
</mgrwt>
</event>
<event>
 4    1  0.1774755E-004  0.3886582E+03  0.7818608E-02  0.1047779E+00
          2   -1    0    0  501    0  0.00000000000E+00  0.00000000000E+00  0.42719649694E+04  0.42719649694E+04  0.00000000000E+00 0.  1.
         -2   -1    0    0    0  501 -0.00000000000E+00 -0.00000000000E+00 -0.88399149290E+01  0.88399149290E+01  0.00000000000E+00 0.  1.
         25    1    1    2    0    0  0.13565571544E+03 -0.22001378440E+02  0.13945678560E+04  0.14064515771E+04  0.12000000000E+03 0.  0.
         25    1    1    2    0    0 -0.13565571544E+03  0.22001378440E+02  0.28685571984E+04  0.28743533072E+04  0.12000000000E+03 0.  0.
<mgrwt>
<rscale>  0 0.38865824E+03</rscale>
<asrwt>0</asrwt>
<pdfrwt beam="1">  1        2 0.65722373E+00 0.38865824E+03</pdfrwt>
<pdfrwt beam="2">  1       -2 0.13599903E-02 0.38865824E+03</pdfrwt>
<totfact> 0.35656563E+02</totfact>
</mgrwt>
</event>
<event>
 4    1  0.1774755E-004  0.2449040E+03  0.7818608E-02  0.1116568E+00
         -2   -1    0    0    0  501 -0.00000000000E+00  0.00000000000E+00  0.53387166215E+02  0.53387166215E+02  0.00000000000E+00 0. -1.
          2   -1    0    0  501    0  0.00000000000E+00 -0.00000000000E+00 -0.28086314171E+03  0.28086314171E+03  0.00000000000E+00 0. -1.
         25    1    1    2    0    0 -0.93612280458E+01  0.15789902940E+02 -0.91835524299E+02  0.15221930610E+03  0.12000000000E+03 0.  0.
         25    1    1    2    0    0  0.93612280458E+01 -0.15789902940E+02 -0.13564045120E+03  0.18203100183E+03  0.12000000000E+03 0.  0.
<mgrwt>
<rscale>  0 0.24490396E+03</rscale>
<asrwt>0</asrwt>
<pdfrwt beam="1">  1        2 0.43209714E-01 0.24490396E+03</pdfrwt>
<pdfrwt beam="2">  1       -2 0.82134103E-02 0.24490396E+03</pdfrwt>
<totfact> 0.10490953E+04</totfact>
</mgrwt>
</event>
<event>
 4    1  0.1774755E-004  0.3502701E+03  0.7818608E-02  0.1062504E+00
          2   -1    0    0  501    0  0.00000000000E+00  0.00000000000E+00  0.88029899874E+02  0.88029899874E+02  0.00000000000E+00 0.  1.
         -2   -1    0    0    0  501 -0.00000000000E+00 -0.00000000000E+00 -0.34843021977E+03  0.34843021977E+03  0.00000000000E+00 0.  1.
         25    1    1    2    0    0 -0.82117224494E+02 -0.55834239865E+02 -0.22997567382E+03  0.27775800879E+03  0.12000000000E+03 0.  0.
         25    1    1    2    0    0  0.82117224494E+02  0.55834239865E+02 -0.30424646078E+02  0.15870211085E+03  0.12000000000E+03 0.  0.
<mgrwt>
<rscale>  0 0.35027005E+03</rscale>
<asrwt>0</asrwt>
<pdfrwt beam="1">  1        2 0.13543061E-01 0.35027005E+03</pdfrwt>
<pdfrwt beam="2">  1       -2 0.53604649E-01 0.35027005E+03</pdfrwt>
<totfact> 0.14783230E+03</totfact>
</mgrwt>
</event>
<event>
 4    1  0.1774755E-004  0.3537413E+03  0.7818608E-02  0.1061090E+00
         -2   -1    0    0    0  501 -0.00000000000E+00  0.00000000000E+00  0.25133648062E+03  0.25133648062E+03  0.00000000000E+00 0. -1.
          2   -1    0    0  501    0  0.00000000000E+00 -0.00000000000E+00 -0.12446752310E+03  0.12446752310E+03  0.00000000000E+00 0. -1.
         25    1    1    2    0    0 -0.13116254912E+02  0.10944471034E+03 -0.96535238627E+01  0.16322797336E+03  0.12000000000E+03 0.  0.
         25    1    1    2    0    0  0.13116254912E+02 -0.10944471034E+03  0.13652248139E+03  0.21257603037E+03  0.12000000000E+03 0.  0.
<mgrwt>
<rscale>  0 0.35374131E+03</rscale>
<asrwt>0</asrwt>
<pdfrwt beam="1">  1        2 0.19148850E-01 0.35374131E+03</pdfrwt>
<pdfrwt beam="2">  1       -2 0.38667151E-01 0.35374131E+03</pdfrwt>
<totfact> 0.18665771E+03</totfact>
</mgrwt>
</event>
<event>
 4    1  0.1774755E-004  0.3251950E+03  0.7818608E-02  0.1073283E+00
         -1   -1    0    0    0  501 -0.00000000000E+00  0.00000000000E+00  0.48450483434E+02  0.48450483434E+02  0.00000000000E+00 0. -1.
          1   -1    0    0  501    0  0.00000000000E+00 -0.00000000000E+00 -0.54566947026E+03  0.54566947026E+03  0.00000000000E+00 0. -1.
         25    1    1    2    0    0 -0.14231887684E+02 -0.48386510863E+02 -0.70593808651E+02  0.14807865099E+03  0.12000000000E+03 0.  0.
         25    1    1    2    0    0  0.14231887684E+02  0.48386510863E+02 -0.42662517818E+03  0.44604130270E+03  0.12000000000E+03 0.  0.
<mgrwt>
<rscale>  0 0.32519502E+03</rscale>
<asrwt>0</asrwt>
<pdfrwt beam="1">  1        1 0.83949155E-01 0.32519502E+03</pdfrwt>
<pdfrwt beam="2">  1       -1 0.74539200E-02 0.32519502E+03</pdfrwt>
<totfact> 0.38554988E+03</totfact>
</mgrwt>
</event>
<event>
 4    1  0.1774755E-004  0.2626263E+03  0.7818608E-02  0.1105576E+00
          1   -1    0    0  501    0  0.00000000000E+00  0.00000000000E+00  0.44197790072E+03  0.44197790072E+03  0.00000000000E+00 0. -1.
         -1   -1    0    0    0  501 -0.00000000000E+00 -0.00000000000E+00 -0.39013573000E+02  0.39013573000E+02  0.00000000000E+00 0. -1.
         25    1    1    2    0    0  0.17274468567E+02  0.50355410562E+02  0.20699559844E+03  0.24511477396E+03  0.12000000000E+03 0.  0.
         25    1    1    2    0    0 -0.17274468567E+02 -0.50355410562E+02  0.19596872928E+03  0.23587669977E+03  0.12000000000E+03 0.  0.
<mgrwt>
<rscale>  0 0.26262625E+03</rscale>
<asrwt>0</asrwt>
<pdfrwt beam="1">  1        1 0.67996597E-01 0.26262625E+03</pdfrwt>
<pdfrwt beam="2">  1       -1 0.60020885E-02 0.26262625E+03</pdfrwt>
<totfact> 0.70479038E+03</totfact>
</mgrwt>
</event>
<event>
 4    1  0.1774755E-004  0.2849132E+03  0.7818608E-02  0.1093035E+00
          2   -1    0    0  501    0  0.00000000000E+00  0.00000000000E+00  0.13709765293E+03  0.13709765293E+03  0.00000000000E+00 0. -1.
         -2   -1    0    0    0  501 -0.00000000000E+00 -0.00000000000E+00 -0.14802505756E+03  0.14802505756E+03  0.00000000000E+00 0. -1.
         25    1    1    2    0    0 -0.99506940561E+00  0.70548389093E+02  0.24821108426E+02  0.14140068172E+03  0.12000000000E+03 0.  0.
         25    1    1    2    0    0  0.99506940561E+00 -0.70548389093E+02 -0.35748513054E+02  0.14372202876E+03  0.12000000000E+03 0.  0.
<mgrwt>
<rscale>  0 0.28491324E+03</rscale>
<asrwt>0</asrwt>
<pdfrwt beam="1">  1        2 0.21091947E-01 0.28491324E+03</pdfrwt>
<pdfrwt beam="2">  1       -2 0.22773086E-01 0.28491324E+03</pdfrwt>
<totfact> 0.43585091E+03</totfact>
</mgrwt>
</event>
<event>
 4    1  0.1774755E-004  0.3032336E+03  0.7818608E-02  0.1083635E+00
          2   -1    0    0  501    0  0.00000000000E+00  0.00000000000E+00  0.73136852928E+02  0.73136852928E+02  0.00000000000E+00 0.  1.
         -2   -1    0    0    0  501 -0.00000000000E+00 -0.00000000000E+00 -0.31431014931E+03  0.31431014931E+03  0.00000000000E+00 0.  1.
         25    1    1    2    0    0 -0.18207873679E+02  0.33552613755E+02 -0.12694357170E+02  0.12656402039E+03  0.12000000000E+03 0.  0.
         25    1    1    2    0    0  0.18207873679E+02 -0.33552613755E+02 -0.22847893921E+03  0.26088298184E+03  0.12000000000E+03 0.  0.
<mgrwt>
<rscale>  0 0.30323361E+03</rscale>
<asrwt>0</asrwt>
<pdfrwt beam="1">  1        2 0.11251824E-01 0.30323361E+03</pdfrwt>
<pdfrwt beam="2">  1       -2 0.48355407E-01 0.30323361E+03</pdfrwt>
<totfact> 0.22736995E+03</totfact>
</mgrwt>
</event>
<event>
 4    1  0.1774755E-004  0.2707427E+03  0.7818608E-02  0.1100855E+00
          1   -1    0    0  501    0  0.00000000000E+00  0.00000000000E+00  0.89817708724E+02  0.89817708724E+02  0.00000000000E+00 0.  1.
         -1   -1    0    0    0  501 -0.00000000000E+00 -0.00000000000E+00 -0.20402876752E+03  0.20402876752E+03  0.00000000000E+00 0.  1.
         25    1    1    2    0    0  0.32118007098E+02  0.38817222745E+02 -0.16684220757E+02  0.13121244752E+03  0.12000000000E+03 0.  0.
         25    1    1    2    0    0 -0.32118007098E+02 -0.38817222745E+02 -0.97526838042E+02  0.16263402873E+03  0.12000000000E+03 0.  0.
<mgrwt>
<rscale>  0 0.27074266E+03</rscale>
<asrwt>0</asrwt>
<pdfrwt beam="1">  1        1 0.13818109E-01 0.27074266E+03</pdfrwt>
<pdfrwt beam="2">  1       -1 0.31389041E-01 0.27074266E+03</pdfrwt>
<totfact> 0.39033486E+03</totfact>
</mgrwt>
</event>
<event>
 4    1  0.1774755E-004  0.3134586E+03  0.7818608E-02  0.1078700E+00
         -2   -1    0    0    0  501 -0.00000000000E+00  0.00000000000E+00  0.89346653626E+02  0.89346653626E+02  0.00000000000E+00 0.  1.
          2   -1    0    0  501    0  0.00000000000E+00 -0.00000000000E+00 -0.27493006128E+03  0.27493006128E+03  0.00000000000E+00 0.  1.
         25    1    1    2    0    0  0.35212555100E+02 -0.71101110712E+02 -0.20508286484E+02  0.14531304758E+03  0.12000000000E+03 0.  0.
         25    1    1    2    0    0 -0.35212555100E+02  0.71101110712E+02 -0.16507512117E+03  0.21896366733E+03  0.12000000000E+03 0.  0.
<mgrwt>
<rscale>  0 0.31345865E+03</rscale>
<asrwt>0</asrwt>
<pdfrwt beam="1">  1        2 0.42296932E-01 0.31345865E+03</pdfrwt>
<pdfrwt beam="2">  1       -2 0.13745639E-01 0.31345865E+03</pdfrwt>
<totfact> 0.47545181E+03</totfact>
</mgrwt>
</event>
<event>
 4    1  0.1774755E-004  0.2753564E+03  0.7818608E-02  0.1098253E+00
         -2   -1    0    0    0  501 -0.00000000000E+00  0.00000000000E+00  0.54034313645E+02  0.54034313645E+02  0.00000000000E+00 0. -1.
          2   -1    0    0  501    0  0.00000000000E+00 -0.00000000000E+00 -0.35080083691E+03  0.35080083691E+03  0.00000000000E+00 0. -1.
         25    1    1    2    0    0 -0.30945861932E+02 -0.12605155764E+02 -0.62168199559E+02  0.13921717336E+03  0.12000000000E+03 0.  0.
         25    1    1    2    0    0  0.30945861932E+02  0.12605155764E+02 -0.23459832370E+03  0.26561797719E+03  0.12000000000E+03 0.  0.
<mgrwt>
<rscale>  0 0.27535637E+03</rscale>
<asrwt>0</asrwt>
<pdfrwt beam="1">  1        2 0.53969360E-01 0.27535637E+03</pdfrwt>
<pdfrwt beam="2">  1       -2 0.83129713E-02 0.27535637E+03</pdfrwt>
<totfact> 0.81475083E+03</totfact>
</mgrwt>
</event>
<event>
 4    1  0.1774755E-004  0.3614737E+03  0.7818608E-02  0.1058002E+00
          2   -1    0    0  501    0  0.00000000000E+00  0.00000000000E+00  0.17942872220E+04  0.17942872220E+04  0.00000000000E+00 0. -1.
         -2   -1    0    0    0  501 -0.00000000000E+00 -0.00000000000E+00 -0.18205450626E+02  0.18205450626E+02  0.00000000000E+00 0. -1.
         25    1    1    2    0    0 -0.40607993258E+02  0.67015184573E+02  0.33589465824E+03  0.36519209400E+03  0.12000000000E+03 0.  0.
         25    1    1    2    0    0  0.40607993258E+02 -0.67015184573E+02  0.14401871131E+04  0.14473005786E+04  0.12000000000E+03 0.  0.
<mgrwt>
<rscale>  0 0.36147369E+03</rscale>
<asrwt>0</asrwt>
<pdfrwt beam="1">  1        2 0.27604405E+00 0.36147369E+03</pdfrwt>
<pdfrwt beam="2">  1       -2 0.28008400E-02 0.36147369E+03</pdfrwt>
<totfact> 0.44719352E+03</totfact>
</mgrwt>
</event>
<event>
 4    1  0.1774755E-004  0.2479365E+03  0.7818608E-02  0.1114616E+00
         -2   -1    0    0    0  501 -0.00000000000E+00  0.00000000000E+00  0.79426804614E+02  0.79426804614E+02  0.00000000000E+00 0.  1.
          2   -1    0    0  501    0  0.00000000000E+00 -0.00000000000E+00 -0.19348788834E+03  0.19348788834E+03  0.00000000000E+00 0.  1.
         25    1    1    2    0    0 -0.67562086788E+01 -0.48035158168E+01 -0.24019135109E+02  0.12266066595E+03  0.12000000000E+03 0.  0.
         25    1    1    2    0    0  0.67562086788E+01  0.48035158168E+01 -0.90041948618E+02  0.15025402700E+03  0.12000000000E+03 0.  0.
<mgrwt>
<rscale>  0 0.24793648E+03</rscale>
<asrwt>0</asrwt>
<pdfrwt beam="1">  1        2 0.29767367E-01 0.24793648E+03</pdfrwt>
<pdfrwt beam="2">  1       -2 0.12219508E-01 0.24793648E+03</pdfrwt>
<totfact> 0.83645771E+03</totfact>
</mgrwt>
</event>
<event>
 4    1  0.1774755E-004  0.3022372E+03  0.7818608E-02  0.1084128E+00
         -1   -1    0    0    0  501 -0.00000000000E+00  0.00000000000E+00  0.19089990780E+02  0.19089990780E+02  0.00000000000E+00 0.  1.
          1   -1    0    0  501    0  0.00000000000E+00 -0.00000000000E+00 -0.11962723974E+04  0.11962723974E+04  0.00000000000E+00 0.  1.
         25    1    1    2    0    0 -0.25349785426E+02 -0.34401521545E+02 -0.26163968939E+03  0.29100069307E+03  0.12000000000E+03 0.  0.
         25    1    1    2    0    0  0.25349785426E+02  0.34401521545E+02 -0.91554271724E+03  0.92436169511E+03  0.12000000000E+03 0.  0.
<mgrwt>
<rscale>  0 0.30223719E+03</rscale>
<asrwt>0</asrwt>
<pdfrwt beam="1">  1        1 0.18404191E+00 0.30223719E+03</pdfrwt>
<pdfrwt beam="2">  1       -1 0.29369216E-02 0.30223719E+03</pdfrwt>
<totfact> 0.44917492E+03</totfact>
</mgrwt>
</event>
<event>
 4    1  0.1774755E-004  0.3283847E+03  0.7818608E-02  0.1071854E+00
         -2   -1    0    0    0  501 -0.00000000000E+00  0.00000000000E+00  0.14876167863E+03  0.14876167863E+03  0.00000000000E+00 0.  1.
          2   -1    0    0  501    0  0.00000000000E+00 -0.00000000000E+00 -0.18122356471E+03  0.18122356471E+03  0.00000000000E+00 0.  1.
         25    1    1    2    0    0  0.10183593541E+03 -0.12427712299E+02 -0.61551945059E+02  0.16945101863E+03  0.12000000000E+03 0.  0.
         25    1    1    2    0    0 -0.10183593541E+03  0.12427712299E+02  0.29090058983E+02  0.16053422471E+03  0.12000000000E+03 0.  0.
<mgrwt>
<rscale>  0 0.32838466E+03</rscale>
<asrwt>0</asrwt>
<pdfrwt beam="1">  1        2 0.27880548E-01 0.32838466E+03</pdfrwt>
<pdfrwt beam="2">  1       -2 0.22886412E-01 0.32838466E+03</pdfrwt>
<totfact> 0.31686160E+03</totfact>
</mgrwt>
</event>
<event>
 4    1  0.1774755E-004  0.2647180E+03  0.7818608E-02  0.1104341E+00
         -4   -1    0    0    0  501 -0.00000000000E+00  0.00000000000E+00  0.27271135581E+02  0.27271135581E+02  0.00000000000E+00 0. -1.
          4   -1    0    0  501    0  0.00000000000E+00 -0.00000000000E+00 -0.64239745238E+03  0.64239745238E+03  0.00000000000E+00 0. -1.
         25    1    1    2    0    0 -0.10514841380E+02 -0.54749152662E+02 -0.29922021526E+03  0.32717085571E+03  0.12000000000E+03 0.  0.
         25    1    1    2    0    0  0.10514841380E+02  0.54749152662E+02 -0.31590610153E+03  0.34249773224E+03  0.12000000000E+03 0.  0.
<mgrwt>
<rscale>  0 0.26471802E+03</rscale>
<asrwt>0</asrwt>
<pdfrwt beam="1">  1        4 0.98830372E-01 0.26471802E+03</pdfrwt>
<pdfrwt beam="2">  1       -4 0.41955595E-02 0.26471802E+03</pdfrwt>
<totfact> 0.51818161E+02</totfact>
</mgrwt>
</event>
<event>
 4    1  0.1774755E-004  0.2880551E+03  0.7818608E-02  0.1091369E+00
          2   -1    0    0  501    0  0.00000000000E+00  0.00000000000E+00  0.17011303957E+04  0.17011303957E+04  0.00000000000E+00 0. -1.
         -2   -1    0    0    0  501 -0.00000000000E+00 -0.00000000000E+00 -0.12194206141E+02  0.12194206141E+02  0.00000000000E+00 0. -1.
         25    1    1    2    0    0  0.32590730372E+02  0.63551712802E+02  0.63477097970E+03  0.64995013084E+03  0.12000000000E+03 0.  0.
         25    1    1    2    0    0 -0.32590730372E+02 -0.63551712802E+02  0.10541652098E+04  0.10633744710E+04  0.12000000000E+03 0.  0.
<mgrwt>
<rscale>  0 0.28805510E+03</rscale>
<asrwt>0</asrwt>
<pdfrwt beam="1">  1        2 0.26171218E+00 0.28805510E+03</pdfrwt>
<pdfrwt beam="2">  1       -2 0.18760331E-02 0.28805510E+03</pdfrwt>
<totfact> 0.90707054E+03</totfact>
</mgrwt>
</event>
<event>
 4    1  0.1774755E-004  0.2465427E+03  0.7818608E-02  0.1115509E+00
         -1   -1    0    0    0  501 -0.00000000000E+00  0.00000000000E+00  0.21329349466E+03  0.21329349466E+03  0.00000000000E+00 0. -1.
          1   -1    0    0  501    0  0.00000000000E+00 -0.00000000000E+00 -0.71243763968E+02  0.71243763968E+02  0.00000000000E+00 0. -1.
         25    1    1    2    0    0 -0.10203893518E+02 -0.25869892272E+02  0.76494493290E+02  0.14499923542E+03  0.12000000000E+03 0.  0.
         25    1    1    2    0    0  0.10203893518E+02  0.25869892272E+02  0.65555237398E+02  0.13953802320E+03  0.12000000000E+03 0.  0.
<mgrwt>
<rscale>  0 0.24654275E+03</rscale>
<asrwt>0</asrwt>
<pdfrwt beam="1">  1        1 0.10960579E-01 0.24654275E+03</pdfrwt>
<pdfrwt beam="2">  1       -1 0.32814383E-01 0.24654275E+03</pdfrwt>
<totfact> 0.49027681E+03</totfact>
</mgrwt>
</event>
<event>
 4    1  0.1774755E-004  0.2715433E+03  0.7818608E-02  0.1100400E+00
          2   -1    0    0  501    0  0.00000000000E+00  0.00000000000E+00  0.30890013751E+02  0.30890013751E+02  0.00000000000E+00 0. -1.
         -2   -1    0    0    0  501 -0.00000000000E+00 -0.00000000000E+00 -0.59676033077E+03  0.59676033077E+03  0.00000000000E+00 0. -1.
         25    1    1    2    0    0 -0.17298271209E+02  0.15071597932E+02 -0.41982801464E+03  0.43724357643E+03  0.12000000000E+03 0.  0.
         25    1    1    2    0    0  0.17298271209E+02 -0.15071597932E+02 -0.14604230238E+03  0.19040676809E+03  0.12000000000E+03 0.  0.
<mgrwt>
<rscale>  0 0.27154325E+03</rscale>
<asrwt>0</asrwt>
<pdfrwt beam="1">  1        2 0.47523102E-02 0.27154325E+03</pdfrwt>
<pdfrwt beam="2">  1       -2 0.91809275E-01 0.27154325E+03</pdfrwt>
<totfact> 0.17542618E+03</totfact>
</mgrwt>
</event>
<event>
 4    1  0.1774755E-004  0.3832227E+03  0.7818608E-02  0.1049749E+00
          2   -1    0    0  501    0  0.00000000000E+00  0.00000000000E+00  0.17689940411E+03  0.17689940411E+03  0.00000000000E+00 0. -1.
         -2   -1    0    0    0  501 -0.00000000000E+00 -0.00000000000E+00 -0.20754679065E+03  0.20754679065E+03  0.00000000000E+00 0. -1.
         25    1    1    2    0    0  0.22777123602E+02 -0.93085381332E+02 -0.13028107952E+03  0.20138730163E+03  0.12000000000E+03 0.  0.
         25    1    1    2    0    0 -0.22777123602E+02  0.93085381332E+02  0.99633692980E+02  0.18305889313E+03  0.12000000000E+03 0.  0.
<mgrwt>
<rscale>  0 0.38322267E+03</rscale>
<asrwt>0</asrwt>
<pdfrwt beam="1">  1        2 0.27215293E-01 0.38322267E+03</pdfrwt>
<pdfrwt beam="2">  1       -2 0.31930275E-01 0.38322267E+03</pdfrwt>
<totfact> 0.17937807E+03</totfact>
</mgrwt>
</event>
<event>
 4    1  0.1774755E-004  0.3358848E+03  0.7818608E-02  0.1068562E+00
          2   -1    0    0  501    0  0.00000000000E+00  0.00000000000E+00  0.76794961764E+03  0.76794961764E+03  0.00000000000E+00 0.  1.
         -2   -1    0    0    0  501 -0.00000000000E+00 -0.00000000000E+00 -0.36727209269E+02  0.36727209269E+02  0.00000000000E+00 0.  1.
         25    1    1    2    0    0 -0.95002317672E+02 -0.55090864219E+00  0.19999788822E+03  0.25184300498E+03  0.12000000000E+03 0.  0.
         25    1    1    2    0    0  0.95002317672E+02  0.55090864219E+00  0.53122452014E+03  0.55283382193E+03  0.12000000000E+03 0.  0.
<mgrwt>
<rscale>  0 0.33588478E+03</rscale>
<asrwt>0</asrwt>
<pdfrwt beam="1">  1        2 0.11814608E+00 0.33588478E+03</pdfrwt>
<pdfrwt beam="2">  1       -2 0.56503405E-02 0.33588478E+03</pdfrwt>
<totfact> 0.60882536E+03</totfact>
</mgrwt>
</event>
<event>
 4    1  0.1774755E-004  0.3614655E+03  0.7818608E-02  0.1058005E+00
          2   -1    0    0  501    0  0.00000000000E+00  0.00000000000E+00  0.80993270926E+03  0.80993270926E+03  0.00000000000E+00 0. -1.
         -2   -1    0    0    0  501 -0.00000000000E+00 -0.00000000000E+00 -0.40329682374E+02  0.40329682374E+02  0.00000000000E+00 0. -1.
         25    1    1    2    0    0  0.54328691179E+02 -0.98666925391E+02  0.56047581357E+03  0.58414031400E+03  0.12000000000E+03 0.  0.
         25    1    1    2    0    0 -0.54328691179E+02  0.98666925391E+02  0.20912721331E+03  0.26612207763E+03  0.12000000000E+03 0.  0.
<mgrwt>
<rscale>  0 0.36146551E+03</rscale>
<asrwt>0</asrwt>
<pdfrwt beam="1">  1        2 0.12460502E+00 0.36146551E+03</pdfrwt>
<pdfrwt beam="2">  1       -2 0.62045671E-02 0.36146551E+03</pdfrwt>
<totfact> 0.49294329E+03</totfact>
</mgrwt>
</event>
<event>
 4    1  0.1774755E-004  0.2729366E+03  0.7818608E-02  0.1099611E+00
         -2   -1    0    0    0  501 -0.00000000000E+00  0.00000000000E+00  0.12220881798E+02  0.12220881798E+02  0.00000000000E+00 0.  1.
          2   -1    0    0  501    0  0.00000000000E+00 -0.00000000000E+00 -0.15239159442E+04  0.15239159442E+04  0.00000000000E+00 0.  1.
         25    1    1    2    0    0  0.37517016641E+02 -0.81437455728E+01 -0.10509784380E+04  0.10585034361E+04  0.12000000000E+03 0.  0.
         25    1    1    2    0    0 -0.37517016641E+02  0.81437455728E+01 -0.46071662440E+03  0.47763338988E+03  0.12000000000E+03 0.  0.
<mgrwt>
<rscale>  0 0.27293660E+03</rscale>
<asrwt>0</asrwt>
<pdfrwt beam="1">  1        2 0.23444841E+00 0.27293660E+03</pdfrwt>
<pdfrwt beam="2">  1       -2 0.18801373E-02 0.27293660E+03</pdfrwt>
<totfact> 0.11214846E+04</totfact>
</mgrwt>
</event>
<event>
 4    1  0.1774755E-004  0.2929383E+03  0.7818608E-02  0.1088825E+00
         -1   -1    0    0    0  501 -0.00000000000E+00  0.00000000000E+00  0.41528819115E+02  0.41528819115E+02  0.00000000000E+00 0.  1.
          1   -1    0    0  501    0  0.00000000000E+00 -0.00000000000E+00 -0.51658606763E+03  0.51658606763E+03  0.00000000000E+00 0.  1.
         25    1    1    2    0    0  0.65679455074E+02  0.85858777872E+01 -0.33589648188E+03  0.36278637606E+03  0.12000000000E+03 0.  0.
         25    1    1    2    0    0 -0.65679455074E+02 -0.85858777872E+01 -0.13916076664E+03  0.19532851069E+03  0.12000000000E+03 0.  0.
<mgrwt>
<rscale>  0 0.29293828E+03</rscale>
<asrwt>0</asrwt>
<pdfrwt beam="1">  1        1 0.79474791E-01 0.29293828E+03</pdfrwt>
<pdfrwt beam="2">  1       -1 0.63890482E-02 0.29293828E+03</pdfrwt>
<totfact> 0.52381589E+03</totfact>
</mgrwt>
</event>
<event>
 4    1  0.1774755E-004  0.2571548E+03  0.7818608E-02  0.1108865E+00
          2   -1    0    0  501    0  0.00000000000E+00  0.00000000000E+00  0.19378393731E+04  0.19378393731E+04  0.00000000000E+00 0.  1.
         -2   -1    0    0    0  501 -0.00000000000E+00 -0.00000000000E+00 -0.85312239121E+01  0.85312239121E+01  0.00000000000E+00 0.  1.
         25    1    1    2    0    0  0.30524099871E+02  0.27602440211E+02  0.11231538911E+04  0.11302956598E+04  0.12000000000E+03 0.  0.
         25    1    1    2    0    0 -0.30524099871E+02 -0.27602440211E+02  0.80615425810E+03  0.81607493726E+03  0.12000000000E+03 0.  0.
<mgrwt>
<rscale>  0 0.25715475E+03</rscale>
<asrwt>0</asrwt>
<pdfrwt beam="1">  1        2 0.29812878E+00 0.25715475E+03</pdfrwt>
<pdfrwt beam="2">  1       -2 0.13124975E-02 0.25715475E+03</pdfrwt>
<totfact> 0.11473785E+04</totfact>
</mgrwt>
</event>
<event>
 4    1  0.1774755E-004  0.3898152E+03  0.7818608E-02  0.1047365E+00
          2   -1    0    0  501    0  0.00000000000E+00  0.00000000000E+00  0.39416105102E+03  0.39416105102E+03  0.00000000000E+00 0.  1.
         -2   -1    0    0    0  501 -0.00000000000E+00 -0.00000000000E+00 -0.96379295282E+02  0.96379295282E+02  0.00000000000E+00 0.  1.
         25    1    1    2    0    0 -0.51267661531E+02  0.14332325370E+03  0.17465063470E+03  0.26090759355E+03  0.12000000000E+03 0.  0.
         25    1    1    2    0    0  0.51267661531E+02 -0.14332325370E+03  0.12313112105E+03  0.22963275276E+03  0.12000000000E+03 0.  0.
<mgrwt>
<rscale>  0 0.38981516E+03</rscale>
<asrwt>0</asrwt>
<pdfrwt beam="1">  1        2 0.60640161E-01 0.38981516E+03</pdfrwt>
<pdfrwt beam="2">  1       -2 0.14827584E-01 0.38981516E+03</pdfrwt>
<totfact> 0.28478305E+03</totfact>
</mgrwt>
</event>
<event>
 4    1  0.1774755E-004  0.3743509E+03  0.7818608E-02  0.1053042E+00
         -1   -1    0    0    0  501 -0.00000000000E+00  0.00000000000E+00  0.26854480029E+02  0.26854480029E+02  0.00000000000E+00 0. -1.
          1   -1    0    0  501    0  0.00000000000E+00 -0.00000000000E+00 -0.13046109742E+04  0.13046109742E+04  0.00000000000E+00 0. -1.
         25    1    1    2    0    0  0.32448951468E+02  0.13658210765E+03 -0.74717137672E+03  0.76965750355E+03  0.12000000000E+03 0.  0.
         25    1    1    2    0    0 -0.32448951468E+02 -0.13658210765E+03 -0.53058511741E+03  0.56180795063E+03  0.12000000000E+03 0.  0.
<mgrwt>
<rscale>  0 0.37435090E+03</rscale>
<asrwt>0</asrwt>
<pdfrwt beam="1">  1        1 0.20070944E+00 0.37435090E+03</pdfrwt>
<pdfrwt beam="2">  1       -1 0.41314573E-02 0.37435090E+03</pdfrwt>
<totfact> 0.22710344E+03</totfact>
</mgrwt>
</event>
<event>
 4    1  0.1774755E-004  0.2547756E+03  0.7818608E-02  0.1110323E+00
         -2   -1    0    0    0  501 -0.00000000000E+00  0.00000000000E+00  0.11535153844E+02  0.11535153844E+02  0.00000000000E+00 0. -1.
          2   -1    0    0  501    0  0.00000000000E+00 -0.00000000000E+00 -0.14067993800E+04  0.14067993800E+04  0.00000000000E+00 0. -1.
         25    1    1    2    0    0  0.34167024007E+02  0.20662868669E+02 -0.61259953450E+03  0.62551780897E+03  0.12000000000E+03 0.  0.
         25    1    1    2    0    0 -0.34167024007E+02 -0.20662868669E+02 -0.78266469168E+03  0.79281672489E+03  0.12000000000E+03 0.  0.
<mgrwt>
<rscale>  0 0.25477557E+03</rscale>
<asrwt>0</asrwt>
<pdfrwt beam="1">  1        2 0.21643072E+00 0.25477557E+03</pdfrwt>
<pdfrwt beam="2">  1       -2 0.17746387E-02 0.25477557E+03</pdfrwt>
<totfact> 0.14083194E+04</totfact>
</mgrwt>
</event>
<event>
 4    1  0.1774755E-004  0.2702252E+03  0.7818608E-02  0.1101151E+00
          3   -1    0    0  501    0  0.00000000000E+00  0.00000000000E+00  0.57060831462E+03  0.57060831462E+03  0.00000000000E+00 0. -1.
         -3   -1    0    0    0  501 -0.00000000000E+00 -0.00000000000E+00 -0.31992908046E+02  0.31992908046E+02  0.00000000000E+00 0. -1.
         25    1    1    2    0    0 -0.27262059326E+02 -0.50675974944E+02  0.21728877057E+03  0.25480518859E+03  0.12000000000E+03 0.  0.
         25    1    1    2    0    0  0.27262059326E+02  0.50675974944E+02  0.32132663600E+03  0.34779603408E+03  0.12000000000E+03 0.  0.
<mgrwt>
<rscale>  0 0.27022523E+03</rscale>
<asrwt>0</asrwt>
<pdfrwt beam="1">  1        3 0.87785887E-01 0.27022523E+03</pdfrwt>
<pdfrwt beam="2">  1       -3 0.49219863E-02 0.27022523E+03</pdfrwt>
<totfact> 0.72074290E+02</totfact>
</mgrwt>
</event>
<event>
 4    1  0.1774755E-004  0.3091195E+03  0.7818608E-02  0.1080769E+00
          2   -1    0    0  501    0  0.00000000000E+00  0.00000000000E+00  0.28968689045E+04  0.28968689045E+04  0.00000000000E+00 0. -1.
         -2   -1    0    0    0  501 -0.00000000000E+00 -0.00000000000E+00 -0.82463916707E+01  0.82463916707E+01  0.00000000000E+00 0. -1.
         25    1    1    2    0    0 -0.51608470167E+02 -0.58554343780E+02  0.89658486140E+03  0.90794077949E+03  0.12000000000E+03 0.  0.
         25    1    1    2    0    0  0.51608470167E+02  0.58554343780E+02  0.19920376515E+04  0.19971745167E+04  0.12000000000E+03 0.  0.
<mgrwt>
<rscale>  0 0.30911950E+03</rscale>
<asrwt>0</asrwt>
<pdfrwt beam="1">  1        2 0.44567133E+00 0.30911950E+03</pdfrwt>
<pdfrwt beam="2">  1       -2 0.12686780E-02 0.30911950E+03</pdfrwt>
<totfact> 0.36016989E+03</totfact>
</mgrwt>
</event>
<event>
 4    1  0.1774755E-004  0.2630288E+03  0.7818608E-02  0.1105337E+00
         -1   -1    0    0    0  501 -0.00000000000E+00  0.00000000000E+00  0.83901291064E+02  0.83901291064E+02  0.00000000000E+00 0. -1.
          1   -1    0    0  501    0  0.00000000000E+00 -0.00000000000E+00 -0.20614741710E+03  0.20614741710E+03  0.00000000000E+00 0. -1.
         25    1    1    2    0    0  0.14301263002E+02  0.51871965164E+02 -0.60132110882E+02  0.14460669989E+03  0.12000000000E+03 0.  0.
         25    1    1    2    0    0 -0.14301263002E+02 -0.51871965164E+02 -0.62114015157E+02  0.14544200828E+03  0.12000000000E+03 0.  0.
<mgrwt>
<rscale>  0 0.26302878E+03</rscale>
<asrwt>0</asrwt>
<pdfrwt beam="1">  1        1 0.31714987E-01 0.26302878E+03</pdfrwt>
<pdfrwt beam="2">  1       -1 0.12907891E-01 0.26302878E+03</pdfrwt>
<totfact> 0.57053950E+03</totfact>
</mgrwt>
</event>
<event>
 4    1  0.1774755E-004  0.3754397E+03  0.7818608E-02  0.1052632E+00
          2   -1    0    0  501    0  0.00000000000E+00  0.00000000000E+00  0.11677939235E+04  0.11677939235E+04  0.00000000000E+00 0. -1.
         -2   -1    0    0    0  501 -0.00000000000E+00 -0.00000000000E+00 -0.30175476023E+02  0.30175476023E+02  0.00000000000E+00 0. -1.
         25    1    1    2    0    0  0.47591671608E+02 -0.37055299704E+02  0.15032575692E+03  0.20158347064E+03  0.12000000000E+03 0.  0.
         25    1    1    2    0    0 -0.47591671608E+02  0.37055299704E+02  0.98729269058E+03  0.99638592890E+03  0.12000000000E+03 0.  0.
<mgrwt>
<rscale>  0 0.37543968E+03</rscale>
<asrwt>0</asrwt>
<pdfrwt beam="1">  1        2 0.17966057E+00 0.37543968E+03</pdfrwt>
<pdfrwt beam="2">  1       -2 0.46423818E-02 0.37543968E+03</pdfrwt>
<totfact> 0.45901843E+03</totfact>
</mgrwt>
</event>
<event>
 4    1  0.1774755E-004  0.2815432E+03  0.7818608E-02  0.1094849E+00
         -2   -1    0    0    0  501 -0.00000000000E+00  0.00000000000E+00  0.35803954421E+02  0.35803954421E+02  0.00000000000E+00 0. -1.
          2   -1    0    0  501    0  0.00000000000E+00 -0.00000000000E+00 -0.55347638978E+03  0.55347638978E+03  0.00000000000E+00 0. -1.
         25    1    1    2    0    0 -0.42749085440E+01 -0.39989776851E+02 -0.12982656401E+03  0.18130745660E+03  0.12000000000E+03 0.  0.
         25    1    1    2    0    0  0.42749085440E+01  0.39989776851E+02 -0.38784587135E+03  0.40797288760E+03  0.12000000000E+03 0.  0.
<mgrwt>
<rscale>  0 0.28154320E+03</rscale>
<asrwt>0</asrwt>
<pdfrwt beam="1">  1        2 0.85150213E-01 0.28154320E+03</pdfrwt>
<pdfrwt beam="2">  1       -2 0.55083007E-02 0.28154320E+03</pdfrwt>
<totfact> 0.93200186E+03</totfact>
</mgrwt>
</event>
<event>
 4    1  0.1774755E-004  0.2527875E+03  0.7818608E-02  0.1111556E+00
          1   -1    0    0  501    0  0.00000000000E+00  0.00000000000E+00  0.16425020846E+04  0.16425020846E+04  0.00000000000E+00 0. -1.
         -1   -1    0    0    0  501 -0.00000000000E+00 -0.00000000000E+00 -0.97262448107E+01  0.97262448107E+01  0.00000000000E+00 0. -1.
         25    1    1    2    0    0  0.77421030796E+01 -0.34869468496E+02  0.70326398054E+03  0.71432208864E+03  0.12000000000E+03 0.  0.
         25    1    1    2    0    0 -0.77421030796E+01  0.34869468496E+02  0.92951185929E+03  0.93790624081E+03  0.12000000000E+03 0.  0.
<mgrwt>
<rscale>  0 0.25278748E+03</rscale>
<asrwt>0</asrwt>
<pdfrwt beam="1">  1        1 0.25269241E+00 0.25278748E+03</pdfrwt>
<pdfrwt beam="2">  1       -1 0.14963467E-02 0.25278748E+03</pdfrwt>
<totfact> 0.60308480E+03</totfact>
</mgrwt>
</event>
<event>
 4    1  0.1774755E-004  0.2731427E+03  0.7818608E-02  0.1099494E+00
         -1   -1    0    0    0  501 -0.00000000000E+00  0.00000000000E+00  0.13444031202E+02  0.13444031202E+02  0.00000000000E+00 0.  1.
          1   -1    0    0  501    0  0.00000000000E+00 -0.00000000000E+00 -0.13873621059E+04  0.13873621059E+04  0.00000000000E+00 0.  1.
         25    1    1    2    0    0  0.61879348399E+02  0.12979101621E+02 -0.76873027584E+03  0.78060473214E+03  0.12000000000E+03 0.  0.
         25    1    1    2    0    0 -0.61879348399E+02 -0.12979101621E+02 -0.60518779885E+03  0.62020140495E+03  0.12000000000E+03 0.  0.
<mgrwt>
<rscale>  0 0.27314274E+03</rscale>
<asrwt>0</asrwt>
<pdfrwt beam="1">  1        1 0.21344037E+00 0.27314274E+03</pdfrwt>
<pdfrwt beam="2">  1       -1 0.20683121E-02 0.27314274E+03</pdfrwt>
<totfact> 0.55550833E+03</totfact>
</mgrwt>
</event>
<event>
 4    1  0.1774755E-004  0.3886416E+03  0.7818608E-02  0.1047785E+00
          1   -1    0    0  501    0  0.00000000000E+00  0.00000000000E+00  0.25321275231E+03  0.25321275231E+03  0.00000000000E+00 0. -1.
         -1   -1    0    0    0  501 -0.00000000000E+00 -0.00000000000E+00 -0.14912586014E+03  0.14912586014E+03  0.00000000000E+00 0. -1.
         25    1    1    2    0    0 -0.78181378926E+01  0.55001815020E+02  0.19944932758E+03  0.23930390136E+03  0.12000000000E+03 0.  0.
         25    1    1    2    0    0  0.78181378926E+01 -0.55001815020E+02 -0.95362435408E+02  0.16303471110E+03  0.12000000000E+03 0.  0.
<mgrwt>
<rscale>  0 0.38864158E+03</rscale>
<asrwt>0</asrwt>
<pdfrwt beam="1">  1        1 0.38955808E-01 0.38864158E+03</pdfrwt>
<pdfrwt beam="2">  1       -1 0.22942440E-01 0.38864158E+03</pdfrwt>
<totfact> 0.17549046E+03</totfact>
</mgrwt>
</event>
<event>
 4    1  0.1774755E-004  0.3605896E+03  0.7818608E-02  0.1058351E+00
         -2   -1    0    0    0  501 -0.00000000000E+00  0.00000000000E+00  0.78462599288E+02  0.78462599288E+02  0.00000000000E+00 0. -1.
          2   -1    0    0  501    0  0.00000000000E+00 -0.00000000000E+00 -0.41428921445E+03  0.41428921445E+03  0.00000000000E+00 0. -1.
         25    1    1    2    0    0 -0.39212402306E+02 -0.12626102647E+03 -0.13370260343E+03  0.22306018350E+03  0.12000000000E+03 0.  0.
         25    1    1    2    0    0  0.39212402306E+02  0.12626102647E+03 -0.20212401174E+03  0.26969163024E+03  0.12000000000E+03 0.  0.
<mgrwt>
<rscale>  0 0.36058957E+03</rscale>
<asrwt>0</asrwt>
<pdfrwt beam="1">  1        2 0.63736803E-01 0.36058957E+03</pdfrwt>
<pdfrwt beam="2">  1       -2 0.12071169E-01 0.36058957E+03</pdfrwt>
<totfact> 0.37766089E+03</totfact>
</mgrwt>
</event>
<event>
 4    1  0.1774755E-004  0.2784541E+03  0.7818608E-02  0.1096536E+00
         -2   -1    0    0    0  501 -0.00000000000E+00  0.00000000000E+00  0.21742729278E+02  0.21742729278E+02  0.00000000000E+00 0.  1.
          2   -1    0    0  501    0  0.00000000000E+00 -0.00000000000E+00 -0.89152450696E+03  0.89152450696E+03  0.00000000000E+00 0.  1.
         25    1    1    2    0    0  0.42277062687E+02 -0.23863596514E+02 -0.26677701099E+03  0.29652452658E+03  0.12000000000E+03 0.  0.
         25    1    1    2    0    0 -0.42277062687E+02  0.23863596514E+02 -0.60300476669E+03  0.61674270966E+03  0.12000000000E+03 0.  0.
<mgrwt>
<rscale>  0 0.27845413E+03</rscale>
<asrwt>0</asrwt>
<pdfrwt beam="1">  1        2 0.13715762E+00 0.27845413E+03</pdfrwt>
<pdfrwt beam="2">  1       -2 0.33450353E-02 0.27845413E+03</pdfrwt>
<totfact> 0.11045102E+04</totfact>
</mgrwt>
</event>
<event>
 4    1  0.1774755E-004  0.3316223E+03  0.7818608E-02  0.1070421E+00
         -2   -1    0    0    0  501 -0.00000000000E+00  0.00000000000E+00  0.29030262768E+02  0.29030262768E+02  0.00000000000E+00 0.  1.
          2   -1    0    0  501    0  0.00000000000E+00 -0.00000000000E+00 -0.94705770822E+03  0.94705770822E+03  0.00000000000E+00 0.  1.
         25    1    1    2    0    0  0.44201830487E+02  0.80183008716E+02 -0.25700703986E+03  0.29805324230E+03  0.12000000000E+03 0.  0.
         25    1    1    2    0    0 -0.44201830487E+02 -0.80183008716E+02 -0.66102040559E+03  0.67803472869E+03  0.12000000000E+03 0.  0.
<mgrwt>
<rscale>  0 0.33162228E+03</rscale>
<asrwt>0</asrwt>
<pdfrwt beam="1">  1        2 0.14570119E+00 0.33162228E+03</pdfrwt>
<pdfrwt beam="2">  1       -2 0.44661943E-02 0.33162228E+03</pdfrwt>
<totfact> 0.66118330E+03</totfact>
</mgrwt>
</event>
<event>
 4    1  0.1774755E-004  0.4097747E+03  0.7818608E-02  0.1040447E+00
          2   -1    0    0  501    0  0.00000000000E+00  0.00000000000E+00  0.94483886028E+03  0.94483886028E+03  0.00000000000E+00 0. -1.
         -2   -1    0    0    0  501 -0.00000000000E+00 -0.00000000000E+00 -0.44429607429E+02  0.44429607429E+02  0.00000000000E+00 0. -1.
         25    1    1    2    0    0 -0.16546667971E+03  0.39720643436E+01  0.48293611387E+03  0.52442567583E+03  0.12000000000E+03 0.  0.
         25    1    1    2    0    0  0.16546667971E+03 -0.39720643436E+01  0.41747313898E+03  0.46484279188E+03  0.12000000000E+03 0.  0.
<mgrwt>
<rscale>  0 0.40977467E+03</rscale>
<asrwt>0</asrwt>
<pdfrwt beam="1">  1        2 0.14535981E+00 0.40977467E+03</pdfrwt>
<pdfrwt beam="2">  1       -2 0.68353249E-02 0.40977467E+03</pdfrwt>
<totfact> 0.34528661E+03</totfact>
</mgrwt>
</event>
<event>
 4    1  0.1774755E-004  0.3335890E+03  0.7818608E-02  0.1069560E+00
         -2   -1    0    0    0  501 -0.00000000000E+00  0.00000000000E+00  0.22203013851E+02  0.22203013851E+02  0.00000000000E+00 0.  1.
          2   -1    0    0  501    0  0.00000000000E+00 -0.00000000000E+00 -0.12530013472E+04  0.12530013472E+04  0.00000000000E+00 0.  1.
         25    1    1    2    0    0 -0.99065677613E+01 -0.85971946759E+02 -0.90979749323E+03  0.92174876968E+03  0.12000000000E+03 0.  0.
         25    1    1    2    0    0  0.99065677613E+01  0.85971946759E+02 -0.32100084009E+03  0.35345559135E+03  0.12000000000E+03 0.  0.
<mgrwt>
<rscale>  0 0.33358901E+03</rscale>
<asrwt>0</asrwt>
<pdfrwt beam="1">  1        2 0.19276951E+00 0.33358901E+03</pdfrwt>
<pdfrwt beam="2">  1       -2 0.34158471E-02 0.33358901E+03</pdfrwt>
<totfact> 0.65221783E+03</totfact>
</mgrwt>
</event>
<event>
 4    1  0.1774755E-004  0.2843796E+03  0.7818608E-02  0.1093321E+00
         -1   -1    0    0    0  501 -0.00000000000E+00  0.00000000000E+00  0.25033795438E+02  0.25033795438E+02  0.00000000000E+00 0. -1.
          1   -1    0    0  501    0  0.00000000000E+00 -0.00000000000E+00 -0.80762589555E+03  0.80762589555E+03  0.00000000000E+00 0. -1.
         25    1    1    2    0    0 -0.36293045123E+02  0.43330057986E+02 -0.54126106186E+03  0.55727750370E+03  0.12000000000E+03 0.  0.
         25    1    1    2    0    0  0.36293045123E+02 -0.43330057986E+02 -0.24133103826E+03  0.27538218729E+03  0.12000000000E+03 0.  0.
<mgrwt>
<rscale>  0 0.28437962E+03</rscale>
<asrwt>0</asrwt>
<pdfrwt beam="1">  1        1 0.12425014E+00 0.28437962E+03</pdfrwt>
<pdfrwt beam="2">  1       -1 0.38513532E-02 0.28437962E+03</pdfrwt>
<totfact> 0.59039932E+03</totfact>
</mgrwt>
</event>
<event>
 4    1  0.1774755E-004  0.4019790E+03  0.7818608E-02  0.1043097E+00
         -2   -1    0    0    0  501 -0.00000000000E+00  0.00000000000E+00  0.49433018377E+02  0.49433018377E+02  0.00000000000E+00 0.  1.
          2   -1    0    0  501    0  0.00000000000E+00 -0.00000000000E+00 -0.81720249467E+03  0.81720249467E+03  0.00000000000E+00 0.  1.
         25    1    1    2    0    0  0.51274615849E+02 -0.54515746413E+02 -0.69177981130E+03  0.70608806828E+03  0.12000000000E+03 0.  0.
         25    1    1    2    0    0 -0.51274615849E+02  0.54515746413E+02 -0.75989664993E+02  0.16054744477E+03  0.12000000000E+03 0.  0.
<mgrwt>
<rscale>  0 0.40197903E+03</rscale>
<asrwt>0</asrwt>
<pdfrwt beam="1">  1        2 0.12572347E+00 0.40197903E+03</pdfrwt>
<pdfrwt beam="2">  1       -2 0.76050794E-02 0.40197903E+03</pdfrwt>
<totfact> 0.35511779E+03</totfact>
</mgrwt>
</event>
<event>
 4    1  0.1774755E-004  0.2592384E+03  0.7818608E-02  0.1107602E+00
         -2   -1    0    0    0  501 -0.00000000000E+00  0.00000000000E+00  0.16718692631E+04  0.16718692631E+04  0.00000000000E+00 0. -1.
          2   -1    0    0  501    0  0.00000000000E+00 -0.00000000000E+00 -0.10049313905E+02  0.10049313905E+02  0.00000000000E+00 0. -1.
         25    1    1    2    0    0  0.18102995595E+02 -0.19134979222E+02  0.10989854684E+04  0.11058313278E+04  0.12000000000E+03 0.  0.
         25    1    1    2    0    0 -0.18102995595E+02  0.19134979222E+02  0.56283448084E+03  0.57608724921E+03  0.12000000000E+03 0.  0.
<mgrwt>
<rscale>  0 0.25923842E+03</rscale>
<asrwt>0</asrwt>
<pdfrwt beam="1">  1        2 0.15460496E-02 0.25923842E+03</pdfrwt>
<pdfrwt beam="2">  1       -2 0.25721043E+00 0.25923842E+03</pdfrwt>
<totfact> 0.50940461E+02</totfact>
</mgrwt>
</event>
<event>
 4    1  0.1774755E-004  0.2568915E+03  0.7818608E-02  0.1109025E+00
          2   -1    0    0  501    0  0.00000000000E+00  0.00000000000E+00  0.40459405064E+02  0.40459405064E+02  0.00000000000E+00 0. -1.
         -2   -1    0    0    0  501 -0.00000000000E+00 -0.00000000000E+00 -0.40777440784E+03  0.40777440784E+03  0.00000000000E+00 0. -1.
         25    1    1    2    0    0  0.39749360295E+02  0.17749437678E+02 -0.15878174354E+03  0.20373192254E+03  0.12000000000E+03 0.  0.
         25    1    1    2    0    0 -0.39749360295E+02 -0.17749437678E+02 -0.20853325923E+03  0.24450189036E+03  0.12000000000E+03 0.  0.
<mgrwt>
<rscale>  0 0.25689149E+03</rscale>
<asrwt>0</asrwt>
<pdfrwt beam="1">  1        2 0.62245240E-02 0.25689149E+03</pdfrwt>
<pdfrwt beam="2">  1       -2 0.62734523E-01 0.25689149E+03</pdfrwt>
<totfact> 0.28178311E+03</totfact>
</mgrwt>
</event>
<event>
 4    1  0.1774755E-004  0.2560019E+03  0.7818608E-02  0.1109569E+00
         -3   -1    0    0    0  501 -0.00000000000E+00  0.00000000000E+00  0.40632023416E+03  0.40632023416E+03  0.00000000000E+00 0. -1.
          3   -1    0    0  501    0  0.00000000000E+00 -0.00000000000E+00 -0.40323472219E+02  0.40323472219E+02  0.00000000000E+00 0. -1.
         25    1    1    2    0    0 -0.24669953004E+01 -0.43664290820E+02  0.16823679428E+03  0.21122565021E+03  0.12000000000E+03 0.  0.
         25    1    1    2    0    0  0.24669953004E+01  0.43664290820E+02  0.19775996766E+03  0.23541805616E+03  0.12000000000E+03 0.  0.
<mgrwt>
<rscale>  0 0.25600190E+03</rscale>
<asrwt>0</asrwt>
<pdfrwt beam="1">  1        3 0.62036114E-02 0.25600190E+03</pdfrwt>
<pdfrwt beam="2">  1       -3 0.62510802E-01 0.25600190E+03</pdfrwt>
<totfact> 0.10284015E+03</totfact>
</mgrwt>
</event>
<event>
 4    1  0.1774755E-004  0.2624013E+03  0.7818608E-02  0.1105709E+00
         -1   -1    0    0    0  501 -0.00000000000E+00  0.00000000000E+00  0.22639649881E+02  0.22639649881E+02  0.00000000000E+00 0.  1.
          1   -1    0    0  501    0  0.00000000000E+00 -0.00000000000E+00 -0.76033025090E+03  0.76033025090E+03  0.00000000000E+00 0.  1.
         25    1    1    2    0    0 -0.16152133942E+02 -0.18603841072E+02 -0.22867935908E+03  0.25942483228E+03  0.12000000000E+03 0.  0.
         25    1    1    2    0    0  0.16152133942E+02  0.18603841072E+02 -0.50901124194E+03  0.52354506850E+03  0.12000000000E+03 0.  0.
<mgrwt>
<rscale>  0 0.26240130E+03</rscale>
<asrwt>0</asrwt>
<pdfrwt beam="1">  1        1 0.11697389E+00 0.26240130E+03</pdfrwt>
<pdfrwt beam="2">  1       -1 0.34830230E-02 0.26240130E+03</pdfrwt>
<totfact> 0.74986419E+03</totfact>
</mgrwt>
</event>
<event>
 4    1  0.1774755E-004  0.2699742E+03  0.7818608E-02  0.1101294E+00
         -2   -1    0    0    0  501 -0.00000000000E+00  0.00000000000E+00  0.37633706072E+02  0.37633706072E+02  0.00000000000E+00 0.  1.
          2   -1    0    0  501    0  0.00000000000E+00 -0.00000000000E+00 -0.48418078991E+03  0.48418078991E+03  0.00000000000E+00 0.  1.
         25    1    1    2    0    0  0.60332379201E+02 -0.60599022870E+01 -0.20001530129E+03  0.24100381562E+03  0.12000000000E+03 0.  0.
         25    1    1    2    0    0 -0.60332379201E+02  0.60599022870E+01 -0.24653178255E+03  0.28081068036E+03  0.12000000000E+03 0.  0.
<mgrwt>
<rscale>  0 0.26997420E+03</rscale>
<asrwt>0</asrwt>
<pdfrwt beam="1">  1        2 0.74489356E-01 0.26997420E+03</pdfrwt>
<pdfrwt beam="2">  1       -2 0.57898007E-02 0.26997420E+03</pdfrwt>
<totfact> 0.10023864E+04</totfact>
</mgrwt>
</event>
<event>
 4    1  0.1774755E-004  0.2517934E+03  0.7818608E-02  0.1112177E+00
          1   -1    0    0  501    0  0.00000000000E+00  0.00000000000E+00  0.76226726413E+02  0.76226726413E+02  0.00000000000E+00 0.  1.
         -1   -1    0    0    0  501 -0.00000000000E+00 -0.00000000000E+00 -0.20793204990E+03  0.20793204990E+03  0.00000000000E+00 0.  1.
         25    1    1    2    0    0 -0.30426083517E+01 -0.26462178624E+02 -0.96562106243E+02  0.15631297043E+03  0.12000000000E+03 0.  0.
         25    1    1    2    0    0  0.30426083517E+01  0.26462178624E+02 -0.35143217243E+02  0.12784580588E+03  0.12000000000E+03 0.  0.
<mgrwt>
<rscale>  0 0.25179340E+03</rscale>
<asrwt>0</asrwt>
<pdfrwt beam="1">  1        1 0.11727189E-01 0.25179340E+03</pdfrwt>
<pdfrwt beam="2">  1       -1 0.31989546E-01 0.25179340E+03</pdfrwt>
<totfact> 0.46842873E+03</totfact>
</mgrwt>
</event>
<event>
 4    1  0.1774755E-004  0.2798316E+03  0.7818608E-02  0.1095781E+00
         -1   -1    0    0    0  501 -0.00000000000E+00  0.00000000000E+00  0.46407377292E+02  0.46407377292E+02  0.00000000000E+00 0. -1.
          1   -1    0    0  501    0  0.00000000000E+00 -0.00000000000E+00 -0.42183868481E+03  0.42183868481E+03  0.00000000000E+00 0. -1.
         25    1    1    2    0    0  0.38700307457E+02 -0.99547437750E+01 -0.28782984902E+03  0.31439280002E+03  0.12000000000E+03 0.  0.
         25    1    1    2    0    0 -0.38700307457E+02  0.99547437750E+01 -0.87601458502E+02  0.15385326208E+03  0.12000000000E+03 0.  0.
<mgrwt>
<rscale>  0 0.27983157E+03</rscale>
<asrwt>0</asrwt>
<pdfrwt beam="1">  1        1 0.64898260E-01 0.27983157E+03</pdfrwt>
<pdfrwt beam="2">  1       -1 0.71395965E-02 0.27983157E+03</pdfrwt>
<totfact> 0.57692923E+03</totfact>
</mgrwt>
</event>
<event>
 4    1  0.1774755E-004  0.3057979E+03  0.7818608E-02  0.1082378E+00
         -1   -1    0    0    0  501 -0.00000000000E+00  0.00000000000E+00  0.71392206634E+02  0.71392206634E+02  0.00000000000E+00 0. -1.
          1   -1    0    0  501    0  0.00000000000E+00 -0.00000000000E+00 -0.32746001943E+03  0.32746001943E+03  0.00000000000E+00 0. -1.
         25    1    1    2    0    0  0.44045312592E+02 -0.98481302905E+01 -0.19368277374E+02  0.12966150315E+03  0.12000000000E+03 0.  0.
         25    1    1    2    0    0 -0.44045312592E+02  0.98481302905E+01 -0.23669953542E+03  0.26919072291E+03  0.12000000000E+03 0.  0.
<mgrwt>
<rscale>  0 0.30579793E+03</rscale>
<asrwt>0</asrwt>
<pdfrwt beam="1">  1        1 0.50378465E-01 0.30579793E+03</pdfrwt>
<pdfrwt beam="2">  1       -1 0.10983416E-01 0.30579793E+03</pdfrwt>
<totfact> 0.41199462E+03</totfact>
</mgrwt>
</event>
<event>
 4    1  0.1774755E-004  0.4618207E+03  0.7818608E-02  0.1024254E+00
         -2   -1    0    0    0  501 -0.00000000000E+00  0.00000000000E+00  0.26213435973E+02  0.26213435973E+02  0.00000000000E+00 0. -1.
          2   -1    0    0  501    0  0.00000000000E+00 -0.00000000000E+00 -0.20340561220E+04  0.20340561220E+04  0.00000000000E+00 0. -1.
         25    1    1    2    0    0 -0.58721282955E+02  0.18688299855E+03 -0.89966347418E+03  0.92852991928E+03  0.12000000000E+03 0.  0.
         25    1    1    2    0    0  0.58721282955E+02 -0.18688299855E+03 -0.11081792118E+04  0.11317396387E+04  0.12000000000E+03 0.  0.
<mgrwt>
<rscale>  0 0.46182074E+03</rscale>
<asrwt>0</asrwt>
<pdfrwt beam="1">  1        2 0.31293173E+00 0.46182074E+03</pdfrwt>
<pdfrwt beam="2">  1       -2 0.40328360E-02 0.46182074E+03</pdfrwt>
<totfact> 0.19125641E+03</totfact>
</mgrwt>
</event>
<event>
 4    1  0.1774755E-004  0.2501681E+03  0.7818608E-02  0.1113199E+00
          2   -1    0    0  501    0  0.00000000000E+00  0.00000000000E+00  0.59681199300E+03  0.59681199300E+03  0.00000000000E+00 0. -1.
         -2   -1    0    0    0  501 -0.00000000000E+00 -0.00000000000E+00 -0.26215983866E+02  0.26215983866E+02  0.00000000000E+00 0. -1.
         25    1    1    2    0    0 -0.10524378988E+01  0.22526635543E+02  0.21766729428E+03  0.24957485437E+03  0.12000000000E+03 0.  0.
         25    1    1    2    0    0  0.10524378988E+01 -0.22526635543E+02  0.35292871486E+03  0.37345312250E+03  0.12000000000E+03 0.  0.
<mgrwt>
<rscale>  0 0.25016805E+03</rscale>
<asrwt>0</asrwt>
<pdfrwt beam="1">  1        2 0.91817220E-01 0.25016805E+03</pdfrwt>
<pdfrwt beam="2">  1       -2 0.40332287E-02 0.25016805E+03</pdfrwt>
<totfact> 0.13636991E+04</totfact>
</mgrwt>
</event>
<event>
 4    1  0.1774755E-004  0.2450893E+03  0.7818608E-02  0.1116448E+00
         -2   -1    0    0    0  501 -0.00000000000E+00  0.00000000000E+00  0.40881590428E+03  0.40881590428E+03  0.00000000000E+00 0. -1.
          2   -1    0    0  501    0  0.00000000000E+00 -0.00000000000E+00 -0.36733384938E+02  0.36733384938E+02  0.00000000000E+00 0. -1.
         25    1    1    2    0    0  0.11289419723E+02  0.21373833299E+02  0.17561398338E+03  0.21406672536E+03  0.12000000000E+03 0.  0.
         25    1    1    2    0    0 -0.11289419723E+02 -0.21373833299E+02  0.19646853596E+03  0.23148256386E+03  0.12000000000E+03 0.  0.
<mgrwt>
<rscale>  0 0.24508931E+03</rscale>
<asrwt>0</asrwt>
<pdfrwt beam="1">  1        2 0.56512903E-02 0.24508931E+03</pdfrwt>
<pdfrwt beam="2">  1       -2 0.62894751E-01 0.24508931E+03</pdfrwt>
<totfact> 0.31733954E+03</totfact>
</mgrwt>
</event>
<event>
 4    1  0.1774755E-004  0.3497272E+03  0.7818608E-02  0.1062727E+00
         -1   -1    0    0    0  501 -0.00000000000E+00  0.00000000000E+00  0.77407138617E+02  0.77407138617E+02  0.00000000000E+00 0.  1.
          1   -1    0    0  501    0  0.00000000000E+00 -0.00000000000E+00 -0.39501892983E+03  0.39501892983E+03  0.00000000000E+00 0.  1.
         25    1    1    2    0    0  0.75109297458E+02  0.87191524355E+02 -0.85641688507E+02  0.18702477722E+03  0.12000000000E+03 0.  0.
         25    1    1    2    0    0 -0.75109297458E+02 -0.87191524355E+02 -0.23197010270E+03  0.28540129122E+03  0.12000000000E+03 0.  0.
<mgrwt>
<rscale>  0 0.34972724E+03</rscale>
<asrwt>0</asrwt>
<pdfrwt beam="1">  1        1 0.60772143E-01 0.34972724E+03</pdfrwt>
<pdfrwt beam="2">  1       -1 0.11908791E-01 0.34972724E+03</pdfrwt>
<totfact> 0.28634310E+03</totfact>
</mgrwt>
</event>
<event>
 4    1  0.1774755E-004  0.2599157E+03  0.7818608E-02  0.1107194E+00
          1   -1    0    0  501    0  0.00000000000E+00  0.00000000000E+00  0.98013216417E+03  0.98013216417E+03  0.00000000000E+00 0. -1.
         -1   -1    0    0    0  501 -0.00000000000E+00 -0.00000000000E+00 -0.17231395113E+02  0.17231395113E+02  0.00000000000E+00 0. -1.
         25    1    1    2    0    0 -0.46861954206E+02 -0.16679425652E+02  0.49621190721E+03  0.51293323430E+03  0.12000000000E+03 0.  0.
         25    1    1    2    0    0  0.46861954206E+02  0.16679425652E+02  0.46668886185E+03  0.48443032499E+03  0.12000000000E+03 0.  0.
<mgrwt>
<rscale>  0 0.25991571E+03</rscale>
<asrwt>0</asrwt>
<pdfrwt beam="1">  1        1 0.15078952E+00 0.25991571E+03</pdfrwt>
<pdfrwt beam="2">  1       -1 0.26509846E-02 0.25991571E+03</pdfrwt>
<totfact> 0.74758942E+03</totfact>
</mgrwt>
</event>
<event>
 4    1  0.1774755E-004  0.2606219E+03  0.7818608E-02  0.1106770E+00
         -2   -1    0    0    0  501 -0.00000000000E+00  0.00000000000E+00  0.78548994877E+02  0.78548994877E+02  0.00000000000E+00 0.  1.
          2   -1    0    0  501    0  0.00000000000E+00 -0.00000000000E+00 -0.21618290431E+03  0.21618290431E+03  0.00000000000E+00 0.  1.
         25    1    1    2    0    0  0.12055987988E+02  0.29228736502E+02 -0.11378676860E+03  0.16836595437E+03  0.12000000000E+03 0.  0.
         25    1    1    2    0    0 -0.12055987988E+02 -0.29228736502E+02 -0.23847140840E+02  0.12636594482E+03  0.12000000000E+03 0.  0.
<mgrwt>
<rscale>  0 0.26062195E+03</rscale>
<asrwt>0</asrwt>
<pdfrwt beam="1">  1        2 0.33258907E-01 0.26062195E+03</pdfrwt>
<pdfrwt beam="2">  1       -2 0.12084461E-01 0.26062195E+03</pdfrwt>
<totfact> 0.75611467E+03</totfact>
</mgrwt>
</event>
<event>
 4    1  0.1774755E-004  0.3159002E+03  0.7818608E-02  0.1077552E+00
          2   -1    0    0  501    0  0.00000000000E+00  0.00000000000E+00  0.76630762845E+03  0.76630762845E+03  0.00000000000E+00 0. -1.
         -2   -1    0    0    0  501 -0.00000000000E+00 -0.00000000000E+00 -0.32556415481E+02  0.32556415481E+02  0.00000000000E+00 0. -1.
         25    1    1    2    0    0  0.78124801945E+02 -0.25490709507E+02  0.21109008015E+03  0.25634407129E+03  0.12000000000E+03 0.  0.
         25    1    1    2    0    0 -0.78124801945E+02  0.25490709507E+02  0.52266113283E+03  0.54251997264E+03  0.12000000000E+03 0.  0.
<mgrwt>
<rscale>  0 0.31590017E+03</rscale>
<asrwt>0</asrwt>
<pdfrwt beam="1">  1        2 0.11789347E+00 0.31590017E+03</pdfrwt>
<pdfrwt beam="2">  1       -2 0.50086799E-02 0.31590017E+03</pdfrwt>
<totfact> 0.73318607E+03</totfact>
</mgrwt>
</event>
<event>
 4    1  0.1774755E-004  0.2566526E+03  0.7818608E-02  0.1109171E+00
         -2   -1    0    0    0  501 -0.00000000000E+00  0.00000000000E+00  0.85191746512E+02  0.85191746512E+02  0.00000000000E+00 0.  1.
          2   -1    0    0  501    0  0.00000000000E+00 -0.00000000000E+00 -0.19330094133E+03  0.19330094133E+03  0.00000000000E+00 0.  1.
         25    1    1    2    0    0 -0.14056483408E+01 -0.41593546939E+01 -0.10316484491E+03  0.15831064811E+03  0.12000000000E+03 0.  0.
         25    1    1    2    0    0  0.14056483408E+01  0.41593546939E+01 -0.49443499094E+01  0.12018203973E+03  0.12000000000E+03 0.  0.
<mgrwt>
<rscale>  0 0.25665264E+03</rscale>
<asrwt>0</asrwt>
<pdfrwt beam="1">  1        2 0.29738606E-01 0.25665264E+03</pdfrwt>
<pdfrwt beam="2">  1       -2 0.13106423E-01 0.25665264E+03</pdfrwt>
<totfact> 0.74858720E+03</totfact>
</mgrwt>
</event>
<event>
 4    1  0.1774755E-004  0.2921488E+03  0.7818608E-02  0.1089233E+00
         -2   -1    0    0    0  501 -0.00000000000E+00  0.00000000000E+00  0.76058650014E+02  0.76058650014E+02  0.00000000000E+00 0. -1.
          2   -1    0    0  501    0  0.00000000000E+00 -0.00000000000E+00 -0.28054304404E+03  0.28054304404E+03  0.00000000000E+00 0. -1.
         25    1    1    2    0    0  0.61859801225E+02 -0.43235254576E+01 -0.34364516775E+02  0.13937807537E+03  0.12000000000E+03 0.  0.
         25    1    1    2    0    0 -0.61859801225E+02  0.43235254576E+01 -0.17011987725E+03  0.21722361869E+03  0.12000000000E+03 0.  0.
<mgrwt>
<rscale>  0 0.29214876E+03</rscale>
<asrwt>0</asrwt>
<pdfrwt beam="1">  1        2 0.43160468E-01 0.29214876E+03</pdfrwt>
<pdfrwt beam="2">  1       -2 0.11701331E-01 0.29214876E+03</pdfrwt>
<totfact> 0.60331185E+03</totfact>
</mgrwt>
</event>
<event>
 4    1  0.1774755E-004  0.3212127E+03  0.7818608E-02  0.1075093E+00
          1   -1    0    0  501    0  0.00000000000E+00  0.00000000000E+00  0.23213278872E+04  0.23213278872E+04  0.00000000000E+00 0. -1.
         -1   -1    0    0    0  501 -0.00000000000E+00 -0.00000000000E+00 -0.11111915803E+02  0.11111915803E+02  0.00000000000E+00 0. -1.
         25    1    1    2    0    0  0.89770575456E+02  0.51672468930E+02  0.96777066051E+03  0.98066755407E+03  0.12000000000E+03 0.  0.
         25    1    1    2    0    0 -0.89770575456E+02 -0.51672468930E+02  0.13424453109E+04  0.13517722489E+04  0.12000000000E+03 0.  0.
<mgrwt>
<rscale>  0 0.32121270E+03</rscale>
<asrwt>0</asrwt>
<pdfrwt beam="1">  1        1 0.35712698E+00 0.32121270E+03</pdfrwt>
<pdfrwt beam="2">  1       -1 0.17095274E-02 0.32121270E+03</pdfrwt>
<totfact> 0.17896863E+03</totfact>
</mgrwt>
</event>
<event>
 4    1  0.1774755E-004  0.3182680E+03  0.7818608E-02  0.1076449E+00
         -2   -1    0    0    0  501 -0.00000000000E+00  0.00000000000E+00  0.54259355999E+02  0.54259355999E+02  0.00000000000E+00 0. -1.
          2   -1    0    0  501    0  0.00000000000E+00 -0.00000000000E+00 -0.46671438748E+03  0.46671438748E+03  0.00000000000E+00 0. -1.
         25    1    1    2    0    0 -0.98880109784E+01 -0.74277356625E+02 -0.32549388173E+03  0.35491008089E+03  0.12000000000E+03 0.  0.
         25    1    1    2    0    0  0.98880109784E+01  0.74277356625E+02 -0.86961149747E+02  0.16606366259E+03  0.12000000000E+03 0.  0.
<mgrwt>
<rscale>  0 0.31826795E+03</rscale>
<asrwt>0</asrwt>
<pdfrwt beam="1">  1        2 0.71802211E-01 0.31826795E+03</pdfrwt>
<pdfrwt beam="2">  1       -2 0.83475935E-02 0.31826795E+03</pdfrwt>
<totfact> 0.59524833E+03</totfact>
</mgrwt>
</event>
<event>
 4    1  0.1774755E-004  0.2901081E+03  0.7818608E-02  0.1090293E+00
         -2   -1    0    0    0  501 -0.00000000000E+00  0.00000000000E+00  0.16379026423E+02  0.16379026423E+02  0.00000000000E+00 0. -1.
          2   -1    0    0  501    0  0.00000000000E+00 -0.00000000000E+00 -0.12846106108E+04  0.12846106108E+04  0.00000000000E+00 0. -1.
         25    1    1    2    0    0  0.32440916288E+02  0.30997146808E+02 -0.93917505045E+03  0.94787288786E+03  0.12000000000E+03 0.  0.
         25    1    1    2    0    0 -0.32440916288E+02 -0.30997146808E+02 -0.32905653396E+03  0.35311674939E+03  0.12000000000E+03 0.  0.
<mgrwt>
<rscale>  0 0.29010806E+03</rscale>
<asrwt>0</asrwt>
<pdfrwt beam="1">  1        2 0.19763247E+00 0.29010806E+03</pdfrwt>
<pdfrwt beam="2">  1       -2 0.25198494E-02 0.29010806E+03</pdfrwt>
<totfact> 0.98367319E+03</totfact>
</mgrwt>
</event>
<event>
 4    1  0.1774755E-004  0.2959570E+03  0.7818608E-02  0.1087279E+00
         -1   -1    0    0    0  501 -0.00000000000E+00  0.00000000000E+00  0.37729728916E+02  0.37729728916E+02  0.00000000000E+00 0. -1.
          1   -1    0    0  501    0  0.00000000000E+00 -0.00000000000E+00 -0.58038134343E+03  0.58038134343E+03  0.00000000000E+00 0. -1.
         25    1    1    2    0    0  0.46769297890E+02  0.63952134439E+02 -0.19836545312E+03  0.24500223615E+03  0.12000000000E+03 0.  0.
         25    1    1    2    0    0 -0.46769297890E+02 -0.63952134439E+02 -0.34428616139E+03  0.37310883620E+03  0.12000000000E+03 0.  0.
<mgrwt>
<rscale>  0 0.29595696E+03</rscale>
<asrwt>0</asrwt>
<pdfrwt beam="1">  1        1 0.89289443E-01 0.29595696E+03</pdfrwt>
<pdfrwt beam="2">  1       -1 0.58045733E-02 0.29595696E+03</pdfrwt>
<totfact> 0.51704336E+03</totfact>
</mgrwt>
</event>
<event>
 4    1  0.1774755E-004  0.2661995E+03  0.7818608E-02  0.1103475E+00
         -1   -1    0    0    0  501 -0.00000000000E+00  0.00000000000E+00  0.80928426891E+02  0.80928426891E+02  0.00000000000E+00 0. -1.
          1   -1    0    0  501    0  0.00000000000E+00 -0.00000000000E+00 -0.21890391856E+03  0.21890391856E+03  0.00000000000E+00 0. -1.
         25    1    1    2    0    0 -0.43075668755E+02 -0.35165742742E+02 -0.52152493743E+02  0.14216900262E+03  0.12000000000E+03 0.  0.
         25    1    1    2    0    0  0.43075668755E+02  0.35165742742E+02 -0.85822997929E+02  0.15766334284E+03  0.12000000000E+03 0.  0.
<mgrwt>
<rscale>  0 0.26619955E+03</rscale>
<asrwt>0</asrwt>
<pdfrwt beam="1">  1        1 0.33677526E-01 0.26619955E+03</pdfrwt>
<pdfrwt beam="2">  1       -1 0.12450527E-01 0.26619955E+03</pdfrwt>
<totfact> 0.56004808E+03</totfact>
</mgrwt>
</event>
<event>
 4    1  0.1774755E-004  0.2890338E+03  0.7818608E-02  0.1090855E+00
         -1   -1    0    0    0  501 -0.00000000000E+00  0.00000000000E+00  0.68187499464E+02  0.68187499464E+02  0.00000000000E+00 0.  1.
          1   -1    0    0  501    0  0.00000000000E+00 -0.00000000000E+00 -0.30628968408E+03  0.30628968408E+03  0.00000000000E+00 0.  1.
         25    1    1    2    0    0 -0.13750114608E+02 -0.67291071038E+02 -0.64573901016E+02  0.15260059825E+03  0.12000000000E+03 0.  0.
         25    1    1    2    0    0  0.13750114608E+02  0.67291071038E+02 -0.17352828360E+03  0.22187658529E+03  0.12000000000E+03 0.  0.
<mgrwt>
<rscale>  0 0.28903375E+03</rscale>
<asrwt>0</asrwt>
<pdfrwt beam="1">  1        1 0.47121489E-01 0.28903375E+03</pdfrwt>
<pdfrwt beam="2">  1       -1 0.10490385E-01 0.28903375E+03</pdfrwt>
<totfact> 0.48080650E+03</totfact>
</mgrwt>
</event>
<event>
 4    1  0.1774755E-004  0.2875773E+03  0.7818608E-02  0.1091621E+00
          2   -1    0    0  501    0  0.00000000000E+00  0.00000000000E+00  0.95305899144E+03  0.95305899144E+03  0.00000000000E+00 0. -1.
         -2   -1    0    0    0  501 -0.00000000000E+00 -0.00000000000E+00 -0.21693496199E+02  0.21693496199E+02  0.00000000000E+00 0. -1.
         25    1    1    2    0    0 -0.94388439287E+01  0.12874412867E+02  0.20268612268E+03  0.23608580349E+03  0.12000000000E+03 0.  0.
         25    1    1    2    0    0  0.94388439287E+01 -0.12874412867E+02  0.72867937255E+03  0.73866668415E+03  0.12000000000E+03 0.  0.
<mgrwt>
<rscale>  0 0.28757734E+03</rscale>
<asrwt>0</asrwt>
<pdfrwt beam="1">  1        2 0.14662443E+00 0.28757734E+03</pdfrwt>
<pdfrwt beam="2">  1       -2 0.33374617E-02 0.28757734E+03</pdfrwt>
<totfact> 0.10133555E+04</totfact>
</mgrwt>
</event>
<event>
 4    1  0.1774755E-004  0.3803235E+03  0.7818608E-02  0.1050814E+00
          1   -1    0    0  501    0  0.00000000000E+00  0.00000000000E+00  0.90902221179E+03  0.90902221179E+03  0.00000000000E+00 0.  1.
         -1   -1    0    0    0  501 -0.00000000000E+00 -0.00000000000E+00 -0.39780645224E+02  0.39780645224E+02  0.00000000000E+00 0.  1.
         25    1    1    2    0    0 -0.78819736782E+02  0.47760720650E+02  0.72197868960E+03  0.73766311117E+03  0.12000000000E+03 0.  0.
         25    1    1    2    0    0  0.78819736782E+02 -0.47760720650E+02  0.14726287697E+03  0.21113974585E+03  0.12000000000E+03 0.  0.
<mgrwt>
<rscale>  0 0.38032349E+03</rscale>
<asrwt>0</asrwt>
<pdfrwt beam="1">  1        1 0.13984956E+00 0.38032349E+03</pdfrwt>
<pdfrwt beam="2">  1       -1 0.61201000E-02 0.38032349E+03</pdfrwt>
<totfact> 0.24418236E+03</totfact>
</mgrwt>
</event>
<event>
 4    1  0.1774755E-004  0.2952395E+03  0.7818608E-02  0.1087645E+00
          1   -1    0    0  501    0  0.00000000000E+00  0.00000000000E+00  0.21647877444E+02  0.21647877444E+02  0.00000000000E+00 0. -1.
         -1   -1    0    0    0  501 -0.00000000000E+00 -0.00000000000E+00 -0.10066387867E+04  0.10066387867E+04  0.00000000000E+00 0. -1.
         25    1    1    2    0    0  0.24622779179E+02  0.79153865839E+02 -0.41307507993E+03  0.43806693255E+03  0.12000000000E+03 0.  0.
         25    1    1    2    0    0 -0.24622779179E+02 -0.79153865839E+02 -0.57191582931E+03  0.59021973158E+03  0.12000000000E+03 0.  0.
<mgrwt>
<rscale>  0 0.29523952E+03</rscale>
<asrwt>0</asrwt>
<pdfrwt beam="1">  1        1 0.33304434E-02 0.29523952E+03</pdfrwt>
<pdfrwt beam="2">  1       -1 0.15486747E+00 0.29523952E+03</pdfrwt>
<totfact> 0.10229871E+03</totfact>
</mgrwt>
</event>
<event>
 4    1  0.1774755E-004  0.2430787E+03  0.7818608E-02  0.1117759E+00
         -2   -1    0    0    0  501 -0.00000000000E+00  0.00000000000E+00  0.25332401630E+03  0.25332401630E+03  0.00000000000E+00 0. -1.
          2   -1    0    0  501    0  0.00000000000E+00 -0.00000000000E+00 -0.58311943059E+02  0.58311943059E+02  0.00000000000E+00 0. -1.
         25    1    1    2    0    0 -0.42887472122E+01 -0.18363637791E+02  0.92346084766E+02  0.15258904259E+03  0.12000000000E+03 0.  0.
         25    1    1    2    0    0  0.42887472122E+01  0.18363637791E+02  0.10266598848E+03  0.15904691677E+03  0.12000000000E+03 0.  0.
<mgrwt>
<rscale>  0 0.24307872E+03</rscale>
<asrwt>0</asrwt>
<pdfrwt beam="1">  1        2 0.89710683E-02 0.24307872E+03</pdfrwt>
<pdfrwt beam="2">  1       -2 0.38972925E-01 0.24307872E+03</pdfrwt>
<totfact> 0.45464749E+03</totfact>
</mgrwt>
</event>
<event>
 4    1  0.1774755E-004  0.2947427E+03  0.7818608E-02  0.1087899E+00
         -1   -1    0    0    0  501 -0.00000000000E+00  0.00000000000E+00  0.25593852265E+03  0.25593852265E+03  0.00000000000E+00 0.  1.
          1   -1    0    0  501    0  0.00000000000E+00 -0.00000000000E+00 -0.84857526046E+02  0.84857526046E+02  0.00000000000E+00 0.  1.
         25    1    1    2    0    0  0.31603733049E+02 -0.77680191278E+02  0.66010428625E+02  0.16059385028E+03  0.12000000000E+03 0.  0.
         25    1    1    2    0    0 -0.31603733049E+02  0.77680191278E+02  0.10507056798E+03  0.18020219842E+03  0.12000000000E+03 0.  0.
<mgrwt>
<rscale>  0 0.29474267E+03</rscale>
<asrwt>0</asrwt>
<pdfrwt beam="1">  1        1 0.13055004E-01 0.29474267E+03</pdfrwt>
<pdfrwt beam="2">  1       -1 0.39375157E-01 0.29474267E+03</pdfrwt>
<totfact> 0.28420165E+03</totfact>
</mgrwt>
</event>
<event>
 4    1  0.1774755E-004  0.2485810E+03  0.7818608E-02  0.1114205E+00
         -1   -1    0    0    0  501 -0.00000000000E+00  0.00000000000E+00  0.29782937534E+02  0.29782937534E+02  0.00000000000E+00 0.  1.
          1   -1    0    0  501    0  0.00000000000E+00 -0.00000000000E+00 -0.51869065582E+03  0.51869065582E+03  0.00000000000E+00 0.  1.
         25    1    1    2    0    0  0.84670395424E+01 -0.26208659770E+02 -0.20690928938E+03  0.24076967964E+03  0.12000000000E+03 0.  0.
         25    1    1    2    0    0 -0.84670395424E+01  0.26208659770E+02 -0.28199842891E+03  0.30770391371E+03  0.12000000000E+03 0.  0.
<mgrwt>
<rscale>  0 0.24858102E+03</rscale>
<asrwt>0</asrwt>
<pdfrwt beam="1">  1        1 0.79798563E-01 0.24858102E+03</pdfrwt>
<pdfrwt beam="2">  1       -1 0.45819903E-02 0.24858102E+03</pdfrwt>
<totfact> 0.85395731E+03</totfact>
</mgrwt>
</event>
<event>
 4    1  0.1774755E-004  0.6813364E+03  0.7818608E-02  0.9749693E-01
          1   -1    0    0  501    0  0.00000000000E+00  0.00000000000E+00  0.11235862447E+04  0.11235862447E+04  0.00000000000E+00 0. -1.
         -1   -1    0    0    0  501 -0.00000000000E+00 -0.00000000000E+00 -0.10328963438E+03  0.10328963438E+03  0.00000000000E+00 0. -1.
         25    1    1    2    0    0  0.60119084598E+02  0.13945277563E+03  0.10149632237E+04  0.10332529828E+04  0.12000000000E+03 0.  0.
         25    1    1    2    0    0 -0.60119084598E+02 -0.13945277563E+03  0.53333866326E+01  0.19362289632E+03  0.12000000000E+03 0.  0.
<mgrwt>
<rscale>  0 0.68133637E+03</rscale>
<asrwt>0</asrwt>
<pdfrwt beam="1">  1        1 0.17285941E+00 0.68133637E+03</pdfrwt>
<pdfrwt beam="2">  1       -1 0.15890714E-01 0.68133637E+03</pdfrwt>
<totfact> 0.36980084E+02</totfact>
</mgrwt>
</event>
<event>
 4    1  0.1774755E-004  0.2839665E+03  0.7818608E-02  0.1093542E+00
         -1   -1    0    0    0  501 -0.00000000000E+00  0.00000000000E+00  0.88750832767E+02  0.88750832767E+02  0.00000000000E+00 0. -1.
          1   -1    0    0  501    0  0.00000000000E+00 -0.00000000000E+00 -0.22714431529E+03  0.22714431529E+03  0.00000000000E+00 0. -1.
         25    1    1    2    0    0 -0.11184478576E+02 -0.68050206590E+02 -0.10443353607E+03  0.17338479355E+03  0.12000000000E+03 0.  0.
         25    1    1    2    0    0  0.11184478576E+02  0.68050206590E+02 -0.33959946449E+02  0.14251035450E+03  0.12000000000E+03 0.  0.
<mgrwt>
<rscale>  0 0.28396653E+03</rscale>
<asrwt>0</asrwt>
<pdfrwt beam="1">  1        1 0.34945278E-01 0.28396653E+03</pdfrwt>
<pdfrwt beam="2">  1       -1 0.13653975E-01 0.28396653E+03</pdfrwt>
<totfact> 0.46344575E+03</totfact>
</mgrwt>
</event>
<event>
 4    1  0.1774755E-004  0.2992358E+03  0.7818608E-02  0.1085623E+00
          2   -1    0    0  501    0  0.00000000000E+00  0.00000000000E+00  0.76150459822E+03  0.76150459822E+03  0.00000000000E+00 0. -1.
         -2   -1    0    0    0  501 -0.00000000000E+00 -0.00000000000E+00 -0.29396431002E+02  0.29396431002E+02  0.00000000000E+00 0. -1.
         25    1    1    2    0    0  0.72694847477E+02 -0.11923092096E+02  0.23235508945E+03  0.27169024378E+03  0.12000000000E+03 0.  0.
         25    1    1    2    0    0 -0.72694847477E+02  0.11923092096E+02  0.49975307777E+03  0.51921078544E+03  0.12000000000E+03 0.  0.
<mgrwt>
<rscale>  0 0.29923581E+03</rscale>
<asrwt>0</asrwt>
<pdfrwt beam="1">  1        2 0.11715454E+00 0.29923581E+03</pdfrwt>
<pdfrwt beam="2">  1       -2 0.45225284E-02 0.29923581E+03</pdfrwt>
<totfact> 0.86187922E+03</totfact>
</mgrwt>
</event>
<event>
 4    1  0.1774755E-004  0.2723556E+03  0.7818608E-02  0.1099939E+00
          1   -1    0    0  501    0  0.00000000000E+00  0.00000000000E+00  0.19814493881E+03  0.19814493881E+03  0.00000000000E+00 0.  1.
         -1   -1    0    0    0  501 -0.00000000000E+00 -0.00000000000E+00 -0.93590016874E+02  0.93590016874E+02  0.00000000000E+00 0.  1.
         25    1    1    2    0    0 -0.29921089515E+00 -0.61371776562E+02  0.73097680835E+02  0.15332923866E+03  0.12000000000E+03 0.  0.
         25    1    1    2    0    0  0.29921089515E+00  0.61371776562E+02  0.31457241096E+02  0.13840571702E+03  0.12000000000E+03 0.  0.
<mgrwt>
<rscale>  0 0.27235556E+03</rscale>
<asrwt>0</asrwt>
<pdfrwt beam="1">  1        1 0.30483837E-01 0.27235556E+03</pdfrwt>
<pdfrwt beam="2">  1       -1 0.14398464E-01 0.27235556E+03</pdfrwt>
<totfact> 0.50549007E+03</totfact>
</mgrwt>
</event>
<event>
 4    1  0.1774755E-004  0.3196211E+03  0.7818608E-02  0.1075824E+00
         -2   -1    0    0    0  501 -0.00000000000E+00  0.00000000000E+00  0.14808758728E+02  0.14808758728E+02  0.00000000000E+00 0.  1.
          2   -1    0    0  501    0  0.00000000000E+00 -0.00000000000E+00 -0.17246148009E+04  0.17246148009E+04  0.00000000000E+00 0.  1.
         25    1    1    2    0    0 -0.87025293614E+02 -0.56068905308E+02 -0.74306987538E+03  0.75978283974E+03  0.12000000000E+03 0.  0.
         25    1    1    2    0    0  0.87025293614E+02  0.56068905308E+02 -0.96673616676E+03  0.97964071985E+03  0.12000000000E+03 0.  0.
<mgrwt>
<rscale>  0 0.31962105E+03</rscale>
<asrwt>0</asrwt>
<pdfrwt beam="1">  1        2 0.26532512E+00 0.31962105E+03</pdfrwt>
<pdfrwt beam="2">  1       -2 0.22782725E-02 0.31962105E+03</pdfrwt>
<totfact> 0.66226009E+03</totfact>
</mgrwt>
</event>
<event>
 4    1  0.1774755E-004  0.3401259E+03  0.7818608E-02  0.1066742E+00
         -1   -1    0    0    0  501 -0.00000000000E+00  0.00000000000E+00  0.57977586000E+02  0.57977586000E+02  0.00000000000E+00 0.  1.
          1   -1    0    0  501    0  0.00000000000E+00 -0.00000000000E+00 -0.49883778083E+03  0.49883778083E+03  0.00000000000E+00 0.  1.
         25    1    1    2    0    0  0.47339832844E+02 -0.68750191000E+02 -0.78147060624E+02  0.16575467300E+03  0.12000000000E+03 0.  0.
         25    1    1    2    0    0 -0.47339832844E+02  0.68750191000E+02 -0.36271313421E+03  0.39106069384E+03  0.12000000000E+03 0.  0.
<mgrwt>
<rscale>  0 0.34012592E+03</rscale>
<asrwt>0</asrwt>
<pdfrwt beam="1">  1        1 0.76744274E-01 0.34012592E+03</pdfrwt>
<pdfrwt beam="2">  1       -1 0.89196286E-02 0.34012592E+03</pdfrwt>
<totfact> 0.33053365E+03</totfact>
</mgrwt>
</event>
<event>
 4    1  0.1774755E-004  0.3527308E+03  0.7818608E-02  0.1061500E+00
         -1   -1    0    0    0  501 -0.00000000000E+00  0.00000000000E+00  0.55841696936E+03  0.55841696936E+03  0.00000000000E+00 0.  1.
          1   -1    0    0  501    0  0.00000000000E+00 -0.00000000000E+00 -0.55701673901E+02  0.55701673901E+02  0.00000000000E+00 0.  1.
         25    1    1    2    0    0  0.39145824404E+01 -0.45053345356E+02  0.46215754461E+03  0.47961935316E+03  0.12000000000E+03 0.  0.
         25    1    1    2    0    0 -0.39145824404E+01  0.45053345356E+02  0.40557750843E+02  0.13449929010E+03  0.12000000000E+03 0.  0.
<mgrwt>
<rscale>  0 0.35273083E+03</rscale>
<asrwt>0</asrwt>
<pdfrwt beam="1">  1        1 0.85694887E-02 0.35273083E+03</pdfrwt>
<pdfrwt beam="2">  1       -1 0.85910299E-01 0.35273083E+03</pdfrwt>
<totfact> 0.11145449E+03</totfact>
</mgrwt>
</event>
<event>
 4    1  0.1774755E-004  0.2510157E+03  0.7818608E-02  0.1112665E+00
          1   -1    0    0  501    0  0.00000000000E+00  0.00000000000E+00  0.26993171516E+03  0.26993171516E+03  0.00000000000E+00 0.  1.
         -1   -1    0    0    0  501 -0.00000000000E+00 -0.00000000000E+00 -0.58356327324E+02  0.58356327324E+02  0.00000000000E+00 0.  1.
         25    1    1    2    0    0 -0.11430806321E+02  0.31471670846E+02  0.12566916835E+03  0.17695725267E+03  0.12000000000E+03 0.  0.
         25    1    1    2    0    0  0.11430806321E+02 -0.31471670846E+02  0.85906219488E+02  0.15133078981E+03  0.12000000000E+03 0.  0.
<mgrwt>
<rscale>  0 0.25101572E+03</rscale>
<asrwt>0</asrwt>
<pdfrwt beam="1">  1        1 0.41527956E-01 0.25101572E+03</pdfrwt>
<pdfrwt beam="2">  1       -1 0.89778966E-02 0.25101572E+03</pdfrwt>
<totfact> 0.71299915E+03</totfact>
</mgrwt>
</event>
<event>
 4    1  0.1774755E-004  0.2668060E+03  0.7818608E-02  0.1103122E+00
          1   -1    0    0  501    0  0.00000000000E+00  0.00000000000E+00  0.29283711070E+04  0.29283711070E+04  0.00000000000E+00 0.  1.
         -1   -1    0    0    0  501 -0.00000000000E+00 -0.00000000000E+00 -0.60772226916E+01  0.60772226916E+01  0.00000000000E+00 0.  1.
         25    1    1    2    0    0  0.99153410018E+01 -0.13097075386E+02  0.20761271866E+04  0.20796571694E+04  0.12000000000E+03 0.  0.
         25    1    1    2    0    0 -0.99153410018E+01  0.13097075386E+02  0.84616669765E+03  0.85479116022E+03  0.12000000000E+03 0.  0.
<mgrwt>
<rscale>  0 0.26680602E+03</rscale>
<asrwt>0</asrwt>
<pdfrwt beam="1">  1        1 0.45051750E+00 0.26680602E+03</pdfrwt>
<pdfrwt beam="2">  1       -1 0.93495968E-03 0.26680602E+03</pdfrwt>
<totfact> 0.16847846E+03</totfact>
</mgrwt>
</event>
<event>
 4    1  0.1774755E-004  0.2973501E+03  0.7818608E-02  0.1086573E+00
         -2   -1    0    0    0  501 -0.00000000000E+00  0.00000000000E+00  0.94809230859E+01  0.94809230859E+01  0.00000000000E+00 0.  1.
          2   -1    0    0  501    0  0.00000000000E+00 -0.00000000000E+00 -0.23314470779E+04  0.23314470779E+04  0.00000000000E+00 0.  1.
         25    1    1    2    0    0  0.45987475092E+02  0.66119761334E+02 -0.88627448854E+03  0.89798058984E+03  0.12000000000E+03 0.  0.
         25    1    1    2    0    0 -0.45987475092E+02 -0.66119761334E+02 -0.14356916663E+04  0.14429474111E+04  0.12000000000E+03 0.  0.
<mgrwt>
<rscale>  0 0.29735010E+03</rscale>
<asrwt>0</asrwt>
<pdfrwt beam="1">  1        2 0.35868425E+00 0.29735010E+03</pdfrwt>
<pdfrwt beam="2">  1       -2 0.14586032E-02 0.29735010E+03</pdfrwt>
<totfact> 0.60862088E+03</totfact>
</mgrwt>
</event>
<event>
 4    1  0.1774755E-004  0.3332991E+03  0.7818608E-02  0.1069686E+00
          1   -1    0    0  501    0  0.00000000000E+00  0.00000000000E+00  0.25816897686E+03  0.25816897686E+03  0.00000000000E+00 0. -1.
         -1   -1    0    0    0  501 -0.00000000000E+00 -0.00000000000E+00 -0.10757322566E+03  0.10757322566E+03  0.00000000000E+00 0. -1.
         25    1    1    2    0    0  0.55480592879E+02  0.96919024133E+02  0.42365330388E+02  0.16931099977E+03  0.12000000000E+03 0.  0.
         25    1    1    2    0    0 -0.55480592879E+02 -0.96919024133E+02  0.10823042081E+03  0.19643120275E+03  0.12000000000E+03 0.  0.
<mgrwt>
<rscale>  0 0.33329908E+03</rscale>
<asrwt>0</asrwt>
<pdfrwt beam="1">  1        1 0.39718304E-01 0.33329908E+03</pdfrwt>
<pdfrwt beam="2">  1       -1 0.16549727E-01 0.33329908E+03</pdfrwt>
<totfact> 0.29144271E+03</totfact>
</mgrwt>
</event>
<event>
 4    1  0.1774755E-004  0.2461949E+03  0.7818608E-02  0.1115733E+00
          1   -1    0    0  501    0  0.00000000000E+00  0.00000000000E+00  0.78302411894E+02  0.78302411894E+02  0.00000000000E+00 0.  1.
         -1   -1    0    0    0  501 -0.00000000000E+00 -0.00000000000E+00 -0.19351872137E+03  0.19351872137E+03  0.00000000000E+00 0.  1.
         25    1    1    2    0    0  0.33540559889E+01  0.12802443182E+02 -0.31067945118E+02  0.12466101819E+03  0.12000000000E+03 0.  0.
         25    1    1    2    0    0 -0.33540559889E+01 -0.12802443182E+02 -0.84148364354E+02  0.14716011507E+03  0.12000000000E+03 0.  0.
<mgrwt>
<rscale>  0 0.24619490E+03</rscale>
<asrwt>0</asrwt>
<pdfrwt beam="1">  1        1 0.12046525E-01 0.24619490E+03</pdfrwt>
<pdfrwt beam="2">  1       -1 0.29772111E-01 0.24619490E+03</pdfrwt>
<totfact> 0.51045272E+03</totfact>
</mgrwt>
</event>
<event>
 4    1  0.1774755E-004  0.2569308E+03  0.7818608E-02  0.1109001E+00
          2   -1    0    0  501    0  0.00000000000E+00  0.00000000000E+00  0.69136740177E+03  0.69136740177E+03  0.00000000000E+00 0. -1.
         -2   -1    0    0    0  501 -0.00000000000E+00 -0.00000000000E+00 -0.23870604756E+02  0.23870604756E+02  0.00000000000E+00 0. -1.
         25    1    1    2    0    0 -0.16382043974E+01  0.42862329828E+02  0.28856066262E+03  0.31544749016E+03  0.12000000000E+03 0.  0.
         25    1    1    2    0    0  0.16382043974E+01 -0.42862329828E+02  0.37893613439E+03  0.39979051637E+03  0.12000000000E+03 0.  0.
<mgrwt>
<rscale>  0 0.25693079E+03</rscale>
<asrwt>0</asrwt>
<pdfrwt beam="1">  1        2 0.10636420E+00 0.25693079E+03</pdfrwt>
<pdfrwt beam="2">  1       -2 0.36724013E-02 0.25693079E+03</pdfrwt>
<totfact> 0.13209286E+04</totfact>
</mgrwt>
</event>
<event>
 4    1  0.1774755E-004  0.2537477E+03  0.7818608E-02  0.1110959E+00
          2   -1    0    0  501    0  0.00000000000E+00  0.00000000000E+00  0.15216411065E+03  0.15216411065E+03  0.00000000000E+00 0.  1.
         -2   -1    0    0    0  501 -0.00000000000E+00 -0.00000000000E+00 -0.10578691919E+03  0.10578691919E+03  0.00000000000E+00 0.  1.
         25    1    1    2    0    0  0.20806309914E+02  0.23672047534E+02  0.50155445365E+02  0.13382390320E+03  0.12000000000E+03 0.  0.
         25    1    1    2    0    0 -0.20806309914E+02 -0.23672047534E+02 -0.37782539067E+01  0.12412712665E+03  0.12000000000E+03 0.  0.
<mgrwt>
<rscale>  0 0.25374769E+03</rscale>
<asrwt>0</asrwt>
<pdfrwt beam="1">  1        2 0.23409863E-01 0.25374769E+03</pdfrwt>
<pdfrwt beam="2">  1       -2 0.16274911E-01 0.25374769E+03</pdfrwt>
<totfact> 0.68329374E+03</totfact>
</mgrwt>
</event>
<event>
 4    1  0.1774755E-004  0.2453600E+03  0.7818608E-02  0.1116273E+00
          1   -1    0    0  501    0  0.00000000000E+00  0.00000000000E+00  0.79603544286E+03  0.79603544286E+03  0.00000000000E+00 0. -1.
         -1   -1    0    0    0  501 -0.00000000000E+00 -0.00000000000E+00 -0.18906671337E+02  0.18906671337E+02  0.00000000000E+00 0. -1.
         25    1    1    2    0    0 -0.24736225346E+02  0.19594335020E+01  0.36901023423E+03  0.38882421889E+03  0.12000000000E+03 0.  0.
         25    1    1    2    0    0  0.24736225346E+02 -0.19594335020E+01  0.40811853729E+03  0.42611789531E+03  0.12000000000E+03 0.  0.
<mgrwt>
<rscale>  0 0.24535998E+03</rscale>
<asrwt>0</asrwt>
<pdfrwt beam="1">  1        1 0.12246697E+00 0.24535998E+03</pdfrwt>
<pdfrwt beam="2">  1       -1 0.29087193E-02 0.24535998E+03</pdfrwt>
<totfact> 0.91038452E+03</totfact>
</mgrwt>
</event>
<event>
 4    1  0.1774755E-004  0.2792894E+03  0.7818608E-02  0.1096078E+00
         -1   -1    0    0    0  501 -0.00000000000E+00  0.00000000000E+00  0.70734607323E+02  0.70734607323E+02  0.00000000000E+00 0.  1.
          1   -1    0    0  501    0  0.00000000000E+00 -0.00000000000E+00 -0.27568740191E+03  0.27568740191E+03  0.00000000000E+00 0.  1.
         25    1    1    2    0    0  0.51592481106E+02  0.41304637432E+02 -0.13605315225E+03  0.19307593692E+03  0.12000000000E+03 0.  0.
         25    1    1    2    0    0 -0.51592481106E+02 -0.41304637432E+02 -0.68899642337E+02  0.15334607231E+03  0.12000000000E+03 0.  0.
<mgrwt>
<rscale>  0 0.27928938E+03</rscale>
<asrwt>0</asrwt>
<pdfrwt beam="1">  1        1 0.42413446E-01 0.27928938E+03</pdfrwt>
<pdfrwt beam="2">  1       -1 0.10882247E-01 0.27928938E+03</pdfrwt>
<totfact> 0.51799151E+03</totfact>
</mgrwt>
</event>
<event>
 4    1  0.1774755E-004  0.2782829E+03  0.7818608E-02  0.1096630E+00
          3   -1    0    0  501    0  0.00000000000E+00  0.00000000000E+00  0.28481985014E+02  0.28481985014E+02  0.00000000000E+00 0.  1.
         -3   -1    0    0    0  501 -0.00000000000E+00 -0.00000000000E+00 -0.67974000269E+03  0.67974000269E+03  0.00000000000E+00 0.  1.
         25    1    1    2    0    0 -0.13472435467E+01  0.62168279616E+02 -0.40979157580E+03  0.43150416643E+03  0.12000000000E+03 0.  0.
         25    1    1    2    0    0  0.13472435467E+01 -0.62168279616E+02 -0.24146644188E+03  0.27671782128E+03  0.12000000000E+03 0.  0.
<mgrwt>
<rscale>  0 0.27828291E+03</rscale>
<asrwt>0</asrwt>
<pdfrwt beam="1">  1        3 0.43818440E-02 0.27828291E+03</pdfrwt>
<pdfrwt beam="2">  1       -3 0.10457538E+00 0.27828291E+03</pdfrwt>
<totfact> 0.58288410E+02</totfact>
</mgrwt>
</event>
<event>
 4    1  0.1774755E-004  0.3257452E+03  0.7818608E-02  0.1073035E+00
          2   -1    0    0  501    0  0.00000000000E+00  0.00000000000E+00  0.48030107775E+03  0.48030107775E+03  0.00000000000E+00 0.  1.
         -2   -1    0    0    0  501 -0.00000000000E+00 -0.00000000000E+00 -0.55230958088E+02  0.55230958088E+02  0.00000000000E+00 0.  1.
         25    1    1    2    0    0 -0.37378536202E+02  0.10090598948E+03  0.17403845230E+03  0.23720994195E+03  0.12000000000E+03 0.  0.
         25    1    1    2    0    0  0.37378536202E+02 -0.10090598948E+03  0.25103166736E+03  0.29832209389E+03  0.12000000000E+03 0.  0.
<mgrwt>
<rscale>  0 0.32574523E+03</rscale>
<asrwt>0</asrwt>
<pdfrwt beam="1">  1        2 0.73892471E-01 0.32574523E+03</pdfrwt>
<pdfrwt beam="2">  1       -2 0.84970708E-02 0.32574523E+03</pdfrwt>
<totfact> 0.56095522E+03</totfact>
</mgrwt>
</event>
<event>
 4    1  0.1774755E-004  0.2861566E+03  0.7818608E-02  0.1092373E+00
         -1   -1    0    0    0  501 -0.00000000000E+00  0.00000000000E+00  0.15259158330E+03  0.15259158330E+03  0.00000000000E+00 0.  1.
          1   -1    0    0  501    0  0.00000000000E+00 -0.00000000000E+00 -0.13415811572E+03  0.13415811572E+03  0.00000000000E+00 0.  1.
         25    1    1    2    0    0  0.13372064961E+02 -0.35131621405E+02 -0.59176881970E+02  0.13897822241E+03  0.12000000000E+03 0.  0.
         25    1    1    2    0    0 -0.13372064961E+02  0.35131621405E+02  0.77610349548E+02  0.14777147661E+03  0.12000000000E+03 0.  0.
<mgrwt>
<rscale>  0 0.28615660E+03</rscale>
<asrwt>0</asrwt>
<pdfrwt beam="1">  1        1 0.20639710E-01 0.28615660E+03</pdfrwt>
<pdfrwt beam="2">  1       -1 0.23475628E-01 0.28615660E+03</pdfrwt>
<totfact> 0.37768234E+03</totfact>
</mgrwt>
</event>
<event>
 4    1  0.1774755E-004  0.2728132E+03  0.7818608E-02  0.1099680E+00
         -2   -1    0    0    0  501 -0.00000000000E+00  0.00000000000E+00  0.14289090819E+02  0.14289090819E+02  0.00000000000E+00 0. -1.
          2   -1    0    0  501    0  0.00000000000E+00 -0.00000000000E+00 -0.13021650171E+04  0.13021650171E+04  0.00000000000E+00 0. -1.
         25    1    1    2    0    0 -0.14317237191E+02 -0.58414712242E+01 -0.94789135408E+03  0.95558208711E+03  0.12000000000E+03 0.  0.
         25    1    1    2    0    0  0.14317237191E+02  0.58414712242E+01 -0.33998457219E+03  0.36087202079E+03  0.12000000000E+03 0.  0.
<mgrwt>
<rscale>  0 0.27281315E+03</rscale>
<asrwt>0</asrwt>
<pdfrwt beam="1">  1        2 0.20033309E+00 0.27281315E+03</pdfrwt>
<pdfrwt beam="2">  1       -2 0.21983216E-02 0.27281315E+03</pdfrwt>
<totfact> 0.11752308E+04</totfact>
</mgrwt>
</event>
<event>
 4    1  0.1774755E-004  0.2614302E+03  0.7818608E-02  0.1106287E+00
         -1   -1    0    0    0  501 -0.00000000000E+00  0.00000000000E+00  0.27188662084E+02  0.27188662084E+02  0.00000000000E+00 0.  1.
          1   -1    0    0  501    0  0.00000000000E+00 -0.00000000000E+00 -0.62843956971E+03  0.62843956971E+03  0.00000000000E+00 0.  1.
         25    1    1    2    0    0  0.49109130873E+02  0.16427706756E+02 -0.30615116778E+03  0.33288153121E+03  0.12000000000E+03 0.  0.
         25    1    1    2    0    0 -0.49109130873E+02 -0.16427706756E+02 -0.29509973984E+03  0.32274670058E+03  0.12000000000E+03 0.  0.
<mgrwt>
<rscale>  0 0.26143015E+03</rscale>
<asrwt>0</asrwt>
<pdfrwt beam="1">  1        1 0.96683013E-01 0.26143015E+03</pdfrwt>
<pdfrwt beam="2">  1       -1 0.41828710E-02 0.26143015E+03</pdfrwt>
<totfact> 0.75355071E+03</totfact>
</mgrwt>
</event>
<event>
 4    1  0.1774755E-004  0.2904218E+03  0.7818608E-02  0.1090129E+00
          2   -1    0    0  501    0  0.00000000000E+00  0.00000000000E+00  0.15195427707E+04  0.15195427707E+04  0.00000000000E+00 0. -1.
         -2   -1    0    0    0  501 -0.00000000000E+00 -0.00000000000E+00 -0.13876678503E+02  0.13876678503E+02  0.00000000000E+00 0. -1.
         25    1    1    2    0    0  0.81471626138E+02  0.69615091591E+01  0.75101911698E+03  0.76492862578E+03  0.12000000000E+03 0.  0.
         25    1    1    2    0    0 -0.81471626138E+02 -0.69615091591E+01  0.75464697523E+03  0.76849082343E+03  0.12000000000E+03 0.  0.
<mgrwt>
<rscale>  0 0.29042181E+03</rscale>
<asrwt>0</asrwt>
<pdfrwt beam="1">  1        2 0.23377568E+00 0.29042181E+03</pdfrwt>
<pdfrwt beam="2">  1       -2 0.21348748E-02 0.29042181E+03</pdfrwt>
<totfact> 0.93622307E+03</totfact>
</mgrwt>
</event>
<event>
 4    1  0.1774755E-004  0.2975328E+03  0.7818608E-02  0.1086480E+00
         -1   -1    0    0    0  501 -0.00000000000E+00  0.00000000000E+00  0.16698704312E+03  0.16698704312E+03  0.00000000000E+00 0. -1.
          1   -1    0    0  501    0  0.00000000000E+00 -0.00000000000E+00 -0.13253390332E+03  0.13253390332E+03  0.00000000000E+00 0. -1.
         25    1    1    2    0    0  0.44961143310E+01  0.66415633641E+02  0.75057743260E+02  0.15641264738E+03  0.12000000000E+03 0.  0.
         25    1    1    2    0    0 -0.44961143310E+01 -0.66415633641E+02 -0.40604603460E+02  0.14310829905E+03  0.12000000000E+03 0.  0.
<mgrwt>
<rscale>  0 0.29753282E+03</rscale>
<asrwt>0</asrwt>
<pdfrwt beam="1">  1        1 0.20389831E-01 0.29753282E+03</pdfrwt>
<pdfrwt beam="2">  1       -1 0.25690314E-01 0.29753282E+03</pdfrwt>
<totfact> 0.33056240E+03</totfact>
</mgrwt>
</event>
<event>
 4    1  0.1774755E-004  0.3007644E+03  0.7818608E-02  0.1084859E+00
          3   -1    0    0  501    0  0.00000000000E+00  0.00000000000E+00  0.64710697775E+02  0.64710697775E+02  0.00000000000E+00 0. -1.
         -3   -1    0    0    0  501 -0.00000000000E+00 -0.00000000000E+00 -0.34947549359E+03  0.34947549359E+03  0.00000000000E+00 0. -1.
         25    1    1    2    0    0  0.37199293639E+02  0.75473664031E+02 -0.95993109532E+02  0.17519913952E+03  0.12000000000E+03 0.  0.
         25    1    1    2    0    0 -0.37199293639E+02 -0.75473664031E+02 -0.18877168629E+03  0.23898705185E+03  0.12000000000E+03 0.  0.
<mgrwt>
<rscale>  0 0.30076438E+03</rscale>
<asrwt>0</asrwt>
<pdfrwt beam="1">  1        3 0.99554918E-02 0.30076438E+03</pdfrwt>
<pdfrwt beam="2">  1       -3 0.53765461E-01 0.30076438E+03</pdfrwt>
<totfact> 0.65679014E+02</totfact>
</mgrwt>
</event>
<event>
 4    1  0.1774755E-004  0.3242023E+03  0.7818608E-02  0.1073731E+00
         -1   -1    0    0    0  501 -0.00000000000E+00  0.00000000000E+00  0.39803273854E+02  0.39803273854E+02  0.00000000000E+00 0.  1.
          1   -1    0    0  501    0  0.00000000000E+00 -0.00000000000E+00 -0.66016634910E+03  0.66016634910E+03  0.00000000000E+00 0.  1.
         25    1    1    2    0    0  0.24878154718E+01  0.10883003018E+03 -0.29904256845E+03  0.34011266140E+03  0.12000000000E+03 0.  0.
         25    1    1    2    0    0 -0.24878154718E+01 -0.10883003018E+03 -0.32132050679E+03  0.35985696156E+03  0.12000000000E+03 0.  0.
<mgrwt>
<rscale>  0 0.32420229E+03</rscale>
<asrwt>0</asrwt>
<pdfrwt beam="1">  1        1 0.10156404E+00 0.32420229E+03</pdfrwt>
<pdfrwt beam="2">  1       -1 0.61235813E-02 0.32420229E+03</pdfrwt>
<totfact> 0.39844437E+03</totfact>
</mgrwt>
</event>
<event>
 4    1  0.1774755E-004  0.2591068E+03  0.7818608E-02  0.1107681E+00
         -2   -1    0    0    0  501 -0.00000000000E+00  0.00000000000E+00  0.12190939404E+02  0.12190939404E+02  0.00000000000E+00 0. -1.
          2   -1    0    0  501    0  0.00000000000E+00 -0.00000000000E+00 -0.13767668860E+04  0.13767668860E+04  0.00000000000E+00 0. -1.
         25    1    1    2    0    0  0.17189428284E+02  0.24693760120E+02 -0.88843089864E+03  0.89700318834E+03  0.12000000000E+03 0.  0.
         25    1    1    2    0    0 -0.17189428284E+02 -0.24693760120E+02 -0.47614504791E+03  0.49195463701E+03  0.12000000000E+03 0.  0.
<mgrwt>
<rscale>  0 0.25910679E+03</rscale>
<asrwt>0</asrwt>
<pdfrwt beam="1">  1        2 0.21181037E+00 0.25910679E+03</pdfrwt>
<pdfrwt beam="2">  1       -2 0.18755284E-02 0.25910679E+03</pdfrwt>
<totfact> 0.13489957E+04</totfact>
</mgrwt>
</event>
<event>
 4    1  0.1774755E-004  0.2760908E+03  0.7818608E-02  0.1097843E+00
          3   -1    0    0  501    0  0.00000000000E+00  0.00000000000E+00  0.54730053784E+02  0.54730053784E+02  0.00000000000E+00 0.  1.
         -3   -1    0    0    0  501 -0.00000000000E+00 -0.00000000000E+00 -0.34819134062E+03  0.34819134062E+03  0.00000000000E+00 0.  1.
         25    1    1    2    0    0 -0.10782416480E+02 -0.54847847743E+02 -0.20385160524E+03  0.24306382673E+03  0.12000000000E+03 0.  0.
         25    1    1    2    0    0  0.10782416480E+02  0.54847847743E+02 -0.89609681605E+02  0.15985756768E+03  0.12000000000E+03 0.  0.
<mgrwt>
<rscale>  0 0.27609079E+03</rscale>
<asrwt>0</asrwt>
<pdfrwt beam="1">  1        3 0.84200086E-02 0.27609079E+03</pdfrwt>
<pdfrwt beam="2">  1       -3 0.53567896E-01 0.27609079E+03</pdfrwt>
<totfact> 0.86667694E+02</totfact>
</mgrwt>
</event>
<event>
 4    1  0.1774755E-004  0.2546670E+03  0.7818608E-02  0.1110390E+00
         -1   -1    0    0    0  501 -0.00000000000E+00  0.00000000000E+00  0.13221015532E+02  0.13221015532E+02  0.00000000000E+00 0. -1.
          1   -1    0    0  501    0  0.00000000000E+00 -0.00000000000E+00 -0.12263673063E+04  0.12263673063E+04  0.00000000000E+00 0. -1.
         25    1    1    2    0    0 -0.26152454865E+02  0.97090678310E+01 -0.76321279952E+03  0.77309248751E+03  0.12000000000E+03 0.  0.
         25    1    1    2    0    0  0.26152454865E+02 -0.97090678310E+01 -0.44993349126E+03  0.46649583434E+03  0.12000000000E+03 0.  0.
<mgrwt>
<rscale>  0 0.25466701E+03</rscale>
<asrwt>0</asrwt>
<pdfrwt beam="1">  1        1 0.18867194E+00 0.25466701E+03</pdfrwt>
<pdfrwt beam="2">  1       -1 0.20340019E-02 0.25466701E+03</pdfrwt>
<totfact> 0.73221830E+03</totfact>
</mgrwt>
</event>
<event>
 4    1  0.1774755E-004  0.2531313E+03  0.7818608E-02  0.1111342E+00
         -4   -1    0    0    0  501 -0.00000000000E+00  0.00000000000E+00  0.10038529540E+03  0.10038529540E+03  0.00000000000E+00 0.  1.
          4   -1    0    0  501    0  0.00000000000E+00 -0.00000000000E+00 -0.15957380412E+03  0.15957380412E+03  0.00000000000E+00 0.  1.
         25    1    1    2    0    0 -0.33672540835E+02 -0.27710455722E+01 -0.52031795404E+02  0.13508821722E+03  0.12000000000E+03 0.  0.
         25    1    1    2    0    0  0.33672540835E+02  0.27710455722E+01 -0.71567133161E+01  0.12487088230E+03  0.12000000000E+03 0.  0.
<mgrwt>
<rscale>  0 0.25313130E+03</rscale>
<asrwt>0</asrwt>
<pdfrwt beam="1">  1        4 0.24549816E-01 0.25313130E+03</pdfrwt>
<pdfrwt beam="2">  1       -4 0.15443892E-01 0.25313130E+03</pdfrwt>
<totfact> 0.10286584E+03</totfact>
</mgrwt>
</event>
<event>
 4    1  0.1774755E-004  0.2944883E+03  0.7818608E-02  0.1088029E+00
          2   -1    0    0  501    0  0.00000000000E+00  0.00000000000E+00  0.16889100995E+04  0.16889100995E+04  0.00000000000E+00 0.  1.
         -2   -1    0    0    0  501 -0.00000000000E+00 -0.00000000000E+00 -0.12837175395E+02  0.12837175395E+02  0.00000000000E+00 0.  1.
         25    1    1    2    0    0 -0.32167524473E+02  0.70672097830E+00  0.38135470452E+03  0.40108186165E+03  0.12000000000E+03 0.  0.
         25    1    1    2    0    0  0.32167524473E+02 -0.70672097830E+00  0.12947182196E+04  0.13006654133E+04  0.12000000000E+03 0.  0.
<mgrwt>
<rscale>  0 0.29448827E+03</rscale>
<asrwt>0</asrwt>
<pdfrwt beam="1">  1        2 0.25983215E+00 0.29448827E+03</pdfrwt>
<pdfrwt beam="2">  1       -2 0.19749514E-02 0.29448827E+03</pdfrwt>
<totfact> 0.85379056E+03</totfact>
</mgrwt>
</event>
<event>
 4    1  0.1774755E-004  0.3294767E+03  0.7818608E-02  0.1071369E+00
         -2   -1    0    0    0  501 -0.00000000000E+00  0.00000000000E+00  0.23632406979E+02  0.23632406979E+02  0.00000000000E+00 0. -1.
          2   -1    0    0  501    0  0.00000000000E+00 -0.00000000000E+00 -0.11483687156E+04  0.11483687156E+04  0.00000000000E+00 0. -1.
         25    1    1    2    0    0  0.23413217846E+02 -0.99994344960E+02 -0.39583877437E+03  0.42618702829E+03  0.12000000000E+03 0.  0.
         25    1    1    2    0    0 -0.23413217846E+02  0.99994344960E+02 -0.72889753427E+03  0.74581409431E+03  0.12000000000E+03 0.  0.
<mgrwt>
<rscale>  0 0.32947666E+03</rscale>
<asrwt>0</asrwt>
<pdfrwt beam="1">  1        2 0.17667208E+00 0.32947666E+03</pdfrwt>
<pdfrwt beam="2">  1       -2 0.36357556E-02 0.32947666E+03</pdfrwt>
<totfact> 0.68153886E+03</totfact>
</mgrwt>
</event>
<event>
 4    1  0.1774755E-004  0.3204985E+03  0.7818608E-02  0.1075420E+00
          2   -1    0    0  501    0  0.00000000000E+00  0.00000000000E+00  0.12155355788E+03  0.12155355788E+03  0.00000000000E+00 0. -1.
         -2   -1    0    0    0  501 -0.00000000000E+00 -0.00000000000E+00 -0.21126341310E+03  0.21126341310E+03  0.00000000000E+00 0. -1.
         25    1    1    2    0    0  0.87519251896E+02 -0.28942998638E+02 -0.99631808185E+02  0.18117343576E+03  0.12000000000E+03 0.  0.
         25    1    1    2    0    0 -0.87519251896E+02  0.28942998638E+02  0.99219529606E+01  0.15164353522E+03  0.12000000000E+03 0.  0.
<mgrwt>
<rscale>  0 0.32049848E+03</rscale>
<asrwt>0</asrwt>
<pdfrwt beam="1">  1        2 0.18700547E-01 0.32049848E+03</pdfrwt>
<pdfrwt beam="2">  1       -2 0.32502063E-01 0.32049848E+03</pdfrwt>
<totfact> 0.26532927E+03</totfact>
</mgrwt>
</event>
<event>
 4    1  0.1774755E-004  0.3088898E+03  0.7818608E-02  0.1080879E+00
          2   -1    0    0  501    0  0.00000000000E+00  0.00000000000E+00  0.13025862484E+04  0.13025862484E+04  0.00000000000E+00 0. -1.
         -2   -1    0    0    0  501 -0.00000000000E+00 -0.00000000000E+00 -0.18312209299E+02  0.18312209299E+02  0.00000000000E+00 0. -1.
         25    1    1    2    0    0  0.69050924888E+00  0.94895455216E+02  0.55166492652E+03  0.57248564643E+03  0.12000000000E+03 0.  0.
         25    1    1    2    0    0 -0.69050924888E+00 -0.94895455216E+02  0.73260911255E+03  0.74841281123E+03  0.12000000000E+03 0.  0.
<mgrwt>
<rscale>  0 0.30888983E+03</rscale>
<asrwt>0</asrwt>
<pdfrwt beam="1">  1        2 0.20039781E+00 0.30888983E+03</pdfrwt>
<pdfrwt beam="2">  1       -2 0.28172640E-02 0.30888983E+03</pdfrwt>
<totfact> 0.81535479E+03</totfact>
</mgrwt>
</event>
<event>
 4    1  0.1774755E-004  0.3383744E+03  0.7818608E-02  0.1067490E+00
         -1   -1    0    0    0  501 -0.00000000000E+00  0.00000000000E+00  0.29271521839E+02  0.29271521839E+02  0.00000000000E+00 0. -1.
          1   -1    0    0  501    0  0.00000000000E+00 -0.00000000000E+00 -0.97788946584E+03  0.97788946584E+03  0.00000000000E+00 0. -1.
         25    1    1    2    0    0 -0.11307638525E+03  0.37832833275E+02 -0.48202525286E+03  0.51084825200E+03  0.12000000000E+03 0.  0.
         25    1    1    2    0    0  0.11307638525E+03 -0.37832833275E+02 -0.46659269114E+03  0.49631273568E+03  0.12000000000E+03 0.  0.
<mgrwt>
<rscale>  0 0.33837442E+03</rscale>
<asrwt>0</asrwt>
<pdfrwt beam="1">  1        1 0.15044454E+00 0.33837442E+03</pdfrwt>
<pdfrwt beam="2">  1       -1 0.45033107E-02 0.33837442E+03</pdfrwt>
<totfact> 0.34319818E+03</totfact>
</mgrwt>
</event>
<event>
 4    1  0.1774755E-004  0.2513222E+03  0.7818608E-02  0.1112472E+00
          2   -1    0    0  501    0  0.00000000000E+00  0.00000000000E+00  0.77298271850E+02  0.77298271850E+02  0.00000000000E+00 0. -1.
         -2   -1    0    0    0  501 -0.00000000000E+00 -0.00000000000E+00 -0.20428286461E+03  0.20428286461E+03  0.00000000000E+00 0. -1.
         25    1    1    2    0    0  0.16716552564E+02  0.15454020664E+02 -0.30398917514E+02  0.12586645332E+03  0.12000000000E+03 0.  0.
         25    1    1    2    0    0 -0.16716552564E+02 -0.15454020664E+02 -0.96585675251E+02  0.15571468315E+03  0.12000000000E+03 0.  0.
<mgrwt>
<rscale>  0 0.25132220E+03</rscale>
<asrwt>0</asrwt>
<pdfrwt beam="1">  1        2 0.11892042E-01 0.25132220E+03</pdfrwt>
<pdfrwt beam="2">  1       -2 0.31428133E-01 0.25132220E+03</pdfrwt>
<totfact> 0.47971697E+03</totfact>
</mgrwt>
</event>
<event>
 4    1  0.1774755E-004  0.3007641E+03  0.7818608E-02  0.1084859E+00
         -1   -1    0    0    0  501 -0.00000000000E+00  0.00000000000E+00  0.13538745760E+02  0.13538745760E+02  0.00000000000E+00 0. -1.
          1   -1    0    0  501    0  0.00000000000E+00 -0.00000000000E+00 -0.16703733463E+04  0.16703733463E+04  0.00000000000E+00 0. -1.
         25    1    1    2    0    0 -0.12607604276E+02  0.79802277104E+02 -0.10584041932E+04  0.10682447245E+04  0.12000000000E+03 0.  0.
         25    1    1    2    0    0  0.12607604276E+02 -0.79802277104E+02 -0.59843040727E+03  0.61566736755E+03  0.12000000000E+03 0.  0.
<mgrwt>
<rscale>  0 0.30076409E+03</rscale>
<asrwt>0</asrwt>
<pdfrwt beam="1">  1        1 0.25698050E+00 0.30076409E+03</pdfrwt>
<pdfrwt beam="2">  1       -1 0.20828841E-02 0.30076409E+03</pdfrwt>
<totfact> 0.35718658E+03</totfact>
</mgrwt>
</event>
<event>
 4    1  0.1774755E-004  0.2542127E+03  0.7818608E-02  0.1110671E+00
         -1   -1    0    0    0  501 -0.00000000000E+00  0.00000000000E+00  0.41969327345E+02  0.41969327345E+02  0.00000000000E+00 0.  1.
          1   -1    0    0  501    0  0.00000000000E+00 -0.00000000000E+00 -0.38494833774E+03  0.38494833774E+03  0.00000000000E+00 0.  1.
         25    1    1    2    0    0  0.31706814825E+02  0.34969377106E+01 -0.21712617572E+03  0.25012262365E+03  0.12000000000E+03 0.  0.
         25    1    1    2    0    0 -0.31706814825E+02 -0.34969377106E+01 -0.12585283468E+03  0.17679504144E+03  0.12000000000E+03 0.  0.
<mgrwt>
<rscale>  0 0.25421269E+03</rscale>
<asrwt>0</asrwt>
<pdfrwt beam="1">  1        1 0.59222821E-01 0.25421269E+03</pdfrwt>
<pdfrwt beam="2">  1       -1 0.64568196E-02 0.25421269E+03</pdfrwt>
<totfact> 0.75306636E+03</totfact>
</mgrwt>
</event>
<event>
 4    1  0.1774755E-004  0.2938822E+03  0.7818608E-02  0.1088339E+00
         -1   -1    0    0    0  501 -0.00000000000E+00  0.00000000000E+00  0.69045165438E+02  0.69045165438E+02  0.00000000000E+00 0.  1.
          1   -1    0    0  501    0  0.00000000000E+00 -0.00000000000E+00 -0.31271830841E+03  0.31271830841E+03  0.00000000000E+00 0.  1.
         25    1    1    2    0    0 -0.31210622778E+02  0.71310843372E+02 -0.78123528272E+02  0.16298044369E+03  0.12000000000E+03 0.  0.
         25    1    1    2    0    0  0.31210622778E+02 -0.71310843372E+02 -0.16554961470E+03  0.21878303015E+03  0.12000000000E+03 0.  0.
<mgrwt>
<rscale>  0 0.29388220E+03</rscale>
<asrwt>0</asrwt>
<pdfrwt beam="1">  1        1 0.48110509E-01 0.29388220E+03</pdfrwt>
<pdfrwt beam="2">  1       -1 0.10622333E-01 0.29388220E+03</pdfrwt>
<totfact> 0.45957068E+03</totfact>
</mgrwt>
</event>
<event>
 4    1  0.1774755E-004  0.2574135E+03  0.7818608E-02  0.1108707E+00
          2   -1    0    0  501    0  0.00000000000E+00  0.00000000000E+00  0.32321621770E+03  0.32321621770E+03  0.00000000000E+00 0.  1.
         -2   -1    0    0    0  501 -0.00000000000E+00 -0.00000000000E+00 -0.51251860115E+02  0.51251860115E+02  0.00000000000E+00 0.  1.
         25    1    1    2    0    0  0.36197178484E+01  0.32167693865E+02  0.87350340496E+02  0.15191426816E+03  0.12000000000E+03 0.  0.
         25    1    1    2    0    0 -0.36197178484E+01 -0.32167693865E+02  0.18461401709E+03  0.22255380966E+03  0.12000000000E+03 0.  0.
<mgrwt>
<rscale>  0 0.25741354E+03</rscale>
<asrwt>0</asrwt>
<pdfrwt beam="1">  1        2 0.49725571E-01 0.25741354E+03</pdfrwt>
<pdfrwt beam="2">  1       -2 0.78849018E-02 0.25741354E+03</pdfrwt>
<totfact> 0.96383222E+03</totfact>
</mgrwt>
</event>
<event>
 4    1  0.1774755E-004  0.2964422E+03  0.7818608E-02  0.1087033E+00
          1   -1    0    0  501    0  0.00000000000E+00  0.00000000000E+00  0.25892249671E+03  0.25892249671E+03  0.00000000000E+00 0.  1.
         -1   -1    0    0    0  501 -0.00000000000E+00 -0.00000000000E+00 -0.84849697913E+02  0.84849697913E+02  0.00000000000E+00 0.  1.
         25    1    1    2    0    0  0.15382787443E+02 -0.16828691166E+02 -0.10331278581E+02  0.12258291199E+03  0.12000000000E+03 0.  0.
         25    1    1    2    0    0 -0.15382787443E+02  0.16828691166E+02  0.18440407738E+03  0.22118928263E+03  0.12000000000E+03 0.  0.
<mgrwt>
<rscale>  0 0.29644221E+03</rscale>
<asrwt>0</asrwt>
<pdfrwt beam="1">  1        1 0.39834230E-01 0.29644221E+03</pdfrwt>
<pdfrwt beam="2">  1       -1 0.13053800E-01 0.29644221E+03</pdfrwt>
<totfact> 0.42239382E+03</totfact>
</mgrwt>
</event>
<event>
 4    1  0.1774755E-004  0.2778873E+03  0.7818608E-02  0.1096848E+00
          2   -1    0    0  501    0  0.00000000000E+00  0.00000000000E+00  0.76057434281E+03  0.76057434281E+03  0.00000000000E+00 0.  1.
         -2   -1    0    0    0  501 -0.00000000000E+00 -0.00000000000E+00 -0.25382571303E+02  0.25382571303E+02  0.00000000000E+00 0.  1.
         25    1    1    2    0    0 -0.58756819786E+02  0.28457936119E+02  0.43932149522E+03  0.46007129248E+03  0.12000000000E+03 0.  0.
         25    1    1    2    0    0  0.58756819786E+02 -0.28457936119E+02  0.29587027629E+03  0.32588562164E+03  0.12000000000E+03 0.  0.
<mgrwt>
<rscale>  0 0.27788726E+03</rscale>
<asrwt>0</asrwt>
<pdfrwt beam="1">  1        2 0.11701142E+00 0.27788726E+03</pdfrwt>
<pdfrwt beam="2">  1       -2 0.39050115E-02 0.27788726E+03</pdfrwt>
<totfact> 0.10748683E+04</totfact>
</mgrwt>
</event>
<event>
 4    1  0.1774755E-004  0.2856773E+03  0.7818608E-02  0.1092628E+00
         -2   -1    0    0    0  501 -0.00000000000E+00  0.00000000000E+00  0.45660992001E+02  0.45660992001E+02  0.00000000000E+00 0. -1.
          2   -1    0    0  501    0  0.00000000000E+00 -0.00000000000E+00 -0.44683403800E+03  0.44683403800E+03  0.00000000000E+00 0. -1.
         25    1    1    2    0    0  0.59446848412E+01  0.72765965351E+02 -0.15587453235E+03  0.20982634446E+03  0.12000000000E+03 0.  0.
         25    1    1    2    0    0 -0.59446848412E+01 -0.72765965351E+02 -0.24529851364E+03  0.28266868554E+03  0.12000000000E+03 0.  0.
<mgrwt>
<rscale>  0 0.28567734E+03</rscale>
<asrwt>0</asrwt>
<pdfrwt beam="1">  1        2 0.68743699E-01 0.28567734E+03</pdfrwt>
<pdfrwt beam="2">  1       -2 0.70247679E-02 0.28567734E+03</pdfrwt>
<totfact> 0.81507431E+03</totfact>
</mgrwt>
</event>
<event>
 4    1  0.1774755E-004  0.2443296E+03  0.7818608E-02  0.1116942E+00
          2   -1    0    0  501    0  0.00000000000E+00  0.00000000000E+00  0.20818058546E+03  0.20818058546E+03  0.00000000000E+00 0. -1.
         -2   -1    0    0    0  501 -0.00000000000E+00 -0.00000000000E+00 -0.71688911496E+02  0.71688911496E+02  0.00000000000E+00 0. -1.
         25    1    1    2    0    0  0.11568903552E+02  0.68601861200E+01  0.89470476773E+02  0.15028595376E+03  0.12000000000E+03 0.  0.
         25    1    1    2    0    0 -0.11568903552E+02 -0.68601861200E+01  0.47021197194E+02  0.12958354320E+03  0.12000000000E+03 0.  0.
<mgrwt>
<rscale>  0 0.24432961E+03</rscale>
<asrwt>0</asrwt>
<pdfrwt beam="1">  1        2 0.32027782E-01 0.24432961E+03</pdfrwt>
<pdfrwt beam="2">  1       -2 0.11029063E-01 0.24432961E+03</pdfrwt>
<totfact> 0.90981191E+03</totfact>
</mgrwt>
</event>
<event>
 4    1  0.1774755E-004  0.2465942E+03  0.7818608E-02  0.1115476E+00
         -2   -1    0    0    0  501 -0.00000000000E+00  0.00000000000E+00  0.52492404753E+02  0.52492404753E+02  0.00000000000E+00 0. -1.
          2   -1    0    0  501    0  0.00000000000E+00 -0.00000000000E+00 -0.28960709438E+03  0.28960709438E+03  0.00000000000E+00 0. -1.
         25    1    1    2    0    0 -0.84227096740E+01  0.27007695643E+02 -0.12042641882E+03  0.17234523496E+03  0.12000000000E+03 0.  0.
         25    1    1    2    0    0  0.84227096740E+01 -0.27007695643E+02 -0.11668827080E+03  0.16975426417E+03  0.12000000000E+03 0.  0.
<mgrwt>
<rscale>  0 0.24659418E+03</rscale>
<asrwt>0</asrwt>
<pdfrwt beam="1">  1        2 0.44554938E-01 0.24659418E+03</pdfrwt>
<pdfrwt beam="2">  1       -2 0.80757546E-02 0.24659418E+03</pdfrwt>
<totfact> 0.10426383E+04</totfact>
</mgrwt>
</event>
<event>
 4    1  0.1774755E-004  0.3861938E+03  0.7818608E-02  0.1048668E+00
         -1   -1    0    0    0  501 -0.00000000000E+00  0.00000000000E+00  0.43831725584E+02  0.43831725584E+02  0.00000000000E+00 0. -1.
          1   -1    0    0  501    0  0.00000000000E+00 -0.00000000000E+00 -0.85067177994E+03  0.85067177994E+03  0.00000000000E+00 0. -1.
         25    1    1    2    0    0  0.11430081847E+03  0.74354247908E+02 -0.55518317990E+03  0.58414175893E+03  0.12000000000E+03 0.  0.
         25    1    1    2    0    0 -0.11430081847E+03 -0.74354247908E+02 -0.25165687446E+03  0.31036174659E+03  0.12000000000E+03 0.  0.
<mgrwt>
<rscale>  0 0.38619380E+03</rscale>
<asrwt>0</asrwt>
<pdfrwt beam="1">  1        1 0.13087258E+00 0.38619380E+03</pdfrwt>
<pdfrwt beam="2">  1       -1 0.67433424E-02 0.38619380E+03</pdfrwt>
<totfact> 0.23462437E+03</totfact>
</mgrwt>
</event>
<event>
 4    1  0.1774755E-004  0.5205207E+03  0.7818608E-02  0.1008557E+00
          2   -1    0    0  501    0  0.00000000000E+00  0.00000000000E+00  0.11021864272E+04  0.11021864272E+04  0.00000000000E+00 0. -1.
         -2   -1    0    0    0  501 -0.00000000000E+00 -0.00000000000E+00 -0.61455539561E+02  0.61455539561E+02  0.00000000000E+00 0. -1.
         25    1    1    2    0    0 -0.21871624127E+03  0.28199936929E+02  0.36704900650E+03  0.44469877874E+03  0.12000000000E+03 0.  0.
         25    1    1    2    0    0  0.21871624127E+03 -0.28199936929E+02  0.67368188117E+03  0.71894318806E+03  0.12000000000E+03 0.  0.
<mgrwt>
<rscale>  0 0.52052075E+03</rscale>
<asrwt>0</asrwt>
<pdfrwt beam="1">  1        2 0.16956713E+00 0.52052075E+03</pdfrwt>
<pdfrwt beam="2">  1       -2 0.94546992E-02 0.52052075E+03</pdfrwt>
<totfact> 0.16479493E+03</totfact>
</mgrwt>
</event>
<event>
 4    1  0.1774755E-004  0.2712156E+03  0.7818608E-02  0.1100586E+00
         -1   -1    0    0    0  501 -0.00000000000E+00  0.00000000000E+00  0.11683734114E+02  0.11683734114E+02  0.00000000000E+00 0.  1.
          1   -1    0    0  501    0  0.00000000000E+00 -0.00000000000E+00 -0.15739385954E+04  0.15739385954E+04  0.00000000000E+00 0.  1.
         25    1    1    2    0    0  0.55904737968E+02 -0.64838520539E+01 -0.94875573631E+03  0.95796911602E+03  0.12000000000E+03 0.  0.
         25    1    1    2    0    0 -0.55904737968E+02  0.64838520539E+01 -0.61349912498E+03  0.62765321350E+03  0.12000000000E+03 0.  0.
<mgrwt>
<rscale>  0 0.27121563E+03</rscale>
<asrwt>0</asrwt>
<pdfrwt beam="1">  1        1 0.24214424E+00 0.27121563E+03</pdfrwt>
<pdfrwt beam="2">  1       -1 0.17974987E-02 0.27121563E+03</pdfrwt>
<totfact> 0.51251050E+03</totfact>
</mgrwt>
</event>
<event>
 4    1  0.1774755E-004  0.2712411E+03  0.7818608E-02  0.1100571E+00
         -2   -1    0    0    0  501 -0.00000000000E+00  0.00000000000E+00  0.71386808866E+01  0.71386808866E+01  0.00000000000E+00 0.  1.
          2   -1    0    0  501    0  0.00000000000E+00 -0.00000000000E+00 -0.25765174341E+04  0.25765174341E+04  0.00000000000E+00 0.  1.
         25    1    1    2    0    0 -0.23044622548E+02  0.43670495848E+02 -0.16602777256E+04  0.16653408940E+04  0.12000000000E+03 0.  0.
         25    1    1    2    0    0  0.23044622548E+02 -0.43670495848E+02 -0.90910102757E+03  0.91831522103E+03  0.12000000000E+03 0.  0.
<mgrwt>
<rscale>  0 0.27124112E+03</rscale>
<asrwt>0</asrwt>
<pdfrwt beam="1">  1        2 0.39638697E+00 0.27124112E+03</pdfrwt>
<pdfrwt beam="2">  1       -2 0.10982595E-02 0.27124112E+03</pdfrwt>
<totfact> 0.67708791E+03</totfact>
</mgrwt>
</event>
<event>
 4    1  0.1774755E-004  0.2493475E+03  0.7818608E-02  0.1113718E+00
          2   -1    0    0  501    0  0.00000000000E+00  0.00000000000E+00  0.83959851408E+02  0.83959851408E+02  0.00000000000E+00 0.  1.
         -2   -1    0    0    0  501 -0.00000000000E+00 -0.00000000000E+00 -0.18513064757E+03  0.18513064757E+03  0.00000000000E+00 0.  1.
         25    1    1    2    0    0 -0.16490372101E+02 -0.27297771514E+02 -0.38450468270E+02  0.12998284199E+03  0.12000000000E+03 0.  0.
         25    1    1    2    0    0  0.16490372101E+02  0.27297771514E+02 -0.62720327891E+02  0.13910765699E+03  0.12000000000E+03 0.  0.
<mgrwt>
<rscale>  0 0.24934748E+03</rscale>
<asrwt>0</asrwt>
<pdfrwt beam="1">  1        2 0.12916900E-01 0.24934748E+03</pdfrwt>
<pdfrwt beam="2">  1       -2 0.28481638E-01 0.24934748E+03</pdfrwt>
<totfact> 0.51866665E+03</totfact>
</mgrwt>
</event>
<event>
 4    1  0.1774755E-004  0.5075478E+03  0.7818608E-02  0.1011827E+00
          2   -1    0    0  501    0  0.00000000000E+00  0.00000000000E+00  0.68961615685E+03  0.68961615685E+03  0.00000000000E+00 0.  1.
         -2   -1    0    0    0  501 -0.00000000000E+00 -0.00000000000E+00 -0.93387006876E+02  0.93387006876E+02  0.00000000000E+00 0.  1.
         25    1    1    2    0    0 -0.11354176336E+03 -0.10749195256E+03  0.51497021286E+02  0.20371105786E+03  0.12000000000E+03 0.  0.
         25    1    1    2    0    0  0.11354176336E+03  0.10749195256E+03  0.54473212869E+03  0.57929210586E+03  0.12000000000E+03 0.  0.
<mgrwt>
<rscale>  0 0.50754779E+03</rscale>
<asrwt>0</asrwt>
<pdfrwt beam="1">  1        2 0.10609479E+00 0.50754779E+03</pdfrwt>
<pdfrwt beam="2">  1       -2 0.14367232E-01 0.50754779E+03</pdfrwt>
<totfact> 0.15752801E+03</totfact>
</mgrwt>
</event>
<event>
 4    1  0.1774755E-004  0.2661232E+03  0.7818608E-02  0.1103519E+00
          2   -1    0    0  501    0  0.00000000000E+00  0.00000000000E+00  0.60400187206E+03  0.60400187206E+03  0.00000000000E+00 0. -1.
         -2   -1    0    0    0  501 -0.00000000000E+00 -0.00000000000E+00 -0.29313461219E+02  0.29313461219E+02  0.00000000000E+00 0. -1.
         25    1    1    2    0    0  0.24993373896E+02 -0.41109618823E+02  0.36224939243E+03  0.38462877143E+03  0.12000000000E+03 0.  0.
         25    1    1    2    0    0 -0.24993373896E+02  0.41109618823E+02  0.21243901841E+03  0.24868656184E+03  0.12000000000E+03 0.  0.
<mgrwt>
<rscale>  0 0.26612317E+03</rscale>
<asrwt>0</asrwt>
<pdfrwt beam="1">  1        2 0.92923356E-01 0.26612317E+03</pdfrwt>
<pdfrwt beam="2">  1       -2 0.45097637E-02 0.26612317E+03</pdfrwt>
<totfact> 0.11396720E+04</totfact>
</mgrwt>
</event>
<event>
 4    1  0.1774755E-004  0.2423599E+03  0.7818608E-02  0.1118231E+00
         -2   -1    0    0    0  501 -0.00000000000E+00  0.00000000000E+00  0.51667949496E+02  0.51667949496E+02  0.00000000000E+00 0.  1.
          2   -1    0    0  501    0  0.00000000000E+00 -0.00000000000E+00 -0.28421071737E+03  0.28421071737E+03  0.00000000000E+00 0.  1.
         25    1    1    2    0    0  0.16152265597E+02 -0.36377158695E+01 -0.12075275844E+03  0.17104197535E+03  0.12000000000E+03 0.  0.
         25    1    1    2    0    0 -0.16152265597E+02  0.36377158695E+01 -0.11179000943E+03  0.16483669151E+03  0.12000000000E+03 0.  0.
<mgrwt>
<rscale>  0 0.24235994E+03</rscale>
<asrwt>0</asrwt>
<pdfrwt beam="1">  1        2 0.43724726E-01 0.24235994E+03</pdfrwt>
<pdfrwt beam="2">  1       -2 0.79489152E-02 0.24235994E+03</pdfrwt>
<totfact> 0.10895625E+04</totfact>
</mgrwt>
</event>
<event>
 4    1  0.1774755E-004  0.3146541E+03  0.7818608E-02  0.1078136E+00
          2   -1    0    0  501    0  0.00000000000E+00  0.00000000000E+00  0.19129988602E+04  0.19129988602E+04  0.00000000000E+00 0. -1.
         -2   -1    0    0    0  501 -0.00000000000E+00 -0.00000000000E+00 -0.12938746277E+02  0.12938746277E+02  0.00000000000E+00 0. -1.
         25    1    1    2    0    0  0.23327471030E+02  0.44453881239E+02  0.14916952372E+04  0.14973560028E+04  0.12000000000E+03 0.  0.
         25    1    1    2    0    0 -0.23327471030E+02 -0.44453881239E+02  0.40836487674E+03  0.42858160369E+03  0.12000000000E+03 0.  0.
<mgrwt>
<rscale>  0 0.31465414E+03</rscale>
<asrwt>0</asrwt>
<pdfrwt beam="1">  1        2 0.29430729E+00 0.31465414E+03</pdfrwt>
<pdfrwt beam="2">  1       -2 0.19905779E-02 0.31465414E+03</pdfrwt>
<totfact> 0.64312404E+03</totfact>
</mgrwt>
</event>
<event>
 4    1  0.1774755E-004  0.2793323E+03  0.7818608E-02  0.1096054E+00
          2   -1    0    0  501    0  0.00000000000E+00  0.00000000000E+00  0.24015714039E+03  0.24015714039E+03  0.00000000000E+00 0. -1.
         -2   -1    0    0    0  501 -0.00000000000E+00 -0.00000000000E+00 -0.81224484865E+02  0.81224484865E+02  0.00000000000E+00 0. -1.
         25    1    1    2    0    0  0.22401138582E+02 -0.67857753533E+02  0.79918255545E+02  0.16091430419E+03  0.12000000000E+03 0.  0.
         25    1    1    2    0    0 -0.22401138582E+02  0.67857753533E+02  0.79014399977E+02  0.16046732106E+03  0.12000000000E+03 0.  0.
<mgrwt>
<rscale>  0 0.27933235E+03</rscale>
<asrwt>0</asrwt>
<pdfrwt beam="1">  1        2 0.36947252E-01 0.27933235E+03</pdfrwt>
<pdfrwt beam="2">  1       -2 0.12496075E-01 0.27933235E+03</pdfrwt>
<totfact> 0.64068648E+03</totfact>
</mgrwt>
</event>
<event>
 4    1  0.1774755E-004  0.2441099E+03  0.7818608E-02  0.1117085E+00
          1   -1    0    0  501    0  0.00000000000E+00  0.00000000000E+00  0.60655724827E+03  0.60655724827E+03  0.00000000000E+00 0. -1.
         -1   -1    0    0    0  501 -0.00000000000E+00 -0.00000000000E+00 -0.24560602676E+02  0.24560602676E+02  0.00000000000E+00 0. -1.
         25    1    1    2    0    0 -0.14631542569E+02 -0.63471323543E+00  0.24751106640E+03  0.27545637203E+03  0.12000000000E+03 0.  0.
         25    1    1    2    0    0  0.14631542569E+02  0.63471323543E+00  0.33448557919E+03  0.35566147891E+03  0.12000000000E+03 0.  0.
<mgrwt>
<rscale>  0 0.24410991E+03</rscale>
<asrwt>0</asrwt>
<pdfrwt beam="1">  1        1 0.93316488E-01 0.24410991E+03</pdfrwt>
<pdfrwt beam="2">  1       -1 0.37785547E-02 0.24410991E+03</pdfrwt>
<totfact> 0.91847026E+03</totfact>
</mgrwt>
</event>
<event>
 4    1  0.1774755E-004  0.3177583E+03  0.7818608E-02  0.1076686E+00
          2   -1    0    0  501    0  0.00000000000E+00  0.00000000000E+00  0.22075449798E+04  0.22075449798E+04  0.00000000000E+00 0.  1.
         -2   -1    0    0    0  501 -0.00000000000E+00 -0.00000000000E+00 -0.11434686754E+02  0.11434686754E+02  0.00000000000E+00 0.  1.
         25    1    1    2    0    0  0.48853418333E+02 -0.67263463949E+02  0.15359185045E+04  0.15428404592E+04  0.12000000000E+03 0.  0.
         25    1    1    2    0    0 -0.48853418333E+02  0.67263463949E+02  0.66019178857E+03  0.67613920739E+03  0.12000000000E+03 0.  0.
<mgrwt>
<rscale>  0 0.31775831E+03</rscale>
<asrwt>0</asrwt>
<pdfrwt beam="1">  1        2 0.33962197E+00 0.31775831E+03</pdfrwt>
<pdfrwt beam="2">  1       -2 0.17591843E-02 0.31775831E+03</pdfrwt>
<totfact> 0.53847544E+03</totfact>
</mgrwt>
</event>
<event>
 4    1  0.1774755E-004  0.2979385E+03  0.7818608E-02  0.1086276E+00
         -2   -1    0    0    0  501 -0.00000000000E+00  0.00000000000E+00  0.78363417953E+01  0.78363417953E+01  0.00000000000E+00 0. -1.
          2   -1    0    0  501    0  0.00000000000E+00 -0.00000000000E+00 -0.28319131152E+04  0.28319131152E+04  0.00000000000E+00 0. -1.
         25    1    1    2    0    0  0.77192375385E+00 -0.64572445574E+02 -0.83844231066E+03  0.84944435068E+03  0.12000000000E+03 0.  0.
         25    1    1    2    0    0 -0.77192375385E+00  0.64572445574E+02 -0.19856344628E+04  0.19903051064E+04  0.12000000000E+03 0.  0.
<mgrwt>
<rscale>  0 0.29793851E+03</rscale>
<asrwt>0</asrwt>
<pdfrwt beam="1">  1        2 0.43567922E+00 0.29793851E+03</pdfrwt>
<pdfrwt beam="2">  1       -2 0.12055903E-02 0.29793851E+03</pdfrwt>
<totfact> 0.42358043E+03</totfact>
</mgrwt>
</event>
<event>
 4    1  0.1774755E-004  0.2593944E+03  0.7818608E-02  0.1107508E+00
         -2   -1    0    0    0  501 -0.00000000000E+00  0.00000000000E+00  0.61632161471E+01  0.61632161471E+01  0.00000000000E+00 0.  1.
          2   -1    0    0  501    0  0.00000000000E+00 -0.00000000000E+00 -0.27293153138E+04  0.27293153138E+04  0.00000000000E+00 0.  1.
         25    1    1    2    0    0 -0.31832480880E+02  0.13006485596E+02 -0.99039293973E+03  0.99822875663E+03  0.12000000000E+03 0.  0.
         25    1    1    2    0    0  0.31832480880E+02 -0.13006485596E+02 -0.17327591580E+04  0.17372497734E+04  0.12000000000E+03 0.  0.
<mgrwt>
<rscale>  0 0.25939437E+03</rscale>
<asrwt>0</asrwt>
<pdfrwt beam="1">  1        2 0.41989514E+00 0.25939437E+03</pdfrwt>
<pdfrwt beam="2">  1       -2 0.94818603E-03 0.25939437E+03</pdfrwt>
<totfact> 0.68871137E+03</totfact>
</mgrwt>
</event>
<event>
 4    1  0.1774755E-004  0.2597688E+03  0.7818608E-02  0.1107282E+00
         -2   -1    0    0    0  501 -0.00000000000E+00  0.00000000000E+00  0.21189194695E+02  0.21189194695E+02  0.00000000000E+00 0. -1.
          2   -1    0    0  501    0  0.00000000000E+00 -0.00000000000E+00 -0.79615860983E+03  0.79615860983E+03  0.00000000000E+00 0. -1.
         25    1    1    2    0    0 -0.37541248652E+02  0.32226728894E+02 -0.40226039432E+03  0.42268348944E+03  0.12000000000E+03 0.  0.
         25    1    1    2    0    0  0.37541248652E+02 -0.32226728894E+02 -0.37270902081E+03  0.39466431508E+03  0.12000000000E+03 0.  0.
<mgrwt>
<rscale>  0 0.25976882E+03</rscale>
<asrwt>0</asrwt>
<pdfrwt beam="1">  1        2 0.12248594E+00 0.25976882E+03</pdfrwt>
<pdfrwt beam="2">  1       -2 0.32598762E-02 0.25976882E+03</pdfrwt>
<totfact> 0.13263237E+04</totfact>
</mgrwt>
</event>
<event>
 4    1  0.1774755E-004  0.3002076E+03  0.7818608E-02  0.1085137E+00
         -2   -1    0    0    0  501 -0.00000000000E+00  0.00000000000E+00  0.10440257542E+02  0.10440257542E+02  0.00000000000E+00 0. -1.
          2   -1    0    0  501    0  0.00000000000E+00 -0.00000000000E+00 -0.21581027909E+04  0.21581027909E+04  0.00000000000E+00 0. -1.
         25    1    1    2    0    0  0.83257599518E+02  0.14148660732E+02 -0.13021590640E+04  0.13104007938E+04  0.12000000000E+03 0.  0.
         25    1    1    2    0    0 -0.83257599518E+02 -0.14148660732E+02 -0.84550346936E+03  0.85814225463E+03  0.12000000000E+03 0.  0.
<mgrwt>
<rscale>  0 0.30020759E+03</rscale>
<asrwt>0</asrwt>
<pdfrwt beam="1">  1        2 0.33201591E+00 0.30020759E+03</pdfrwt>
<pdfrwt beam="2">  1       -2 0.16061930E-02 0.30020759E+03</pdfrwt>
<totfact> 0.65428691E+03</totfact>
</mgrwt>
</event>
<event>
 4    1  0.1774755E-004  0.2509085E+03  0.7818608E-02  0.1112732E+00
          2   -1    0    0  501    0  0.00000000000E+00  0.00000000000E+00  0.10664403841E+04  0.10664403841E+04  0.00000000000E+00 0. -1.
         -2   -1    0    0    0  501 -0.00000000000E+00 -0.00000000000E+00 -0.14758231143E+02  0.14758231143E+02  0.00000000000E+00 0. -1.
         25    1    1    2    0    0 -0.13081433982E+02  0.28921271390E+01  0.67255969134E+03  0.68331253957E+03  0.12000000000E+03 0.  0.
         25    1    1    2    0    0  0.13081433982E+02 -0.28921271390E+01  0.37912246162E+03  0.39788607567E+03  0.12000000000E+03 0.  0.
<mgrwt>
<rscale>  0 0.25090854E+03</rscale>
<asrwt>0</asrwt>
<pdfrwt beam="1">  1        2 0.16406769E+00 0.25090854E+03</pdfrwt>
<pdfrwt beam="2">  1       -2 0.22704979E-02 0.25090854E+03</pdfrwt>
<totfact> 0.15235897E+04</totfact>
</mgrwt>
</event>
<event>
 4    1  0.1774755E-004  0.2428692E+03  0.7818608E-02  0.1117896E+00
          1   -1    0    0  501    0  0.00000000000E+00  0.00000000000E+00  0.60725471079E+01  0.60725471079E+01  0.00000000000E+00 0. -1.
         -1   -1    0    0    0  501 -0.00000000000E+00 -0.00000000000E+00 -0.24283659873E+04  0.24283659873E+04  0.00000000000E+00 0. -1.
         25    1    1    2    0    0 -0.14230389657E+02  0.22885892582E+01 -0.13291644968E+04  0.13346482687E+04  0.12000000000E+03 0.  0.
         25    1    1    2    0    0  0.14230389657E+02 -0.22885892582E+01 -0.10931289434E+04  0.10997902657E+04  0.12000000000E+03 0.  0.
<mgrwt>
<rscale>  0 0.24286924E+03</rscale>
<asrwt>0</asrwt>
<pdfrwt beam="1">  1        1 0.93423530E-03 0.24286924E+03</pdfrwt>
<pdfrwt beam="2">  1       -1 0.37359585E+00 0.24286924E+03</pdfrwt>
<totfact> 0.23475592E+02</totfact>
</mgrwt>
</event>
<event>
 4    1  0.1774755E-004  0.2711290E+03  0.7818608E-02  0.1100635E+00
          1   -1    0    0  501    0  0.00000000000E+00  0.00000000000E+00  0.73036586240E+03  0.73036586240E+03  0.00000000000E+00 0.  1.
         -1   -1    0    0    0  501 -0.00000000000E+00 -0.00000000000E+00 -0.25162361387E+02  0.25162361387E+02  0.00000000000E+00 0.  1.
         25    1    1    2    0    0 -0.53824940561E+02  0.25325314068E+02  0.41100308202E+03  0.43227540896E+03  0.12000000000E+03 0.  0.
         25    1    1    2    0    0  0.53824940561E+02 -0.25325314068E+02  0.29420041899E+03  0.32325281483E+03  0.12000000000E+03 0.  0.
<mgrwt>
<rscale>  0 0.27112897E+03</rscale>
<asrwt>0</asrwt>
<pdfrwt beam="1">  1        1 0.11236396E+00 0.27112897E+03</pdfrwt>
<pdfrwt beam="2">  1       -1 0.38711331E-02 0.27112897E+03</pdfrwt>
<totfact> 0.68145860E+03</totfact>
</mgrwt>
</event>
<event>
 4    1  0.1774755E-004  0.3633616E+03  0.7818608E-02  0.1057261E+00
          2   -1    0    0  501    0  0.00000000000E+00  0.00000000000E+00  0.16021450972E+04  0.16021450972E+04  0.00000000000E+00 0. -1.
         -2   -1    0    0    0  501 -0.00000000000E+00 -0.00000000000E+00 -0.20602323359E+02  0.20602323359E+02  0.00000000000E+00 0. -1.
         25    1    1    2    0    0 -0.31931721743E+02  0.13262008578E+03  0.78882803860E+03  0.80947970727E+03  0.12000000000E+03 0.  0.
         25    1    1    2    0    0  0.31931721743E+02 -0.13262008578E+03  0.79271473527E+03  0.81326771332E+03  0.12000000000E+03 0.  0.
<mgrwt>
<rscale>  0 0.36336159E+03</rscale>
<asrwt>0</asrwt>
<pdfrwt beam="1">  1        2 0.24648376E+00 0.36336159E+03</pdfrwt>
<pdfrwt beam="2">  1       -2 0.31695895E-02 0.36336159E+03</pdfrwt>
<totfact> 0.47021893E+03</totfact>
</mgrwt>
</event>
<event>
 4    1  0.1774755E-004  0.2557815E+03  0.7818608E-02  0.1109705E+00
          2   -1    0    0  501    0  0.00000000000E+00  0.00000000000E+00  0.10653378598E+04  0.10653378598E+04  0.00000000000E+00 0. -1.
         -2   -1    0    0    0  501 -0.00000000000E+00 -0.00000000000E+00 -0.15352914471E+02  0.15352914471E+02  0.00000000000E+00 0. -1.
         25    1    1    2    0    0 -0.41785207685E+02  0.14149953427E+02  0.53822996808E+03  0.55320676361E+03  0.12000000000E+03 0.  0.
         25    1    1    2    0    0  0.41785207685E+02 -0.14149953427E+02  0.51175497722E+03  0.52748401064E+03  0.12000000000E+03 0.  0.
<mgrwt>
<rscale>  0 0.25578148E+03</rscale>
<asrwt>0</asrwt>
<pdfrwt beam="1">  1        2 0.16389807E+00 0.25578148E+03</pdfrwt>
<pdfrwt beam="2">  1       -2 0.23619877E-02 0.25578148E+03</pdfrwt>
<totfact> 0.14406112E+04</totfact>
</mgrwt>
</event>
<event>
 4    1  0.1774755E-004  0.2616597E+03  0.7818608E-02  0.1106150E+00
         -1   -1    0    0    0  501 -0.00000000000E+00  0.00000000000E+00  0.97902520699E+02  0.97902520699E+02  0.00000000000E+00 0.  1.
          1   -1    0    0  501    0  0.00000000000E+00 -0.00000000000E+00 -0.17483151233E+03  0.17483151233E+03  0.00000000000E+00 0.  1.
         25    1    1    2    0    0 -0.19539283325E+02 -0.89833828172E+01  0.11020751267E+02  0.12240891192E+03  0.12000000000E+03 0.  0.
         25    1    1    2    0    0  0.19539283325E+02  0.89833828172E+01 -0.87949742897E+02  0.15032512111E+03  0.12000000000E+03 0.  0.
<mgrwt>
<rscale>  0 0.26165967E+03</rscale>
<asrwt>0</asrwt>
<pdfrwt beam="1">  1        1 0.26897156E-01 0.26165967E+03</pdfrwt>
<pdfrwt beam="2">  1       -1 0.15061926E-01 0.26165967E+03</pdfrwt>
<totfact> 0.55056775E+03</totfact>
</mgrwt>
</event>
<event>
 4    1  0.1774755E-004  0.3287597E+03  0.7818608E-02  0.1071687E+00
         -2   -1    0    0    0  501 -0.00000000000E+00  0.00000000000E+00  0.42177742260E+03  0.42177742260E+03  0.00000000000E+00 0. -1.
          2   -1    0    0  501    0  0.00000000000E+00 -0.00000000000E+00 -0.64063956772E+02  0.64063956772E+02  0.00000000000E+00 0. -1.
         25    1    1    2    0    0 -0.62726919192E+02 -0.17238108721E+02  0.43503455626E+02  0.14326328712E+03  0.12000000000E+03 0.  0.
         25    1    1    2    0    0  0.62726919192E+02  0.17238108721E+02  0.31421001020E+03  0.34257809226E+03  0.12000000000E+03 0.  0.
<mgrwt>
<rscale>  0 0.32875967E+03</rscale>
<asrwt>0</asrwt>
<pdfrwt beam="1">  1        2 0.98559936E-02 0.32875967E+03</pdfrwt>
<pdfrwt beam="2">  1       -2 0.64888832E-01 0.32875967E+03</pdfrwt>
<totfact> 0.14694492E+03</totfact>
</mgrwt>
</event>
<event>
 4    1  0.1774755E-004  0.2437087E+03  0.7818608E-02  0.1117347E+00
         -4   -1    0    0    0  501 -0.00000000000E+00  0.00000000000E+00  0.93903018950E+02  0.93903018950E+02  0.00000000000E+00 0. -1.
          4   -1    0    0  501    0  0.00000000000E+00 -0.00000000000E+00 -0.15812577263E+03  0.15812577263E+03  0.00000000000E+00 0. -1.
         25    1    1    2    0    0  0.32100660951E+00 -0.18475346645E+02 -0.21411860066E+02  0.12328791194E+03  0.12000000000E+03 0.  0.
         25    1    1    2    0    0 -0.32100660951E+00  0.18475346645E+02 -0.42810893615E+02  0.12874087964E+03  0.12000000000E+03 0.  0.
<mgrwt>
<rscale>  0 0.24370874E+03</rscale>
<asrwt>0</asrwt>
<pdfrwt beam="1">  1        4 0.24327042E-01 0.24370874E+03</pdfrwt>
<pdfrwt beam="2">  1       -4 0.14446618E-01 0.24370874E+03</pdfrwt>
<totfact> 0.11698218E+03</totfact>
</mgrwt>
</event>
<event>
 4    1  0.1774755E-004  0.2863908E+03  0.7818608E-02  0.1092249E+00
          2   -1    0    0  501    0  0.00000000000E+00  0.00000000000E+00  0.49739209398E+03  0.49739209398E+03  0.00000000000E+00 0. -1.
         -2   -1    0    0    0  501 -0.00000000000E+00 -0.00000000000E+00 -0.41224876550E+02  0.41224876550E+02  0.00000000000E+00 0. -1.
         25    1    1    2    0    0  0.42655223500E+02  0.40823186139E+02  0.13183762466E+03  0.18779552682E+03  0.12000000000E+03 0.  0.
         25    1    1    2    0    0 -0.42655223500E+02 -0.40823186139E+02  0.32432959278E+03  0.35082144371E+03  0.12000000000E+03 0.  0.
<mgrwt>
<rscale>  0 0.28639084E+03</rscale>
<asrwt>0</asrwt>
<pdfrwt beam="1">  1        2 0.76521856E-01 0.28639084E+03</pdfrwt>
<pdfrwt beam="2">  1       -2 0.63422890E-02 0.28639084E+03</pdfrwt>
<totfact> 0.84753701E+03</totfact>
</mgrwt>
</event>
<event>
 4    1  0.1774755E-004  0.2662191E+03  0.7818608E-02  0.1103463E+00
          1   -1    0    0  501    0  0.00000000000E+00  0.00000000000E+00  0.15737898253E+04  0.15737898253E+04  0.00000000000E+00 0.  1.
         -1   -1    0    0    0  501 -0.00000000000E+00 -0.00000000000E+00 -0.11258268000E+02  0.11258268000E+02  0.00000000000E+00 0.  1.
         25    1    1    2    0    0  0.54875330246E+02 -0.17516695710E+02  0.78189391470E+03  0.79314325965E+03  0.12000000000E+03 0.  0.
         25    1    1    2    0    0 -0.54875330246E+02  0.17516695710E+02  0.78063764261E+03  0.79190483365E+03  0.12000000000E+03 0.  0.
<mgrwt>
<rscale>  0 0.26621906E+03</rscale>
<asrwt>0</asrwt>
<pdfrwt beam="1">  1        1 0.24212134E+00 0.26621906E+03</pdfrwt>
<pdfrwt beam="2">  1       -1 0.17320425E-02 0.26621906E+03</pdfrwt>
<totfact> 0.54103181E+03</totfact>
</mgrwt>
</event>
<event>
 4    1  0.1774755E-004  0.2552134E+03  0.7818608E-02  0.1110054E+00
         -1   -1    0    0    0  501 -0.00000000000E+00  0.00000000000E+00  0.26598792155E+02  0.26598792155E+02  0.00000000000E+00 0.  1.
          1   -1    0    0  501    0  0.00000000000E+00 -0.00000000000E+00 -0.61218853779E+03  0.61218853779E+03  0.00000000000E+00 0.  1.
         25    1    1    2    0    0 -0.40512711929E+02  0.10288997877E+02 -0.26357002646E+03  0.29260263525E+03  0.12000000000E+03 0.  0.
         25    1    1    2    0    0  0.40512711929E+02 -0.10288997877E+02 -0.32201971917E+03  0.34618469469E+03  0.12000000000E+03 0.  0.
<mgrwt>
<rscale>  0 0.25521345E+03</rscale>
<asrwt>0</asrwt>
<pdfrwt beam="1">  1        1 0.94182854E-01 0.25521345E+03</pdfrwt>
<pdfrwt beam="2">  1       -1 0.40921218E-02 0.25521345E+03</pdfrwt>
<totfact> 0.80694553E+03</totfact>
</mgrwt>
</event>
<event>
 4    1  0.1774755E-004  0.3102206E+03  0.7818608E-02  0.1080240E+00
         -1   -1    0    0    0  501 -0.00000000000E+00  0.00000000000E+00  0.26434803027E+02  0.26434803027E+02  0.00000000000E+00 0. -1.
          1   -1    0    0  501    0  0.00000000000E+00 -0.00000000000E+00 -0.91013396131E+03  0.91013396131E+03  0.00000000000E+00 0. -1.
         25    1    1    2    0    0  0.71144775488E+02  0.99458796880E+01 -0.23935514571E+03  0.27722082422E+03  0.12000000000E+03 0.  0.
         25    1    1    2    0    0 -0.71144775488E+02 -0.99458796880E+01 -0.64434401257E+03  0.65934794012E+03  0.12000000000E+03 0.  0.
<mgrwt>
<rscale>  0 0.31022064E+03</rscale>
<asrwt>0</asrwt>
<pdfrwt beam="1">  1        1 0.14002063E+00 0.31022064E+03</pdfrwt>
<pdfrwt beam="2">  1       -1 0.40668923E-02 0.31022064E+03</pdfrwt>
<totfact> 0.45061975E+03</totfact>
</mgrwt>
</event>
<event>
 4    1  0.1774755E-004  0.2516856E+03  0.7818608E-02  0.1112244E+00
         -4   -1    0    0    0  501 -0.00000000000E+00  0.00000000000E+00  0.86474744968E+02  0.86474744968E+02  0.00000000000E+00 0.  1.
          4   -1    0    0  501    0  0.00000000000E+00 -0.00000000000E+00 -0.18313335820E+03  0.18313335820E+03  0.00000000000E+00 0.  1.
         25    1    1    2    0    0  0.10654452367E+02 -0.35846330314E+02 -0.54926924165E+02  0.13716939801E+03  0.12000000000E+03 0.  0.
         25    1    1    2    0    0 -0.10654452367E+02  0.35846330314E+02 -0.41731689069E+02  0.13243870516E+03  0.12000000000E+03 0.  0.
<mgrwt>
<rscale>  0 0.25168560E+03</rscale>
<asrwt>0</asrwt>
<pdfrwt beam="1">  1        4 0.28174362E-01 0.25168560E+03</pdfrwt>
<pdfrwt beam="2">  1       -4 0.13303807E-01 0.25168560E+03</pdfrwt>
<totfact> 0.10313376E+03</totfact>
</mgrwt>
</event>
<event>
 4    1  0.1774755E-004  0.2478098E+03  0.7818608E-02  0.1114697E+00
         -2   -1    0    0    0  501 -0.00000000000E+00  0.00000000000E+00  0.63867603547E+02  0.63867603547E+02  0.00000000000E+00 0.  1.
          2   -1    0    0  501    0  0.00000000000E+00 -0.00000000000E+00 -0.24037881990E+03  0.24037881990E+03  0.00000000000E+00 0.  1.
         25    1    1    2    0    0  0.19928129349E+02 -0.22128389968E+02 -0.78309899348E+02  0.14635312200E+03  0.12000000000E+03 0.  0.
         25    1    1    2    0    0 -0.19928129349E+02  0.22128389968E+02 -0.98201317008E+02  0.15789330145E+03  0.12000000000E+03 0.  0.
<mgrwt>
<rscale>  0 0.24780976E+03</rscale>
<asrwt>0</asrwt>
<pdfrwt beam="1">  1        2 0.36981357E-01 0.24780976E+03</pdfrwt>
<pdfrwt beam="2">  1       -2 0.98257850E-02 0.24780976E+03</pdfrwt>
<totfact> 0.93617062E+03</totfact>
</mgrwt>
</event>
<event>
 4    1  0.1774755E-004  0.3187308E+03  0.7818608E-02  0.1076235E+00
          1   -1    0    0  501    0  0.00000000000E+00  0.00000000000E+00  0.13418028530E+04  0.13418028530E+04  0.00000000000E+00 0. -1.
         -1   -1    0    0    0  501 -0.00000000000E+00 -0.00000000000E+00 -0.18927761536E+02  0.18927761536E+02  0.00000000000E+00 0. -1.
         25    1    1    2    0    0  0.35183744514E+02 -0.23169965584E+02  0.25144645277E+03  0.28178016572E+03  0.12000000000E+03 0.  0.
         25    1    1    2    0    0 -0.35183744514E+02  0.23169965584E+02  0.10714286387E+04  0.10789504488E+04  0.12000000000E+03 0.  0.
<mgrwt>
<rscale>  0 0.31873076E+03</rscale>
<asrwt>0</asrwt>
<pdfrwt beam="1">  1        1 0.20643113E+00 0.31873076E+03</pdfrwt>
<pdfrwt beam="2">  1       -1 0.29119644E-02 0.31873076E+03</pdfrwt>
<totfact> 0.36089642E+03</totfact>
</mgrwt>
</event>
<event>
 4    1  0.1774755E-004  0.2485053E+03  0.7818608E-02  0.1114253E+00
          2   -1    0    0  501    0  0.00000000000E+00  0.00000000000E+00  0.19485534094E+04  0.19485534094E+04  0.00000000000E+00 0.  1.
         -2   -1    0    0    0  501 -0.00000000000E+00 -0.00000000000E+00 -0.79231694124E+01  0.79231694124E+01  0.00000000000E+00 0.  1.
         25    1    1    2    0    0 -0.31047219340E+02 -0.84306471471E+01  0.95514429524E+03  0.96319033963E+03  0.12000000000E+03 0.  0.
         25    1    1    2    0    0  0.31047219340E+02  0.84306471471E+01  0.98548594470E+03  0.99328623913E+03  0.12000000000E+03 0.  0.
<mgrwt>
<rscale>  0 0.24850528E+03</rscale>
<asrwt>0</asrwt>
<pdfrwt beam="1">  1        2 0.29977707E+00 0.24850528E+03</pdfrwt>
<pdfrwt beam="2">  1       -2 0.12189507E-02 0.24850528E+03</pdfrwt>
<totfact> 0.12605050E+04</totfact>
</mgrwt>
</event>
<event>
 4    1  0.1774755E-004  0.2783379E+03  0.7818608E-02  0.1096600E+00
         -2   -1    0    0    0  501 -0.00000000000E+00  0.00000000000E+00  0.46733685478E+02  0.46733685478E+02  0.00000000000E+00 0. -1.
          2   -1    0    0  501    0  0.00000000000E+00 -0.00000000000E+00 -0.41443333276E+03  0.41443333276E+03  0.00000000000E+00 0. -1.
         25    1    1    2    0    0 -0.36840667965E+02  0.24573888894E+02 -0.92995754147E+02  0.15814335623E+03  0.12000000000E+03 0.  0.
         25    1    1    2    0    0  0.36840667965E+02 -0.24573888894E+02 -0.27470389313E+03  0.30302366200E+03  0.12000000000E+03 0.  0.
<mgrwt>
<rscale>  0 0.27833790E+03</rscale>
<asrwt>0</asrwt>
<pdfrwt beam="1">  1        2 0.63758977E-01 0.27833790E+03</pdfrwt>
<pdfrwt beam="2">  1       -2 0.71897975E-02 0.27833790E+03</pdfrwt>
<totfact> 0.85308117E+03</totfact>
</mgrwt>
</event>
<event>
 4    1  0.1774755E-004  0.2789252E+03  0.7818608E-02  0.1096277E+00
          2   -1    0    0  501    0  0.00000000000E+00  0.00000000000E+00  0.10620272551E+04  0.10620272551E+04  0.00000000000E+00 0.  1.
         -2   -1    0    0    0  501 -0.00000000000E+00 -0.00000000000E+00 -0.18313861372E+02  0.18313861372E+02  0.00000000000E+00 0.  1.
         25    1    1    2    0    0  0.52813524691E+02  0.29732799270E+02  0.66555880742E+03  0.67900061405E+03  0.12000000000E+03 0.  0.
         25    1    1    2    0    0 -0.52813524691E+02 -0.29732799270E+02  0.37815458635E+03  0.40134050247E+03  0.12000000000E+03 0.  0.
<mgrwt>
<rscale>  0 0.27892522E+03</rscale>
<asrwt>0</asrwt>
<pdfrwt beam="1">  1        2 0.16338876E+00 0.27892522E+03</pdfrwt>
<pdfrwt beam="2">  1       -2 0.28175180E-02 0.27892522E+03</pdfrwt>
<totfact> 0.11178471E+04</totfact>
</mgrwt>
</event>
<event>
 4    1  0.1774755E-004  0.3403640E+03  0.7818608E-02  0.1066641E+00
          2   -1    0    0  501    0  0.00000000000E+00  0.00000000000E+00  0.58263522126E+03  0.58263522126E+03  0.00000000000E+00 0. -1.
         -2   -1    0    0    0  501 -0.00000000000E+00 -0.00000000000E+00 -0.49708491612E+02  0.49708491612E+02  0.00000000000E+00 0. -1.
         25    1    1    2    0    0  0.27361598940E+02 -0.91830474111E+01  0.48414807958E+03  0.49963221315E+03  0.12000000000E+03 0.  0.
         25    1    1    2    0    0 -0.27361598940E+02  0.91830474111E+01  0.48778650069E+02  0.13271149972E+03  0.12000000000E+03 0.  0.
<mgrwt>
<rscale>  0 0.34036403E+03</rscale>
<asrwt>0</asrwt>
<pdfrwt beam="1">  1        2 0.89636183E-01 0.34036403E+03</pdfrwt>
<pdfrwt beam="2">  1       -2 0.76474607E-02 0.34036403E+03</pdfrwt>
<totfact> 0.53173930E+03</totfact>
</mgrwt>
</event>
<event>
 4    1  0.1774755E-004  0.3168412E+03  0.7818608E-02  0.1077112E+00
         -1   -1    0    0    0  501 -0.00000000000E+00  0.00000000000E+00  0.36800589311E+02  0.36800589311E+02  0.00000000000E+00 0.  1.
          1   -1    0    0  501    0  0.00000000000E+00 -0.00000000000E+00 -0.68197517512E+03  0.68197517512E+03  0.00000000000E+00 0.  1.
         25    1    1    2    0    0 -0.31074779285E+02 -0.70969112465E+02 -0.16714765885E+03  0.21986495103E+03  0.12000000000E+03 0.  0.
         25    1    1    2    0    0  0.31074779285E+02  0.70969112465E+02 -0.47802692695E+03  0.49891081340E+03  0.12000000000E+03 0.  0.
<mgrwt>
<rscale>  0 0.31684121E+03</rscale>
<asrwt>0</asrwt>
<pdfrwt beam="1">  1        1 0.10491926E+00 0.31684121E+03</pdfrwt>
<pdfrwt beam="2">  1       -1 0.56616290E-02 0.31684121E+03</pdfrwt>
<totfact> 0.42789694E+03</totfact>
</mgrwt>
</event>
<event>
 4    1  0.1774755E-004  0.2742286E+03  0.7818608E-02  0.1098884E+00
         -1   -1    0    0    0  501 -0.00000000000E+00  0.00000000000E+00  0.30339397763E+02  0.30339397763E+02  0.00000000000E+00 0.  1.
          1   -1    0    0  501    0  0.00000000000E+00 -0.00000000000E+00 -0.61966744785E+03  0.61966744785E+03  0.00000000000E+00 0.  1.
         25    1    1    2    0    0  0.10637219782E+01  0.51394599703E+02 -0.39404195458E+03  0.41510432225E+03  0.12000000000E+03 0.  0.
         25    1    1    2    0    0 -0.10637219782E+01 -0.51394599703E+02 -0.19528609551E+03  0.23490252336E+03  0.12000000000E+03 0.  0.
<mgrwt>
<rscale>  0 0.27422864E+03</rscale>
<asrwt>0</asrwt>
<pdfrwt beam="1">  1        1 0.95333448E-01 0.27422864E+03</pdfrwt>
<pdfrwt beam="2">  1       -1 0.46675999E-02 0.27422864E+03</pdfrwt>
<totfact> 0.65360502E+03</totfact>
</mgrwt>
</event>
<event>
 4    1  0.1774755E-004  0.2483406E+03  0.7818608E-02  0.1114358E+00
          4   -1    0    0  501    0  0.00000000000E+00  0.00000000000E+00  0.10336463543E+03  0.10336463543E+03  0.00000000000E+00 0.  1.
         -4   -1    0    0    0  501 -0.00000000000E+00 -0.00000000000E+00 -0.14916380510E+03  0.14916380510E+03  0.00000000000E+00 0.  1.
         25    1    1    2    0    0 -0.22966144391E+02  0.14792139041E+02 -0.61287009316E+01  0.12322261213E+03  0.12000000000E+03 0.  0.
         25    1    1    2    0    0  0.22966144391E+02 -0.14792139041E+02 -0.39670468737E+02  0.12930582839E+03  0.12000000000E+03 0.  0.
<mgrwt>
<rscale>  0 0.24834059E+03</rscale>
<asrwt>0</asrwt>
<pdfrwt beam="1">  1        4 0.15902252E-01 0.24834059E+03</pdfrwt>
<pdfrwt beam="2">  1       -4 0.22948278E-01 0.24834059E+03</pdfrwt>
<totfact> 0.11034734E+03</totfact>
</mgrwt>
</event>
<event>
 4    1  0.1774755E-004  0.2474098E+03  0.7818608E-02  0.1114953E+00
         -2   -1    0    0    0  501 -0.00000000000E+00  0.00000000000E+00  0.53231487651E+01  0.53231487651E+01  0.00000000000E+00 0.  1.
          2   -1    0    0  501    0  0.00000000000E+00 -0.00000000000E+00 -0.28747838563E+04  0.28747838563E+04  0.00000000000E+00 0.  1.
         25    1    1    2    0    0 -0.93929625732E+01  0.20869732754E+02 -0.12080650608E+04  0.12142260764E+04  0.12000000000E+03 0.  0.
         25    1    1    2    0    0  0.93929625732E+01 -0.20869732754E+02 -0.16613956467E+04  0.16658809287E+04  0.12000000000E+03 0.  0.
<mgrwt>
<rscale>  0 0.24740980E+03</rscale>
<asrwt>0</asrwt>
<pdfrwt beam="1">  1        2 0.44227492E+00 0.24740980E+03</pdfrwt>
<pdfrwt beam="2">  1       -2 0.81894507E-03 0.24740980E+03</pdfrwt>
<totfact> 0.70340310E+03</totfact>
</mgrwt>
</event>
<event>
 4    1  0.1774755E-004  0.2655973E+03  0.7818608E-02  0.1103826E+00
         -2   -1    0    0    0  501 -0.00000000000E+00  0.00000000000E+00  0.13163676015E+02  0.13163676015E+02  0.00000000000E+00 0.  1.
          2   -1    0    0  501    0  0.00000000000E+00 -0.00000000000E+00 -0.13397077571E+04  0.13397077571E+04  0.00000000000E+00 0.  1.
         25    1    1    2    0    0  0.26485319994E+02  0.78946315944E+00 -0.40689249924E+03  0.42504541095E+03  0.12000000000E+03 0.  0.
         25    1    1    2    0    0 -0.26485319994E+02 -0.78946315944E+00 -0.91965158183E+03  0.92782602215E+03  0.12000000000E+03 0.  0.
<mgrwt>
<rscale>  0 0.26559728E+03</rscale>
<asrwt>0</asrwt>
<pdfrwt beam="1">  1        2 0.20610884E+00 0.26559728E+03</pdfrwt>
<pdfrwt beam="2">  1       -2 0.20251814E-02 0.26559728E+03</pdfrwt>
<totfact> 0.12635514E+04</totfact>
</mgrwt>
</event>
<event>
 4    1  0.1774755E-004  0.2610675E+03  0.7818608E-02  0.1106504E+00
          1   -1    0    0  501    0  0.00000000000E+00  0.00000000000E+00  0.57414353759E+03  0.57414353759E+03  0.00000000000E+00 0. -1.
         -1   -1    0    0    0  501 -0.00000000000E+00 -0.00000000000E+00 -0.29677347372E+02  0.29677347372E+02  0.00000000000E+00 0. -1.
         25    1    1    2    0    0  0.41290000196E+02 -0.29354008264E+02  0.25253473701E+03  0.28414840368E+03  0.12000000000E+03 0.  0.
         25    1    1    2    0    0 -0.41290000196E+02  0.29354008264E+02  0.29193145321E+03  0.31967248128E+03  0.12000000000E+03 0.  0.
<mgrwt>
<rscale>  0 0.26106748E+03</rscale>
<asrwt>0</asrwt>
<pdfrwt beam="1">  1        1 0.88329767E-01 0.26106748E+03</pdfrwt>
<pdfrwt beam="2">  1       -1 0.45657462E-02 0.26106748E+03</pdfrwt>
<totfact> 0.74966668E+03</totfact>
</mgrwt>
</event>
<event>
 4    1  0.1774755E-004  0.2631766E+03  0.7818608E-02  0.1105250E+00
         -2   -1    0    0    0  501 -0.00000000000E+00  0.00000000000E+00  0.41970584564E+02  0.41970584564E+02  0.00000000000E+00 0.  1.
          2   -1    0    0  501    0  0.00000000000E+00 -0.00000000000E+00 -0.41256232433E+03  0.41256232433E+03  0.00000000000E+00 0.  1.
         25    1    1    2    0    0 -0.95065465320E+01  0.57254340291E+01 -0.94031517779E+02  0.15285640764E+03  0.12000000000E+03 0.  0.
         25    1    1    2    0    0  0.95065465320E+01 -0.57254340291E+01 -0.27656022199E+03  0.30167650125E+03  0.12000000000E+03 0.  0.
<mgrwt>
<rscale>  0 0.26317661E+03</rscale>
<asrwt>0</asrwt>
<pdfrwt beam="1">  1        2 0.63471125E-01 0.26317661E+03</pdfrwt>
<pdfrwt beam="2">  1       -2 0.64570132E-02 0.26317661E+03</pdfrwt>
<totfact> 0.10099811E+04</totfact>
</mgrwt>
</event>
<event>
 4    1  0.1774755E-004  0.2716539E+03  0.7818608E-02  0.1100337E+00
          2   -1    0    0  501    0  0.00000000000E+00  0.00000000000E+00  0.19879454600E+03  0.19879454600E+03  0.00000000000E+00 0.  1.
         -2   -1    0    0    0  501 -0.00000000000E+00 -0.00000000000E+00 -0.92804188875E+02  0.92804188875E+02  0.00000000000E+00 0.  1.
         25    1    1    2    0    0  0.60532207495E+02 -0.18768639814E+02  0.46870416733E+02  0.14357313798E+03  0.12000000000E+03 0.  0.
         25    1    1    2    0    0 -0.60532207495E+02  0.18768639814E+02  0.59119940393E+02  0.14802559690E+03  0.12000000000E+03 0.  0.
<mgrwt>
<rscale>  0 0.27165395E+03</rscale>
<asrwt>0</asrwt>
<pdfrwt beam="1">  1        2 0.30583776E-01 0.27165395E+03</pdfrwt>
<pdfrwt beam="2">  1       -2 0.14277568E-01 0.27165395E+03</pdfrwt>
<totfact> 0.63257017E+03</totfact>
</mgrwt>
</event>
<event>
 4    1  0.1774755E-004  0.2618394E+03  0.7818608E-02  0.1106043E+00
          2   -1    0    0  501    0  0.00000000000E+00  0.00000000000E+00  0.16005393084E+04  0.16005393084E+04  0.00000000000E+00 0. -1.
         -2   -1    0    0    0  501 -0.00000000000E+00 -0.00000000000E+00 -0.10708867899E+02  0.10708867899E+02  0.00000000000E+00 0. -1.
         25    1    1    2    0    0 -0.25554917918E+01 -0.45531701717E+02  0.95303906163E+03  0.96164604684E+03  0.12000000000E+03 0.  0.
         25    1    1    2    0    0  0.25554917918E+01  0.45531701717E+02  0.63679137885E+03  0.64960212944E+03  0.12000000000E+03 0.  0.
<mgrwt>
<rscale>  0 0.26183937E+03</rscale>
<asrwt>0</asrwt>
<pdfrwt beam="1">  1        2 0.24623663E+00 0.26183937E+03</pdfrwt>
<pdfrwt beam="2">  1       -2 0.16475194E-02 0.26183937E+03</pdfrwt>
<totfact> 0.12381817E+04</totfact>
</mgrwt>
</event>
<event>
 4    1  0.1774755E-004  0.2620741E+03  0.7818608E-02  0.1105903E+00
          2   -1    0    0  501    0  0.00000000000E+00  0.00000000000E+00  0.11268876020E+02  0.11268876020E+02  0.00000000000E+00 0. -1.
         -2   -1    0    0    0  501 -0.00000000000E+00 -0.00000000000E+00 -0.15237284249E+04  0.15237284249E+04  0.00000000000E+00 0. -1.
         25    1    1    2    0    0 -0.29459473166E+02  0.16640193724E+02 -0.52005302430E+03  0.53478958917E+03  0.12000000000E+03 0.  0.
         25    1    1    2    0    0  0.29459473166E+02 -0.16640193724E+02 -0.99240652453E+03  0.10002077117E+04  0.12000000000E+03 0.  0.
<mgrwt>
<rscale>  0 0.26207409E+03</rscale>
<asrwt>0</asrwt>
<pdfrwt beam="1">  1        2 0.17336729E-02 0.26207409E+03</pdfrwt>
<pdfrwt beam="2">  1       -2 0.23441980E+00 0.26207409E+03</pdfrwt>
<totfact> 0.59204380E+02</totfact>
</mgrwt>
</event>
<event>
 4    1  0.1774755E-004  0.2750134E+03  0.7818608E-02  0.1098444E+00
         -1   -1    0    0    0  501 -0.00000000000E+00  0.00000000000E+00  0.11366158993E+02  0.11366158993E+02  0.00000000000E+00 0. -1.
          1   -1    0    0  501    0  0.00000000000E+00 -0.00000000000E+00 -0.16635434088E+04  0.16635434088E+04  0.00000000000E+00 0. -1.
         25    1    1    2    0    0 -0.62989092559E+01  0.24118529668E+02 -0.44639875076E+03  0.46291816168E+03  0.12000000000E+03 0.  0.
         25    1    1    2    0    0  0.62989092559E+01 -0.24118529668E+02 -0.12057784990E+04  0.12119914061E+04  0.12000000000E+03 0.  0.
<mgrwt>
<rscale>  0 0.27501345E+03</rscale>
<asrwt>0</asrwt>
<pdfrwt beam="1">  1        1 0.25592975E+00 0.27501345E+03</pdfrwt>
<pdfrwt beam="2">  1       -1 0.17486399E-02 0.27501345E+03</pdfrwt>
<totfact> 0.46606431E+03</totfact>
</mgrwt>
</event>
<event>
 4    1  0.1774755E-004  0.2839924E+03  0.7818608E-02  0.1093528E+00
          2   -1    0    0  501    0  0.00000000000E+00  0.00000000000E+00  0.47287043690E+02  0.47287043690E+02  0.00000000000E+00 0.  1.
         -2   -1    0    0    0  501 -0.00000000000E+00 -0.00000000000E+00 -0.42639406433E+03  0.42639406433E+03  0.00000000000E+00 0.  1.
         25    1    1    2    0    0 -0.52412667865E-01  0.68278293052E+02 -0.13420952267E+03  0.19254642044E+03  0.12000000000E+03 0.  0.
         25    1    1    2    0    0  0.52412667865E-01 -0.68278293052E+02 -0.24489749797E+03  0.28113468758E+03  0.12000000000E+03 0.  0.
<mgrwt>
<rscale>  0 0.28399236E+03</rscale>
<asrwt>0</asrwt>
<pdfrwt beam="1">  1        2 0.72749300E-02 0.28399236E+03</pdfrwt>
<pdfrwt beam="2">  1       -2 0.65599085E-01 0.28399236E+03</pdfrwt>
<totfact> 0.21040400E+03</totfact>
</mgrwt>
</event>
<event>
 4    1  0.1774755E-004  0.3176139E+03  0.7818608E-02  0.1076753E+00
         -1   -1    0    0    0  501 -0.00000000000E+00  0.00000000000E+00  0.40339237551E+02  0.40339237551E+02  0.00000000000E+00 0. -1.
          1   -1    0    0  501    0  0.00000000000E+00 -0.00000000000E+00 -0.62518890930E+03  0.62518890930E+03  0.00000000000E+00 0. -1.
         25    1    1    2    0    0  0.80279363653E+02  0.44129278375E+02 -0.39566395584E+03  0.42348805814E+03  0.12000000000E+03 0.  0.
         25    1    1    2    0    0 -0.80279363653E+02 -0.44129278375E+02 -0.18918571592E+03  0.24204008872E+03  0.12000000000E+03 0.  0.
<mgrwt>
<rscale>  0 0.31761388E+03</rscale>
<asrwt>0</asrwt>
<pdfrwt beam="1">  1        1 0.96182909E-01 0.31761388E+03</pdfrwt>
<pdfrwt beam="2">  1       -1 0.62060365E-02 0.31761388E+03</pdfrwt>
<totfact> 0.42181249E+03</totfact>
</mgrwt>
</event>
<event>
 4    1  0.1774755E-004  0.3175981E+03  0.7818608E-02  0.1076760E+00
         -2   -1    0    0    0  501 -0.00000000000E+00  0.00000000000E+00  0.19405932842E+02  0.19405932842E+02  0.00000000000E+00 0. -1.
          2   -1    0    0  501    0  0.00000000000E+00 -0.00000000000E+00 -0.12994550206E+04  0.12994550206E+04  0.00000000000E+00 0. -1.
         25    1    1    2    0    0 -0.22315317758E+02  0.34738520430E+02 -0.24362104169E+03  0.27469246470E+03  0.12000000000E+03 0.  0.
         25    1    1    2    0    0  0.22315317758E+02 -0.34738520430E+02 -0.10364280460E+04  0.10441684887E+04  0.12000000000E+03 0.  0.
<mgrwt>
<rscale>  0 0.31759809E+03</rscale>
<asrwt>0</asrwt>
<pdfrwt beam="1">  1        2 0.19991616E+00 0.31759809E+03</pdfrwt>
<pdfrwt beam="2">  1       -2 0.29855281E-02 0.31759809E+03</pdfrwt>
<totfact> 0.75107992E+03</totfact>
</mgrwt>
</event>
<event>
 4    1  0.1774755E-004  0.2628440E+03  0.7818608E-02  0.1105446E+00
         -2   -1    0    0    0  501 -0.00000000000E+00  0.00000000000E+00  0.28917379592E+02  0.28917379592E+02  0.00000000000E+00 0. -1.
          2   -1    0    0  501    0  0.00000000000E+00 -0.00000000000E+00 -0.59727879072E+03  0.59727879072E+03  0.00000000000E+00 0. -1.
         25    1    1    2    0    0 -0.50692864942E+01  0.68532682386E+01 -0.15813748961E+03  0.19869607588E+03  0.12000000000E+03 0.  0.
         25    1    1    2    0    0  0.50692864942E+01 -0.68532682386E+01 -0.41022392151E+03  0.42750009442E+03  0.12000000000E+03 0.  0.
<mgrwt>
<rscale>  0 0.26284397E+03</rscale>
<asrwt>0</asrwt>
<pdfrwt beam="1">  1        2 0.91889043E-01 0.26284397E+03</pdfrwt>
<pdfrwt beam="2">  1       -2 0.44488277E-02 0.26284397E+03</pdfrwt>
<totfact> 0.11779451E+04</totfact>
</mgrwt>
</event>
<event>
 4    1  0.1774755E-004  0.5050173E+03  0.7818608E-02  0.1012478E+00
         -2   -1    0    0    0  501 -0.00000000000E+00  0.00000000000E+00  0.14193346469E+02  0.14193346469E+02  0.00000000000E+00 0.  1.
          2   -1    0    0  501    0  0.00000000000E+00 -0.00000000000E+00 -0.44922893870E+04  0.44922893870E+04  0.00000000000E+00 0.  1.
         25    1    1    2    0    0 -0.22212162628E+03  0.34717043943E+00 -0.21967371459E+04  0.22111970119E+04  0.12000000000E+03 0.  0.
         25    1    1    2    0    0  0.22212162628E+03 -0.34717043943E+00 -0.22813588946E+04  0.22952857215E+04  0.12000000000E+03 0.  0.
<mgrwt>
<rscale>  0 0.50501731E+03</rscale>
<asrwt>0</asrwt>
<pdfrwt beam="1">  1        2 0.69112237E+00 0.50501731E+03</pdfrwt>
<pdfrwt beam="2">  1       -2 0.21835888E-02 0.50501731E+03</pdfrwt>
<totfact> 0.10900048E+02</totfact>
</mgrwt>
</event>
<event>
 4    1  0.1774755E-004  0.3458745E+03  0.7818608E-02  0.1064321E+00
          1   -1    0    0  501    0  0.00000000000E+00  0.00000000000E+00  0.10266278038E+03  0.10266278038E+03  0.00000000000E+00 0. -1.
         -1   -1    0    0    0  501 -0.00000000000E+00 -0.00000000000E+00 -0.29131589907E+03  0.29131589907E+03  0.00000000000E+00 0. -1.
         25    1    1    2    0    0 -0.25356976844E+02 -0.11978614974E+03 -0.12019150144E+03  0.20937453274E+03  0.12000000000E+03 0.  0.
         25    1    1    2    0    0  0.25356976844E+02  0.11978614974E+03 -0.68461617261E+02  0.18460414671E+03  0.12000000000E+03 0.  0.
<mgrwt>
<rscale>  0 0.34587454E+03</rscale>
<asrwt>0</asrwt>
<pdfrwt beam="1">  1        1 0.15794274E-01 0.34587454E+03</pdfrwt>
<pdfrwt beam="2">  1       -1 0.44817830E-01 0.34587454E+03</pdfrwt>
<totfact> 0.17553389E+03</totfact>
</mgrwt>
</event>
<event>
 4    1  0.1774755E-004  0.3297359E+03  0.7818608E-02  0.1071254E+00
         -2   -1    0    0    0  501 -0.00000000000E+00  0.00000000000E+00  0.36875672918E+02  0.36875672918E+02  0.00000000000E+00 0. -1.
          2   -1    0    0  501    0  0.00000000000E+00 -0.00000000000E+00 -0.73711027203E+03  0.73711027203E+03  0.00000000000E+00 0. -1.
         25    1    1    2    0    0  0.82737887200E+02 -0.59696523197E+02 -0.46444275145E+03  0.49042461422E+03  0.12000000000E+03 0.  0.
         25    1    1    2    0    0 -0.82737887200E+02  0.59696523197E+02 -0.23579184767E+03  0.28356133073E+03  0.12000000000E+03 0.  0.
<mgrwt>
<rscale>  0 0.32973588E+03</rscale>
<asrwt>0</asrwt>
<pdfrwt beam="1">  1        2 0.11340158E+00 0.32973588E+03</pdfrwt>
<pdfrwt beam="2">  1       -2 0.56731805E-02 0.32973588E+03</pdfrwt>
<totfact> 0.63670097E+03</totfact>
</mgrwt>
</event>
<event>
 4    1  0.1774755E-004  0.2624096E+03  0.7818608E-02  0.1105704E+00
         -2   -1    0    0    0  501 -0.00000000000E+00  0.00000000000E+00  0.39345139391E+03  0.39345139391E+03  0.00000000000E+00 0. -1.
          2   -1    0    0  501    0  0.00000000000E+00 -0.00000000000E+00 -0.43753068679E+02  0.43753068679E+02  0.00000000000E+00 0. -1.
         25    1    1    2    0    0 -0.46097573663E+02  0.25804562088E+02  0.16671345005E+03  0.21209487535E+03  0.12000000000E+03 0.  0.
         25    1    1    2    0    0  0.46097573663E+02 -0.25804562088E+02  0.18298487518E+03  0.22510958724E+03  0.12000000000E+03 0.  0.
<mgrwt>
<rscale>  0 0.26240965E+03</rscale>
<asrwt>0</asrwt>
<pdfrwt beam="1">  1        2 0.67312416E-02 0.26240965E+03</pdfrwt>
<pdfrwt beam="2">  1       -2 0.60530981E-01 0.26240965E+03</pdfrwt>
<totfact> 0.27450253E+03</totfact>
</mgrwt>
</event>
<event>
 4    1  0.1774755E-004  0.2802119E+03  0.7818608E-02  0.1095573E+00
         -1   -1    0    0    0  501 -0.00000000000E+00  0.00000000000E+00  0.54913127605E+02  0.54913127605E+02  0.00000000000E+00 0. -1.
          1   -1    0    0  501    0  0.00000000000E+00 -0.00000000000E+00 -0.35746785007E+03  0.35746785007E+03  0.00000000000E+00 0. -1.
         25    1    1    2    0    0  0.56470199062E+02  0.30170913777E+02 -0.10179512761E+03  0.16988647805E+03  0.12000000000E+03 0.  0.
         25    1    1    2    0    0 -0.56470199062E+02 -0.30170913777E+02 -0.20075959486E+03  0.24249449962E+03  0.12000000000E+03 0.  0.
<mgrwt>
<rscale>  0 0.28021190E+03</rscale>
<asrwt>0</asrwt>
<pdfrwt beam="1">  1        1 0.54995055E-01 0.28021190E+03</pdfrwt>
<pdfrwt beam="2">  1       -1 0.84481733E-02 0.28021190E+03</pdfrwt>
<totfact> 0.55165027E+03</totfact>
</mgrwt>
</event>
<event>
 4    1  0.1774755E-004  0.2698507E+03  0.7818608E-02  0.1101365E+00
          2   -1    0    0  501    0  0.00000000000E+00  0.00000000000E+00  0.12648947615E+04  0.12648947615E+04  0.00000000000E+00 0.  1.
         -2   -1    0    0    0  501 -0.00000000000E+00 -0.00000000000E+00 -0.14392383815E+02  0.14392383815E+02  0.00000000000E+00 0.  1.
         25    1    1    2    0    0  0.28831928354E+02  0.29718368585E+02  0.40850170533E+03  0.42777108923E+03  0.12000000000E+03 0.  0.
         25    1    1    2    0    0 -0.28831928354E+02 -0.29718368585E+02  0.84200067235E+03  0.85151605608E+03  0.12000000000E+03 0.  0.
<mgrwt>
<rscale>  0 0.26985071E+03</rscale>
<asrwt>0</asrwt>
<pdfrwt beam="1">  1        2 0.19459911E+00 0.26985071E+03</pdfrwt>
<pdfrwt beam="2">  1       -2 0.22142139E-02 0.26985071E+03</pdfrwt>
<totfact> 0.12192481E+04</totfact>
</mgrwt>
</event>
<event>
 4    1  0.1774755E-004  0.3010199E+03  0.7818608E-02  0.1084732E+00
         -2   -1    0    0    0  501 -0.00000000000E+00  0.00000000000E+00  0.43504594092E+02  0.43504594092E+02  0.00000000000E+00 0.  1.
          2   -1    0    0  501    0  0.00000000000E+00 -0.00000000000E+00 -0.52070919112E+03  0.52070919112E+03  0.00000000000E+00 0.  1.
         25    1    1    2    0    0  0.70364709218E+02  0.56092537016E+02 -0.21521604115E+03  0.26232710378E+03  0.12000000000E+03 0.  0.
         25    1    1    2    0    0 -0.70364709218E+02 -0.56092537016E+02 -0.26198855589E+03  0.30188668143E+03  0.12000000000E+03 0.  0.
<mgrwt>
<rscale>  0 0.30101988E+03</rscale>
<asrwt>0</asrwt>
<pdfrwt beam="1">  1        2 0.80109107E-01 0.30101988E+03</pdfrwt>
<pdfrwt beam="2">  1       -2 0.66930144E-02 0.30101988E+03</pdfrwt>
<totfact> 0.74192546E+03</totfact>
</mgrwt>
</event>
<event>
 4    1  0.1774755E-004  0.2513378E+03  0.7818608E-02  0.1112462E+00
         -1   -1    0    0    0  501 -0.00000000000E+00  0.00000000000E+00  0.23933722252E+02  0.23933722252E+02  0.00000000000E+00 0.  1.
          1   -1    0    0  501    0  0.00000000000E+00 -0.00000000000E+00 -0.65985007367E+03  0.65985007367E+03  0.00000000000E+00 0.  1.
         25    1    1    2    0    0 -0.17257462206E+02  0.15009731136E+02 -0.23773313999E+03  0.26728291730E+03  0.12000000000E+03 0.  0.
         25    1    1    2    0    0  0.17257462206E+02 -0.15009731136E+02 -0.39818321143E+03  0.41650087862E+03  0.12000000000E+03 0.  0.
<mgrwt>
<rscale>  0 0.25133777E+03</rscale>
<asrwt>0</asrwt>
<pdfrwt beam="1">  1        1 0.10151539E+00 0.25133777E+03</pdfrwt>
<pdfrwt beam="2">  1       -1 0.36821113E-02 0.25133777E+03</pdfrwt>
<totfact> 0.84863507E+03</totfact>
</mgrwt>
</event>
<event>
 4    1  0.1774755E-004  0.2427382E+03  0.7818608E-02  0.1117982E+00
         -2   -1    0    0    0  501 -0.00000000000E+00  0.00000000000E+00  0.51698364525E+01  0.51698364525E+01  0.00000000000E+00 0.  1.
          2   -1    0    0  501    0  0.00000000000E+00 -0.00000000000E+00 -0.28493089568E+04  0.28493089568E+04  0.00000000000E+00 0.  1.
         25    1    1    2    0    0  0.41046505778E+01 -0.17366852770E+02 -0.14628151099E+04  0.14678373553E+04  0.12000000000E+03 0.  0.
         25    1    1    2    0    0 -0.41046505778E+01  0.17366852770E+02 -0.13813240104E+04  0.13866414380E+04  0.12000000000E+03 0.  0.
<mgrwt>
<rscale>  0 0.24273822E+03</rscale>
<asrwt>0</asrwt>
<pdfrwt beam="1">  1        2 0.43835420E+00 0.24273822E+03</pdfrwt>
<pdfrwt beam="2">  1       -2 0.79536131E-03 0.24273822E+03</pdfrwt>
<totfact> 0.75901019E+03</totfact>
</mgrwt>
</event>
<event>
 4    1  0.1774755E-004  0.3660068E+03  0.7818608E-02  0.1056230E+00
         -3   -1    0    0    0  501 -0.00000000000E+00  0.00000000000E+00  0.59948814948E+03  0.59948814948E+03  0.00000000000E+00 0. -1.
          3   -1    0    0  501    0  0.00000000000E+00 -0.00000000000E+00 -0.55864727689E+02  0.55864727689E+02  0.00000000000E+00 0. -1.
         25    1    1    2    0    0 -0.95147143194E+01 -0.52229284040E+02  0.43407524178E+02  0.13821230428E+03  0.12000000000E+03 0.  0.
         25    1    1    2    0    0  0.95147143194E+01  0.52229284040E+02  0.50021589761E+03  0.51714057289E+03  0.12000000000E+03 0.  0.
<mgrwt>
<rscale>  0 0.36600679E+03</rscale>
<asrwt>0</asrwt>
<pdfrwt beam="1">  1        3 0.85945739E-02 0.36600679E+03</pdfrwt>
<pdfrwt beam="2">  1       -3 0.92228941E-01 0.36600679E+03</pdfrwt>
<totfact> 0.26680376E+02</totfact>
</mgrwt>
</event>
<event>
 4    1  0.1774755E-004  0.2480766E+03  0.7818608E-02  0.1114526E+00
         -2   -1    0    0    0  501 -0.00000000000E+00  0.00000000000E+00  0.97410558274E+02  0.97410558274E+02  0.00000000000E+00 0.  1.
          2   -1    0    0  501    0  0.00000000000E+00 -0.00000000000E+00 -0.15794483555E+03  0.15794483555E+03  0.00000000000E+00 0.  1.
         25    1    1    2    0    0 -0.11135868585E+02  0.26814876542E+02 -0.17981728112E+02  0.12476533060E+03  0.12000000000E+03 0.  0.
         25    1    1    2    0    0  0.11135868585E+02 -0.26814876542E+02 -0.42552549164E+02  0.13059006323E+03  0.12000000000E+03 0.  0.
<mgrwt>
<rscale>  0 0.24807656E+03</rscale>
<asrwt>0</asrwt>
<pdfrwt beam="1">  1        2 0.24299205E-01 0.24807656E+03</pdfrwt>
<pdfrwt beam="2">  1       -2 0.14986240E-01 0.24807656E+03</pdfrwt>
<totfact> 0.75057688E+03</totfact>
</mgrwt>
</event>
<event>
 4    1  0.1774755E-004  0.3754809E+03  0.7818608E-02  0.1052617E+00
          2   -1    0    0  501    0  0.00000000000E+00  0.00000000000E+00  0.22155187255E+04  0.22155187255E+04  0.00000000000E+00 0. -1.
         -2   -1    0    0    0  501 -0.00000000000E+00 -0.00000000000E+00 -0.15908903096E+02  0.15908903096E+02  0.00000000000E+00 0. -1.
         25    1    1    2    0    0 -0.67373678696E+02  0.34180922454E+02  0.18310155365E+04  0.18364981468E+04  0.12000000000E+03 0.  0.
         25    1    1    2    0    0  0.67373678696E+02 -0.34180922454E+02  0.36859428582E+03  0.39492948178E+03  0.12000000000E+03 0.  0.
<mgrwt>
<rscale>  0 0.37548088E+03</rscale>
<asrwt>0</asrwt>
<pdfrwt beam="1">  1        2 0.34084879E+00 0.37548088E+03</pdfrwt>
<pdfrwt beam="2">  1       -2 0.24475253E-02 0.37548088E+03</pdfrwt>
<totfact> 0.32606772E+03</totfact>
</mgrwt>
</event>
<event>
 4    1  0.1774755E-004  0.2814443E+03  0.7818608E-02  0.1094903E+00
          2   -1    0    0  501    0  0.00000000000E+00  0.00000000000E+00  0.59423838524E+03  0.59423838524E+03  0.00000000000E+00 0. -1.
         -2   -1    0    0    0  501 -0.00000000000E+00 -0.00000000000E+00 -0.33324535039E+02  0.33324535039E+02  0.00000000000E+00 0. -1.
         25    1    1    2    0    0  0.27167102257E+02 -0.63294863378E+02  0.22324077906E+03  0.26264184094E+03  0.12000000000E+03 0.  0.
         25    1    1    2    0    0 -0.27167102257E+02  0.63294863378E+02  0.33767307114E+03  0.36492107934E+03  0.12000000000E+03 0.  0.
<mgrwt>
<rscale>  0 0.28144426E+03</rscale>
<asrwt>0</asrwt>
<pdfrwt beam="1">  1        2 0.91421282E-01 0.28144426E+03</pdfrwt>
<pdfrwt beam="2">  1       -2 0.51268520E-02 0.28144426E+03</pdfrwt>
<totfact> 0.95818396E+03</totfact>
</mgrwt>
</event>
<event>
 4    1  0.1774755E-004  0.2524287E+03  0.7818608E-02  0.1111780E+00
         -2   -1    0    0    0  501 -0.00000000000E+00  0.00000000000E+00  0.11785354450E+03  0.11785354450E+03  0.00000000000E+00 0.  1.
          2   -1    0    0  501    0  0.00000000000E+00 -0.00000000000E+00 -0.13516826065E+03  0.13516826065E+03  0.00000000000E+00 0.  1.
         25    1    1    2    0    0  0.35113334332E+02  0.91103079209E+00  0.85959426313E+01  0.12533022961E+03  0.12000000000E+03 0.  0.
         25    1    1    2    0    0 -0.35113334332E+02 -0.91103079209E+00 -0.25910658779E+02  0.12769157554E+03  0.12000000000E+03 0.  0.
<mgrwt>
<rscale>  0 0.25242867E+03</rscale>
<asrwt>0</asrwt>
<pdfrwt beam="1">  1        2 0.20795117E-01 0.25242867E+03</pdfrwt>
<pdfrwt beam="2">  1       -2 0.18131315E-01 0.25242867E+03</pdfrwt>
<totfact> 0.65173731E+03</totfact>
</mgrwt>
</event>
<event>
 4    1  0.1774755E-004  0.2604711E+03  0.7818608E-02  0.1106861E+00
         -2   -1    0    0    0  501 -0.00000000000E+00  0.00000000000E+00  0.28397038857E+02  0.28397038857E+02  0.00000000000E+00 0.  1.
          2   -1    0    0  501    0  0.00000000000E+00 -0.00000000000E+00 -0.59729097278E+03  0.59729097278E+03  0.00000000000E+00 0.  1.
         25    1    1    2    0    0  0.78506195995E+01 -0.98992538634E+01 -0.40216819288E+03  0.41987960515E+03  0.12000000000E+03 0.  0.
         25    1    1    2    0    0 -0.78506195995E+01  0.98992538634E+01 -0.16672574105E+03  0.20580840649E+03  0.12000000000E+03 0.  0.
<mgrwt>
<rscale>  0 0.26047107E+03</rscale>
<asrwt>0</asrwt>
<pdfrwt beam="1">  1        2 0.91890927E-01 0.26047107E+03</pdfrwt>
<pdfrwt beam="2">  1       -2 0.43687748E-02 0.26047107E+03</pdfrwt>
<totfact> 0.12101835E+04</totfact>
</mgrwt>
</event>
<event>
 4    1  0.1774755E-004  0.2785471E+03  0.7818608E-02  0.1096485E+00
         -2   -1    0    0    0  501 -0.00000000000E+00  0.00000000000E+00  0.34374879138E+02  0.34374879138E+02  0.00000000000E+00 0.  1.
          2   -1    0    0  501    0  0.00000000000E+00 -0.00000000000E+00 -0.56428199888E+03  0.56428199888E+03  0.00000000000E+00 0.  1.
         25    1    1    2    0    0  0.56472210448E+01 -0.70007190259E+02 -0.28217781850E+03  0.31457466371E+03  0.12000000000E+03 0.  0.
         25    1    1    2    0    0 -0.56472210448E+01  0.70007190259E+02 -0.24772930124E+03  0.28408221431E+03  0.12000000000E+03 0.  0.
<mgrwt>
<rscale>  0 0.27854713E+03</rscale>
<asrwt>0</asrwt>
<pdfrwt beam="1">  1        2 0.86812608E-01 0.27854713E+03</pdfrwt>
<pdfrwt beam="2">  1       -2 0.52884434E-02 0.27854713E+03</pdfrwt>
<totfact> 0.96971476E+03</totfact>
</mgrwt>
</event>
<event>
 4    1  0.1774755E-004  0.2467294E+03  0.7818608E-02  0.1115389E+00
          1   -1    0    0  501    0  0.00000000000E+00  0.00000000000E+00  0.53809927457E+03  0.53809927457E+03  0.00000000000E+00 0.  1.
         -1   -1    0    0    0  501 -0.00000000000E+00 -0.00000000000E+00 -0.28282613974E+02  0.28282613974E+02  0.00000000000E+00 0.  1.
         25    1    1    2    0    0 -0.24606320250E+02 -0.13642473480E+02  0.26689501196E+03  0.29398050188E+03  0.12000000000E+03 0.  0.
         25    1    1    2    0    0  0.24606320250E+02  0.13642473480E+02  0.24292164864E+03  0.27240138667E+03  0.12000000000E+03 0.  0.
<mgrwt>
<rscale>  0 0.24672944E+03</rscale>
<asrwt>0</asrwt>
<pdfrwt beam="1">  1        1 0.82784496E-01 0.24672944E+03</pdfrwt>
<pdfrwt beam="2">  1       -1 0.43511718E-02 0.24672944E+03</pdfrwt>
<totfact> 0.87771907E+03</totfact>
</mgrwt>
</event>
<event>
 4    1  0.1774755E-004  0.2591254E+03  0.7818608E-02  0.1107670E+00
         -2   -1    0    0    0  501 -0.00000000000E+00  0.00000000000E+00  0.24266186022E+02  0.24266186022E+02  0.00000000000E+00 0. -1.
          2   -1    0    0  501    0  0.00000000000E+00 -0.00000000000E+00 -0.69176470853E+03  0.69176470853E+03  0.00000000000E+00 0. -1.
         25    1    1    2    0    0 -0.22089427246E+02 -0.39332129468E+02 -0.28194038509E+03  0.30971816212E+03  0.12000000000E+03 0.  0.
         25    1    1    2    0    0  0.22089427246E+02  0.39332129468E+02 -0.38555813742E+03  0.40631273243E+03  0.12000000000E+03 0.  0.
<mgrwt>
<rscale>  0 0.25912538E+03</rscale>
<asrwt>0</asrwt>
<pdfrwt beam="1">  1        2 0.10642534E+00 0.25912538E+03</pdfrwt>
<pdfrwt beam="2">  1       -2 0.37332593E-02 0.25912538E+03</pdfrwt>
<totfact> 0.12883799E+04</totfact>
</mgrwt>
</event>
<event>
 4    1  0.1774755E-004  0.3161302E+03  0.7818608E-02  0.1077444E+00
          2   -1    0    0  501    0  0.00000000000E+00  0.00000000000E+00  0.22203680248E+03  0.22203680248E+03  0.00000000000E+00 0.  1.
         -2   -1    0    0    0  501 -0.00000000000E+00 -0.00000000000E+00 -0.11252446066E+03  0.11252446066E+03  0.00000000000E+00 0.  1.
         25    1    1    2    0    0 -0.12790566090E+02  0.10161673077E+03  0.65071924928E+02  0.17065729978E+03  0.12000000000E+03 0.  0.
         25    1    1    2    0    0  0.12790566090E+02 -0.10161673077E+03  0.44440416899E+02  0.16390396337E+03  0.12000000000E+03 0.  0.
<mgrwt>
<rscale>  0 0.31613017E+03</rscale>
<asrwt>0</asrwt>
<pdfrwt beam="1">  1        2 0.34159508E-01 0.31613017E+03</pdfrwt>
<pdfrwt beam="2">  1       -2 0.17311455E-01 0.31613017E+03</pdfrwt>
<totfact> 0.40871562E+03</totfact>
</mgrwt>
</event>
<event>
 4    1  0.1774755E-004  0.4123315E+03  0.7818608E-02  0.1039591E+00
         -2   -1    0    0    0  501 -0.00000000000E+00  0.00000000000E+00  0.35139912108E+02  0.35139912108E+02  0.00000000000E+00 0.  1.
          2   -1    0    0  501    0  0.00000000000E+00 -0.00000000000E+00 -0.12095737655E+04  0.12095737655E+04  0.00000000000E+00 0.  1.
         25    1    1    2    0    0  0.30100172300E+02  0.77771998328E+02 -0.10262287372E+04  0.10365808821E+04  0.12000000000E+03 0.  0.
         25    1    1    2    0    0 -0.30100172300E+02 -0.77771998328E+02 -0.14820511618E+03  0.20813279549E+03  0.12000000000E+03 0.  0.
<mgrwt>
<rscale>  0 0.41233150E+03</rscale>
<asrwt>0</asrwt>
<pdfrwt beam="1">  1        2 0.18608829E+00 0.41233150E+03</pdfrwt>
<pdfrwt beam="2">  1       -2 0.54061398E-02 0.41233150E+03</pdfrwt>
<totfact> 0.34375287E+03</totfact>
</mgrwt>
</event>
<event>
 4    1  0.1774755E-004  0.2842333E+03  0.7818608E-02  0.1093399E+00
          2   -1    0    0  501    0  0.00000000000E+00  0.00000000000E+00  0.10547575828E+04  0.10547575828E+04  0.00000000000E+00 0. -1.
         -2   -1    0    0    0  501 -0.00000000000E+00 -0.00000000000E+00 -0.19148613560E+02  0.19148613560E+02  0.00000000000E+00 0. -1.
         25    1    1    2    0    0 -0.10569077186E+02 -0.74301542973E+02  0.46931300787E+03  0.49019090570E+03  0.12000000000E+03 0.  0.
         25    1    1    2    0    0  0.10569077186E+02  0.74301542973E+02  0.56629596139E+03  0.58371529068E+03  0.12000000000E+03 0.  0.
<mgrwt>
<rscale>  0 0.28423332E+03</rscale>
<asrwt>0</asrwt>
<pdfrwt beam="1">  1        2 0.16227035E+00 0.28423332E+03</pdfrwt>
<pdfrwt beam="2">  1       -2 0.29459414E-02 0.28423332E+03</pdfrwt>
<totfact> 0.10572267E+04</totfact>
</mgrwt>
</event>
<event>
 4    1  0.1774755E-004  0.2594306E+03  0.7818608E-02  0.1107486E+00
          1   -1    0    0  501    0  0.00000000000E+00  0.00000000000E+00  0.43522067365E+03  0.43522067365E+03  0.00000000000E+00 0. -1.
         -1   -1    0    0    0  501 -0.00000000000E+00 -0.00000000000E+00 -0.38660973575E+02  0.38660973575E+02  0.00000000000E+00 0. -1.
         25    1    1    2    0    0 -0.32481396536E+02 -0.36718459480E+02  0.18956386099E+03  0.22964699819E+03  0.12000000000E+03 0.  0.
         25    1    1    2    0    0  0.32481396536E+02  0.36718459480E+02  0.20699583909E+03  0.24423464903E+03  0.12000000000E+03 0.  0.
<mgrwt>
<rscale>  0 0.25943057E+03</rscale>
<asrwt>0</asrwt>
<pdfrwt beam="1">  1        1 0.66957023E-01 0.25943057E+03</pdfrwt>
<pdfrwt beam="2">  1       -1 0.59478424E-02 0.25943057E+03</pdfrwt>
<totfact> 0.72859399E+03</totfact>
</mgrwt>
</event>
<event>
 4    1  0.1774755E-004  0.2713799E+03  0.7818608E-02  0.1100492E+00
         -1   -1    0    0    0  501 -0.00000000000E+00  0.00000000000E+00  0.16199528509E+03  0.16199528509E+03  0.00000000000E+00 0.  1.
          1   -1    0    0  501    0  0.00000000000E+00 -0.00000000000E+00 -0.11365615822E+03  0.11365615822E+03  0.00000000000E+00 0.  1.
         25    1    1    2    0    0  0.19658766870E+01  0.22032126597E+02 -0.36115125273E+02  0.12725400405E+03  0.12000000000E+03 0.  0.
         25    1    1    2    0    0 -0.19658766870E+01 -0.22032126597E+02  0.84454252142E+02  0.14839743926E+03  0.12000000000E+03 0.  0.
<mgrwt>
<rscale>  0 0.27137989E+03</rscale>
<asrwt>0</asrwt>
<pdfrwt beam="1">  1        1 0.17485563E-01 0.27137989E+03</pdfrwt>
<pdfrwt beam="2">  1       -1 0.24922352E-01 0.27137989E+03</pdfrwt>
<totfact> 0.42321970E+03</totfact>
</mgrwt>
</event>
<event>
 4    1  0.1774755E-004  0.3755746E+03  0.7818608E-02  0.1052582E+00
          1   -1    0    0  501    0  0.00000000000E+00  0.00000000000E+00  0.36462658825E+02  0.36462658825E+02  0.00000000000E+00 0. -1.
         -1   -1    0    0    0  501 -0.00000000000E+00 -0.00000000000E+00 -0.96712834965E+03  0.96712834965E+03  0.00000000000E+00 0. -1.
         25    1    1    2    0    0  0.11658565170E+03  0.46650239885E+02 -0.27458540567E+03  0.32490860880E+03  0.12000000000E+03 0.  0.
         25    1    1    2    0    0 -0.11658565170E+03 -0.46650239885E+02 -0.65608028515E+03  0.67868239967E+03  0.12000000000E+03 0.  0.
<mgrwt>
<rscale>  0 0.37557461E+03</rscale>
<asrwt>0</asrwt>
<pdfrwt beam="1">  1        1 0.56096396E-02 0.37557461E+03</pdfrwt>
<pdfrwt beam="2">  1       -1 0.14878898E+00 0.37557461E+03</pdfrwt>
<totfact> 0.54812815E+02</totfact>
</mgrwt>
</event>
<event>
 4    1  0.1774755E-004  0.2465391E+03  0.7818608E-02  0.1115512E+00
         -1   -1    0    0    0  501 -0.00000000000E+00  0.00000000000E+00  0.12749584625E+02  0.12749584625E+02  0.00000000000E+00 0.  1.
          1   -1    0    0  501    0  0.00000000000E+00 -0.00000000000E+00 -0.11918334869E+04  0.11918334869E+04  0.00000000000E+00 0.  1.
         25    1    1    2    0    0 -0.23326014304E+02  0.31139607545E+01 -0.66548419437E+03  0.67662619861E+03  0.12000000000E+03 0.  0.
         25    1    1    2    0    0  0.23326014304E+02 -0.31139607545E+01 -0.51359970795E+03  0.52795687295E+03  0.12000000000E+03 0.  0.
<mgrwt>
<rscale>  0 0.24653910E+03</rscale>
<asrwt>0</asrwt>
<pdfrwt beam="1">  1        1 0.18335905E+00 0.24653910E+03</pdfrwt>
<pdfrwt beam="2">  1       -1 0.19614739E-02 0.24653910E+03</pdfrwt>
<totfact> 0.81535230E+03</totfact>
</mgrwt>
</event>
<event>
 4    1  0.1774755E-004  0.3220816E+03  0.7818608E-02  0.1074695E+00
         -1   -1    0    0    0  501 -0.00000000000E+00  0.00000000000E+00  0.71560362579E+03  0.71560362579E+03  0.00000000000E+00 0. -1.
          1   -1    0    0  501    0  0.00000000000E+00 -0.00000000000E+00 -0.36240929016E+02  0.36240929016E+02  0.00000000000E+00 0. -1.
         25    1    1    2    0    0 -0.73567009014E+02  0.18908884729E+02  0.16244917595E+03  0.21577623943E+03  0.12000000000E+03 0.  0.
         25    1    1    2    0    0  0.73567009014E+02 -0.18908884729E+02  0.51691352083E+03  0.53606831538E+03  0.12000000000E+03 0.  0.
<mgrwt>
<rscale>  0 0.32208161E+03</rscale>
<asrwt>0</asrwt>
<pdfrwt beam="1">  1        1 0.55755281E-02 0.32208161E+03</pdfrwt>
<pdfrwt beam="2">  1       -1 0.11009286E+00 0.32208161E+03</pdfrwt>
<totfact> 0.11610573E+03</totfact>
</mgrwt>
</event>
<event>
 4    1  0.1774755E-004  0.3008013E+03  0.7818608E-02  0.1084841E+00
          4   -1    0    0  501    0  0.00000000000E+00  0.00000000000E+00  0.79374683922E+03  0.79374683922E+03  0.00000000000E+00 0.  1.
         -4   -1    0    0    0  501 -0.00000000000E+00 -0.00000000000E+00 -0.28498193844E+02  0.28498193844E+02  0.00000000000E+00 0.  1.
         25    1    1    2    0    0  0.45141380485E+02  0.15886798944E+02  0.59312663525E+03  0.60703322813E+03  0.12000000000E+03 0.  0.
         25    1    1    2    0    0 -0.45141380485E+02 -0.15886798944E+02  0.17212201013E+03  0.21521180493E+03  0.12000000000E+03 0.  0.
<mgrwt>
<rscale>  0 0.30080127E+03</rscale>
<asrwt>0</asrwt>
<pdfrwt beam="1">  1        4 0.12211488E+00 0.30080127E+03</pdfrwt>
<pdfrwt beam="2">  1       -4 0.43843381E-02 0.30080127E+03</pdfrwt>
<totfact> 0.29560565E+02</totfact>
</mgrwt>
</event>
<event>
 4    1  0.1774755E-004  0.2474878E+03  0.7818608E-02  0.1114903E+00
         -2   -1    0    0    0  501 -0.00000000000E+00  0.00000000000E+00  0.51874644864E+03  0.51874644864E+03  0.00000000000E+00 0.  1.
          2   -1    0    0  501    0  0.00000000000E+00 -0.00000000000E+00 -0.29518371254E+02  0.29518371254E+02  0.00000000000E+00 0.  1.
         25    1    1    2    0    0 -0.26109699861E+02 -0.15145790271E+02  0.24195669876E+03  0.27176121037E+03  0.12000000000E+03 0.  0.
         25    1    1    2    0    0  0.26109699861E+02  0.15145790271E+02  0.24727137863E+03  0.27650360952E+03  0.12000000000E+03 0.  0.
<mgrwt>
<rscale>  0 0.24748778E+03</rscale>
<asrwt>0</asrwt>
<pdfrwt beam="1">  1        2 0.45412883E-02 0.24748778E+03</pdfrwt>
<pdfrwt beam="2">  1       -2 0.79807139E-01 0.24748778E+03</pdfrwt>
<totfact> 0.25412388E+03</totfact>
</mgrwt>
</event>
<event>
 4    1  0.1774755E-004  0.3165120E+03  0.7818608E-02  0.1077266E+00
          4   -1    0    0  501    0  0.00000000000E+00  0.00000000000E+00  0.66330420290E+03  0.66330420290E+03  0.00000000000E+00 0.  1.
         -4   -1    0    0    0  501 -0.00000000000E+00 -0.00000000000E+00 -0.37757888682E+02  0.37757888682E+02  0.00000000000E+00 0.  1.
         25    1    1    2    0    0 -0.37389539093E+02 -0.90902925880E+02  0.38224132258E+03  0.41251636119E+03  0.12000000000E+03 0.  0.
         25    1    1    2    0    0  0.37389539093E+02  0.90902925880E+02  0.24330499164E+03  0.28854573038E+03  0.12000000000E+03 0.  0.
<mgrwt>
<rscale>  0 0.31651203E+03</rscale>
<asrwt>0</asrwt>
<pdfrwt beam="1">  1        4 0.10204679E+00 0.31651203E+03</pdfrwt>
<pdfrwt beam="2">  1       -4 0.58089064E-02 0.31651203E+03</pdfrwt>
<totfact> 0.28968160E+02</totfact>
</mgrwt>
</event>
<event>
 4    1  0.1774755E-004  0.2697843E+03  0.7818608E-02  0.1101403E+00
         -2   -1    0    0    0  501 -0.00000000000E+00  0.00000000000E+00  0.16613059445E+02  0.16613059445E+02  0.00000000000E+00 0. -1.
          2   -1    0    0  501    0  0.00000000000E+00 -0.00000000000E+00 -0.10952760217E+04  0.10952760217E+04  0.00000000000E+00 0. -1.
         25    1    1    2    0    0  0.23314207119E+01  0.39795717932E+02 -0.73293869404E+03  0.74376626968E+03  0.12000000000E+03 0.  0.
         25    1    1    2    0    0 -0.23314207119E+01 -0.39795717932E+02 -0.34572426818E+03  0.36812281143E+03  0.12000000000E+03 0.  0.
<mgrwt>
<rscale>  0 0.26978425E+03</rscale>
<asrwt>0</asrwt>
<pdfrwt beam="1">  1        2 0.16850401E+00 0.26978425E+03</pdfrwt>
<pdfrwt beam="2">  1       -2 0.25558551E-02 0.26978425E+03</pdfrwt>
<totfact> 0.12331759E+04</totfact>
</mgrwt>
</event>
<event>
 4    1  0.1774755E-004  0.4419013E+03  0.7818608E-02  0.1030165E+00
          4   -1    0    0  501    0  0.00000000000E+00  0.00000000000E+00  0.72829938705E+03  0.72829938705E+03  0.00000000000E+00 0.  1.
         -4   -1    0    0    0  501 -0.00000000000E+00 -0.00000000000E+00 -0.67031757603E+02  0.67031757603E+02  0.00000000000E+00 0.  1.
         25    1    1    2    0    0  0.87285498415E+01 -0.46203199469E+02  0.65363668519E+03  0.66622206467E+03  0.12000000000E+03 0.  0.
         25    1    1    2    0    0 -0.87285498415E+01  0.46203199469E+02  0.76309442522E+01  0.12910907998E+03  0.12000000000E+03 0.  0.
<mgrwt>
<rscale>  0 0.44190129E+03</rscale>
<asrwt>0</asrwt>
<pdfrwt beam="1">  1        4 0.11204605E+00 0.44190129E+03</pdfrwt>
<pdfrwt beam="2">  1       -4 0.10312579E-01 0.44190129E+03</pdfrwt>
<totfact> 0.91169642E+01</totfact>
</mgrwt>
</event>
<event>
 4    1  0.1774755E-004  0.2554497E+03  0.7818608E-02  0.1109908E+00
          1   -1    0    0  501    0  0.00000000000E+00  0.00000000000E+00  0.17293706874E+03  0.17293706874E+03  0.00000000000E+00 0.  1.
         -1   -1    0    0    0  501 -0.00000000000E+00 -0.00000000000E+00 -0.94332805357E+02  0.94332805357E+02  0.00000000000E+00 0.  1.
         25    1    1    2    0    0  0.41286520095E+02 -0.90837907575E+01  0.27532299846E+02  0.13017342098E+03  0.12000000000E+03 0.  0.
         25    1    1    2    0    0 -0.41286520095E+02  0.90837907575E+01  0.51071963536E+02  0.13709645311E+03  0.12000000000E+03 0.  0.
<mgrwt>
<rscale>  0 0.25544971E+03</rscale>
<asrwt>0</asrwt>
<pdfrwt beam="1">  1        1 0.26605703E-01 0.25544971E+03</pdfrwt>
<pdfrwt beam="2">  1       -1 0.14512739E-01 0.25544971E+03</pdfrwt>
<totfact> 0.59150374E+03</totfact>
</mgrwt>
</event>
<event>
 4    1  0.1774755E-004  0.2633533E+03  0.7818608E-02  0.1105145E+00
         -2   -1    0    0    0  501 -0.00000000000E+00  0.00000000000E+00  0.14228601117E+02  0.14228601117E+02  0.00000000000E+00 0.  1.
          2   -1    0    0  501    0  0.00000000000E+00 -0.00000000000E+00 -0.12185834331E+04  0.12185834331E+04  0.00000000000E+00 0.  1.
         25    1    1    2    0    0 -0.20773756236E+02 -0.36982715229E+02 -0.44415849597E+03  0.46203467372E+03  0.12000000000E+03 0.  0.
         25    1    1    2    0    0  0.20773756236E+02  0.36982715229E+02 -0.76019633600E+03  0.77077736049E+03  0.12000000000E+03 0.  0.
<mgrwt>
<rscale>  0 0.26335328E+03</rscale>
<asrwt>0</asrwt>
<pdfrwt beam="1">  1        2 0.18747444E+00 0.26335328E+03</pdfrwt>
<pdfrwt beam="2">  1       -2 0.21890148E-02 0.26335328E+03</pdfrwt>
<totfact> 0.13155024E+04</totfact>
</mgrwt>
</event>
<event>
 4    1  0.1774755E-004  0.2474756E+03  0.7818608E-02  0.1114911E+00
          1   -1    0    0  501    0  0.00000000000E+00  0.00000000000E+00  0.91084443738E+03  0.91084443738E+03  0.00000000000E+00 0.  1.
         -1   -1    0    0    0  501 -0.00000000000E+00 -0.00000000000E+00 -0.16809729328E+02  0.16809729328E+02  0.00000000000E+00 0.  1.
         25    1    1    2    0    0  0.18904563199E+02 -0.81761405080E+01  0.36431147942E+03  0.38411858302E+03  0.12000000000E+03 0.  0.
         25    1    1    2    0    0 -0.18904563199E+02  0.81761405080E+01  0.52972322864E+03  0.54353558369E+03  0.12000000000E+03 0.  0.
<mgrwt>
<rscale>  0 0.24747564E+03</rscale>
<asrwt>0</asrwt>
<pdfrwt beam="1">  1        1 0.14012987E+00 0.24747564E+03</pdfrwt>
<pdfrwt beam="2">  1       -1 0.25861129E-02 0.24747564E+03</pdfrwt>
<totfact> 0.87476029E+03</totfact>
</mgrwt>
</event>
<event>
 4    1  0.1774755E-004  0.2759186E+03  0.7818608E-02  0.1097939E+00
          2   -1    0    0  501    0  0.00000000000E+00  0.00000000000E+00  0.83060499482E+03  0.83060499482E+03  0.00000000000E+00 0.  1.
         -2   -1    0    0    0  501 -0.00000000000E+00 -0.00000000000E+00 -0.22914348022E+02  0.22914348022E+02  0.00000000000E+00 0.  1.
         25    1    1    2    0    0  0.24258565296E+02 -0.60789886103E+02  0.34606597019E+03  0.37208271119E+03  0.12000000000E+03 0.  0.
         25    1    1    2    0    0 -0.24258565296E+02  0.60789886103E+02  0.46162467661E+03  0.48143663165E+03  0.12000000000E+03 0.  0.
<mgrwt>
<rscale>  0 0.27591863E+03</rscale>
<asrwt>0</asrwt>
<pdfrwt beam="1">  1        2 0.12778536E+00 0.27591863E+03</pdfrwt>
<pdfrwt beam="2">  1       -2 0.35252849E-02 0.27591863E+03</pdfrwt>
<totfact> 0.11201991E+04</totfact>
</mgrwt>
</event>
<event>
 4    1  0.1774755E-004  0.2947061E+03  0.7818608E-02  0.1087917E+00
          2   -1    0    0  501    0  0.00000000000E+00  0.00000000000E+00  0.18991022508E+04  0.18991022508E+04  0.00000000000E+00 0. -1.
         -2   -1    0    0    0  501 -0.00000000000E+00 -0.00000000000E+00 -0.11433256342E+02  0.11433256342E+02  0.00000000000E+00 0. -1.
         25    1    1    2    0    0 -0.49051864655E+02 -0.30495054025E+02  0.13526597497E+04  0.13591999236E+04  0.12000000000E+03 0.  0.
         25    1    1    2    0    0  0.49051864655E+02  0.30495054025E+02  0.53500924470E+03  0.55133558352E+03  0.12000000000E+03 0.  0.
<mgrwt>
<rscale>  0 0.29470611E+03</rscale>
<asrwt>0</asrwt>
<pdfrwt beam="1">  1        2 0.29216933E+00 0.29470611E+03</pdfrwt>
<pdfrwt beam="2">  1       -2 0.17589640E-02 0.29470611E+03</pdfrwt>
<totfact> 0.78463638E+03</totfact>
</mgrwt>
</event>
<event>
 4    1  0.1774755E-004  0.4448853E+03  0.7818608E-02  0.1029258E+00
          2   -1    0    0  501    0  0.00000000000E+00  0.00000000000E+00  0.16171503627E+04  0.16171503627E+04  0.00000000000E+00 0. -1.
         -2   -1    0    0    0  501 -0.00000000000E+00 -0.00000000000E+00 -0.30597485640E+02  0.30597485640E+02  0.00000000000E+00 0. -1.
         25    1    1    2    0    0 -0.13383081512E+03 -0.68063027317E+02  0.37856341062E+03  0.42456273815E+03  0.12000000000E+03 0.  0.
         25    1    1    2    0    0  0.13383081512E+03  0.68063027317E+02  0.12079894665E+04  0.12231851102E+04  0.12000000000E+03 0.  0.
<mgrwt>
<rscale>  0 0.44488531E+03</rscale>
<asrwt>0</asrwt>
<pdfrwt beam="1">  1        2 0.24879230E+00 0.44488531E+03</pdfrwt>
<pdfrwt beam="2">  1       -2 0.47073067E-02 0.44488531E+03</pdfrwt>
<totfact> 0.25276244E+03</totfact>
</mgrwt>
</event>
<event>
 4    1  0.1774755E-004  0.2812398E+03  0.7818608E-02  0.1095014E+00
         -1   -1    0    0    0  501 -0.00000000000E+00  0.00000000000E+00  0.37900568759E+02  0.37900568759E+02  0.00000000000E+00 0.  1.
          1   -1    0    0  501    0  0.00000000000E+00 -0.00000000000E+00 -0.52173254575E+03  0.52173254575E+03  0.00000000000E+00 0.  1.
         25    1    1    2    0    0 -0.37558505140E+02  0.14251976277E+02 -0.36393628007E+03  0.38530945497E+03  0.12000000000E+03 0.  0.
         25    1    1    2    0    0  0.37558505140E+02 -0.14251976277E+02 -0.11989569692E+03  0.17432365954E+03  0.12000000000E+03 0.  0.
<mgrwt>
<rscale>  0 0.28123983E+03</rscale>
<asrwt>0</asrwt>
<pdfrwt beam="1">  1        1 0.80266538E-01 0.28123983E+03</pdfrwt>
<pdfrwt beam="2">  1       -1 0.58308573E-02 0.28123983E+03</pdfrwt>
<totfact> 0.59286057E+03</totfact>
</mgrwt>
</event>
<event>
 4    1  0.1774755E-004  0.3895414E+03  0.7818608E-02  0.1047462E+00
          1   -1    0    0  501    0  0.00000000000E+00  0.00000000000E+00  0.28728300826E+04  0.28728300826E+04  0.00000000000E+00 0.  1.
         -1   -1    0    0    0  501 -0.00000000000E+00 -0.00000000000E+00 -0.13204967962E+02  0.13204967962E+02  0.00000000000E+00 0.  1.
         25    1    1    2    0    0  0.46737584340E+02  0.93261986078E+02  0.22632098441E+04  0.22687884428E+04  0.12000000000E+03 0.  0.
         25    1    1    2    0    0 -0.46737584340E+02 -0.93261986078E+02  0.59641527051E+03  0.61724660771E+03  0.12000000000E+03 0.  0.
<mgrwt>
<rscale>  0 0.38954142E+03</rscale>
<asrwt>0</asrwt>
<pdfrwt beam="1">  1        1 0.44197336E+00 0.38954142E+03</pdfrwt>
<pdfrwt beam="2">  1       -1 0.20315358E-02 0.38954142E+03</pdfrwt>
<totfact> 0.58441334E+02</totfact>
</mgrwt>
</event>
<event>
 4    1  0.1774755E-004  0.2640546E+03  0.7818608E-02  0.1104731E+00
         -1   -1    0    0    0  501 -0.00000000000E+00  0.00000000000E+00  0.10778621409E+03  0.10778621409E+03  0.00000000000E+00 0. -1.
          1   -1    0    0  501    0  0.00000000000E+00 -0.00000000000E+00 -0.16172019525E+03  0.16172019525E+03  0.00000000000E+00 0. -1.
         25    1    1    2    0    0 -0.28925436574E+02  0.41745679573E+02 -0.52719500411E+01  0.13041156429E+03  0.12000000000E+03 0.  0.
         25    1    1    2    0    0  0.28925436574E+02 -0.41745679573E+02 -0.48662031122E+02  0.13909484504E+03  0.12000000000E+03 0.  0.
<mgrwt>
<rscale>  0 0.26405460E+03</rscale>
<asrwt>0</asrwt>
<pdfrwt beam="1">  1        1 0.24880030E-01 0.26405460E+03</pdfrwt>
<pdfrwt beam="2">  1       -1 0.16582495E-01 0.26405460E+03</pdfrwt>
<totfact> 0.52173148E+03</totfact>
</mgrwt>
</event>
<event>
 4    1  0.1774755E-004  0.3180764E+03  0.7818608E-02  0.1076538E+00
         -2   -1    0    0    0  501 -0.00000000000E+00  0.00000000000E+00  0.41363173003E+03  0.41363173003E+03  0.00000000000E+00 0.  1.
          2   -1    0    0  501    0  0.00000000000E+00 -0.00000000000E+00 -0.61148968373E+02  0.61148968373E+02  0.00000000000E+00 0.  1.
         25    1    1    2    0    0  0.57655187833E+02 -0.86287847603E+02  0.19282540662E+03  0.24970252455E+03  0.12000000000E+03 0.  0.
         25    1    1    2    0    0 -0.57655187833E+02  0.86287847603E+02  0.15965735504E+03  0.22507817385E+03  0.12000000000E+03 0.  0.
<mgrwt>
<rscale>  0 0.31807643E+03</rscale>
<asrwt>0</asrwt>
<pdfrwt beam="1">  1        2 0.94075339E-02 0.31807643E+03</pdfrwt>
<pdfrwt beam="2">  1       -2 0.63635649E-01 0.31807643E+03</pdfrwt>
<totfact> 0.16222106E+03</totfact>
</mgrwt>
</event>
<event>
 4    1  0.1774755E-004  0.2726253E+03  0.7818608E-02  0.1099786E+00
          2   -1    0    0  501    0  0.00000000000E+00  0.00000000000E+00  0.19650061344E+04  0.19650061344E+04  0.00000000000E+00 0.  1.
         -2   -1    0    0    0  501 -0.00000000000E+00 -0.00000000000E+00 -0.94560173939E+01  0.94560173939E+01  0.00000000000E+00 0.  1.
         25    1    1    2    0    0  0.12540235885E+02 -0.29131151074E+02  0.56967022190E+03  0.58303519894E+03  0.12000000000E+03 0.  0.
         25    1    1    2    0    0 -0.12540235885E+02  0.29131151074E+02  0.13858798951E+04  0.13914269528E+04  0.12000000000E+03 0.  0.
<mgrwt>
<rscale>  0 0.27262525E+03</rscale>
<asrwt>0</asrwt>
<pdfrwt beam="1">  1        2 0.30230831E+00 0.27262525E+03</pdfrwt>
<pdfrwt beam="2">  1       -2 0.14547735E-02 0.27262525E+03</pdfrwt>
<totfact> 0.95629312E+03</totfact>
</mgrwt>
</event>
<event>
 4    1  0.1774755E-004  0.3132210E+03  0.7818608E-02  0.1078812E+00
         -2   -1    0    0    0  501 -0.00000000000E+00  0.00000000000E+00  0.13354586091E+03  0.13354586091E+03  0.00000000000E+00 0. -1.
          2   -1    0    0  501    0  0.00000000000E+00 -0.00000000000E+00 -0.18365867318E+03  0.18365867318E+03  0.00000000000E+00 0. -1.
         25    1    1    2    0    0  0.38311746675E+01  0.89899744513E+02 -0.70687336781E+02  0.16581116230E+03  0.12000000000E+03 0.  0.
         25    1    1    2    0    0 -0.38311746675E+01 -0.89899744513E+02  0.20574524503E+02  0.15139337179E+03  0.12000000000E+03 0.  0.
<mgrwt>
<rscale>  0 0.31322104E+03</rscale>
<asrwt>0</asrwt>
<pdfrwt beam="1">  1        2 0.28255180E-01 0.31322104E+03</pdfrwt>
<pdfrwt beam="2">  1       -2 0.20545517E-01 0.31322104E+03</pdfrwt>
<totfact> 0.37606515E+03</totfact>
</mgrwt>
</event>
<event>
 4    1  0.1774755E-004  0.2904759E+03  0.7818608E-02  0.1090101E+00
         -1   -1    0    0    0  501 -0.00000000000E+00  0.00000000000E+00  0.30324542726E+03  0.30324542726E+03  0.00000000000E+00 0. -1.
          1   -1    0    0  501    0  0.00000000000E+00 -0.00000000000E+00 -0.69561024562E+02  0.69561024562E+02  0.00000000000E+00 0. -1.
         25    1    1    2    0    0  0.14567557973E+02 -0.68516621510E+02  0.17110155821E+03  0.22041434706E+03  0.12000000000E+03 0.  0.
         25    1    1    2    0    0 -0.14567557973E+02  0.68516621510E+02  0.62582844481E+02  0.15239210476E+03  0.12000000000E+03 0.  0.
<mgrwt>
<rscale>  0 0.29047590E+03</rscale>
<asrwt>0</asrwt>
<pdfrwt beam="1">  1        1 0.10701696E-01 0.29047590E+03</pdfrwt>
<pdfrwt beam="2">  1       -1 0.46653142E-01 0.29047590E+03</pdfrwt>
<totfact> 0.27293384E+03</totfact>
</mgrwt>
</event>
<event>
 4    1  0.1774755E-004  0.3123596E+03  0.7818608E-02  0.1079220E+00
          2   -1    0    0  501    0  0.00000000000E+00  0.00000000000E+00  0.37009569770E+03  0.37009569770E+03  0.00000000000E+00 0.  1.
         -2   -1    0    0    0  501 -0.00000000000E+00 -0.00000000000E+00 -0.65907624456E+02  0.65907624456E+02  0.00000000000E+00 0.  1.
         25    1    1    2    0    0  0.23133318543E+02  0.14256934889E+02  0.17819680946E+02  0.12432196768E+03  0.12000000000E+03 0.  0.
         25    1    1    2    0    0 -0.23133318543E+02 -0.14256934889E+02  0.28636839230E+03  0.31168135447E+03  0.12000000000E+03 0.  0.
<mgrwt>
<rscale>  0 0.31235959E+03</rscale>
<asrwt>0</asrwt>
<pdfrwt beam="1">  1        2 0.56937798E-01 0.31235959E+03</pdfrwt>
<pdfrwt beam="2">  1       -2 0.10139635E-01 0.31235959E+03</pdfrwt>
<totfact> 0.56390633E+03</totfact>
</mgrwt>
</event>
<event>
 4    1  0.1774755E-004  0.2447575E+03  0.7818608E-02  0.1116664E+00
         -2   -1    0    0    0  501 -0.00000000000E+00  0.00000000000E+00  0.19688681076E+02  0.19688681076E+02  0.00000000000E+00 0.  1.
          2   -1    0    0  501    0  0.00000000000E+00 -0.00000000000E+00 -0.76066815798E+03  0.76066815798E+03  0.00000000000E+00 0.  1.
         25    1    1    2    0    0 -0.17342503760E+02  0.16472426276E+02 -0.36376441652E+03  0.38379246213E+03  0.12000000000E+03 0.  0.
         25    1    1    2    0    0  0.17342503760E+02 -0.16472426276E+02 -0.37721506039E+03  0.39656437693E+03  0.12000000000E+03 0.  0.
<mgrwt>
<rscale>  0 0.24475745E+03</rscale>
<asrwt>0</asrwt>
<pdfrwt beam="1">  1        2 0.11702585E+00 0.24475745E+03</pdfrwt>
<pdfrwt beam="2">  1       -2 0.30290285E-02 0.24475745E+03</pdfrwt>
<totfact> 0.15626878E+04</totfact>
</mgrwt>
</event>
<event>
 4    1  0.1774755E-004  0.3039659E+03  0.7818608E-02  0.1083275E+00
         -2   -1    0    0    0  501 -0.00000000000E+00  0.00000000000E+00  0.47951808882E+03  0.47951808882E+03  0.00000000000E+00 0.  1.
          2   -1    0    0  501    0  0.00000000000E+00 -0.00000000000E+00 -0.48170902397E+02  0.48170902397E+02  0.00000000000E+00 0.  1.
         25    1    1    2    0    0  0.20356921066E+02 -0.53594033227E+02  0.34338680659E+03  0.36824071417E+03  0.12000000000E+03 0.  0.
         25    1    1    2    0    0 -0.20356921066E+02  0.53594033227E+02  0.87960379833E+02  0.15944827705E+03  0.12000000000E+03 0.  0.
<mgrwt>
<rscale>  0 0.30396591E+03</rscale>
<asrwt>0</asrwt>
<pdfrwt beam="1">  1        2 0.74109084E-02 0.30396591E+03</pdfrwt>
<pdfrwt beam="2">  1       -2 0.73772010E-01 0.30396591E+03</pdfrwt>
<totfact> 0.16002166E+03</totfact>
</mgrwt>
</event>
<event>
 4    1  0.1774755E-004  0.2786237E+03  0.7818608E-02  0.1096443E+00
         -3   -1    0    0    0  501 -0.00000000000E+00  0.00000000000E+00  0.12393558351E+03  0.12393558351E+03  0.00000000000E+00 0. -1.
          3   -1    0    0  501    0  0.00000000000E+00 -0.00000000000E+00 -0.15659579029E+03  0.15659579029E+03  0.00000000000E+00 0. -1.
         25    1    1    2    0    0 -0.66598727746E+01 -0.47637383040E+02  0.35930157977E+02  0.13418140862E+03  0.12000000000E+03 0.  0.
         25    1    1    2    0    0  0.66598727746E+01  0.47637383040E+02 -0.68590364759E+02  0.14634996517E+03  0.12000000000E+03 0.  0.
<mgrwt>
<rscale>  0 0.27862369E+03</rscale>
<asrwt>0</asrwt>
<pdfrwt beam="1">  1        3 0.24091660E-01 0.27862369E+03</pdfrwt>
<pdfrwt beam="2">  1       -3 0.19067013E-01 0.27862369E+03</pdfrwt>
<totfact> 0.99951667E+02</totfact>
</mgrwt>
</event>
<event>
 4    1  0.1774755E-004  0.3142881E+03  0.7818608E-02  0.1078309E+00
          2   -1    0    0  501    0  0.00000000000E+00  0.00000000000E+00  0.30600120542E+03  0.30600120542E+03  0.00000000000E+00 0. -1.
         -2   -1    0    0    0  501 -0.00000000000E+00 -0.00000000000E+00 -0.80699838837E+02  0.80699838837E+02  0.00000000000E+00 0. -1.
         25    1    1    2    0    0 -0.94882125059E+02  0.56843363517E+01  0.68987513554E+02  0.16791130505E+03  0.12000000000E+03 0.  0.
         25    1    1    2    0    0  0.94882125059E+02 -0.56843363517E+01  0.15631385302E+03  0.21878973921E+03  0.12000000000E+03 0.  0.
<mgrwt>
<rscale>  0 0.31428807E+03</rscale>
<asrwt>0</asrwt>
<pdfrwt beam="1">  1        2 0.47077108E-01 0.31428807E+03</pdfrwt>
<pdfrwt beam="2">  1       -2 0.12415360E-01 0.31428807E+03</pdfrwt>
<totfact> 0.50017488E+03</totfact>
</mgrwt>
</event>
<event>
 4    1  0.1774755E-004  0.3034191E+03  0.7818608E-02  0.1083544E+00
         -1   -1    0    0    0  501 -0.00000000000E+00  0.00000000000E+00  0.19785027329E+03  0.19785027329E+03  0.00000000000E+00 0.  1.
          1   -1    0    0  501    0  0.00000000000E+00 -0.00000000000E+00 -0.11632932882E+03  0.11632932882E+03  0.00000000000E+00 0.  1.
         25    1    1    2    0    0  0.53582244969E+02 -0.20180787725E+02 -0.34888443347E+02  0.13746099319E+03  0.12000000000E+03 0.  0.
         25    1    1    2    0    0 -0.53582244969E+02  0.20180787725E+02  0.11640938781E+03  0.17671860892E+03  0.12000000000E+03 0.  0.
<mgrwt>
<rscale>  0 0.30341911E+03</rscale>
<asrwt>0</asrwt>
<pdfrwt beam="1">  1        1 0.17896820E-01 0.30341911E+03</pdfrwt>
<pdfrwt beam="2">  1       -1 0.30438504E-01 0.30341911E+03</pdfrwt>
<totfact> 0.29400901E+03</totfact>
</mgrwt>
</event>
<event>
 4    1  0.1774755E-004  0.4103161E+03  0.7818608E-02  0.1040265E+00
          2   -1    0    0  501    0  0.00000000000E+00  0.00000000000E+00  0.21510520443E+02  0.21510520443E+02  0.00000000000E+00 0.  1.
         -2   -1    0    0    0  501 -0.00000000000E+00 -0.00000000000E+00 -0.19567091847E+04  0.19567091847E+04  0.00000000000E+00 0.  1.
         25    1    1    2    0    0 -0.26360254906E+02 -0.83504881052E+02 -0.28540419047E+03  0.32175064901E+03  0.12000000000E+03 0.  0.
         25    1    1    2    0    0  0.26360254906E+02  0.83504881052E+02 -0.16497944738E+04  0.16564690561E+04  0.12000000000E+03 0.  0.
<mgrwt>
<rscale>  0 0.41031614E+03</rscale>
<asrwt>0</asrwt>
<pdfrwt beam="1">  1        2 0.33093108E-02 0.41031614E+03</pdfrwt>
<pdfrwt beam="2">  1       -2 0.30103219E+00 0.41031614E+03</pdfrwt>
<totfact> 0.97616087E+01</totfact>
</mgrwt>
</event>
<event>
 4    1  0.1774755E-004  0.2644667E+03  0.7818608E-02  0.1104489E+00
          2   -1    0    0  501    0  0.00000000000E+00  0.00000000000E+00  0.11245375935E+04  0.11245375935E+04  0.00000000000E+00 0. -1.
         -2   -1    0    0    0  501 -0.00000000000E+00 -0.00000000000E+00 -0.15549204699E+02  0.15549204699E+02  0.00000000000E+00 0. -1.
         25    1    1    2    0    0 -0.88453008768E+01  0.43448965197E+02  0.69873922741E+03  0.71035382722E+03  0.12000000000E+03 0.  0.
         25    1    1    2    0    0  0.88453008768E+01 -0.43448965197E+02  0.41024916139E+03  0.42973297098E+03  0.12000000000E+03 0.  0.
<mgrwt>
<rscale>  0 0.26446675E+03</rscale>
<asrwt>0</asrwt>
<pdfrwt beam="1">  1        2 0.17300572E+00 0.26446675E+03</pdfrwt>
<pdfrwt beam="2">  1       -2 0.23921862E-02 0.26446675E+03</pdfrwt>
<totfact> 0.13065739E+04</totfact>
</mgrwt>
</event>
<event>
 4    1  0.1774755E-004  0.2661906E+03  0.7818608E-02  0.1103480E+00
         -1   -1    0    0    0  501 -0.00000000000E+00  0.00000000000E+00  0.65757748543E+01  0.65757748543E+01  0.00000000000E+00 0. -1.
          1   -1    0    0  501    0  0.00000000000E+00 -0.00000000000E+00 -0.26938812353E+04  0.26938812353E+04  0.00000000000E+00 0. -1.
         25    1    1    2    0    0  0.32948807394E+02  0.46453169382E+02 -0.12582699147E+04  0.12652615141E+04  0.12000000000E+03 0.  0.
         25    1    1    2    0    0 -0.32948807394E+02 -0.46453169382E+02 -0.14290355458E+04  0.14351954960E+04  0.12000000000E+03 0.  0.
<mgrwt>
<rscale>  0 0.26619058E+03</rscale>
<asrwt>0</asrwt>
<pdfrwt beam="1">  1        1 0.41444437E+00 0.26619058E+03</pdfrwt>
<pdfrwt beam="2">  1       -1 0.10116550E-02 0.26619058E+03</pdfrwt>
<totfact> 0.21753429E+03</totfact>
</mgrwt>
</event>
<event>
 4    1  0.1774755E-004  0.2940551E+03  0.7818608E-02  0.1088251E+00
         -1   -1    0    0    0  501 -0.00000000000E+00  0.00000000000E+00  0.32436151772E+02  0.32436151772E+02  0.00000000000E+00 0.  1.
          1   -1    0    0  501    0  0.00000000000E+00 -0.00000000000E+00 -0.66645093606E+03  0.66645093606E+03  0.00000000000E+00 0.  1.
         25    1    1    2    0    0  0.69285524183E+02 -0.24415005587E+02 -0.21559830528E+03  0.25744748124E+03  0.12000000000E+03 0.  0.
         25    1    1    2    0    0 -0.69285524183E+02  0.24415005587E+02 -0.41841647902E+03  0.44143960660E+03  0.12000000000E+03 0.  0.
<mgrwt>
<rscale>  0 0.29405512E+03</rscale>
<asrwt>0</asrwt>
<pdfrwt beam="1">  1        1 0.10253091E+00 0.29405512E+03</pdfrwt>
<pdfrwt beam="2">  1       -1 0.49901772E-02 0.29405512E+03</pdfrwt>
<totfact> 0.53423164E+03</totfact>
</mgrwt>
</event>
<event>
 4    1  0.1774755E-004  0.3246278E+03  0.7818608E-02  0.1073539E+00
         -2   -1    0    0    0  501 -0.00000000000E+00  0.00000000000E+00  0.34897061378E+03  0.34897061378E+03  0.00000000000E+00 0.  1.
          2   -1    0    0  501    0  0.00000000000E+00 -0.00000000000E+00 -0.75495743460E+02  0.75495743460E+02  0.00000000000E+00 0.  1.
         25    1    1    2    0    0  0.37410364591E+02 -0.89245728709E+02  0.70303442291E+02  0.16943113489E+03  0.12000000000E+03 0.  0.
         25    1    1    2    0    0 -0.37410364591E+02  0.89245728709E+02  0.20317142802E+03  0.25503522235E+03  0.12000000000E+03 0.  0.
<mgrwt>
<rscale>  0 0.32462776E+03</rscale>
<asrwt>0</asrwt>
<pdfrwt beam="1">  1        2 0.11614730E-01 0.32462776E+03</pdfrwt>
<pdfrwt beam="2">  1       -2 0.53687786E-01 0.32462776E+03</pdfrwt>
<totfact> 0.17748306E+03</totfact>
</mgrwt>
</event>
<event>
 4    1  0.1774755E-004  0.2694877E+03  0.7818608E-02  0.1101573E+00
         -2   -1    0    0    0  501 -0.00000000000E+00  0.00000000000E+00  0.24858663590E+03  0.24858663590E+03  0.00000000000E+00 0. -1.
          2   -1    0    0  501    0  0.00000000000E+00 -0.00000000000E+00 -0.73036503339E+02  0.73036503339E+02  0.00000000000E+00 0. -1.
         25    1    1    2    0    0 -0.17083653778E+02 -0.32610753317E+02  0.14624964060E+03  0.19272848734E+03  0.12000000000E+03 0.  0.
         25    1    1    2    0    0  0.17083653778E+02  0.32610753317E+02  0.29300491962E+02  0.12889465190E+03  0.12000000000E+03 0.  0.
<mgrwt>
<rscale>  0 0.26948765E+03</rscale>
<asrwt>0</asrwt>
<pdfrwt beam="1">  1        2 0.11236385E-01 0.26948765E+03</pdfrwt>
<pdfrwt beam="2">  1       -2 0.38244097E-01 0.26948765E+03</pdfrwt>
<totfact> 0.35776696E+03</totfact>
</mgrwt>
</event>
<event>
 4    1  0.1774755E-004  0.2893166E+03  0.7818608E-02  0.1090706E+00
          1   -1    0    0  501    0  0.00000000000E+00  0.00000000000E+00  0.79835227383E+03  0.79835227383E+03  0.00000000000E+00 0.  1.
         -1   -1    0    0    0  501 -0.00000000000E+00 -0.00000000000E+00 -0.26211520511E+02  0.26211520511E+02  0.00000000000E+00 0.  1.
         25    1    1    2    0    0 -0.78541511649E+02  0.17713204821E+02  0.40486774793E+03  0.42988419369E+03  0.12000000000E+03 0.  0.
         25    1    1    2    0    0  0.78541511649E+02 -0.17713204821E+02  0.36727300539E+03  0.39467960064E+03  0.12000000000E+03 0.  0.
<mgrwt>
<rscale>  0 0.28931662E+03</rscale>
<asrwt>0</asrwt>
<pdfrwt beam="1">  1        1 0.12282341E+00 0.28931662E+03</pdfrwt>
<pdfrwt beam="2">  1       -1 0.40325422E-02 0.28931662E+03</pdfrwt>
<totfact> 0.56148499E+03</totfact>
</mgrwt>
</event>
<event>
 4    1  0.1774755E-004  0.3041345E+03  0.7818608E-02  0.1083192E+00
         -1   -1    0    0    0  501 -0.00000000000E+00  0.00000000000E+00  0.36833814946E+02  0.36833814946E+02  0.00000000000E+00 0.  1.
          1   -1    0    0  501    0  0.00000000000E+00 -0.00000000000E+00 -0.62780481417E+03  0.62780481417E+03  0.00000000000E+00 0.  1.
         25    1    1    2    0    0  0.65387232181E+02 -0.54699431348E+01 -0.15021290997E+03  0.20314853859E+03  0.12000000000E+03 0.  0.
         25    1    1    2    0    0 -0.65387232181E+02  0.54699431348E+01 -0.44075808926E+03  0.46149009053E+03  0.12000000000E+03 0.  0.
<mgrwt>
<rscale>  0 0.30413449E+03</rscale>
<asrwt>0</asrwt>
<pdfrwt beam="1">  1        1 0.96585354E-01 0.30413449E+03</pdfrwt>
<pdfrwt beam="2">  1       -1 0.56667409E-02 0.30413449E+03</pdfrwt>
<totfact> 0.48075051E+03</totfact>
</mgrwt>
</event>
<event>
 4    1  0.1774755E-004  0.2763418E+03  0.7818608E-02  0.1097704E+00
         -2   -1    0    0    0  501 -0.00000000000E+00  0.00000000000E+00  0.63662698187E+02  0.63662698187E+02  0.00000000000E+00 0. -1.
          2   -1    0    0  501    0  0.00000000000E+00 -0.00000000000E+00 -0.29988033352E+03  0.29988033352E+03  0.00000000000E+00 0. -1.
         25    1    1    2    0    0 -0.21051206267E+02 -0.48044649441E+01 -0.20361949754E+03  0.23733338566E+03  0.12000000000E+03 0.  0.
         25    1    1    2    0    0  0.21051206267E+02  0.48044649441E+01 -0.32598137792E+02  0.12620964605E+03  0.12000000000E+03 0.  0.
<mgrwt>
<rscale>  0 0.27634175E+03</rscale>
<asrwt>0</asrwt>
<pdfrwt beam="1">  1        2 0.46135436E-01 0.27634175E+03</pdfrwt>
<pdfrwt beam="2">  1       -2 0.97942613E-02 0.27634175E+03</pdfrwt>
<totfact> 0.74501232E+03</totfact>
</mgrwt>
</event>
<event>
 4    1  0.1774755E-004  0.2412613E+03  0.7818608E-02  0.1118955E+00
         -2   -1    0    0    0  501 -0.00000000000E+00  0.00000000000E+00  0.11755042614E+02  0.11755042614E+02  0.00000000000E+00 0. -1.
          2   -1    0    0  501    0  0.00000000000E+00 -0.00000000000E+00 -0.12379154881E+04  0.12379154881E+04  0.00000000000E+00 0. -1.
         25    1    1    2    0    0  0.52356830931E+01  0.19007359166E+01 -0.66999237274E+03  0.68067672555E+03  0.12000000000E+03 0.  0.
         25    1    1    2    0    0 -0.52356830931E+01 -0.19007359166E+01 -0.55616807272E+03  0.56899380514E+03  0.12000000000E+03 0.  0.
<mgrwt>
<rscale>  0 0.24126126E+03</rscale>
<asrwt>0</asrwt>
<pdfrwt beam="1">  1        2 0.19044861E+00 0.24126126E+03</pdfrwt>
<pdfrwt beam="2">  1       -2 0.18084674E-02 0.24126126E+03</pdfrwt>
<totfact> 0.16930325E+04</totfact>
</mgrwt>
</event>
<event>
 4    1  0.1774755E-004  0.3521238E+03  0.7818608E-02  0.1061747E+00
         -1   -1    0    0    0  501 -0.00000000000E+00  0.00000000000E+00  0.56517847508E+03  0.56517847508E+03  0.00000000000E+00 0. -1.
          1   -1    0    0  501    0  0.00000000000E+00 -0.00000000000E+00 -0.54846031345E+02  0.54846031345E+02  0.00000000000E+00 0. -1.
         25    1    1    2    0    0  0.90640208758E+01  0.12071755521E+02  0.48045348008E+03  0.49544266093E+03  0.12000000000E+03 0.  0.
         25    1    1    2    0    0 -0.90640208758E+01 -0.12071755521E+02  0.29878963653E+02  0.12458184549E+03  0.12000000000E+03 0.  0.
<mgrwt>
<rscale>  0 0.35212382E+03</rscale>
<asrwt>0</asrwt>
<pdfrwt beam="1">  1        1 0.84378514E-02 0.35212382E+03</pdfrwt>
<pdfrwt beam="2">  1       -1 0.86950531E-01 0.35212382E+03</pdfrwt>
<totfact> 0.11094712E+03</totfact>
</mgrwt>
</event>
<event>
 4    1  0.1774755E-004  0.3221074E+03  0.7818608E-02  0.1074683E+00
          2   -1    0    0  501    0  0.00000000000E+00  0.00000000000E+00  0.83624709121E+03  0.83624709121E+03  0.00000000000E+00 0. -1.
         -2   -1    0    0    0  501 -0.00000000000E+00 -0.00000000000E+00 -0.31017509626E+02  0.31017509626E+02  0.00000000000E+00 0. -1.
         25    1    1    2    0    0 -0.74246976234E+02  0.74400829095E+02  0.34300194211E+03  0.37828353010E+03  0.12000000000E+03 0.  0.
         25    1    1    2    0    0  0.74246976234E+02 -0.74400829095E+02  0.46222763947E+03  0.48898107074E+03  0.12000000000E+03 0.  0.
<mgrwt>
<rscale>  0 0.32210745E+03</rscale>
<asrwt>0</asrwt>
<pdfrwt beam="1">  1        2 0.12865338E+00 0.32210745E+03</pdfrwt>
<pdfrwt beam="2">  1       -2 0.47719252E-02 0.32210745E+03</pdfrwt>
<totfact> 0.70608787E+03</totfact>
</mgrwt>
</event>
<event>
 4    1  0.1774755E-004  0.3368948E+03  0.7818608E-02  0.1068126E+00
          2   -1    0    0  501    0  0.00000000000E+00  0.00000000000E+00  0.12656938520E+04  0.12656938520E+04  0.00000000000E+00 0.  1.
         -2   -1    0    0    0  501 -0.00000000000E+00 -0.00000000000E+00 -0.22418159559E+02  0.22418159559E+02  0.00000000000E+00 0.  1.
         25    1    1    2    0    0 -0.43773372504E+02 -0.10623604372E+03  0.51538063534E+03  0.54149737249E+03  0.12000000000E+03 0.  0.
         25    1    1    2    0    0  0.43773372504E+02  0.10623604372E+03  0.72789505711E+03  0.74661463908E+03  0.12000000000E+03 0.  0.
<mgrwt>
<rscale>  0 0.33689480E+03</rscale>
<asrwt>0</asrwt>
<pdfrwt beam="1">  1        2 0.19472208E+00 0.33689480E+03</pdfrwt>
<pdfrwt beam="2">  1       -2 0.34489486E-02 0.33689480E+03</pdfrwt>
<totfact> 0.63239678E+03</totfact>
</mgrwt>
</event>
<event>
 4    1  0.1774755E-004  0.3049863E+03  0.7818608E-02  0.1082774E+00
          2   -1    0    0  501    0  0.00000000000E+00  0.00000000000E+00  0.99307367667E+03  0.99307367667E+03  0.00000000000E+00 0.  1.
         -2   -1    0    0    0  501 -0.00000000000E+00 -0.00000000000E+00 -0.23416349478E+02  0.23416349478E+02  0.00000000000E+00 0.  1.
         25    1    1    2    0    0 -0.12383833331E+02  0.45886660501E+00  0.79571179432E+03  0.80480483939E+03  0.12000000000E+03 0.  0.
         25    1    1    2    0    0  0.12383833331E+02 -0.45886660501E+00  0.17394553287E+03  0.21168518676E+03  0.12000000000E+03 0.  0.
<mgrwt>
<rscale>  0 0.30498630E+03</rscale>
<asrwt>0</asrwt>
<pdfrwt beam="1">  1        2 0.15278053E+00 0.30498630E+03</pdfrwt>
<pdfrwt beam="2">  1       -2 0.36025161E-02 0.30498630E+03</pdfrwt>
<totfact> 0.85457512E+03</totfact>
</mgrwt>
</event>
<event>
 4    1  0.1774755E-004  0.3461878E+03  0.7818608E-02  0.1064191E+00
         -1   -1    0    0    0  501 -0.00000000000E+00  0.00000000000E+00  0.74421923303E+02  0.74421923303E+02  0.00000000000E+00 0.  1.
          1   -1    0    0  501    0  0.00000000000E+00 -0.00000000000E+00 -0.40258970355E+03  0.40258970355E+03  0.00000000000E+00 0.  1.
         25    1    1    2    0    0  0.24709630488E+02  0.77850265455E+02 -0.29400349085E+03  0.32788608128E+03  0.12000000000E+03 0.  0.
         25    1    1    2    0    0 -0.24709630488E+02 -0.77850265455E+02 -0.34164289397E+02  0.14912554557E+03  0.12000000000E+03 0.  0.
<mgrwt>
<rscale>  0 0.34618781E+03</rscale>
<asrwt>0</asrwt>
<pdfrwt beam="1">  1        1 0.61936878E-01 0.34618781E+03</pdfrwt>
<pdfrwt beam="2">  1       -1 0.11449527E-01 0.34618781E+03</pdfrwt>
<totfact> 0.29714592E+03</totfact>
</mgrwt>
</event>
<event>
 4    1  0.1774755E-004  0.2601330E+03  0.7818608E-02  0.1107063E+00
          2   -1    0    0  501    0  0.00000000000E+00  0.00000000000E+00  0.70330535742E+02  0.70330535742E+02  0.00000000000E+00 0.  1.
         -2   -1    0    0    0  501 -0.00000000000E+00 -0.00000000000E+00 -0.24053983235E+03  0.24053983235E+03  0.00000000000E+00 0.  1.
         25    1    1    2    0    0  0.10545895237E+02 -0.15409726979E+02 -0.29453316148E+02  0.12496468871E+03  0.12000000000E+03 0.  0.
         25    1    1    2    0    0 -0.10545895237E+02  0.15409726979E+02 -0.14075598046E+03  0.18590567938E+03  0.12000000000E+03 0.  0.
<mgrwt>
<rscale>  0 0.26013301E+03</rscale>
<asrwt>0</asrwt>
<pdfrwt beam="1">  1        2 0.10820082E-01 0.26013301E+03</pdfrwt>
<pdfrwt beam="2">  1       -2 0.37006128E-01 0.26013301E+03</pdfrwt>
<totfact> 0.39827867E+03</totfact>
</mgrwt>
</event>
<event>
 4    1  0.1774755E-004  0.4297037E+03  0.7818608E-02  0.1033954E+00
         -1   -1    0    0    0  501 -0.00000000000E+00  0.00000000000E+00  0.54132040710E+02  0.54132040710E+02  0.00000000000E+00 0.  1.
          1   -1    0    0  501    0  0.00000000000E+00 -0.00000000000E+00 -0.85275400881E+03  0.85275400881E+03  0.00000000000E+00 0.  1.
         25    1    1    2    0    0  0.11589724271E+03 -0.13336419144E+03 -0.44849659305E+03  0.49675685441E+03  0.12000000000E+03 0.  0.
         25    1    1    2    0    0 -0.11589724271E+03  0.13336419144E+03 -0.35012537505E+03  0.41012919511E+03  0.12000000000E+03 0.  0.
<mgrwt>
<rscale>  0 0.42970369E+03</rscale>
<asrwt>0</asrwt>
<pdfrwt beam="1">  1        1 0.13119291E+00 0.42970369E+03</pdfrwt>
<pdfrwt beam="2">  1       -1 0.83280074E-02 0.42970369E+03</pdfrwt>
<totfact> 0.16883052E+03</totfact>
</mgrwt>
</event>
<event>
 4    1  0.1774755E-004  0.2662867E+03  0.7818608E-02  0.1103424E+00
         -2   -1    0    0    0  501 -0.00000000000E+00  0.00000000000E+00  0.52721341128E+01  0.52721341128E+01  0.00000000000E+00 0. -1.
          2   -1    0    0  501    0  0.00000000000E+00 -0.00000000000E+00 -0.33624237092E+04  0.33624237092E+04  0.00000000000E+00 0. -1.
         25    1    1    2    0    0  0.39308782616E+02 -0.38066186240E+02 -0.14478148082E+04  0.14538094558E+04  0.12000000000E+03 0.  0.
         25    1    1    2    0    0 -0.39308782616E+02  0.38066186240E+02 -0.19093367668E+04  0.19138863874E+04  0.12000000000E+03 0.  0.
<mgrwt>
<rscale>  0 0.26628668E+03</rscale>
<asrwt>0</asrwt>
<pdfrwt beam="1">  1        2 0.51729697E+00 0.26628668E+03</pdfrwt>
<pdfrwt beam="2">  1       -2 0.81109597E-03 0.26628668E+03</pdfrwt>
<totfact> 0.36048788E+03</totfact>
</mgrwt>
</event>
<event>
 4    1  0.1774755E-004  0.2554921E+03  0.7818608E-02  0.1109882E+00
          2   -1    0    0  501    0  0.00000000000E+00  0.00000000000E+00  0.25721514830E+03  0.25721514830E+03  0.00000000000E+00 0. -1.
         -2   -1    0    0    0  501 -0.00000000000E+00 -0.00000000000E+00 -0.63445149582E+02  0.63445149582E+02  0.00000000000E+00 0. -1.
         25    1    1    2    0    0 -0.91727282933E+01 -0.19938771642E+02  0.49302145117E+02  0.13157657494E+03  0.12000000000E+03 0.  0.
         25    1    1    2    0    0  0.91727282933E+01  0.19938771642E+02  0.14446785360E+03  0.18908372295E+03  0.12000000000E+03 0.  0.
<mgrwt>
<rscale>  0 0.25549210E+03</rscale>
<asrwt>0</asrwt>
<pdfrwt beam="1">  1        2 0.39571561E-01 0.25549210E+03</pdfrwt>
<pdfrwt beam="2">  1       -2 0.97607924E-02 0.25549210E+03</pdfrwt>
<totfact> 0.88063561E+03</totfact>
</mgrwt>
</event>
<event>
 4    1  0.1774755E-004  0.2958670E+03  0.7818608E-02  0.1087325E+00
          2   -1    0    0  501    0  0.00000000000E+00  0.00000000000E+00  0.10438500714E+04  0.10438500714E+04  0.00000000000E+00 0.  1.
         -2   -1    0    0    0  501 -0.00000000000E+00 -0.00000000000E+00 -0.20964997685E+02  0.20964997685E+02  0.00000000000E+00 0.  1.
         25    1    1    2    0    0  0.72596907302E+02  0.51337421139E+01  0.67977444643E+03  0.69411091640E+03  0.12000000000E+03 0.  0.
         25    1    1    2    0    0 -0.72596907302E+02 -0.51337421139E+01  0.34311062733E+03  0.37070415272E+03  0.12000000000E+03 0.  0.
<mgrwt>
<rscale>  0 0.29586696E+03</rscale>
<asrwt>0</asrwt>
<pdfrwt beam="1">  1        2 0.16059228E+00 0.29586696E+03</pdfrwt>
<pdfrwt beam="2">  1       -2 0.32253851E-02 0.29586696E+03</pdfrwt>
<totfact> 0.93852758E+03</totfact>
</mgrwt>
</event>
<event>
 4    1  0.1774755E-004  0.2507727E+03  0.7818608E-02  0.1112817E+00
          4   -1    0    0  501    0  0.00000000000E+00  0.00000000000E+00  0.13456321641E+03  0.13456321641E+03  0.00000000000E+00 0. -1.
         -4   -1    0    0    0  501 -0.00000000000E+00 -0.00000000000E+00 -0.11683531731E+03  0.11683531731E+03  0.00000000000E+00 0. -1.
         25    1    1    2    0    0 -0.18038959427E+02  0.31389719183E+02  0.55363948864E+01  0.12546461731E+03  0.12000000000E+03 0.  0.
         25    1    1    2    0    0  0.18038959427E+02 -0.31389719183E+02  0.12191504207E+02  0.12593391641E+03  0.12000000000E+03 0.  0.
<mgrwt>
<rscale>  0 0.25077269E+03</rscale>
<asrwt>0</asrwt>
<pdfrwt beam="1">  1        4 0.20702033E-01 0.25077269E+03</pdfrwt>
<pdfrwt beam="2">  1       -4 0.17974664E-01 0.25077269E+03</pdfrwt>
<totfact> 0.10729474E+03</totfact>
</mgrwt>
</event>
<event>
 4    1  0.1774755E-004  0.4245308E+03  0.7818608E-02  0.1035602E+00
         -1   -1    0    0    0  501 -0.00000000000E+00  0.00000000000E+00  0.36182948222E+02  0.36182948222E+02  0.00000000000E+00 0.  1.
          1   -1    0    0  501    0  0.00000000000E+00 -0.00000000000E+00 -0.12452441661E+04  0.12452441661E+04  0.00000000000E+00 0.  1.
         25    1    1    2    0    0  0.19062525646E+02  0.16277227299E+03 -0.41849942908E+03  0.46518809624E+03  0.12000000000E+03 0.  0.
         25    1    1    2    0    0 -0.19062525646E+02 -0.16277227299E+03 -0.79056178885E+03  0.81623901813E+03  0.12000000000E+03 0.  0.
<mgrwt>
<rscale>  0 0.42453082E+03</rscale>
<asrwt>0</asrwt>
<pdfrwt beam="1">  1        1 0.19157604E+00 0.42453082E+03</pdfrwt>
<pdfrwt beam="2">  1       -1 0.55666069E-02 0.42453082E+03</pdfrwt>
<totfact> 0.15894462E+03</totfact>
</mgrwt>
</event>
<event>
 4    1  0.1774755E-004  0.3023576E+03  0.7818608E-02  0.1084068E+00
         -2   -1    0    0    0  501 -0.00000000000E+00  0.00000000000E+00  0.44305266107E+02  0.44305266107E+02  0.00000000000E+00 0.  1.
          2   -1    0    0  501    0  0.00000000000E+00 -0.00000000000E+00 -0.51585345583E+03  0.51585345583E+03  0.00000000000E+00 0.  1.
         25    1    1    2    0    0 -0.66198515151E+02 -0.55074196373E+02 -0.17603944197E+03  0.22979402874E+03  0.12000000000E+03 0.  0.
         25    1    1    2    0    0  0.66198515151E+02  0.55074196373E+02 -0.29550874775E+03  0.33036469320E+03  0.12000000000E+03 0.  0.
<mgrwt>
<rscale>  0 0.30235757E+03</rscale>
<asrwt>0</asrwt>
<pdfrwt beam="1">  1        2 0.79362070E-01 0.30235757E+03</pdfrwt>
<pdfrwt beam="2">  1       -2 0.68161948E-02 0.30235757E+03</pdfrwt>
<totfact> 0.72903451E+03</totfact>
</mgrwt>
</event>
<event>
 4    1  0.1774755E-004  0.2781706E+03  0.7818608E-02  0.1096692E+00
          2   -1    0    0  501    0  0.00000000000E+00  0.00000000000E+00  0.55008510576E+02  0.55008510576E+02  0.00000000000E+00 0.  1.
         -2   -1    0    0    0  501 -0.00000000000E+00 -0.00000000000E+00 -0.35166789675E+03  0.35166789675E+03  0.00000000000E+00 0.  1.
         25    1    1    2    0    0 -0.29612726949E+02 -0.34511021007E+02 -0.22674353680E+03  0.26053897146E+03  0.12000000000E+03 0.  0.
         25    1    1    2    0    0  0.29612726949E+02  0.34511021007E+02 -0.69915849374E+02  0.14613743587E+03  0.12000000000E+03 0.  0.
<mgrwt>
<rscale>  0 0.27817065E+03</rscale>
<asrwt>0</asrwt>
<pdfrwt beam="1">  1        2 0.84628479E-02 0.27817065E+03</pdfrwt>
<pdfrwt beam="2">  1       -2 0.54102752E-01 0.27817065E+03</pdfrwt>
<totfact> 0.25838747E+03</totfact>
</mgrwt>
</event>
<event>
 4    1  0.1774755E-004  0.3481793E+03  0.7818608E-02  0.1063365E+00
         -2   -1    0    0    0  501 -0.00000000000E+00  0.00000000000E+00  0.56246900172E+02  0.56246900172E+02  0.00000000000E+00 0. -1.
          2   -1    0    0  501    0  0.00000000000E+00 -0.00000000000E+00 -0.53882448666E+03  0.53882448666E+03  0.00000000000E+00 0. -1.
         25    1    1    2    0    0  0.99319553127E+02 -0.71849860661E+02 -0.29200114807E+03  0.33866125640E+03  0.12000000000E+03 0.  0.
         25    1    1    2    0    0 -0.99319553127E+02  0.71849860661E+02 -0.19057643842E+03  0.25641013044E+03  0.12000000000E+03 0.  0.
<mgrwt>
<rscale>  0 0.34817931E+03</rscale>
<asrwt>0</asrwt>
<pdfrwt beam="1">  1        2 0.82896073E-01 0.34817931E+03</pdfrwt>
<pdfrwt beam="2">  1       -2 0.86533694E-02 0.34817931E+03</pdfrwt>
<totfact> 0.47931278E+03</totfact>
</mgrwt>
</event>
<event>
 4    1  0.1774755E-004  0.2423841E+03  0.7818608E-02  0.1118215E+00
         -2   -1    0    0    0  501 -0.00000000000E+00  0.00000000000E+00  0.19586138275E+02  0.19586138275E+02  0.00000000000E+00 0.  1.
          2   -1    0    0  501    0  0.00000000000E+00 -0.00000000000E+00 -0.74989317716E+03  0.74989317716E+03  0.00000000000E+00 0.  1.
         25    1    1    2    0    0  0.60694423337E+00 -0.86342028934E+01 -0.31886556839E+03  0.34080811103E+03  0.12000000000E+03 0.  0.
         25    1    1    2    0    0 -0.60694423337E+00  0.86342028934E+01 -0.41144147049E+03  0.42867120440E+03  0.12000000000E+03 0.  0.
<mgrwt>
<rscale>  0 0.24238409E+03</rscale>
<asrwt>0</asrwt>
<pdfrwt beam="1">  1        2 0.11536815E+00 0.24238409E+03</pdfrwt>
<pdfrwt beam="2">  1       -2 0.30132528E-02 0.24238409E+03</pdfrwt>
<totfact> 0.16022420E+04</totfact>
</mgrwt>
</event>
<event>
 4    1  0.1774755E-004  0.3108393E+03  0.7818608E-02  0.1079944E+00
         -2   -1    0    0    0  501 -0.00000000000E+00  0.00000000000E+00  0.45589740965E+02  0.45589740965E+02  0.00000000000E+00 0. -1.
          2   -1    0    0  501    0  0.00000000000E+00 -0.00000000000E+00 -0.52984015241E+03  0.52984015241E+03  0.00000000000E+00 0. -1.
         25    1    1    2    0    0 -0.49956533525E+02  0.81372197516E+02 -0.28889117121E+03  0.32707063239E+03  0.12000000000E+03 0.  0.
         25    1    1    2    0    0  0.49956533525E+02 -0.81372197516E+02 -0.19535924024E+03  0.24835926098E+03  0.12000000000E+03 0.  0.
<mgrwt>
<rscale>  0 0.31083935E+03</rscale>
<asrwt>0</asrwt>
<pdfrwt beam="1">  1        2 0.81513867E-01 0.31083935E+03</pdfrwt>
<pdfrwt beam="2">  1       -2 0.70138065E-02 0.31083935E+03</pdfrwt>
<totfact> 0.67714424E+03</totfact>
</mgrwt>
</event>
<event>
 4    1  0.1774755E-004  0.3755974E+03  0.7818608E-02  0.1052573E+00
         -1   -1    0    0    0  501 -0.00000000000E+00  0.00000000000E+00  0.52550016838E+02  0.52550016838E+02  0.00000000000E+00 0.  1.
          1   -1    0    0  501    0  0.00000000000E+00 -0.00000000000E+00 -0.67113887880E+03  0.67113887880E+03  0.00000000000E+00 0.  1.
         25    1    1    2    0    0 -0.28972299554E+02 -0.98875362456E+02 -0.11419909682E+03  0.19508245733E+03  0.12000000000E+03 0.  0.
         25    1    1    2    0    0  0.28972299554E+02  0.98875362456E+02 -0.50438976514E+03  0.52860643831E+03  0.12000000000E+03 0.  0.
<mgrwt>
<rscale>  0 0.37559744E+03</rscale>
<asrwt>0</asrwt>
<pdfrwt beam="1">  1        1 0.10325214E+00 0.37559744E+03</pdfrwt>
<pdfrwt beam="2">  1       -1 0.80846175E-02 0.37559744E+03</pdfrwt>
<totfact> 0.25483240E+03</totfact>
</mgrwt>
</event>
<event>
 4    1  0.1774755E-004  0.2637748E+03  0.7818608E-02  0.1104896E+00
          1   -1    0    0  501    0  0.00000000000E+00  0.00000000000E+00  0.49148704890E+03  0.49148704890E+03  0.00000000000E+00 0. -1.
         -1   -1    0    0    0  501 -0.00000000000E+00 -0.00000000000E+00 -0.35391135183E+02  0.35391135183E+02  0.00000000000E+00 0. -1.
         25    1    1    2    0    0  0.44839220610E+02 -0.13242584059E+02  0.28483903435E+03  0.31260069934E+03  0.12000000000E+03 0.  0.
         25    1    1    2    0    0 -0.44839220610E+02  0.13242584059E+02  0.17125687937E+03  0.21427748474E+03  0.12000000000E+03 0.  0.
<mgrwt>
<rscale>  0 0.26377479E+03</rscale>
<asrwt>0</asrwt>
<pdfrwt beam="1">  1        1 0.75613387E-01 0.26377479E+03</pdfrwt>
<pdfrwt beam="2">  1       -1 0.54447904E-02 0.26377479E+03</pdfrwt>
<totfact> 0.71019508E+03</totfact>
</mgrwt>
</event>
<event>
 4    1  0.1774755E-004  0.2718197E+03  0.7818608E-02  0.1100243E+00
         -2   -1    0    0    0  501 -0.00000000000E+00  0.00000000000E+00  0.34768805851E+02  0.34768805851E+02  0.00000000000E+00 0.  1.
          2   -1    0    0  501    0  0.00000000000E+00 -0.00000000000E+00 -0.53126609368E+03  0.53126609368E+03  0.00000000000E+00 0.  1.
         25    1    1    2    0    0 -0.51121745922E+02  0.31541938433E+02 -0.29306414032E+03  0.32232734467E+03  0.12000000000E+03 0.  0.
         25    1    1    2    0    0  0.51121745922E+02 -0.31541938433E+02 -0.20343314751E+03  0.24370755485E+03  0.12000000000E+03 0.  0.
<mgrwt>
<rscale>  0 0.27181970E+03</rscale>
<asrwt>0</asrwt>
<pdfrwt beam="1">  1        2 0.81733235E-01 0.27181970E+03</pdfrwt>
<pdfrwt beam="2">  1       -2 0.53490477E-02 0.27181970E+03</pdfrwt>
<totfact> 0.10197311E+04</totfact>
</mgrwt>
</event>
<event>
 4    1  0.1774755E-004  0.2597489E+03  0.7818608E-02  0.1107294E+00
          2   -1    0    0  501    0  0.00000000000E+00  0.00000000000E+00  0.10805839599E+04  0.10805839599E+04  0.00000000000E+00 0.  1.
         -2   -1    0    0    0  501 -0.00000000000E+00 -0.00000000000E+00 -0.15609499644E+02  0.15609499644E+02  0.00000000000E+00 0.  1.
         25    1    1    2    0    0 -0.25568775496E+02 -0.40711086267E+01  0.71138798794E+03  0.72190249036E+03  0.12000000000E+03 0.  0.
         25    1    1    2    0    0  0.25568775496E+02  0.40711086267E+01  0.35358647229E+03  0.37429096916E+03  0.12000000000E+03 0.  0.
<mgrwt>
<rscale>  0 0.25974892E+03</rscale>
<asrwt>0</asrwt>
<pdfrwt beam="1">  1        2 0.16624363E+00 0.25974892E+03</pdfrwt>
<pdfrwt beam="2">  1       -2 0.24014623E-02 0.25974892E+03</pdfrwt>
<totfact> 0.13776438E+04</totfact>
</mgrwt>
</event>
<event>
 4    1  0.1774755E-004  0.2991329E+03  0.7818608E-02  0.1085675E+00
         -2   -1    0    0    0  501 -0.00000000000E+00  0.00000000000E+00  0.22646794015E+02  0.22646794015E+02  0.00000000000E+00 0. -1.
          2   -1    0    0  501    0  0.00000000000E+00 -0.00000000000E+00 -0.98778298138E+03  0.98778298138E+03  0.00000000000E+00 0. -1.
         25    1    1    2    0    0  0.44611611460E+02  0.50883490852E+02 -0.28587342331E+03  0.31733726486E+03  0.12000000000E+03 0.  0.
         25    1    1    2    0    0 -0.44611611460E+02 -0.50883490852E+02 -0.67926276406E+03  0.69309251053E+03  0.12000000000E+03 0.  0.
<mgrwt>
<rscale>  0 0.29913286E+03</rscale>
<asrwt>0</asrwt>
<pdfrwt beam="1">  1        2 0.15196660E+00 0.29913286E+03</pdfrwt>
<pdfrwt beam="2">  1       -2 0.34841225E-02 0.29913286E+03</pdfrwt>
<totfact> 0.90489697E+03</totfact>
</mgrwt>
</event>
<event>
 4    1  0.1774755E-004  0.2986012E+03  0.7818608E-02  0.1085942E+00
         -3   -1    0    0    0  501 -0.00000000000E+00  0.00000000000E+00  0.88196169809E+02  0.88196169809E+02  0.00000000000E+00 0. -1.
          3   -1    0    0  501    0  0.00000000000E+00 -0.00000000000E+00 -0.25273964339E+03  0.25273964339E+03  0.00000000000E+00 0. -1.
         25    1    1    2    0    0  0.82021503966E+02 -0.34060299320E+02 -0.80281831973E+02  0.16950753272E+03  0.12000000000E+03 0.  0.
         25    1    1    2    0    0 -0.82021503966E+02  0.34060299320E+02 -0.84261641608E+02  0.17142828048E+03  0.12000000000E+03 0.  0.
<mgrwt>
<rscale>  0 0.29860120E+03</rscale>
<asrwt>0</asrwt>
<pdfrwt beam="1">  1        3 0.38883021E-01 0.29860120E+03</pdfrwt>
<pdfrwt beam="2">  1       -3 0.13568642E-01 0.29860120E+03</pdfrwt>
<totfact> 0.74131845E+02</totfact>
</mgrwt>
</event>
<event>
 4    1  0.1774755E-004  0.3494206E+03  0.7818608E-02  0.1062853E+00
          2   -1    0    0  501    0  0.00000000000E+00  0.00000000000E+00  0.14400278503E+04  0.14400278503E+04  0.00000000000E+00 0.  1.
         -2   -1    0    0    0  501 -0.00000000000E+00 -0.00000000000E+00 -0.21196601495E+02  0.21196601495E+02  0.00000000000E+00 0.  1.
         25    1    1    2    0    0 -0.91539477031E+02  0.47974884136E+02  0.10179281651E+04  0.10301741672E+04  0.12000000000E+03 0.  0.
         25    1    1    2    0    0  0.91539477031E+02 -0.47974884136E+02  0.40090308364E+03  0.43105028457E+03  0.12000000000E+03 0.  0.
<mgrwt>
<rscale>  0 0.34942064E+03</rscale>
<asrwt>0</asrwt>
<pdfrwt beam="1">  1        2 0.22154267E+00 0.34942064E+03</pdfrwt>
<pdfrwt beam="2">  1       -2 0.32610167E-02 0.34942064E+03</pdfrwt>
<totfact> 0.55112127E+03</totfact>
</mgrwt>
</event>
<event>
 4    1  0.1774755E-004  0.2873740E+03  0.7818608E-02  0.1091728E+00
         -1   -1    0    0    0  501 -0.00000000000E+00  0.00000000000E+00  0.28525583285E+03  0.28525583285E+03  0.00000000000E+00 0.  1.
          1   -1    0    0  501    0  0.00000000000E+00 -0.00000000000E+00 -0.72376998195E+02  0.72376998195E+02  0.00000000000E+00 0.  1.
         25    1    1    2    0    0  0.37799785662E+02  0.68386897896E+02  0.12118377646E+03  0.18759290839E+03  0.12000000000E+03 0.  0.
         25    1    1    2    0    0 -0.37799785662E+02 -0.68386897896E+02  0.91695058192E+02  0.17003992266E+03  0.12000000000E+03 0.  0.
<mgrwt>
<rscale>  0 0.28737405E+03</rscale>
<asrwt>0</asrwt>
<pdfrwt beam="1">  1        1 0.11134923E-01 0.28737405E+03</pdfrwt>
<pdfrwt beam="2">  1       -1 0.43885512E-01 0.28737405E+03</pdfrwt>
<totfact> 0.28914657E+03</totfact>
</mgrwt>
</event>
<event>
 4    1  0.1774755E-004  0.2506701E+03  0.7818608E-02  0.1112882E+00
         -2   -1    0    0    0  501 -0.00000000000E+00  0.00000000000E+00  0.15725700216E+03  0.15725700216E+03  0.00000000000E+00 0.  1.
          2   -1    0    0  501    0  0.00000000000E+00 -0.00000000000E+00 -0.99893015537E+02  0.99893015537E+02  0.00000000000E+00 0.  1.
         25    1    1    2    0    0 -0.26940673820E+02 -0.20876317893E+02  0.16233410205E+02  0.12579802924E+03  0.12000000000E+03 0.  0.
         25    1    1    2    0    0  0.26940673820E+02  0.20876317893E+02  0.41130576418E+02  0.13135198846E+03  0.12000000000E+03 0.  0.
<mgrwt>
<rscale>  0 0.25067011E+03</rscale>
<asrwt>0</asrwt>
<pdfrwt beam="1">  1        2 0.15368156E-01 0.25067011E+03</pdfrwt>
<pdfrwt beam="2">  1       -2 0.24193385E-01 0.25067011E+03</pdfrwt>
<totfact> 0.56339950E+03</totfact>
</mgrwt>
</event>
<event>
 4    1  0.1774755E-004  0.2421022E+03  0.7818608E-02  0.1118400E+00
          1   -1    0    0  501    0  0.00000000000E+00  0.00000000000E+00  0.35166959804E+02  0.35166959804E+02  0.00000000000E+00 0.  1.
         -1   -1    0    0    0  501 -0.00000000000E+00 -0.00000000000E+00 -0.41668015273E+03  0.41668015273E+03  0.00000000000E+00 0.  1.
         25    1    1    2    0    0  0.11369928983E+02 -0.66565657331E+01 -0.17408549528E+03  0.21184745649E+03  0.12000000000E+03 0.  0.
         25    1    1    2    0    0 -0.11369928983E+02  0.66565657331E+01 -0.20742769764E+03  0.23999965604E+03  0.12000000000E+03 0.  0.
<mgrwt>
<rscale>  0 0.24210224E+03</rscale>
<asrwt>0</asrwt>
<pdfrwt beam="1">  1        1 0.54103008E-02 0.24210224E+03</pdfrwt>
<pdfrwt beam="2">  1       -1 0.64104648E-01 0.24210224E+03</pdfrwt>
<totfact> 0.37749824E+03</totfact>
</mgrwt>
</event>
<event>
 4    1  0.1774755E-004  0.2787296E+03  0.7818608E-02  0.1096385E+00
         -1   -1    0    0    0  501 -0.00000000000E+00  0.00000000000E+00  0.25621197620E+03  0.25621197620E+03  0.00000000000E+00 0. -1.
          1   -1    0    0  501    0  0.00000000000E+00 -0.00000000000E+00 -0.75806537395E+02  0.75806537395E+02  0.00000000000E+00 0. -1.
         25    1    1    2    0    0 -0.43816423219E+02 -0.39089942719E+02  0.42934425403E+02  0.14032557661E+03  0.12000000000E+03 0.  0.
         25    1    1    2    0    0  0.43816423219E+02  0.39089942719E+02  0.13747101340E+03  0.19169293699E+03  0.12000000000E+03 0.  0.
<mgrwt>
<rscale>  0 0.27872957E+03</rscale>
<asrwt>0</asrwt>
<pdfrwt beam="1">  1        1 0.11662544E-01 0.27872957E+03</pdfrwt>
<pdfrwt beam="2">  1       -1 0.39417227E-01 0.27872957E+03</pdfrwt>
<totfact> 0.32913533E+03</totfact>
</mgrwt>
</event>
<event>
 4    1  0.1774755E-004  0.2518416E+03  0.7818608E-02  0.1112147E+00
          3   -1    0    0  501    0  0.00000000000E+00  0.00000000000E+00  0.43994102576E+02  0.43994102576E+02  0.00000000000E+00 0. -1.
         -3   -1    0    0    0  501 -0.00000000000E+00 -0.00000000000E+00 -0.36041289620E+03  0.36041289620E+03  0.00000000000E+00 0. -1.
         25    1    1    2    0    0 -0.29103596426E+02  0.18932752218E+02 -0.13279037473E+03  0.18231498033E+03  0.12000000000E+03 0.  0.
         25    1    1    2    0    0  0.29103596426E+02 -0.18932752218E+02 -0.18362841889E+03  0.22209201844E+03  0.12000000000E+03 0.  0.
<mgrwt>
<rscale>  0 0.25184155E+03</rscale>
<asrwt>0</asrwt>
<pdfrwt beam="1">  1        3 0.67683235E-02 0.25184155E+03</pdfrwt>
<pdfrwt beam="2">  1       -3 0.55448138E-01 0.25184155E+03</pdfrwt>
<totfact> 0.11428047E+03</totfact>
</mgrwt>
</event>
<event>
 4    1  0.1774755E-004  0.3412621E+03  0.7818608E-02  0.1066260E+00
          2   -1    0    0  501    0  0.00000000000E+00  0.00000000000E+00  0.29153560657E+04  0.29153560657E+04  0.00000000000E+00 0. -1.
         -2   -1    0    0    0  501 -0.00000000000E+00 -0.00000000000E+00 -0.99867560471E+01  0.99867560471E+01  0.00000000000E+00 0. -1.
         25    1    1    2    0    0 -0.85516212255E+02 -0.16933718822E+02  0.21757567250E+04  0.21808065251E+04  0.12000000000E+03 0.  0.
         25    1    1    2    0    0  0.85516212255E+02  0.16933718822E+02  0.72961258470E+03  0.74453629673E+03  0.12000000000E+03 0.  0.
<mgrwt>
<rscale>  0 0.34126207E+03</rscale>
<asrwt>0</asrwt>
<pdfrwt beam="1">  1        2 0.44851564E+00 0.34126207E+03</pdfrwt>
<pdfrwt beam="2">  1       -2 0.15364263E-02 0.34126207E+03</pdfrwt>
<totfact> 0.26446103E+03</totfact>
</mgrwt>
</event>
<event>
 4    1  0.1774755E-004  0.3911786E+03  0.7818608E-02  0.1046878E+00
          2   -1    0    0  501    0  0.00000000000E+00  0.00000000000E+00  0.44146807509E+03  0.44146807509E+03  0.00000000000E+00 0.  1.
         -2   -1    0    0    0  501 -0.00000000000E+00 -0.00000000000E+00 -0.86654431064E+02  0.86654431064E+02  0.00000000000E+00 0.  1.
         25    1    1    2    0    0 -0.69149844974E+02 -0.95304592417E+02  0.42462933691E+02  0.17340059727E+03  0.12000000000E+03 0.  0.
         25    1    1    2    0    0  0.69149844974E+02  0.95304592417E+02  0.31235071033E+03  0.35472190888E+03  0.12000000000E+03 0.  0.
<mgrwt>
<rscale>  0 0.39117855E+03</rscale>
<asrwt>0</asrwt>
<pdfrwt beam="1">  1        2 0.67918164E-01 0.39117855E+03</pdfrwt>
<pdfrwt beam="2">  1       -2 0.13331451E-01 0.39117855E+03</pdfrwt>
<totfact> 0.29960764E+03</totfact>
</mgrwt>
</event>
<event>
 4    1  0.1774755E-004  0.2976604E+03  0.7818608E-02  0.1086416E+00
         -2   -1    0    0    0  501 -0.00000000000E+00  0.00000000000E+00  0.20449876867E+03  0.20449876867E+03  0.00000000000E+00 0. -1.
          2   -1    0    0  501    0  0.00000000000E+00 -0.00000000000E+00 -0.10831570136E+03  0.10831570136E+03  0.00000000000E+00 0. -1.
         25    1    1    2    0    0 -0.46826553127E+01 -0.39672522468E+02 -0.34353668937E+02  0.13105728087E+03  0.12000000000E+03 0.  0.
         25    1    1    2    0    0  0.46826553127E+01  0.39672522468E+02  0.13053673625E+03  0.18175718916E+03  0.12000000000E+03 0.  0.
<mgrwt>
<rscale>  0 0.29766039E+03</rscale>
<asrwt>0</asrwt>
<pdfrwt beam="1">  1        2 0.16663954E-01 0.29766039E+03</pdfrwt>
<pdfrwt beam="2">  1       -2 0.31461349E-01 0.29766039E+03</pdfrwt>
<totfact> 0.32170726E+03</totfact>
</mgrwt>
</event>
<event>
 4    1  0.1774755E-004  0.3250433E+03  0.7818608E-02  0.1073351E+00
          2   -1    0    0  501    0  0.00000000000E+00  0.00000000000E+00  0.27136721502E+04  0.27136721502E+04  0.00000000000E+00 0.  1.
         -2   -1    0    0    0  501 -0.00000000000E+00 -0.00000000000E+00 -0.97334124245E+01  0.97334124245E+01  0.00000000000E+00 0.  1.
         25    1    1    2    0    0  0.81146242649E+02  0.13595627655E+02  0.19586938238E+04  0.19640903873E+04  0.12000000000E+03 0.  0.
         25    1    1    2    0    0 -0.81146242649E+02 -0.13595627655E+02  0.74524491389E+03  0.75931517532E+03  0.12000000000E+03 0.  0.
<mgrwt>
<rscale>  0 0.32504332E+03</rscale>
<asrwt>0</asrwt>
<pdfrwt beam="1">  1        2 0.41748742E+00 0.32504332E+03</pdfrwt>
<pdfrwt beam="2">  1       -2 0.14974502E-02 0.32504332E+03</pdfrwt>
<totfact> 0.35963141E+03</totfact>
</mgrwt>
</event>
<event>
 4    1  0.1774755E-004  0.3083429E+03  0.7818608E-02  0.1081143E+00
         -2   -1    0    0    0  501 -0.00000000000E+00  0.00000000000E+00  0.20981666360E+02  0.20981666360E+02  0.00000000000E+00 0. -1.
          2   -1    0    0  501    0  0.00000000000E+00 -0.00000000000E+00 -0.11328380393E+04  0.11328380393E+04  0.00000000000E+00 0. -1.
         25    1    1    2    0    0  0.54458794167E+02  0.54723017486E+02 -0.77439386223E+03  0.78743013834E+03  0.12000000000E+03 0.  0.
         25    1    1    2    0    0 -0.54458794167E+02 -0.54723017486E+02 -0.33746251068E+03  0.36638956729E+03  0.12000000000E+03 0.  0.
<mgrwt>
<rscale>  0 0.30834286E+03</rscale>
<asrwt>0</asrwt>
<pdfrwt beam="1">  1        2 0.17428274E+00 0.30834286E+03</pdfrwt>
<pdfrwt beam="2">  1       -2 0.32279494E-02 0.30834286E+03</pdfrwt>
<totfact> 0.83100374E+03</totfact>
</mgrwt>
</event>
<event>
 4    1  0.1774755E-004  0.3070280E+03  0.7818608E-02  0.1081779E+00
          1   -1    0    0  501    0  0.00000000000E+00  0.00000000000E+00  0.30399163079E+02  0.30399163079E+02  0.00000000000E+00 0.  1.
         -1   -1    0    0    0  501 -0.00000000000E+00 -0.00000000000E+00 -0.77523663444E+03  0.77523663444E+03  0.00000000000E+00 0.  1.
         25    1    1    2    0    0 -0.80745547408E+02  0.50947913547E+02 -0.39115983569E+03  0.42014467792E+03  0.12000000000E+03 0.  0.
         25    1    1    2    0    0  0.80745547408E+02 -0.50947913547E+02 -0.35367763566E+03  0.38549111960E+03  0.12000000000E+03 0.  0.
<mgrwt>
<rscale>  0 0.30702798E+03</rscale>
<asrwt>0</asrwt>
<pdfrwt beam="1">  1        1 0.46767939E-02 0.30702798E+03</pdfrwt>
<pdfrwt beam="2">  1       -1 0.11926719E+00 0.30702798E+03</pdfrwt>
<totfact> 0.12284139E+03</totfact>
</mgrwt>
</event>
<event>
 4    1  0.1774755E-004  0.2792899E+03  0.7818608E-02  0.1096077E+00
         -1   -1    0    0    0  501 -0.00000000000E+00  0.00000000000E+00  0.22176031043E+02  0.22176031043E+02  0.00000000000E+00 0. -1.
          1   -1    0    0  501    0  0.00000000000E+00 -0.00000000000E+00 -0.87935977493E+03  0.87935977493E+03  0.00000000000E+00 0. -1.
         25    1    1    2    0    0 -0.20182225761E+01  0.70932735899E+02 -0.45465318867E+03  0.47554710409E+03  0.12000000000E+03 0.  0.
         25    1    1    2    0    0  0.20182225761E+01 -0.70932735899E+02 -0.40253055522E+03  0.42598870188E+03  0.12000000000E+03 0.  0.
<mgrwt>
<rscale>  0 0.27928988E+03</rscale>
<asrwt>0</asrwt>
<pdfrwt beam="1">  1        1 0.13528612E+00 0.27928988E+03</pdfrwt>
<pdfrwt beam="2">  1       -1 0.34116971E-02 0.27928988E+03</pdfrwt>
<totfact> 0.61767973E+03</totfact>
</mgrwt>
</event>
<event>
 4    1  0.1774755E-004  0.2599274E+03  0.7818608E-02  0.1107187E+00
         -2   -1    0    0    0  501 -0.00000000000E+00  0.00000000000E+00  0.12041584788E+03  0.12041584788E+03  0.00000000000E+00 0. -1.
          2   -1    0    0  501    0  0.00000000000E+00 -0.00000000000E+00 -0.14026862207E+03  0.14026862207E+03  0.00000000000E+00 0. -1.
         25    1    1    2    0    0  0.92974329331E+01 -0.39470804150E+02 -0.39100257299E+02  0.13256401005E+03  0.12000000000E+03 0.  0.
         25    1    1    2    0    0 -0.92974329331E+01  0.39470804150E+02  0.19247483112E+02  0.12812045990E+03  0.12000000000E+03 0.  0.
<mgrwt>
<rscale>  0 0.25992741E+03</rscale>
<asrwt>0</asrwt>
<pdfrwt beam="1">  1        2 0.21579788E-01 0.25992741E+03</pdfrwt>
<pdfrwt beam="2">  1       -2 0.18525515E-01 0.25992741E+03</pdfrwt>
<totfact> 0.60331194E+03</totfact>
</mgrwt>
</event>
<event>
 4    1  0.1774755E-004  0.2624142E+03  0.7818608E-02  0.1105701E+00
          2   -1    0    0  501    0  0.00000000000E+00  0.00000000000E+00  0.43372158016E+02  0.43372158016E+02  0.00000000000E+00 0.  1.
         -2   -1    0    0    0  501 -0.00000000000E+00 -0.00000000000E+00 -0.39692048603E+03  0.39692048603E+03  0.00000000000E+00 0.  1.
         25    1    1    2    0    0  0.17578751191E+02  0.40395873643E+02 -0.22639040657E+03  0.25998741371E+03  0.12000000000E+03 0.  0.
         25    1    1    2    0    0 -0.17578751191E+02 -0.40395873643E+02 -0.12715792145E+03  0.18030523034E+03  0.12000000000E+03 0.  0.
<mgrwt>
<rscale>  0 0.26241416E+03</rscale>
<asrwt>0</asrwt>
<pdfrwt beam="1">  1        2 0.66726402E-02 0.26241416E+03</pdfrwt>
<pdfrwt beam="2">  1       -2 0.61064686E-01 0.26241416E+03</pdfrwt>
<totfact> 0.27260647E+03</totfact>
</mgrwt>
</event>
<event>
 4    1  0.1774755E-004  0.2760374E+03  0.7818608E-02  0.1097873E+00
         -2   -1    0    0    0  501 -0.00000000000E+00  0.00000000000E+00  0.50074717263E+03  0.50074717263E+03  0.00000000000E+00 0.  1.
          2   -1    0    0  501    0  0.00000000000E+00 -0.00000000000E+00 -0.38041486584E+02  0.38041486584E+02  0.00000000000E+00 0.  1.
         25    1    1    2    0    0  0.47918451227E+02  0.42987187398E+02  0.18748612926E+03  0.23172208551E+03  0.12000000000E+03 0.  0.
         25    1    1    2    0    0 -0.47918451227E+02 -0.42987187398E+02  0.27521955679E+03  0.30706657371E+03  0.12000000000E+03 0.  0.
<mgrwt>
<rscale>  0 0.27603744E+03</rscale>
<asrwt>0</asrwt>
<pdfrwt beam="1">  1        2 0.58525368E-02 0.27603744E+03</pdfrwt>
<pdfrwt beam="2">  1       -2 0.77038022E-01 0.27603744E+03</pdfrwt>
<totfact> 0.19727383E+03</totfact>
</mgrwt>
</event>
<event>
 4    1  0.1774755E-004  0.3032197E+03  0.7818608E-02  0.1083642E+00
          1   -1    0    0  501    0  0.00000000000E+00  0.00000000000E+00  0.89839549823E+03  0.89839549823E+03  0.00000000000E+00 0. -1.
         -1   -1    0    0    0  501 -0.00000000000E+00 -0.00000000000E+00 -0.25585111242E+02  0.25585111242E+02  0.00000000000E+00 0. -1.
         25    1    1    2    0    0  0.35979477370E+02 -0.17006157812E+02  0.18142245109E+03  0.22112855527E+03  0.12000000000E+03 0.  0.
         25    1    1    2    0    0 -0.35979477370E+02  0.17006157812E+02  0.69138793589E+03  0.70285205420E+03  0.12000000000E+03 0.  0.
<mgrwt>
<rscale>  0 0.30321971E+03</rscale>
<asrwt>0</asrwt>
<pdfrwt beam="1">  1        1 0.13821467E+00 0.30321971E+03</pdfrwt>
<pdfrwt beam="2">  1       -1 0.39361717E-02 0.30321971E+03</pdfrwt>
<totfact> 0.48313748E+03</totfact>
</mgrwt>
</event>
<event>
 4    1  0.1774755E-004  0.3612234E+03  0.7818608E-02  0.1058100E+00
         -1   -1    0    0    0  501 -0.00000000000E+00  0.00000000000E+00  0.37816313505E+03  0.37816313505E+03  0.00000000000E+00 0. -1.
          1   -1    0    0  501    0  0.00000000000E+00 -0.00000000000E+00 -0.86260626530E+02  0.86260626530E+02  0.00000000000E+00 0. -1.
         25    1    1    2    0    0 -0.77822602564E+02  0.10863080210E+03  0.12143586890E+03  0.21680331845E+03  0.12000000000E+03 0.  0.
         25    1    1    2    0    0  0.77822602564E+02 -0.10863080210E+03  0.17046663961E+03  0.24762044313E+03  0.12000000000E+03 0.  0.
<mgrwt>
<rscale>  0 0.36122342E+03</rscale>
<asrwt>0</asrwt>
<pdfrwt beam="1">  1        1 0.13270866E-01 0.36122342E+03</pdfrwt>
<pdfrwt beam="2">  1       -1 0.58178943E-01 0.36122342E+03</pdfrwt>
<totfact> 0.13576944E+03</totfact>
</mgrwt>
</event>
<event>
 4    1  0.1774755E-004  0.2662025E+03  0.7818608E-02  0.1103473E+00
         -3   -1    0    0    0  501 -0.00000000000E+00  0.00000000000E+00  0.66568286090E+02  0.66568286090E+02  0.00000000000E+00 0. -1.
          3   -1    0    0  501    0  0.00000000000E+00 -0.00000000000E+00 -0.26613189710E+03  0.26613189710E+03  0.00000000000E+00 0. -1.
         25    1    1    2    0    0 -0.34154328085E+02 -0.46150546279E+02 -0.10530830300E+03  0.16966505159E+03  0.12000000000E+03 0.  0.
         25    1    1    2    0    0  0.34154328085E+02  0.46150546279E+02 -0.94255308002E+02  0.16303513160E+03  0.12000000000E+03 0.  0.
<mgrwt>
<rscale>  0 0.26620251E+03</rscale>
<asrwt>0</asrwt>
<pdfrwt beam="1">  1        3 0.40943368E-01 0.26620251E+03</pdfrwt>
<pdfrwt beam="2">  1       -3 0.10241275E-01 0.26620251E+03</pdfrwt>
<totfact> 0.10667423E+03</totfact>
</mgrwt>
</event>
<event>
 4    1  0.1774755E-004  0.5021112E+03  0.7818608E-02  0.1013229E+00
          1   -1    0    0  501    0  0.00000000000E+00  0.00000000000E+00  0.11526375556E+04  0.11526375556E+04  0.00000000000E+00 0. -1.
         -1   -1    0    0    0  501 -0.00000000000E+00 -0.00000000000E+00 -0.54682327827E+02  0.54682327827E+02  0.00000000000E+00 0. -1.
         25    1    1    2    0    0  0.56579356902E+02 -0.16461984917E+03  0.87449924529E+03  0.89969430830E+03  0.12000000000E+03 0.  0.
         25    1    1    2    0    0 -0.56579356902E+02  0.16461984917E+03  0.22345598250E+03  0.30762557515E+03  0.12000000000E+03 0.  0.
<mgrwt>
<rscale>  0 0.50211116E+03</rscale>
<asrwt>0</asrwt>
<pdfrwt beam="1">  1        1 0.17732884E+00 0.50211116E+03</pdfrwt>
<pdfrwt beam="2">  1       -1 0.84126667E-02 0.50211116E+03</pdfrwt>
<totfact> 0.97743677E+02</totfact>
</mgrwt>
</event>
<event>
 4    1  0.1774755E-004  0.2659763E+03  0.7818608E-02  0.1103605E+00
          2   -1    0    0  501    0  0.00000000000E+00  0.00000000000E+00  0.31182299951E+03  0.31182299951E+03  0.00000000000E+00 0.  1.
         -2   -1    0    0    0  501 -0.00000000000E+00 -0.00000000000E+00 -0.56717599600E+02  0.56717599600E+02  0.00000000000E+00 0.  1.
         25    1    1    2    0    0  0.13490938154E+02  0.23163234739E+02  0.57345507862E+02  0.13567257692E+03  0.12000000000E+03 0.  0.
         25    1    1    2    0    0 -0.13490938154E+02 -0.23163234739E+02  0.19775989205E+03  0.23286802219E+03  0.12000000000E+03 0.  0.
<mgrwt>
<rscale>  0 0.26597633E+03</rscale>
<asrwt>0</asrwt>
<pdfrwt beam="1">  1        2 0.47972768E-01 0.26597633E+03</pdfrwt>
<pdfrwt beam="2">  1       -2 0.87257847E-02 0.26597633E+03</pdfrwt>
<totfact> 0.85602989E+03</totfact>
</mgrwt>
</event>
<event>
 4    1  0.1774755E-004  0.2538011E+03  0.7818608E-02  0.1110926E+00
         -2   -1    0    0    0  501 -0.00000000000E+00  0.00000000000E+00  0.17202229481E+02  0.17202229481E+02  0.00000000000E+00 0. -1.
          2   -1    0    0  501    0  0.00000000000E+00 -0.00000000000E+00 -0.93614322575E+03  0.93614322575E+03  0.00000000000E+00 0. -1.
         25    1    1    2    0    0  0.21135962800E+02 -0.27544202399E+02 -0.54332358315E+03  0.55749971123E+03  0.12000000000E+03 0.  0.
         25    1    1    2    0    0 -0.21135962800E+02  0.27544202399E+02 -0.37561741312E+03  0.39584574400E+03  0.12000000000E+03 0.  0.
<mgrwt>
<rscale>  0 0.25380111E+03</rscale>
<asrwt>0</asrwt>
<pdfrwt beam="1">  1        2 0.14402206E+00 0.25380111E+03</pdfrwt>
<pdfrwt beam="2">  1       -2 0.26464964E-02 0.25380111E+03</pdfrwt>
<totfact> 0.14601974E+04</totfact>
</mgrwt>
</event>
<event>
 4    1  0.1774755E-004  0.2790394E+03  0.7818608E-02  0.1096215E+00
         -1   -1    0    0    0  501 -0.00000000000E+00  0.00000000000E+00  0.58753091449E+02  0.58753091449E+02  0.00000000000E+00 0. -1.
          1   -1    0    0  501    0  0.00000000000E+00 -0.00000000000E+00 -0.33131440607E+03  0.33131440607E+03  0.00000000000E+00 0. -1.
         25    1    1    2    0    0 -0.37462565405E+02 -0.56206447994E+02 -0.16763642027E+03  0.21694372082E+03  0.12000000000E+03 0.  0.
         25    1    1    2    0    0  0.37462565405E+02  0.56206447994E+02 -0.10492489434E+03  0.17312377669E+03  0.12000000000E+03 0.  0.
<mgrwt>
<rscale>  0 0.27903939E+03</rscale>
<asrwt>0</asrwt>
<pdfrwt beam="1">  1        1 0.50971448E-01 0.27903939E+03</pdfrwt>
<pdfrwt beam="2">  1       -1 0.90389370E-02 0.27903939E+03</pdfrwt>
<totfact> 0.54748614E+03</totfact>
</mgrwt>
</event>
<event>
 4    1  0.1774755E-004  0.2676048E+03  0.7818608E-02  0.1102658E+00
          2   -1    0    0  501    0  0.00000000000E+00  0.00000000000E+00  0.14333736747E+02  0.14333736747E+02  0.00000000000E+00 0. -1.
         -2   -1    0    0    0  501 -0.00000000000E+00 -0.00000000000E+00 -0.12490172964E+04  0.12490172964E+04  0.00000000000E+00 0. -1.
         25    1    1    2    0    0 -0.29844952048E+02 -0.20229571339E+02 -0.39575185490E+03  0.41511382461E+03  0.12000000000E+03 0.  0.
         25    1    1    2    0    0  0.29844952048E+02  0.20229571339E+02 -0.83893170477E+03  0.84823720856E+03  0.12000000000E+03 0.  0.
<mgrwt>
<rscale>  0 0.26760482E+03</rscale>
<asrwt>0</asrwt>
<pdfrwt beam="1">  1        2 0.22051899E-02 0.26760482E+03</pdfrwt>
<pdfrwt beam="2">  1       -2 0.19215654E+00 0.26760482E+03</pdfrwt>
<totfact> 0.77400418E+02</totfact>
</mgrwt>
</event>
<event>
 4    1  0.1774755E-004  0.2619035E+03  0.7818608E-02  0.1106005E+00
         -2   -1    0    0    0  501 -0.00000000000E+00  0.00000000000E+00  0.62927140263E+02  0.62927140263E+02  0.00000000000E+00 0.  1.
          2   -1    0    0  501    0  0.00000000000E+00 -0.00000000000E+00 -0.27251136162E+03  0.27251136162E+03  0.00000000000E+00 0.  1.
         25    1    1    2    0    0 -0.74740041685E+01 -0.51382064244E+02 -0.11406187091E+03  0.17351105918E+03  0.12000000000E+03 0.  0.
         25    1    1    2    0    0  0.74740041685E+01  0.51382064244E+02 -0.95522350454E+02  0.16192744270E+03  0.12000000000E+03 0.  0.
<mgrwt>
<rscale>  0 0.26190350E+03</rscale>
<asrwt>0</asrwt>
<pdfrwt beam="1">  1        2 0.41924826E-01 0.26190350E+03</pdfrwt>
<pdfrwt beam="2">  1       -2 0.96810983E-02 0.26190350E+03</pdfrwt>
<totfact> 0.83929658E+03</totfact>
</mgrwt>
</event>
<event>
 4    1  0.1774755E-004  0.3272689E+03  0.7818608E-02  0.1072352E+00
         -2   -1    0    0    0  501 -0.00000000000E+00  0.00000000000E+00  0.85110143767E+02  0.85110143767E+02  0.00000000000E+00 0. -1.
          2   -1    0    0  501    0  0.00000000000E+00 -0.00000000000E+00 -0.31460676110E+03  0.31460676110E+03  0.00000000000E+00 0. -1.
         25    1    1    2    0    0  0.52765827022E+02  0.97936484389E+02 -0.11393888654E+03  0.19939372443E+03  0.12000000000E+03 0.  0.
         25    1    1    2    0    0 -0.52765827022E+02 -0.97936484389E+02 -0.11555773080E+03  0.20032318044E+03  0.12000000000E+03 0.  0.
<mgrwt>
<rscale>  0 0.32726886E+03</rscale>
<asrwt>0</asrwt>
<pdfrwt beam="1">  1        2 0.48401040E-01 0.32726886E+03</pdfrwt>
<pdfrwt beam="2">  1       -2 0.13093868E-01 0.32726886E+03</pdfrwt>
<totfact> 0.44553942E+03</totfact>
</mgrwt>
</event>
<event>
 4    1  0.1774755E-004  0.3049820E+03  0.7818608E-02  0.1082776E+00
         -1   -1    0    0    0  501 -0.00000000000E+00  0.00000000000E+00  0.14608086895E+03  0.14608086895E+03  0.00000000000E+00 0. -1.
          1   -1    0    0  501    0  0.00000000000E+00 -0.00000000000E+00 -0.15918242920E+03  0.15918242920E+03  0.00000000000E+00 0. -1.
         25    1    1    2    0    0 -0.24241240039E+02 -0.72959885676E+02 -0.60847700246E+02  0.15496201232E+03  0.12000000000E+03 0.  0.
         25    1    1    2    0    0  0.24241240039E+02  0.72959885676E+02  0.47746139994E+02  0.15030128583E+03  0.12000000000E+03 0.  0.
<mgrwt>
<rscale>  0 0.30498202E+03</rscale>
<asrwt>0</asrwt>
<pdfrwt beam="1">  1        1 0.24489604E-01 0.30498202E+03</pdfrwt>
<pdfrwt beam="2">  1       -1 0.22473980E-01 0.30498202E+03</pdfrwt>
<totfact> 0.32641224E+03</totfact>
</mgrwt>
</event>
<event>
 4    1  0.1774755E-004  0.2789546E+03  0.7818608E-02  0.1096261E+00
          2   -1    0    0  501    0  0.00000000000E+00  0.00000000000E+00  0.21004278799E+04  0.21004278799E+04  0.00000000000E+00 0. -1.
         -2   -1    0    0    0  501 -0.00000000000E+00 -0.00000000000E+00 -0.92618796581E+01  0.92618796581E+01  0.00000000000E+00 0. -1.
         25    1    1    2    0    0  0.12979498069E+02 -0.65697413679E+02  0.86513463143E+03  0.87598090620E+03  0.12000000000E+03 0.  0.
         25    1    1    2    0    0 -0.12979498069E+02  0.65697413679E+02  0.12260313688E+04  0.12337088534E+04  0.12000000000E+03 0.  0.
<mgrwt>
<rscale>  0 0.27895455E+03</rscale>
<asrwt>0</asrwt>
<pdfrwt beam="1">  1        2 0.32314237E+00 0.27895455E+03</pdfrwt>
<pdfrwt beam="2">  1       -2 0.14249062E-02 0.27895455E+03</pdfrwt>
<totfact> 0.83653596E+03</totfact>
</mgrwt>
</event>
<event>
 4    1  0.1774755E-004  0.2636907E+03  0.7818608E-02  0.1104946E+00
         -1   -1    0    0    0  501 -0.00000000000E+00  0.00000000000E+00  0.19083484564E+02  0.19083484564E+02  0.00000000000E+00 0.  1.
          1   -1    0    0  501    0  0.00000000000E+00 -0.00000000000E+00 -0.91090248125E+03  0.91090248125E+03  0.00000000000E+00 0.  1.
         25    1    1    2    0    0  0.11070770528E+02 -0.41259922713E+02 -0.56593756765E+03  0.58009505571E+03  0.12000000000E+03 0.  0.
         25    1    1    2    0    0 -0.11070770528E+02  0.41259922713E+02 -0.32588142904E+03  0.34989091010E+03  0.12000000000E+03 0.  0.
<mgrwt>
<rscale>  0 0.26369068E+03</rscale>
<asrwt>0</asrwt>
<pdfrwt beam="1">  1        1 0.14013880E+00 0.26369068E+03</pdfrwt>
<pdfrwt beam="2">  1       -1 0.29359216E-02 0.26369068E+03</pdfrwt>
<totfact> 0.72721821E+03</totfact>
</mgrwt>
</event>
<event>
 4    1  0.1774755E-004  0.2644159E+03  0.7818608E-02  0.1104519E+00
          2   -1    0    0  501    0  0.00000000000E+00  0.00000000000E+00  0.51231627365E+02  0.51231627365E+02  0.00000000000E+00 0.  1.
         -2   -1    0    0    0  501 -0.00000000000E+00 -0.00000000000E+00 -0.34117474942E+03  0.34117474942E+03  0.00000000000E+00 0.  1.
         25    1    1    2    0    0 -0.29997333656E+02 -0.18468937852E+02 -0.81347583248E+02  0.14919239589E+03  0.12000000000E+03 0.  0.
         25    1    1    2    0    0  0.29997333656E+02  0.18468937852E+02 -0.20859553881E+03  0.24321398089E+03  0.12000000000E+03 0.  0.
<mgrwt>
<rscale>  0 0.26441587E+03</rscale>
<asrwt>0</asrwt>
<pdfrwt beam="1">  1        2 0.78817887E-02 0.26441587E+03</pdfrwt>
<pdfrwt beam="2">  1       -2 0.52488424E-01 0.26441587E+03</pdfrwt>
<totfact> 0.30016747E+03</totfact>
</mgrwt>
</event>
<event>
 4    1  0.1774755E-004  0.2439977E+03  0.7818608E-02  0.1117158E+00
          1   -1    0    0  501    0  0.00000000000E+00  0.00000000000E+00  0.18076754077E+04  0.18076754077E+04  0.00000000000E+00 0. -1.
         -1   -1    0    0    0  501 -0.00000000000E+00 -0.00000000000E+00 -0.82336270379E+01  0.82336270379E+01  0.00000000000E+00 0. -1.
         25    1    1    2    0    0  0.18844177142E+01  0.65890441719E+01  0.74418558148E+03  0.75382965332E+03  0.12000000000E+03 0.  0.
         25    1    1    2    0    0 -0.18844177142E+01 -0.65890441719E+01  0.10552561992E+04  0.10620793814E+04  0.12000000000E+03 0.  0.
<mgrwt>
<rscale>  0 0.24399775E+03</rscale>
<asrwt>0</asrwt>
<pdfrwt beam="1">  1        1 0.27810359E+00 0.24399775E+03</pdfrwt>
<pdfrwt beam="2">  1       -1 0.12667133E-02 0.24399775E+03</pdfrwt>
<totfact> 0.59943024E+03</totfact>
</mgrwt>
</event>
<event>
 4    1  0.1774755E-004  0.3356136E+03  0.7818608E-02  0.1068680E+00
         -2   -1    0    0    0  501 -0.00000000000E+00  0.00000000000E+00  0.18900358674E+02  0.18900358674E+02  0.00000000000E+00 0. -1.
          2   -1    0    0  501    0  0.00000000000E+00 -0.00000000000E+00 -0.14898726555E+04  0.14898726555E+04  0.00000000000E+00 0. -1.
         25    1    1    2    0    0  0.54895162777E+01  0.19801601696E+02 -0.12546585385E+04  0.12605515803E+04  0.12000000000E+03 0.  0.
         25    1    1    2    0    0 -0.54895162777E+01 -0.19801601696E+02 -0.21631375826E+03  0.24822143387E+03  0.12000000000E+03 0.  0.
<mgrwt>
<rscale>  0 0.33561363E+03</rscale>
<asrwt>0</asrwt>
<pdfrwt beam="1">  1        2 0.22921127E+00 0.33561363E+03</pdfrwt>
<pdfrwt beam="2">  1       -2 0.29077463E-02 0.33561363E+03</pdfrwt>
<totfact> 0.61481140E+03</totfact>
</mgrwt>
</event>
<event>
 4    1  0.1774755E-004  0.2760459E+03  0.7818608E-02  0.1097868E+00
         -2   -1    0    0    0  501 -0.00000000000E+00  0.00000000000E+00  0.13090708298E+03  0.13090708298E+03  0.00000000000E+00 0.  1.
          2   -1    0    0  501    0  0.00000000000E+00 -0.00000000000E+00 -0.14552563159E+03  0.14552563159E+03  0.00000000000E+00 0.  1.
         25    1    1    2    0    0 -0.22812458226E+02  0.62376475439E+02 -0.22793897047E+02  0.13903522820E+03  0.12000000000E+03 0.  0.
         25    1    1    2    0    0  0.22812458226E+02 -0.62376475439E+02  0.81753484398E+01  0.13739748637E+03  0.12000000000E+03 0.  0.
<mgrwt>
<rscale>  0 0.27604591E+03</rscale>
<asrwt>0</asrwt>
<pdfrwt beam="1">  1        2 0.22388559E-01 0.27604591E+03</pdfrwt>
<pdfrwt beam="2">  1       -2 0.20139551E-01 0.27604591E+03</pdfrwt>
<totfact> 0.50311439E+03</totfact>
</mgrwt>
</event>
<event>
 4    1  0.1774755E-004  0.2956145E+03  0.7818608E-02  0.1087454E+00
         -1   -1    0    0    0  501 -0.00000000000E+00  0.00000000000E+00  0.93678160881E+01  0.93678160881E+01  0.00000000000E+00 0.  1.
          1   -1    0    0  501    0  0.00000000000E+00 -0.00000000000E+00 -0.23321318505E+04  0.23321318505E+04  0.00000000000E+00 0.  1.
         25    1    1    2    0    0  0.46172955907E+02  0.13998795077E+02 -0.59466782786E+03  0.60857023721E+03  0.12000000000E+03 0.  0.
         25    1    1    2    0    0 -0.46172955907E+02 -0.13998795077E+02 -0.17280962066E+04  0.17329294294E+04  0.12000000000E+03 0.  0.
<mgrwt>
<rscale>  0 0.29561449E+03</rscale>
<asrwt>0</asrwt>
<pdfrwt beam="1">  1        1 0.35879006E+00 0.29561449E+03</pdfrwt>
<pdfrwt beam="2">  1       -1 0.14412003E-02 0.29561449E+03</pdfrwt>
<totfact> 0.22631468E+03</totfact>
</mgrwt>
</event>
<event>
 4    1  0.1774755E-004  0.2920950E+03  0.7818608E-02  0.1089260E+00
         -2   -1    0    0    0  501 -0.00000000000E+00  0.00000000000E+00  0.25511496805E+02  0.25511496805E+02  0.00000000000E+00 0.  1.
          2   -1    0    0  501    0  0.00000000000E+00 -0.00000000000E+00 -0.83608849210E+03  0.83608849210E+03  0.00000000000E+00 0.  1.
         25    1    1    2    0    0 -0.66039809460E+02 -0.40331130395E+02 -0.31475487438E+03  0.34562767172E+03  0.12000000000E+03 0.  0.
         25    1    1    2    0    0  0.66039809460E+02  0.40331130395E+02 -0.49582212091E+03  0.51597231718E+03  0.12000000000E+03 0.  0.
<mgrwt>
<rscale>  0 0.29209498E+03</rscale>
<asrwt>0</asrwt>
<pdfrwt beam="1">  1        2 0.12862901E+00 0.29209498E+03</pdfrwt>
<pdfrwt beam="2">  1       -2 0.39248452E-02 0.29209498E+03</pdfrwt>
<totfact> 0.94703870E+03</totfact>
</mgrwt>
</event>
<event>
 4    1  0.1774755E-004  0.3253322E+03  0.7818608E-02  0.1073221E+00
          2   -1    0    0  501    0  0.00000000000E+00  0.00000000000E+00  0.28476213387E+03  0.28476213387E+03  0.00000000000E+00 0.  1.
         -2   -1    0    0    0  501 -0.00000000000E+00 -0.00000000000E+00 -0.92920555032E+02  0.92920555032E+02  0.00000000000E+00 0.  1.
         25    1    1    2    0    0 -0.50028869569E+02 -0.92279457120E+02  0.58448801260E+02  0.16980768053E+03  0.12000000000E+03 0.  0.
         25    1    1    2    0    0  0.50028869569E+02  0.92279457120E+02  0.13339277757E+03  0.20787500837E+03  0.12000000000E+03 0.  0.
<mgrwt>
<rscale>  0 0.32533217E+03</rscale>
<asrwt>0</asrwt>
<pdfrwt beam="1">  1        2 0.43809559E-01 0.32533217E+03</pdfrwt>
<pdfrwt beam="2">  1       -2 0.14295470E-01 0.32533217E+03</pdfrwt>
<totfact> 0.42952811E+03</totfact>
</mgrwt>
</event>
<event>
 4    1  0.1774755E-004  0.2954018E+03  0.7818608E-02  0.1087562E+00
         -1   -1    0    0    0  501 -0.00000000000E+00  0.00000000000E+00  0.24484045946E+03  0.24484045946E+03  0.00000000000E+00 0.  1.
          1   -1    0    0  501    0  0.00000000000E+00 -0.00000000000E+00 -0.89101123273E+02  0.89101123273E+02  0.00000000000E+00 0.  1.
         25    1    1    2    0    0 -0.59799903452E+01  0.75100071389E+02  0.30717207648E+02  0.14498043955E+03  0.12000000000E+03 0.  0.
         25    1    1    2    0    0  0.59799903452E+01 -0.75100071389E+02  0.12502212854E+03  0.18896114318E+03  0.12000000000E+03 0.  0.
<mgrwt>
<rscale>  0 0.29540183E+03</rscale>
<asrwt>0</asrwt>
<pdfrwt beam="1">  1        1 0.13707865E-01 0.29540183E+03</pdfrwt>
<pdfrwt beam="2">  1       -1 0.37667763E-01 0.29540183E+03</pdfrwt>
<totfact> 0.28813624E+03</totfact>
</mgrwt>
</event>
<event>
 4    1  0.1774755E-004  0.2670144E+03  0.7818608E-02  0.1103001E+00
         -2   -1    0    0    0  501 -0.00000000000E+00  0.00000000000E+00  0.31210306318E+02  0.31210306318E+02  0.00000000000E+00 0.  1.
          2   -1    0    0  501    0  0.00000000000E+00 -0.00000000000E+00 -0.57109894380E+03  0.57109894380E+03  0.00000000000E+00 0.  1.
         25    1    1    2    0    0 -0.41949048171E+02  0.17439800251E+02 -0.18674825427E+03  0.22658062527E+03  0.12000000000E+03 0.  0.
         25    1    1    2    0    0  0.41949048171E+02 -0.17439800251E+02 -0.35314038321E+03  0.37572862485E+03  0.12000000000E+03 0.  0.
<mgrwt>
<rscale>  0 0.26701440E+03</rscale>
<asrwt>0</asrwt>
<pdfrwt beam="1">  1        2 0.87861375E-01 0.26701440E+03</pdfrwt>
<pdfrwt beam="2">  1       -2 0.48015856E-02 0.26701440E+03</pdfrwt>
<totfact> 0.11058786E+04</totfact>
</mgrwt>
</event>
<event>
 4    1  0.1774755E-004  0.2616123E+03  0.7818608E-02  0.1106178E+00
          1   -1    0    0  501    0  0.00000000000E+00  0.00000000000E+00  0.68877862783E+03  0.68877862783E+03  0.00000000000E+00 0.  1.
         -1   -1    0    0    0  501 -0.00000000000E+00 -0.00000000000E+00 -0.24841429304E+02  0.24841429304E+02  0.00000000000E+00 0.  1.
         25    1    1    2    0    0 -0.34625286928E+02  0.29535184260E+02  0.40092301347E+03  0.42096377556E+03  0.12000000000E+03 0.  0.
         25    1    1    2    0    0  0.34625286928E+02 -0.29535184260E+02  0.26301418505E+03  0.29265628157E+03  0.12000000000E+03 0.  0.
<mgrwt>
<rscale>  0 0.26161227E+03</rscale>
<asrwt>0</asrwt>
<pdfrwt beam="1">  1        1 0.10596593E+00 0.26161227E+03</pdfrwt>
<pdfrwt beam="2">  1       -1 0.38217589E-02 0.26161227E+03</pdfrwt>
<totfact> 0.75606008E+03</totfact>
</mgrwt>
</event>
<event>
 4    1  0.1774755E-004  0.3587426E+03  0.7818608E-02  0.1059083E+00
          1   -1    0    0  501    0  0.00000000000E+00  0.00000000000E+00  0.12674426177E+03  0.12674426177E+03  0.00000000000E+00 0. -1.
         -1   -1    0    0    0  501 -0.00000000000E+00 -0.00000000000E+00 -0.25385030049E+03  0.25385030049E+03  0.00000000000E+00 0. -1.
         25    1    1    2    0    0  0.29611575562E+01  0.88000172018E+02  0.42651005444E+02  0.15482863751E+03  0.12000000000E+03 0.  0.
         25    1    1    2    0    0 -0.29611575562E+01 -0.88000172018E+02 -0.16975704417E+03  0.22576592474E+03  0.12000000000E+03 0.  0.
<mgrwt>
<rscale>  0 0.35874263E+03</rscale>
<asrwt>0</asrwt>
<pdfrwt beam="1">  1        1 0.19499117E-01 0.35874263E+03</pdfrwt>
<pdfrwt beam="2">  1       -1 0.39053892E-01 0.35874263E+03</pdfrwt>
<totfact> 0.17074955E+03</totfact>
</mgrwt>
</event>
<event>
 4    1  0.1774755E-004  0.2563322E+03  0.7818608E-02  0.1109367E+00
          1   -1    0    0  501    0  0.00000000000E+00  0.00000000000E+00  0.13357372013E+03  0.13357372013E+03  0.00000000000E+00 0. -1.
         -1   -1    0    0    0  501 -0.00000000000E+00 -0.00000000000E+00 -0.12297740705E+03  0.12297740705E+03  0.00000000000E+00 0. -1.
         25    1    1    2    0    0  0.23459665672E+02 -0.38413125218E+02  0.60898112822E+01  0.12830826125E+03  0.12000000000E+03 0.  0.
         25    1    1    2    0    0 -0.23459665672E+02  0.38413125218E+02  0.45065017973E+01  0.12824286593E+03  0.12000000000E+03 0.  0.
<mgrwt>
<rscale>  0 0.25633220E+03</rscale>
<asrwt>0</asrwt>
<pdfrwt beam="1">  1        1 0.20549803E-01 0.25633220E+03</pdfrwt>
<pdfrwt beam="2">  1       -1 0.18919601E-01 0.25633220E+03</pdfrwt>
<totfact> 0.53845630E+03</totfact>
</mgrwt>
</event>
<event>
 4    1  0.1774755E-004  0.4233751E+03  0.7818608E-02  0.1035973E+00
          2   -1    0    0  501    0  0.00000000000E+00  0.00000000000E+00  0.23307300656E+03  0.23307300656E+03  0.00000000000E+00 0. -1.
         -2   -1    0    0    0  501 -0.00000000000E+00 -0.00000000000E+00 -0.19226431650E+03  0.19226431650E+03  0.00000000000E+00 0. -1.
         25    1    1    2    0    0 -0.14027300272E+03 -0.10350923292E+03  0.25002204710E+02  0.21310979994E+03  0.12000000000E+03 0.  0.
         25    1    1    2    0    0  0.14027300272E+03  0.10350923292E+03  0.15806485349E+02  0.21222752312E+03  0.12000000000E+03 0.  0.
<mgrwt>
<rscale>  0 0.42337512E+03</rscale>
<asrwt>0</asrwt>
<pdfrwt beam="1">  1        2 0.35857386E-01 0.42337512E+03</pdfrwt>
<pdfrwt beam="2">  1       -2 0.29579126E-01 0.42337512E+03</pdfrwt>
<totfact> 0.15224923E+03</totfact>
</mgrwt>
</event>
<event>
 4    1  0.1774755E-004  0.2725668E+03  0.7818608E-02  0.1099819E+00
         -2   -1    0    0    0  501 -0.00000000000E+00  0.00000000000E+00  0.51889131725E+02  0.51889131725E+02  0.00000000000E+00 0.  1.
          2   -1    0    0  501    0  0.00000000000E+00 -0.00000000000E+00 -0.35793936894E+03  0.35793936894E+03  0.00000000000E+00 0.  1.
         25    1    1    2    0    0  0.95300526328E+01 -0.61522601059E+02 -0.12709917870E+03  0.18555337122E+03  0.12000000000E+03 0.  0.
         25    1    1    2    0    0 -0.95300526328E+01  0.61522601059E+02 -0.17895105851E+03  0.22427512944E+03  0.12000000000E+03 0.  0.
<mgrwt>
<rscale>  0 0.27256678E+03</rscale>
<asrwt>0</asrwt>
<pdfrwt beam="1">  1        2 0.55067594E-01 0.27256678E+03</pdfrwt>
<pdfrwt beam="2">  1       -2 0.79829435E-02 0.27256678E+03</pdfrwt>
<totfact> 0.84902984E+03</totfact>
</mgrwt>
</event>
<event>
 4    1  0.1774755E-004  0.2714938E+03  0.7818608E-02  0.1100428E+00
          2   -1    0    0  501    0  0.00000000000E+00  0.00000000000E+00  0.47934163403E+02  0.47934163403E+02  0.00000000000E+00 0.  1.
         -2   -1    0    0    0  501 -0.00000000000E+00 -0.00000000000E+00 -0.38442765457E+03  0.38442765457E+03  0.00000000000E+00 0.  1.
         25    1    1    2    0    0  0.60846947673E+02  0.18009682215E+02 -0.16710021685E+03  0.21528860203E+03  0.12000000000E+03 0.  0.
         25    1    1    2    0    0 -0.60846947673E+02 -0.18009682215E+02 -0.16939327432E+03  0.21707321594E+03  0.12000000000E+03 0.  0.
<mgrwt>
<rscale>  0 0.27149378E+03</rscale>
<asrwt>0</asrwt>
<pdfrwt beam="1">  1        2 0.73744867E-02 0.27149378E+03</pdfrwt>
<pdfrwt beam="2">  1       -2 0.59142716E-01 0.27149378E+03</pdfrwt>
<totfact> 0.25639016E+03</totfact>
</mgrwt>
</event>
<event>
 4    1  0.1774755E-004  0.2740219E+03  0.7818608E-02  0.1099000E+00
         -4   -1    0    0    0  501 -0.00000000000E+00  0.00000000000E+00  0.42976608991E+03  0.42976608991E+03  0.00000000000E+00 0. -1.
          4   -1    0    0  501    0  0.00000000000E+00 -0.00000000000E+00 -0.43679591487E+02  0.43679591487E+02  0.00000000000E+00 0. -1.
         25    1    1    2    0    0 -0.58775353279E+02 -0.98401460625E+01  0.24253812655E+03  0.27708502929E+03  0.12000000000E+03 0.  0.
         25    1    1    2    0    0  0.58775353279E+02  0.98401460625E+01  0.14354837187E+03  0.19636065210E+03  0.12000000000E+03 0.  0.
<mgrwt>
<rscale>  0 0.27402195E+03</rscale>
<asrwt>0</asrwt>
<pdfrwt beam="1">  1        4 0.67199374E-02 0.27402195E+03</pdfrwt>
<pdfrwt beam="2">  1       -4 0.66117857E-01 0.27402195E+03</pdfrwt>
<totfact> 0.59536395E+02</totfact>
</mgrwt>
</event>
<event>
 4    1  0.1774755E-004  0.3664921E+03  0.7818608E-02  0.1056042E+00
         -1   -1    0    0    0  501 -0.00000000000E+00  0.00000000000E+00  0.11044759776E+03  0.11044759776E+03  0.00000000000E+00 0. -1.
          1   -1    0    0  501    0  0.00000000000E+00 -0.00000000000E+00 -0.30402757574E+03  0.30402757574E+03  0.00000000000E+00 0. -1.
         25    1    1    2    0    0 -0.11912186578E+03  0.30506399715E+02 -0.24743250524E+02  0.17358827085E+03  0.12000000000E+03 0.  0.
         25    1    1    2    0    0  0.11912186578E+03 -0.30506399715E+02 -0.16883672746E+03  0.24088690265E+03  0.12000000000E+03 0.  0.
<mgrwt>
<rscale>  0 0.36649210E+03</rscale>
<asrwt>0</asrwt>
<pdfrwt beam="1">  1        1 0.46773473E-01 0.36649210E+03</pdfrwt>
<pdfrwt beam="2">  1       -1 0.16991938E-01 0.36649210E+03</pdfrwt>
<totfact> 0.22741796E+03</totfact>
</mgrwt>
</event>
<event>
 4    1  0.1774755E-004  0.2881183E+03  0.7818608E-02  0.1091336E+00
         -4   -1    0    0    0  501 -0.00000000000E+00  0.00000000000E+00  0.31655819729E+03  0.31655819729E+03  0.00000000000E+00 0. -1.
          4   -1    0    0  501    0  0.00000000000E+00 -0.00000000000E+00 -0.65558349561E+02  0.65558349561E+02  0.00000000000E+00 0. -1.
         25    1    1    2    0    0 -0.75947447304E+02 -0.17381691971E+02  0.14780674509E+03  0.20571089388E+03  0.12000000000E+03 0.  0.
         25    1    1    2    0    0  0.75947447304E+02  0.17381691971E+02  0.10319310264E+03  0.17640565297E+03  0.12000000000E+03 0.  0.
<mgrwt>
<rscale>  0 0.28811826E+03</rscale>
<asrwt>0</asrwt>
<pdfrwt beam="1">  1        4 0.10085900E-01 0.28811826E+03</pdfrwt>
<pdfrwt beam="2">  1       -4 0.48701260E-01 0.28811826E+03</pdfrwt>
<totfact> 0.57715522E+02</totfact>
</mgrwt>
</event>
<event>
 4    1  0.1774755E-004  0.2599560E+03  0.7818608E-02  0.1107170E+00
         -2   -1    0    0    0  501 -0.00000000000E+00  0.00000000000E+00  0.23522854107E+03  0.23522854107E+03  0.00000000000E+00 0.  1.
          2   -1    0    0  501    0  0.00000000000E+00 -0.00000000000E+00 -0.71820700356E+02  0.71820700356E+02  0.00000000000E+00 0.  1.
         25    1    1    2    0    0  0.24927981064E+02 -0.31204408649E+01  0.30720305693E+02  0.12639176624E+03  0.12000000000E+03 0.  0.
         25    1    1    2    0    0 -0.24927981064E+02  0.31204408649E+01  0.13268753502E+03  0.18065747519E+03  0.12000000000E+03 0.  0.
<mgrwt>
<rscale>  0 0.25995599E+03</rscale>
<asrwt>0</asrwt>
<pdfrwt beam="1">  1        2 0.11049339E-01 0.25995599E+03</pdfrwt>
<pdfrwt beam="2">  1       -2 0.36189006E-01 0.25995599E+03</pdfrwt>
<totfact> 0.40475470E+03</totfact>
</mgrwt>
</event>
<event>
 4    1  0.1774755E-004  0.2761247E+03  0.7818608E-02  0.1097825E+00
         -2   -1    0    0    0  501 -0.00000000000E+00  0.00000000000E+00  0.24096072608E+02  0.24096072608E+02  0.00000000000E+00 0.  1.
          2   -1    0    0  501    0  0.00000000000E+00 -0.00000000000E+00 -0.79105036489E+03  0.79105036489E+03  0.00000000000E+00 0.  1.
         25    1    1    2    0    0 -0.37441232532E+02  0.48260750196E+02 -0.47351660508E+03  0.49228946890E+03  0.12000000000E+03 0.  0.
         25    1    1    2    0    0  0.37441232532E+02 -0.48260750196E+02 -0.29343768721E+03  0.32285696861E+03  0.12000000000E+03 0.  0.
<mgrwt>
<rscale>  0 0.27612466E+03</rscale>
<asrwt>0</asrwt>
<pdfrwt beam="1">  1        2 0.12170004E+00 0.27612466E+03</pdfrwt>
<pdfrwt beam="2">  1       -2 0.37070885E-02 0.27612466E+03</pdfrwt>
<totfact> 0.11058759E+04</totfact>
</mgrwt>
</event>
<event>
 4    1  0.1774755E-004  0.2950846E+03  0.7818608E-02  0.1087724E+00
         -2   -1    0    0    0  501 -0.00000000000E+00  0.00000000000E+00  0.59130936718E+01  0.59130936718E+01  0.00000000000E+00 0. -1.
          2   -1    0    0  501    0  0.00000000000E+00 -0.00000000000E+00 -0.36814457265E+04  0.36814457265E+04  0.00000000000E+00 0. -1.
         25    1    1    2    0    0 -0.82315984383E+02  0.23942914864E+02 -0.18930161254E+04  0.18987520206E+04  0.12000000000E+03 0.  0.
         25    1    1    2    0    0  0.82315984383E+02 -0.23942914864E+02 -0.17825165074E+04  0.17886067996E+04  0.12000000000E+03 0.  0.
<mgrwt>
<rscale>  0 0.29508462E+03</rscale>
<asrwt>0</asrwt>
<pdfrwt beam="1">  1        2 0.56637819E+00 0.29508462E+03</pdfrwt>
<pdfrwt beam="2">  1       -2 0.90970363E-03 0.29508462E+03</pdfrwt>
<totfact> 0.18621542E+03</totfact>
</mgrwt>
</event>
<event>
 4    1  0.1774755E-004  0.3354121E+03  0.7818608E-02  0.1068767E+00
         -2   -1    0    0    0  501 -0.00000000000E+00  0.00000000000E+00  0.37791881673E+02  0.37791881673E+02  0.00000000000E+00 0.  1.
          2   -1    0    0  501    0  0.00000000000E+00 -0.00000000000E+00 -0.74421582494E+03  0.74421582494E+03  0.00000000000E+00 0.  1.
         25    1    1    2    0    0 -0.97632208065E+01  0.99944892841E+02 -0.21252835583E+03  0.26391779803E+03  0.12000000000E+03 0.  0.
         25    1    1    2    0    0  0.97632208065E+01 -0.99944892841E+02 -0.49389558743E+03  0.51808990858E+03  0.12000000000E+03 0.  0.
<mgrwt>
<rscale>  0 0.33541208E+03</rscale>
<asrwt>0</asrwt>
<pdfrwt beam="1">  1        2 0.11449474E+00 0.33541208E+03</pdfrwt>
<pdfrwt beam="2">  1       -2 0.58141356E-02 0.33541208E+03</pdfrwt>
<totfact> 0.60605533E+03</totfact>
</mgrwt>
</event>
<event>
 4    1  0.1774755E-004  0.2760839E+03  0.7818608E-02  0.1097847E+00
          1   -1    0    0  501    0  0.00000000000E+00  0.00000000000E+00  0.23883924750E+03  0.23883924750E+03  0.00000000000E+00 0.  1.
         -1   -1    0    0    0  501 -0.00000000000E+00 -0.00000000000E+00 -0.79784143777E+02  0.79784143777E+02  0.00000000000E+00 0.  1.
         25    1    1    2    0    0  0.50180661082E+02  0.45309714726E+02  0.68917789808E+02  0.15401535880E+03  0.12000000000E+03 0.  0.
         25    1    1    2    0    0 -0.50180661082E+02 -0.45309714726E+02  0.90137313917E+02  0.16460803248E+03  0.12000000000E+03 0.  0.
<mgrwt>
<rscale>  0 0.27608394E+03</rscale>
<asrwt>0</asrwt>
<pdfrwt beam="1">  1        1 0.36744499E-01 0.27608394E+03</pdfrwt>
<pdfrwt beam="2">  1       -1 0.12274484E-01 0.27608394E+03</pdfrwt>
<totfact> 0.51390375E+03</totfact>
</mgrwt>
</event>
<event>
 4    1  0.1774755E-004  0.2520632E+03  0.7818608E-02  0.1112008E+00
          1   -1    0    0  501    0  0.00000000000E+00  0.00000000000E+00  0.55448207978E+03  0.55448207978E+03  0.00000000000E+00 0.  1.
         -1   -1    0    0    0  501 -0.00000000000E+00 -0.00000000000E+00 -0.28646498648E+02  0.28646498648E+02  0.00000000000E+00 0.  1.
         25    1    1    2    0    0 -0.26460764971E+01 -0.38426843924E+02  0.26427877100E+03  0.29279155188E+03  0.12000000000E+03 0.  0.
         25    1    1    2    0    0  0.26460764971E+01  0.38426843924E+02  0.26155681013E+03  0.29033702654E+03  0.12000000000E+03 0.  0.
<mgrwt>
<rscale>  0 0.25206325E+03</rscale>
<asrwt>0</asrwt>
<pdfrwt beam="1">  1        1 0.85304928E-01 0.25206325E+03</pdfrwt>
<pdfrwt beam="2">  1       -1 0.44071540E-02 0.25206325E+03</pdfrwt>
<totfact> 0.82764505E+03</totfact>
</mgrwt>
</event>
<event>
 4    1  0.1774755E-004  0.2775415E+03  0.7818608E-02  0.1097039E+00
         -2   -1    0    0    0  501 -0.00000000000E+00  0.00000000000E+00  0.31078256200E+02  0.31078256200E+02  0.00000000000E+00 0.  1.
          2   -1    0    0  501    0  0.00000000000E+00 -0.00000000000E+00 -0.61963963769E+03  0.61963963769E+03  0.00000000000E+00 0.  1.
         25    1    1    2    0    0 -0.34696868280E+02 -0.14780322834E+02 -0.15686779253E+03  0.20107171593E+03  0.12000000000E+03 0.  0.
         25    1    1    2    0    0  0.34696868280E+02  0.14780322834E+02 -0.43169358895E+03  0.44964617796E+03  0.12000000000E+03 0.  0.
<mgrwt>
<rscale>  0 0.27754149E+03</rscale>
<asrwt>0</asrwt>
<pdfrwt beam="1">  1        2 0.95329181E-01 0.27754149E+03</pdfrwt>
<pdfrwt beam="2">  1       -2 0.47812699E-02 0.27754149E+03</pdfrwt>
<totfact> 0.10141276E+04</totfact>
</mgrwt>
</event>
<event>
 4    1  0.1774755E-004  0.2550618E+03  0.7818608E-02  0.1110147E+00
         -1   -1    0    0    0  501 -0.00000000000E+00  0.00000000000E+00  0.81170635676E+01  0.81170635676E+01  0.00000000000E+00 0. -1.
          1   -1    0    0  501    0  0.00000000000E+00 -0.00000000000E+00 -0.20036959399E+04  0.20036959399E+04  0.00000000000E+00 0. -1.
         25    1    1    2    0    0  0.12150313252E+02 -0.83323393010E+01 -0.13178986499E+04  0.13234326237E+04  0.12000000000E+03 0.  0.
         25    1    1    2    0    0 -0.12150313252E+02  0.83323393010E+01 -0.67768022642E+03  0.68838037978E+03  0.12000000000E+03 0.  0.
<mgrwt>
<rscale>  0 0.25506178E+03</rscale>
<asrwt>0</asrwt>
<pdfrwt beam="1">  1        1 0.30826067E+00 0.25506178E+03</pdfrwt>
<pdfrwt beam="2">  1       -1 0.12487800E-02 0.25506178E+03</pdfrwt>
<totfact> 0.45704013E+03</totfact>
</mgrwt>
</event>
<event>
 4    1  0.1774755E-004  0.2449477E+03  0.7818608E-02  0.1116540E+00
          1   -1    0    0  501    0  0.00000000000E+00  0.00000000000E+00  0.83791007716E+03  0.83791007716E+03  0.00000000000E+00 0.  1.
         -1   -1    0    0    0  501 -0.00000000000E+00 -0.00000000000E+00 -0.17901489331E+02  0.17901489331E+02  0.00000000000E+00 0.  1.
         25    1    1    2    0    0 -0.14035778561E+02 -0.15483096521E+02  0.45462575251E+03  0.47066049781E+03  0.12000000000E+03 0.  0.
         25    1    1    2    0    0  0.14035778561E+02  0.15483096521E+02  0.36538283532E+03  0.38515106868E+03  0.12000000000E+03 0.  0.
<mgrwt>
<rscale>  0 0.24494765E+03</rscale>
<asrwt>0</asrwt>
<pdfrwt beam="1">  1        1 0.12890921E+00 0.24494765E+03</pdfrwt>
<pdfrwt beam="2">  1       -1 0.27540759E-02 0.24494765E+03</pdfrwt>
<totfact> 0.91113621E+03</totfact>
</mgrwt>
</event>
<event>
 4    1  0.1774755E-004  0.3459936E+03  0.7818608E-02  0.1064272E+00
          2   -1    0    0  501    0  0.00000000000E+00  0.00000000000E+00  0.17341359475E+04  0.17341359475E+04  0.00000000000E+00 0. -1.
         -2   -1    0    0    0  501 -0.00000000000E+00 -0.00000000000E+00 -0.17258099472E+02  0.17258099472E+02  0.00000000000E+00 0. -1.
         25    1    1    2    0    0  0.10719634662E+03  0.41059718988E+02  0.11038736357E+04  0.11162947464E+04  0.12000000000E+03 0.  0.
         25    1    1    2    0    0 -0.10719634662E+03 -0.41059718988E+02  0.61300421231E+03  0.63509930055E+03  0.12000000000E+03 0.  0.
<mgrwt>
<rscale>  0 0.34599359E+03</rscale>
<asrwt>0</asrwt>
<pdfrwt beam="1">  1        2 0.26679001E+00 0.34599359E+03</pdfrwt>
<pdfrwt beam="2">  1       -2 0.26550936E-02 0.34599359E+03</pdfrwt>
<totfact> 0.52138936E+03</totfact>
</mgrwt>
</event>
<event>
 4    1  0.1774755E-004  0.3051848E+03  0.7818608E-02  0.1082677E+00
         -2   -1    0    0    0  501 -0.00000000000E+00  0.00000000000E+00  0.12426045087E+03  0.12426045087E+03  0.00000000000E+00 0.  1.
          2   -1    0    0  501    0  0.00000000000E+00 -0.00000000000E+00 -0.18738421161E+03  0.18738421161E+03  0.00000000000E+00 0.  1.
         25    1    1    2    0    0 -0.19968495702E+02 -0.75231561533E+02 -0.85846463976E+02  0.16681769705E+03  0.12000000000E+03 0.  0.
         25    1    1    2    0    0  0.19968495702E+02  0.75231561533E+02  0.22722703237E+02  0.14482696542E+03  0.12000000000E+03 0.  0.
<mgrwt>
<rscale>  0 0.30518484E+03</rscale>
<asrwt>0</asrwt>
<pdfrwt beam="1">  1        2 0.28828340E-01 0.30518484E+03</pdfrwt>
<pdfrwt beam="2">  1       -2 0.19116992E-01 0.30518484E+03</pdfrwt>
<totfact> 0.41585110E+03</totfact>
</mgrwt>
</event>
<event>
 4    1  0.1774755E-004  0.2527563E+03  0.7818608E-02  0.1111575E+00
         -2   -1    0    0    0  501 -0.00000000000E+00  0.00000000000E+00  0.50502608387E+02  0.50502608387E+02  0.00000000000E+00 0.  1.
          2   -1    0    0  501    0  0.00000000000E+00 -0.00000000000E+00 -0.31624969272E+03  0.31624969272E+03  0.00000000000E+00 0.  1.
         25    1    1    2    0    0  0.25205668282E+02  0.11207562155E+02 -0.17418278092E+03  0.21330864102E+03  0.12000000000E+03 0.  0.
         25    1    1    2    0    0 -0.25205668282E+02 -0.11207562155E+02 -0.91564303414E+02  0.15344366009E+03  0.12000000000E+03 0.  0.
<mgrwt>
<rscale>  0 0.25275628E+03</rscale>
<asrwt>0</asrwt>
<pdfrwt beam="1">  1        2 0.48653799E-01 0.25275628E+03</pdfrwt>
<pdfrwt beam="2">  1       -2 0.77696320E-02 0.25275628E+03</pdfrwt>
<totfact> 0.10087311E+04</totfact>
</mgrwt>
</event>
<event>
 4    1  0.1774755E-004  0.3071304E+03  0.7818608E-02  0.1081730E+00
          1   -1    0    0  501    0  0.00000000000E+00  0.00000000000E+00  0.73220153101E+03  0.73220153101E+03  0.00000000000E+00 0. -1.
         -1   -1    0    0    0  501 -0.00000000000E+00 -0.00000000000E+00 -0.32207339445E+02  0.32207339445E+02  0.00000000000E+00 0. -1.
         25    1    1    2    0    0 -0.18512048314E+01  0.15198043607E+02  0.58542745662E+03  0.59779571298E+03  0.12000000000E+03 0.  0.
         25    1    1    2    0    0  0.18512048314E+01 -0.15198043607E+02  0.11456673495E+03  0.16661315748E+03  0.12000000000E+03 0.  0.
<mgrwt>
<rscale>  0 0.30713035E+03</rscale>
<asrwt>0</asrwt>
<pdfrwt beam="1">  1        1 0.11264638E+00 0.30713035E+03</pdfrwt>
<pdfrwt beam="2">  1       -1 0.49549758E-02 0.30713035E+03</pdfrwt>
<totfact> 0.47088301E+03</totfact>
</mgrwt>
</event>
<event>
 4    1  0.1774755E-004  0.3009520E+03  0.7818608E-02  0.1084766E+00
         -2   -1    0    0    0  501 -0.00000000000E+00  0.00000000000E+00  0.40861115790E+02  0.40861115790E+02  0.00000000000E+00 0. -1.
          2   -1    0    0  501    0  0.00000000000E+00 -0.00000000000E+00 -0.55414607820E+03  0.55414607820E+03  0.00000000000E+00 0. -1.
         25    1    1    2    0    0 -0.90321646784E+02  0.56164799924E+01 -0.24218375010E+03  0.28503072385E+03  0.12000000000E+03 0.  0.
         25    1    1    2    0    0  0.90321646784E+02 -0.56164799924E+01 -0.27110121231E+03  0.30997647014E+03  0.12000000000E+03 0.  0.
<mgrwt>
<rscale>  0 0.30095200E+03</rscale>
<asrwt>0</asrwt>
<pdfrwt beam="1">  1        2 0.85253244E-01 0.30095200E+03</pdfrwt>
<pdfrwt beam="2">  1       -2 0.62863254E-02 0.30095200E+03</pdfrwt>
<totfact> 0.76151528E+03</totfact>
</mgrwt>
</event>
<event>
 4    1  0.1774755E-004  0.2514948E+03  0.7818608E-02  0.1112364E+00
         -1   -1    0    0    0  501 -0.00000000000E+00  0.00000000000E+00  0.25386854943E+02  0.25386854943E+02  0.00000000000E+00 0.  1.
          1   -1    0    0  501    0  0.00000000000E+00 -0.00000000000E+00 -0.62285786833E+03  0.62285786833E+03  0.00000000000E+00 0.  1.
         25    1    1    2    0    0  0.12428766342E+02  0.34985594718E+02 -0.28371992360E+03  0.31028287274E+03  0.12000000000E+03 0.  0.
         25    1    1    2    0    0 -0.12428766342E+02 -0.34985594718E+02 -0.31375108979E+03  0.33796185053E+03  0.12000000000E+03 0.  0.
<mgrwt>
<rscale>  0 0.25149475E+03</rscale>
<asrwt>0</asrwt>
<pdfrwt beam="1">  1        1 0.95824277E-01 0.25149475E+03</pdfrwt>
<pdfrwt beam="2">  1       -1 0.39056704E-02 0.25149475E+03</pdfrwt>
<totfact> 0.84372233E+03</totfact>
</mgrwt>
</event>
<event>
 4    1  0.1774755E-004  0.2780815E+03  0.7818608E-02  0.1096741E+00
         -2   -1    0    0    0  501 -0.00000000000E+00  0.00000000000E+00  0.92983396186E+02  0.92983396186E+02  0.00000000000E+00 0. -1.
          2   -1    0    0  501    0  0.00000000000E+00 -0.00000000000E+00 -0.20791170676E+03  0.20791170676E+03  0.00000000000E+00 0. -1.
         25    1    1    2    0    0  0.31225913179E+02 -0.62621043495E+02 -0.50982401617E+02  0.14797181494E+03  0.12000000000E+03 0.  0.
         25    1    1    2    0    0 -0.31225913179E+02  0.62621043495E+02 -0.63945908958E+02  0.15292328801E+03  0.12000000000E+03 0.  0.
<mgrwt>
<rscale>  0 0.27808155E+03</rscale>
<asrwt>0</asrwt>
<pdfrwt beam="1">  1        2 0.31986416E-01 0.27808155E+03</pdfrwt>
<pdfrwt beam="2">  1       -2 0.14305138E-01 0.27808155E+03</pdfrwt>
<totfact> 0.60089659E+03</totfact>
</mgrwt>
</event>
<event>
 4    1  0.1774755E-004  0.2635224E+03  0.7818608E-02  0.1105045E+00
         -2   -1    0    0    0  501 -0.00000000000E+00  0.00000000000E+00  0.59676575773E+02  0.59676575773E+02  0.00000000000E+00 0. -1.
          2   -1    0    0  501    0  0.00000000000E+00 -0.00000000000E+00 -0.29091847229E+03  0.29091847229E+03  0.00000000000E+00 0. -1.
         25    1    1    2    0    0 -0.45963136933E+02 -0.11721511400E+02 -0.80145539803E+02  0.15189901690E+03  0.12000000000E+03 0.  0.
         25    1    1    2    0    0  0.45963136933E+02  0.11721511400E+02 -0.15109635672E+03  0.19869603116E+03  0.12000000000E+03 0.  0.
<mgrwt>
<rscale>  0 0.26352243E+03</rscale>
<asrwt>0</asrwt>
<pdfrwt beam="1">  1        2 0.44756689E-01 0.26352243E+03</pdfrwt>
<pdfrwt beam="2">  1       -2 0.91810115E-02 0.26352243E+03</pdfrwt>
<totfact> 0.85100600E+03</totfact>
</mgrwt>
</event>
<event>
 4    1  0.1774755E-004  0.4112051E+03  0.7818608E-02  0.1039967E+00
          2   -1    0    0  501    0  0.00000000000E+00  0.00000000000E+00  0.24554463907E+03  0.24554463907E+03  0.00000000000E+00 0.  1.
         -2   -1    0    0    0  501 -0.00000000000E+00 -0.00000000000E+00 -0.17215769946E+03  0.17215769946E+03  0.00000000000E+00 0.  1.
         25    1    1    2    0    0  0.98305875936E+02  0.99901307323E+02  0.12883550671E+03  0.22503978368E+03  0.12000000000E+03 0.  0.
         25    1    1    2    0    0 -0.98305875936E+02 -0.99901307323E+02 -0.55448567095E+02  0.19266255485E+03  0.12000000000E+03 0.  0.
<mgrwt>
<rscale>  0 0.41120506E+03</rscale>
<asrwt>0</asrwt>
<pdfrwt beam="1">  1        2 0.37776098E-01 0.41120506E+03</pdfrwt>
<pdfrwt beam="2">  1       -2 0.26485800E-01 0.41120506E+03</pdfrwt>
<totfact> 0.17562158E+03</totfact>
</mgrwt>
</event>
<event>
 4    1  0.1774755E-004  0.2682610E+03  0.7818608E-02  0.1102279E+00
          2   -1    0    0  501    0  0.00000000000E+00  0.00000000000E+00  0.38235457728E+04  0.38235457728E+04  0.00000000000E+00 0.  1.
         -2   -1    0    0    0  501 -0.00000000000E+00 -0.00000000000E+00 -0.47053176913E+01  0.47053176913E+01  0.00000000000E+00 0.  1.
         25    1    1    2    0    0  0.58941825915E+02 -0.10098311087E+02  0.19644738242E+04  0.19690438088E+04  0.12000000000E+03 0.  0.
         25    1    1    2    0    0 -0.58941825915E+02  0.10098311087E+02  0.18543666309E+04  0.18592072818E+04  0.12000000000E+03 0.  0.
<mgrwt>
<rscale>  0 0.26826105E+03</rscale>
<asrwt>0</asrwt>
<pdfrwt beam="1">  1        2 0.58823533E+00 0.26826105E+03</pdfrwt>
<pdfrwt beam="2">  1       -2 0.72389809E-03 0.26826105E+03</pdfrwt>
<totfact> 0.20648227E+03</totfact>
</mgrwt>
</event>
<event>
 4    1  0.1774755E-004  0.2508522E+03  0.7818608E-02  0.1112767E+00
         -2   -1    0    0    0  501 -0.00000000000E+00  0.00000000000E+00  0.83222641032E+02  0.83222641032E+02  0.00000000000E+00 0.  1.
          2   -1    0    0  501    0  0.00000000000E+00 -0.00000000000E+00 -0.18903151188E+03  0.18903151188E+03  0.00000000000E+00 0.  1.
         25    1    1    2    0    0  0.35023262632E+02  0.88830781365E+01 -0.58455878216E+02  0.13828458953E+03  0.12000000000E+03 0.  0.
         25    1    1    2    0    0 -0.35023262632E+02 -0.88830781365E+01 -0.47352992635E+02  0.13396956339E+03  0.12000000000E+03 0.  0.
<mgrwt>
<rscale>  0 0.25085216E+03</rscale>
<asrwt>0</asrwt>
<pdfrwt beam="1">  1        2 0.29081771E-01 0.25085216E+03</pdfrwt>
<pdfrwt beam="2">  1       -2 0.12803483E-01 0.25085216E+03</pdfrwt>
<totfact> 0.79608760E+03</totfact>
</mgrwt>
</event>
<event>
 4    1  0.1774755E-004  0.3879368E+03  0.7818608E-02  0.1048039E+00
         -1   -1    0    0    0  501 -0.00000000000E+00  0.00000000000E+00  0.85757832157E+02  0.85757832157E+02  0.00000000000E+00 0. -1.
          1   -1    0    0  501    0  0.00000000000E+00 -0.00000000000E+00 -0.43872076024E+03  0.43872076024E+03  0.00000000000E+00 0. -1.
         25    1    1    2    0    0  0.13864733375E+02  0.14191635869E+03 -0.10378552074E+03  0.21331647384E+03  0.12000000000E+03 0.  0.
         25    1    1    2    0    0 -0.13864733375E+02 -0.14191635869E+03 -0.24917740734E+03  0.31116211856E+03  0.12000000000E+03 0.  0.
<mgrwt>
<rscale>  0 0.38793681E+03</rscale>
<asrwt>0</asrwt>
<pdfrwt beam="1">  1        1 0.67495502E-01 0.38793681E+03</pdfrwt>
<pdfrwt beam="2">  1       -1 0.13193513E-01 0.38793681E+03</pdfrwt>
<totfact> 0.21269046E+03</totfact>
</mgrwt>
</event>
<event>
 4    1  0.1774755E-004  0.3741235E+03  0.7818608E-02  0.1053127E+00
         -1   -1    0    0    0  501 -0.00000000000E+00  0.00000000000E+00  0.50861799141E+03  0.50861799141E+03  0.00000000000E+00 0. -1.
          1   -1    0    0  501    0  0.00000000000E+00 -0.00000000000E+00 -0.68798403301E+02  0.68798403301E+02  0.00000000000E+00 0. -1.
         25    1    1    2    0    0  0.45046526321E+02  0.72545334017E+02  0.39790216055E+03  0.42428545155E+03  0.12000000000E+03 0.  0.
         25    1    1    2    0    0 -0.45046526321E+02 -0.72545334017E+02  0.41917427555E+02  0.15313094316E+03  0.12000000000E+03 0.  0.
<mgrwt>
<rscale>  0 0.37412354E+03</rscale>
<asrwt>0</asrwt>
<pdfrwt beam="1">  1        1 0.10584370E-01 0.37412354E+03</pdfrwt>
<pdfrwt beam="2">  1       -1 0.78248920E-01 0.37412354E+03</pdfrwt>
<totfact> 0.10182273E+03</totfact>
</mgrwt>
</event>
<event>
 4    1  0.1774755E-004  0.2773988E+03  0.7818608E-02  0.1097118E+00
         -1   -1    0    0    0  501 -0.00000000000E+00  0.00000000000E+00  0.91608027760E+03  0.91608027760E+03  0.00000000000E+00 0.  1.
          1   -1    0    0  501    0  0.00000000000E+00 -0.00000000000E+00 -0.20999821669E+02  0.20999821669E+02  0.00000000000E+00 0.  1.
         25    1    1    2    0    0 -0.10871367101E+02 -0.65086664865E+02  0.37329414588E+03  0.39762165424E+03  0.12000000000E+03 0.  0.
         25    1    1    2    0    0  0.10871367101E+02  0.65086664865E+02  0.52178631005E+03  0.53945844504E+03  0.12000000000E+03 0.  0.
<mgrwt>
<rscale>  0 0.27739879E+03</rscale>
<asrwt>0</asrwt>
<pdfrwt beam="1">  1        1 0.32307425E-02 0.27739879E+03</pdfrwt>
<pdfrwt beam="2">  1       -1 0.14093540E+00 0.27739879E+03</pdfrwt>
<totfact> 0.13643443E+03</totfact>
</mgrwt>
</event>
<event>
 4    1  0.1774755E-004  0.2883970E+03  0.7818608E-02  0.1091189E+00
          2   -1    0    0  501    0  0.00000000000E+00  0.00000000000E+00  0.66955349915E+03  0.66955349915E+03  0.00000000000E+00 0.  1.
         -2   -1    0    0    0  501 -0.00000000000E+00 -0.00000000000E+00 -0.31055331757E+02  0.31055331757E+02  0.00000000000E+00 0.  1.
         25    1    1    2    0    0 -0.20852054048E+02  0.18810015984E+01  0.13178388759E+03  0.17945846136E+03  0.12000000000E+03 0.  0.
         25    1    1    2    0    0  0.20852054048E+02 -0.18810015984E+01  0.50671427980E+03  0.52115036955E+03  0.12000000000E+03 0.  0.
<mgrwt>
<rscale>  0 0.28839699E+03</rscale>
<asrwt>0</asrwt>
<pdfrwt beam="1">  1        2 0.10300822E+00 0.28839699E+03</pdfrwt>
<pdfrwt beam="2">  1       -2 0.47777439E-02 0.28839699E+03</pdfrwt>
<totfact> 0.92740728E+03</totfact>
</mgrwt>
</event>
<event>
 4    1  0.1774755E-004  0.3426952E+03  0.7818608E-02  0.1065654E+00
          1   -1    0    0  501    0  0.00000000000E+00  0.00000000000E+00  0.15089652406E+04  0.15089652406E+04  0.00000000000E+00 0. -1.
         -1   -1    0    0    0  501 -0.00000000000E+00 -0.00000000000E+00 -0.19457047223E+02  0.19457047223E+02  0.00000000000E+00 0. -1.
         25    1    1    2    0    0 -0.76533892957E+02  0.96731752461E+00  0.11702496255E+04  0.11788734276E+04  0.12000000000E+03 0.  0.
         25    1    1    2    0    0  0.76533892957E+02 -0.96731752461E+00  0.31925856788E+03  0.34954886016E+03  0.12000000000E+03 0.  0.
<mgrwt>
<rscale>  0 0.34269525E+03</rscale>
<asrwt>0</asrwt>
<pdfrwt beam="1">  1        1 0.23214841E+00 0.34269525E+03</pdfrwt>
<pdfrwt beam="2">  1       -1 0.29933931E-02 0.34269525E+03</pdfrwt>
<totfact> 0.26723587E+03</totfact>
</mgrwt>
</event>
<event>
 4    1  0.1774755E-004  0.5941880E+03  0.7818608E-02  0.9917538E-01
         -1   -1    0    0    0  501 -0.00000000000E+00  0.00000000000E+00  0.10861771991E+03  0.10861771991E+03  0.00000000000E+00 0. -1.
          1   -1    0    0  501    0  0.00000000000E+00 -0.00000000000E+00 -0.81261913207E+03  0.81261913207E+03  0.00000000000E+00 0. -1.
         25    1    1    2    0    0  0.21057957143E+03  0.21328057449E+02 -0.87673699078E+02  0.25862196242E+03  0.12000000000E+03 0.  0.
         25    1    1    2    0    0 -0.21057957143E+03 -0.21328057449E+02 -0.61632771308E+03  0.66261488955E+03  0.12000000000E+03 0.  0.
<mgrwt>
<rscale>  0 0.59418797E+03</rscale>
<asrwt>0</asrwt>
<pdfrwt beam="1">  1        1 0.12501832E+00 0.59418797E+03</pdfrwt>
<pdfrwt beam="2">  1       -1 0.16710419E-01 0.59418797E+03</pdfrwt>
<totfact> 0.60090721E+02</totfact>
</mgrwt>
</event>
<event>
 4    1  0.1774755E-004  0.2573816E+03  0.7818608E-02  0.1108727E+00
          2   -1    0    0  501    0  0.00000000000E+00  0.00000000000E+00  0.45382108046E+03  0.45382108046E+03  0.00000000000E+00 0.  1.
         -2   -1    0    0    0  501 -0.00000000000E+00 -0.00000000000E+00 -0.36493078176E+02  0.36493078176E+02  0.00000000000E+00 0.  1.
         25    1    1    2    0    0  0.35659271363E+02  0.22870660918E+02  0.24514266564E+03  0.27620567931E+03  0.12000000000E+03 0.  0.
         25    1    1    2    0    0 -0.35659271363E+02 -0.22870660918E+02  0.17218533664E+03  0.21410847933E+03  0.12000000000E+03 0.  0.
<mgrwt>
<rscale>  0 0.25738165E+03</rscale>
<asrwt>0</asrwt>
<pdfrwt beam="1">  1        2 0.69818624E-01 0.25738165E+03</pdfrwt>
<pdfrwt beam="2">  1       -2 0.56143200E-02 0.25738165E+03</pdfrwt>
<totfact> 0.11264185E+04</totfact>
</mgrwt>
</event>
<event>
 4    1  0.1774755E-004  0.2694002E+03  0.7818608E-02  0.1101623E+00
          2   -1    0    0  501    0  0.00000000000E+00  0.00000000000E+00  0.45049428605E+03  0.45049428605E+03  0.00000000000E+00 0.  1.
         -2   -1    0    0    0  501 -0.00000000000E+00 -0.00000000000E+00 -0.40276008108E+02  0.40276008108E+02  0.00000000000E+00 0.  1.
         25    1    1    2    0    0 -0.53448157943E+02 -0.21765087585E+02  0.16805674280E+03  0.21441430322E+03  0.12000000000E+03 0.  0.
         25    1    1    2    0    0  0.53448157943E+02  0.21765087585E+02  0.24216153514E+03  0.27635599094E+03  0.12000000000E+03 0.  0.
<mgrwt>
<rscale>  0 0.26940016E+03</rscale>
<asrwt>0</asrwt>
<pdfrwt beam="1">  1        2 0.69306810E-01 0.26940016E+03</pdfrwt>
<pdfrwt beam="2">  1       -2 0.61963093E-02 0.26940016E+03</pdfrwt>
<totfact> 0.97826295E+03</totfact>
</mgrwt>
</event>
<event>
 4    1  0.1774755E-004  0.2459824E+03  0.7818608E-02  0.1115870E+00
         -2   -1    0    0    0  501 -0.00000000000E+00  0.00000000000E+00  0.19038356842E+02  0.19038356842E+02  0.00000000000E+00 0. -1.
          2   -1    0    0  501    0  0.00000000000E+00 -0.00000000000E+00 -0.79454537262E+03  0.79454537262E+03  0.00000000000E+00 0. -1.
         25    1    1    2    0    0 -0.25066874876E+02 -0.61614514657E+01 -0.36202163322E+03  0.38226427327E+03  0.12000000000E+03 0.  0.
         25    1    1    2    0    0  0.25066874876E+02  0.61614514657E+01 -0.41348538256E+03  0.43131945619E+03  0.12000000000E+03 0.  0.
<mgrwt>
<rscale>  0 0.24598242E+03</rscale>
<asrwt>0</asrwt>
<pdfrwt beam="1">  1        2 0.12223773E+00 0.24598242E+03</pdfrwt>
<pdfrwt beam="2">  1       -2 0.29289785E-02 0.24598242E+03</pdfrwt>
<totfact> 0.15555777E+04</totfact>
</mgrwt>
</event>
<event>
 4    1  0.1774755E-004  0.3473715E+03  0.7818608E-02  0.1063699E+00
         -1   -1    0    0    0  501 -0.00000000000E+00  0.00000000000E+00  0.17931794093E+02  0.17931794093E+02  0.00000000000E+00 0.  1.
          1   -1    0    0  501    0  0.00000000000E+00 -0.00000000000E+00 -0.16823044812E+04  0.16823044812E+04  0.00000000000E+00 0.  1.
         25    1    1    2    0    0 -0.10346141828E+03 -0.51571249136E+02 -0.59225828612E+03  0.61525095391E+03  0.12000000000E+03 0.  0.
         25    1    1    2    0    0  0.10346141828E+03  0.51571249136E+02 -0.10721144009E+04  0.10849853213E+04  0.12000000000E+03 0.  0.
<mgrwt>
<rscale>  0 0.34737149E+03</rscale>
<asrwt>0</asrwt>
<pdfrwt beam="1">  1        1 0.25881614E+00 0.34737149E+03</pdfrwt>
<pdfrwt beam="2">  1       -1 0.27587369E-02 0.34737149E+03</pdfrwt>
<totfact> 0.23154992E+03</totfact>
</mgrwt>
</event>
<event>
 4    1  0.1774755E-004  0.2920060E+03  0.7818608E-02  0.1089306E+00
          1   -1    0    0  501    0  0.00000000000E+00  0.00000000000E+00  0.11956202021E+03  0.11956202021E+03  0.00000000000E+00 0. -1.
         -1   -1    0    0    0  501 -0.00000000000E+00 -0.00000000000E+00 -0.17829140836E+03  0.17829140836E+03  0.00000000000E+00 0. -1.
         25    1    1    2    0    0 -0.40737867033E+02  0.60397595328E+02  0.11556458232E+02  0.14085806707E+03  0.12000000000E+03 0.  0.
         25    1    1    2    0    0  0.40737867033E+02 -0.60397595328E+02 -0.70285846374E+02  0.15699536150E+03  0.12000000000E+03 0.  0.
<mgrwt>
<rscale>  0 0.29200603E+03</rscale>
<asrwt>0</asrwt>
<pdfrwt beam="1">  1        1 0.18394157E-01 0.29200603E+03</pdfrwt>
<pdfrwt beam="2">  1       -1 0.27429447E-01 0.29200603E+03</pdfrwt>
<totfact> 0.33823045E+03</totfact>
</mgrwt>
</event>
<event>
 4    1  0.1774755E-004  0.2819130E+03  0.7818608E-02  0.1094649E+00
         -4   -1    0    0    0  501 -0.00000000000E+00  0.00000000000E+00  0.79106271192E+03  0.79106271192E+03  0.00000000000E+00 0.  1.
          4   -1    0    0  501    0  0.00000000000E+00 -0.00000000000E+00 -0.25116509193E+02  0.25116509193E+02  0.00000000000E+00 0.  1.
         25    1    1    2    0    0  0.71203420130E+02 -0.52706126756E+01  0.43873961318E+03  0.46042388575E+03  0.12000000000E+03 0.  0.
         25    1    1    2    0    0 -0.71203420130E+02  0.52706126756E+01  0.32720658955E+03  0.35575533537E+03  0.12000000000E+03 0.  0.
<mgrwt>
<rscale>  0 0.28191299E+03</rscale>
<asrwt>0</asrwt>
<pdfrwt beam="1">  1        4 0.38640789E-02 0.28191299E+03</pdfrwt>
<pdfrwt beam="2">  1       -4 0.12170194E+00 0.28191299E+03</pdfrwt>
<totfact> 0.36245374E+02</totfact>
</mgrwt>
</event>
<event>
 4    1  0.1774755E-004  0.3270068E+03  0.7818608E-02  0.1072469E+00
         -1   -1    0    0    0  501 -0.00000000000E+00  0.00000000000E+00  0.72425556370E+02  0.72425556370E+02  0.00000000000E+00 0. -1.
          1   -1    0    0  501    0  0.00000000000E+00 -0.00000000000E+00 -0.36911512184E+03  0.36911512184E+03  0.00000000000E+00 0. -1.
         25    1    1    2    0    0  0.10313134301E+03  0.40782779847E+02 -0.14046471485E+03  0.21547539340E+03  0.12000000000E+03 0.  0.
         25    1    1    2    0    0 -0.10313134301E+03 -0.40782779847E+02 -0.15622485062E+03  0.22606528480E+03  0.12000000000E+03 0.  0.
<mgrwt>
<rscale>  0 0.32700684E+03</rscale>
<asrwt>0</asrwt>
<pdfrwt beam="1">  1        1 0.56786942E-01 0.32700684E+03</pdfrwt>
<pdfrwt beam="2">  1       -1 0.11142393E-01 0.32700684E+03</pdfrwt>
<totfact> 0.34637263E+03</totfact>
</mgrwt>
</event>
<event>
 4    1  0.1774755E-004  0.2581189E+03  0.7818608E-02  0.1108279E+00
          2   -1    0    0  501    0  0.00000000000E+00  0.00000000000E+00  0.31922887449E+04  0.31922887449E+04  0.00000000000E+00 0. -1.
         -2   -1    0    0    0  501 -0.00000000000E+00 -0.00000000000E+00 -0.52176794820E+01  0.52176794820E+01  0.00000000000E+00 0. -1.
         25    1    1    2    0    0 -0.45580504396E+02  0.10068764516E+02  0.17025032442E+04  0.17073652975E+04  0.12000000000E+03 0.  0.
         25    1    1    2    0    0  0.45580504396E+02 -0.10068764516E+02  0.14845678212E+04  0.14901411269E+04  0.12000000000E+03 0.  0.
<mgrwt>
<rscale>  0 0.25811888E+03</rscale>
<asrwt>0</asrwt>
<pdfrwt beam="1">  1        2 0.49111978E+00 0.25811888E+03</pdfrwt>
<pdfrwt beam="2">  1       -2 0.80272247E-03 0.25811888E+03</pdfrwt>
<totfact> 0.46824250E+03</totfact>
</mgrwt>
</event>
<event>
 4    1  0.1774755E-004  0.2711673E+03  0.7818608E-02  0.1100613E+00
         -2   -1    0    0    0  501 -0.00000000000E+00  0.00000000000E+00  0.20344770167E+02  0.20344770167E+02  0.00000000000E+00 0.  1.
          2   -1    0    0  501    0  0.00000000000E+00 -0.00000000000E+00 -0.90356987811E+03  0.90356987811E+03  0.00000000000E+00 0.  1.
         25    1    1    2    0    0  0.27857348911E+02  0.56295240915E+02 -0.42068254457E+03  0.44194908004E+03  0.12000000000E+03 0.  0.
         25    1    1    2    0    0 -0.27857348911E+02 -0.56295240915E+02 -0.46254256337E+03  0.48196556824E+03  0.12000000000E+03 0.  0.
<mgrwt>
<rscale>  0 0.27116727E+03</rscale>
<asrwt>0</asrwt>
<pdfrwt beam="1">  1        2 0.13901071E+00 0.27116727E+03</pdfrwt>
<pdfrwt beam="2">  1       -2 0.31299655E-02 0.27116727E+03</pdfrwt>
<totfact> 0.11968970E+04</totfact>
</mgrwt>
</event>
<event>
 4    1  0.1774755E-004  0.3253697E+03  0.7818608E-02  0.1073204E+00
         -2   -1    0    0    0  501 -0.00000000000E+00  0.00000000000E+00  0.22414199783E+02  0.22414199783E+02  0.00000000000E+00 0.  1.
          2   -1    0    0  501    0  0.00000000000E+00 -0.00000000000E+00 -0.11807851187E+04  0.11807851187E+04  0.00000000000E+00 0.  1.
         25    1    1    2    0    0  0.37861761200E+02 -0.34550285815E+02 -0.21991108474E+03  0.25571100955E+03  0.12000000000E+03 0.  0.
         25    1    1    2    0    0 -0.37861761200E+02  0.34550285815E+02 -0.93845983413E+03  0.94748830889E+03  0.12000000000E+03 0.  0.
<mgrwt>
<rscale>  0 0.32536966E+03</rscale>
<asrwt>0</asrwt>
<pdfrwt beam="1">  1        2 0.18165928E+00 0.32536966E+03</pdfrwt>
<pdfrwt beam="2">  1       -2 0.34483378E-02 0.32536966E+03</pdfrwt>
<totfact> 0.70668067E+03</totfact>
</mgrwt>
</event>
<event>
 4    1  0.1774755E-004  0.3509568E+03  0.7818608E-02  0.1062223E+00
         -1   -1    0    0    0  501 -0.00000000000E+00  0.00000000000E+00  0.96913287671E+02  0.96913287671E+02  0.00000000000E+00 0.  1.
          1   -1    0    0  501    0  0.00000000000E+00 -0.00000000000E+00 -0.31773417990E+03  0.31773417990E+03  0.00000000000E+00 0.  1.
         25    1    1    2    0    0 -0.33036900119E+02 -0.50990345678E+02  0.22741638564E+02  0.13641346798E+03  0.12000000000E+03 0.  0.
         25    1    1    2    0    0  0.33036900119E+02  0.50990345678E+02 -0.24356253079E+03  0.27823399959E+03  0.12000000000E+03 0.  0.
<mgrwt>
<rscale>  0 0.35095677E+03</rscale>
<asrwt>0</asrwt>
<pdfrwt beam="1">  1        1 0.48882182E-01 0.35095677E+03</pdfrwt>
<pdfrwt beam="2">  1       -1 0.14909736E-01 0.35095677E+03</pdfrwt>
<totfact> 0.26509124E+03</totfact>
</mgrwt>
</event>
<event>
 4    1  0.1774755E-004  0.4887313E+03  0.7818608E-02  0.1016763E+00
          2   -1    0    0  501    0  0.00000000000E+00  0.00000000000E+00  0.77644278692E+03  0.77644278692E+03  0.00000000000E+00 0.  1.
         -2   -1    0    0    0  501 -0.00000000000E+00 -0.00000000000E+00 -0.76907884736E+02  0.76907884736E+02  0.00000000000E+00 0.  1.
         25    1    1    2    0    0  0.15560161793E+03  0.12590619314E+03  0.22324981626E+03  0.32296240251E+03  0.12000000000E+03 0.  0.
         25    1    1    2    0    0 -0.15560161793E+03 -0.12590619314E+03  0.47628508592E+03  0.53038826915E+03  0.12000000000E+03 0.  0.
<mgrwt>
<rscale>  0 0.48873131E+03</rscale>
<asrwt>0</asrwt>
<pdfrwt beam="1">  1        2 0.11945273E+00 0.48873131E+03</pdfrwt>
<pdfrwt beam="2">  1       -2 0.11831983E-01 0.48873131E+03</pdfrwt>
<totfact> 0.18695305E+03</totfact>
</mgrwt>
</event>
<event>
 4    1  0.1774755E-004  0.2687022E+03  0.7818608E-02  0.1102025E+00
          1   -1    0    0  501    0  0.00000000000E+00  0.00000000000E+00  0.13309354102E+03  0.13309354102E+03  0.00000000000E+00 0. -1.
         -1   -1    0    0    0  501 -0.00000000000E+00 -0.00000000000E+00 -0.13562052651E+03  0.13562052651E+03  0.00000000000E+00 0. -1.
         25    1    1    2    0    0 -0.30309642591E+02  0.38169303847E+02 -0.36967255162E+02  0.13469279173E+03  0.12000000000E+03 0.  0.
         25    1    1    2    0    0  0.30309642591E+02 -0.38169303847E+02  0.34440269670E+02  0.13402127579E+03  0.12000000000E+03 0.  0.
<mgrwt>
<rscale>  0 0.26870219E+03</rscale>
<asrwt>0</asrwt>
<pdfrwt beam="1">  1        1 0.20475929E-01 0.26870219E+03</pdfrwt>
<pdfrwt beam="2">  1       -1 0.20864696E-01 0.26870219E+03</pdfrwt>
<totfact> 0.46224936E+03</totfact>
</mgrwt>
</event>
<event>
 4    1  0.1774755E-004  0.5426281E+03  0.7818608E-02  0.1003215E+00
         -2   -1    0    0    0  501 -0.00000000000E+00  0.00000000000E+00  0.11729140931E+03  0.11729140931E+03  0.00000000000E+00 0. -1.
          2   -1    0    0  501    0  0.00000000000E+00 -0.00000000000E+00 -0.62759330707E+03  0.62759330707E+03  0.00000000000E+00 0. -1.
         25    1    1    2    0    0  0.98665958276E+02  0.19931932899E+03 -0.39068475387E+03  0.46529317977E+03  0.12000000000E+03 0.  0.
         25    1    1    2    0    0 -0.98665958276E+02 -0.19931932899E+03 -0.11961714388E+03  0.27959153661E+03  0.12000000000E+03 0.  0.
<mgrwt>
<rscale>  0 0.54262806E+03</rscale>
<asrwt>0</asrwt>
<pdfrwt beam="1">  1        2 0.96552816E-01 0.54262806E+03</pdfrwt>
<pdfrwt beam="2">  1       -2 0.18044832E-01 0.54262806E+03</pdfrwt>
<totfact> 0.12016638E+03</totfact>
</mgrwt>
</event>
<event>
 4    1  0.1774755E-004  0.2508597E+03  0.7818608E-02  0.1112763E+00
          2   -1    0    0  501    0  0.00000000000E+00  0.00000000000E+00  0.28200995630E+04  0.28200995630E+04  0.00000000000E+00 0.  1.
         -2   -1    0    0    0  501 -0.00000000000E+00 -0.00000000000E+00 -0.55787556375E+01  0.55787556375E+01  0.00000000000E+00 0.  1.
         25    1    1    2    0    0 -0.13566673569E+02  0.21649487920E+02  0.11135552278E+04  0.11202937116E+04  0.12000000000E+03 0.  0.
         25    1    1    2    0    0  0.13566673569E+02 -0.21649487920E+02  0.17009655796E+04  0.17053846070E+04  0.12000000000E+03 0.  0.
<mgrwt>
<rscale>  0 0.25085969E+03</rscale>
<asrwt>0</asrwt>
<pdfrwt beam="1">  1        2 0.43386033E+00 0.25085969E+03</pdfrwt>
<pdfrwt beam="2">  1       -2 0.85827235E-03 0.25085969E+03</pdfrwt>
<totfact> 0.70658908E+03</totfact>
</mgrwt>
</event>
<event>
 4    1  0.1774755E-004  0.2753528E+03  0.7818608E-02  0.1098255E+00
          2   -1    0    0  501    0  0.00000000000E+00  0.00000000000E+00  0.55466445513E+03  0.55466445513E+03  0.00000000000E+00 0. -1.
         -2   -1    0    0    0  501 -0.00000000000E+00 -0.00000000000E+00 -0.34173438472E+02  0.34173438472E+02  0.00000000000E+00 0. -1.
         25    1    1    2    0    0  0.23699411472E+02 -0.62580735550E+02  0.27898394303E+03  0.31098239666E+03  0.12000000000E+03 0.  0.
         25    1    1    2    0    0 -0.23699411472E+02  0.62580735550E+02  0.24150707363E+03  0.27785549694E+03  0.12000000000E+03 0.  0.
<mgrwt>
<rscale>  0 0.27535280E+03</rscale>
<asrwt>0</asrwt>
<pdfrwt beam="1">  1        2 0.85332987E-01 0.27535280E+03</pdfrwt>
<pdfrwt beam="2">  1       -2 0.52574525E-02 0.27535280E+03</pdfrwt>
<totfact> 0.99742122E+03</totfact>
</mgrwt>
</event>
<event>
 4    1  0.1774755E-004  0.3786176E+03  0.7818608E-02  0.1051446E+00
          4   -1    0    0  501    0  0.00000000000E+00  0.00000000000E+00  0.15051858547E+03  0.15051858547E+03  0.00000000000E+00 0.  1.
         -4   -1    0    0    0  501 -0.00000000000E+00 -0.00000000000E+00 -0.23809570283E+03  0.23809570283E+03  0.00000000000E+00 0.  1.
         25    1    1    2    0    0  0.58907464361E+02 -0.33837248392E+02 -0.17691576067E+03  0.22430834829E+03  0.12000000000E+03 0.  0.
         25    1    1    2    0    0 -0.58907464361E+02  0.33837248392E+02  0.89338643305E+02  0.16430594001E+03  0.12000000000E+03 0.  0.
<mgrwt>
<rscale>  0 0.37861764E+03</rscale>
<asrwt>0</asrwt>
<pdfrwt beam="1">  1        4 0.23156705E-01 0.37861764E+03</pdfrwt>
<pdfrwt beam="2">  1       -4 0.36630108E-01 0.37861764E+03</pdfrwt>
<totfact> 0.24170568E+02</totfact>
</mgrwt>
</event>
<event>
 4    1  0.1774755E-004  0.2452972E+03  0.7818608E-02  0.1116313E+00
         -1   -1    0    0    0  501 -0.00000000000E+00  0.00000000000E+00  0.64133202479E+02  0.64133202479E+02  0.00000000000E+00 0. -1.
          1   -1    0    0  501    0  0.00000000000E+00 -0.00000000000E+00 -0.23455361606E+03  0.23455361606E+03  0.00000000000E+00 0. -1.
         25    1    1    2    0    0  0.10940698900E+02  0.13664412653E+02 -0.62881642276E+02  0.13660349923E+03  0.12000000000E+03 0.  0.
         25    1    1    2    0    0 -0.10940698900E+02 -0.13664412653E+02 -0.10753877131E+03  0.16208331931E+03  0.12000000000E+03 0.  0.
<mgrwt>
<rscale>  0 0.24529716E+03</rscale>
<asrwt>0</asrwt>
<pdfrwt beam="1">  1        1 0.36085172E-01 0.24529716E+03</pdfrwt>
<pdfrwt beam="2">  1       -1 0.98666465E-02 0.24529716E+03</pdfrwt>
<totfact> 0.73461255E+03</totfact>
</mgrwt>
</event>
<event>
 4    1  0.1774755E-004  0.2549650E+03  0.7818608E-02  0.1110207E+00
         -1   -1    0    0    0  501 -0.00000000000E+00  0.00000000000E+00  0.10512739320E+03  0.10512739320E+03  0.00000000000E+00 0.  1.
          1   -1    0    0  501    0  0.00000000000E+00 -0.00000000000E+00 -0.15459137274E+03  0.15459137274E+03  0.00000000000E+00 0.  1.
         25    1    1    2    0    0  0.41124693454E+02  0.43157212436E+01 -0.12596763610E+02  0.12754820389E+03  0.12000000000E+03 0.  0.
         25    1    1    2    0    0 -0.41124693454E+02 -0.43157212436E+01 -0.36867215934E+02  0.13217056205E+03  0.12000000000E+03 0.  0.
<mgrwt>
<rscale>  0 0.25496500E+03</rscale>
<asrwt>0</asrwt>
<pdfrwt beam="1">  1        1 0.23783288E-01 0.25496500E+03</pdfrwt>
<pdfrwt beam="2">  1       -1 0.16173445E-01 0.25496500E+03</pdfrwt>
<totfact> 0.57428488E+03</totfact>
</mgrwt>
</event>
<event>
 4    1  0.1774755E-004  0.2406834E+03  0.7818608E-02  0.1119338E+00
          2   -1    0    0  501    0  0.00000000000E+00  0.00000000000E+00  0.15844156680E+03  0.15844156680E+03  0.00000000000E+00 0.  1.
         -2   -1    0    0    0  501 -0.00000000000E+00 -0.00000000000E+00 -0.91403571745E+02  0.91403571745E+02  0.00000000000E+00 0.  1.
         25    1    1    2    0    0  0.77900832406E+01 -0.77067094080E+00  0.28779482391E+02  0.12365087115E+03  0.12000000000E+03 0.  0.
         25    1    1    2    0    0 -0.77900832406E+01  0.77067094080E+00  0.38258512662E+02  0.12619426739E+03  0.12000000000E+03 0.  0.
<mgrwt>
<rscale>  0 0.24068340E+03</rscale>
<asrwt>0</asrwt>
<pdfrwt beam="1">  1        2 0.24375626E-01 0.24068340E+03</pdfrwt>
<pdfrwt beam="2">  1       -2 0.14062088E-01 0.24068340E+03</pdfrwt>
<totfact> 0.82926553E+03</totfact>
</mgrwt>
</event>
<event>
 4    1  0.1774755E-004  0.2669560E+03  0.7818608E-02  0.1103034E+00
          1   -1    0    0  501    0  0.00000000000E+00  0.00000000000E+00  0.26979005143E+03  0.26979005143E+03  0.00000000000E+00 0.  1.
         -1   -1    0    0    0  501 -0.00000000000E+00 -0.00000000000E+00 -0.66037947991E+02  0.66037947991E+02  0.00000000000E+00 0.  1.
         25    1    1    2    0    0  0.34563329890E+02 -0.43552324639E+02  0.79198968981E+02  0.15415545868E+03  0.12000000000E+03 0.  0.
         25    1    1    2    0    0 -0.34563329890E+02  0.43552324639E+02  0.12455313446E+03  0.18167254074E+03  0.12000000000E+03 0.  0.
<mgrwt>
<rscale>  0 0.26695604E+03</rscale>
<asrwt>0</asrwt>
<pdfrwt beam="1">  1        1 0.41506161E-01 0.26695604E+03</pdfrwt>
<pdfrwt beam="2">  1       -1 0.10159684E-01 0.26695604E+03</pdfrwt>
<totfact> 0.59113872E+03</totfact>
</mgrwt>
</event>
<event>
 4    1  0.1774755E-004  0.2455731E+03  0.7818608E-02  0.1116135E+00
         -2   -1    0    0    0  501 -0.00000000000E+00  0.00000000000E+00  0.84651187605E+02  0.84651187605E+02  0.00000000000E+00 0. -1.
          2   -1    0    0  501    0  0.00000000000E+00 -0.00000000000E+00 -0.17810185546E+03  0.17810185546E+03  0.00000000000E+00 0. -1.
         25    1    1    2    0    0  0.45835067906E+01 -0.32911045871E+01 -0.19558206858E+02  0.12171426933E+03  0.12000000000E+03 0.  0.
         25    1    1    2    0    0 -0.45835067906E+01  0.32911045871E+01 -0.73892461001E+02  0.14103877374E+03  0.12000000000E+03 0.  0.
<mgrwt>
<rscale>  0 0.24557307E+03</rscale>
<asrwt>0</asrwt>
<pdfrwt beam="1">  1        2 0.27400285E-01 0.24557307E+03</pdfrwt>
<pdfrwt beam="2">  1       -2 0.13023260E-01 0.24557307E+03</pdfrwt>
<totfact> 0.82608099E+03</totfact>
</mgrwt>
</event>
<event>
 4    1  0.1774755E-004  0.2534843E+03  0.7818608E-02  0.1111122E+00
          4   -1    0    0  501    0  0.00000000000E+00  0.00000000000E+00  0.77794821304E+02  0.77794821304E+02  0.00000000000E+00 0.  1.
         -4   -1    0    0    0  501 -0.00000000000E+00 -0.00000000000E+00 -0.20648646774E+03  0.20648646774E+03  0.00000000000E+00 0.  1.
         25    1    1    2    0    0 -0.14667336361E+02  0.12507018510E+02 -0.24034038615E+02  0.12389185316E+03  0.12000000000E+03 0.  0.
         25    1    1    2    0    0  0.14667336361E+02 -0.12507018510E+02 -0.10465760783E+03  0.16038943589E+03  0.12000000000E+03 0.  0.
<mgrwt>
<rscale>  0 0.25348434E+03</rscale>
<asrwt>0</asrwt>
<pdfrwt beam="1">  1        4 0.11968434E-01 0.25348434E+03</pdfrwt>
<pdfrwt beam="2">  1       -4 0.31767148E-01 0.25348434E+03</pdfrwt>
<totfact> 0.98654807E+02</totfact>
</mgrwt>
</event>
<event>
 4    1  0.1774755E-004  0.7697988E+03  0.7818608E-02  0.9604791E-01
         -2   -1    0    0    0  501 -0.00000000000E+00  0.00000000000E+00  0.26223950531E+03  0.26223950531E+03  0.00000000000E+00 0. -1.
          2   -1    0    0  501    0  0.00000000000E+00 -0.00000000000E+00 -0.56493216765E+03  0.56493216765E+03  0.00000000000E+00 0. -1.
         25    1    1    2    0    0  0.36335208159E+03  0.36872245148E+02 -0.17182548497E+03  0.42107991515E+03  0.12000000000E+03 0.  0.
         25    1    1    2    0    0 -0.36335208159E+03 -0.36872245148E+02 -0.13086717737E+03  0.40609175782E+03  0.12000000000E+03 0.  0.
<mgrwt>
<rscale>  0 0.76979876E+03</rscale>
<asrwt>0</asrwt>
<pdfrwt beam="1">  1        2 0.86912641E-01 0.76979876E+03</pdfrwt>
<pdfrwt beam="2">  1       -2 0.40344539E-01 0.76979876E+03</pdfrwt>
<totfact> 0.31221090E+02</totfact>
</mgrwt>
</event>
<event>
 4    1  0.1774755E-004  0.2531187E+03  0.7818608E-02  0.1111350E+00
          4   -1    0    0  501    0  0.00000000000E+00  0.00000000000E+00  0.89822917654E+02  0.89822917654E+02  0.00000000000E+00 0. -1.
         -4   -1    0    0    0  501 -0.00000000000E+00 -0.00000000000E+00 -0.17832049881E+03  0.17832049881E+03  0.00000000000E+00 0. -1.
         25    1    1    2    0    0  0.16824822634E+02  0.23412155127E+02 -0.73949842538E+02  0.14387419114E+03  0.12000000000E+03 0.  0.
         25    1    1    2    0    0 -0.16824822634E+02 -0.23412155127E+02 -0.14547738620E+02  0.12426922533E+03  0.12000000000E+03 0.  0.
<mgrwt>
<rscale>  0 0.25311869E+03</rscale>
<asrwt>0</asrwt>
<pdfrwt beam="1">  1        4 0.13818910E-01 0.25311869E+03</pdfrwt>
<pdfrwt beam="2">  1       -4 0.27433923E-01 0.25311869E+03</pdfrwt>
<totfact> 0.10158502E+03</totfact>
</mgrwt>
</event>
<event>
 4    1  0.1774755E-004  0.2479663E+03  0.7818608E-02  0.1114597E+00
         -4   -1    0    0    0  501 -0.00000000000E+00  0.00000000000E+00  0.34576966899E+03  0.34576966899E+03  0.00000000000E+00 0. -1.
          4   -1    0    0  501    0  0.00000000000E+00 -0.00000000000E+00 -0.44456841286E+02  0.44456841286E+02  0.00000000000E+00 0. -1.
         25    1    1    2    0    0 -0.43443523233E+01  0.21506270046E+02  0.18550734780E+03  0.22202335268E+03  0.12000000000E+03 0.  0.
         25    1    1    2    0    0  0.43443523233E+01 -0.21506270046E+02  0.11580547990E+03  0.16820315759E+03  0.12000000000E+03 0.  0.
<mgrwt>
<rscale>  0 0.24796635E+03</rscale>
<asrwt>0</asrwt>
<pdfrwt beam="1">  1        4 0.68395143E-02 0.24796635E+03</pdfrwt>
<pdfrwt beam="2">  1       -4 0.53195332E-01 0.24796635E+03</pdfrwt>
<totfact> 0.90328779E+02</totfact>
</mgrwt>
</event>
<event>
 4    1  0.1774755E-004  0.3515227E+03  0.7818608E-02  0.1061992E+00
         -2   -1    0    0    0  501 -0.00000000000E+00  0.00000000000E+00  0.16339023281E+03  0.16339023281E+03  0.00000000000E+00 0.  1.
          2   -1    0    0  501    0  0.00000000000E+00 -0.00000000000E+00 -0.18906917347E+03  0.18906917347E+03  0.00000000000E+00 0.  1.
         25    1    1    2    0    0 -0.35181670439E+02 -0.12349872412E+03 -0.11295406896E+02  0.17611720816E+03  0.12000000000E+03 0.  0.
         25    1    1    2    0    0  0.35181670439E+02  0.12349872412E+03 -0.14383533767E+02  0.17634219812E+03  0.12000000000E+03 0.  0.
<mgrwt>
<rscale>  0 0.35152272E+03</rscale>
<asrwt>0</asrwt>
<pdfrwt beam="1">  1        2 0.29087565E-01 0.35152272E+03</pdfrwt>
<pdfrwt beam="2">  1       -2 0.25136959E-01 0.35152272E+03</pdfrwt>
<totfact> 0.25658895E+03</totfact>
</mgrwt>
</event>
<event>
 4    1  0.1774755E-004  0.3425909E+03  0.7818608E-02  0.1065698E+00
          2   -1    0    0  501    0  0.00000000000E+00  0.00000000000E+00  0.14692526125E+04  0.14692526125E+04  0.00000000000E+00 0. -1.
         -2   -1    0    0    0  501 -0.00000000000E+00 -0.00000000000E+00 -0.19970792140E+02  0.19970792140E+02  0.00000000000E+00 0. -1.
         25    1    1    2    0    0  0.10219391599E+03 -0.55871949031E+02  0.88593929928E+03  0.90158400227E+03  0.12000000000E+03 0.  0.
         25    1    1    2    0    0 -0.10219391599E+03  0.55871949031E+02  0.56334252109E+03  0.58763940237E+03  0.12000000000E+03 0.  0.
<mgrwt>
<rscale>  0 0.34259094E+03</rscale>
<asrwt>0</asrwt>
<pdfrwt beam="1">  1        2 0.22603878E+00 0.34259094E+03</pdfrwt>
<pdfrwt beam="2">  1       -2 0.30724307E-02 0.34259094E+03</pdfrwt>
<totfact> 0.58095321E+03</totfact>
</mgrwt>
</event>
<event>
 4    1  0.1774755E-004  0.2433378E+03  0.7818608E-02  0.1117589E+00
         -1   -1    0    0    0  501 -0.00000000000E+00  0.00000000000E+00  0.20030501407E+02  0.20030501407E+02  0.00000000000E+00 0. -1.
          1   -1    0    0  501    0  0.00000000000E+00 -0.00000000000E+00 -0.73903903577E+03  0.73903903577E+03  0.00000000000E+00 0. -1.
         25    1    1    2    0    0  0.11810148036E+02  0.10478295859E+02 -0.39822113648E+03  0.41620829860E+03  0.12000000000E+03 0.  0.
         25    1    1    2    0    0 -0.11810148036E+02 -0.10478295859E+02 -0.32078739788E+03  0.34286123858E+03  0.12000000000E+03 0.  0.
<mgrwt>
<rscale>  0 0.24333781E+03</rscale>
<asrwt>0</asrwt>
<pdfrwt beam="1">  1        1 0.11369829E+00 0.24333781E+03</pdfrwt>
<pdfrwt beam="2">  1       -1 0.30816161E-02 0.24333781E+03</pdfrwt>
<totfact> 0.93498630E+03</totfact>
</mgrwt>
</event>
<event>
 4    1  0.1774755E-004  0.2404987E+03  0.7818608E-02  0.1119461E+00
          1   -1    0    0  501    0  0.00000000000E+00  0.00000000000E+00  0.72091801863E+02  0.72091801863E+02  0.00000000000E+00 0. -1.
         -1   -1    0    0    0  501 -0.00000000000E+00 -0.00000000000E+00 -0.20057633770E+03  0.20057633770E+03  0.00000000000E+00 0. -1.
         25    1    1    2    0    0 -0.75138186119E+00 -0.45777464175E+01 -0.57217589070E+02  0.13302395587E+03  0.12000000000E+03 0.  0.
         25    1    1    2    0    0  0.75138186119E+00  0.45777464175E+01 -0.71266946767E+02  0.13964418369E+03  0.12000000000E+03 0.  0.
<mgrwt>
<rscale>  0 0.24049873E+03</rscale>
<asrwt>0</asrwt>
<pdfrwt beam="1">  1        1 0.11091047E-01 0.24049873E+03</pdfrwt>
<pdfrwt beam="2">  1       -1 0.30857898E-01 0.24049873E+03</pdfrwt>
<totfact> 0.53559957E+03</totfact>
</mgrwt>
</event>
<event>
 4    1  0.1774755E-004  0.2755281E+03  0.7818608E-02  0.1098157E+00
         -1   -1    0    0    0  501 -0.00000000000E+00  0.00000000000E+00  0.28299168125E+02  0.28299168125E+02  0.00000000000E+00 0. -1.
          1   -1    0    0  501    0  0.00000000000E+00 -0.00000000000E+00 -0.67065347053E+03  0.67065347053E+03  0.00000000000E+00 0. -1.
         25    1    1    2    0    0  0.52746898928E+02  0.41404242922E+02 -0.34420299163E+03  0.37063762104E+03  0.12000000000E+03 0.  0.
         25    1    1    2    0    0 -0.52746898928E+02 -0.41404242922E+02 -0.29815131077E+03  0.32831501762E+03  0.12000000000E+03 0.  0.
<mgrwt>
<rscale>  0 0.27552811E+03</rscale>
<asrwt>0</asrwt>
<pdfrwt beam="1">  1        1 0.10317745E+00 0.27552811E+03</pdfrwt>
<pdfrwt beam="2">  1       -1 0.43537186E-02 0.27552811E+03</pdfrwt>
<totfact> 0.64828379E+03</totfact>
</mgrwt>
</event>
<event>
 4    1  0.1774755E-004  0.3042878E+03  0.7818608E-02  0.1083117E+00
          1   -1    0    0  501    0  0.00000000000E+00  0.00000000000E+00  0.70317657076E+03  0.70317657076E+03  0.00000000000E+00 0.  1.
         -1   -1    0    0    0  501 -0.00000000000E+00 -0.00000000000E+00 -0.32918851789E+02  0.32918851789E+02  0.00000000000E+00 0.  1.
         25    1    1    2    0    0 -0.74673248643E+02  0.30131200094E+02  0.22003109450E+03  0.26324449819E+03  0.12000000000E+03 0.  0.
         25    1    1    2    0    0  0.74673248643E+02 -0.30131200094E+02  0.45022662447E+03  0.47285092436E+03  0.12000000000E+03 0.  0.
<mgrwt>
<rscale>  0 0.30428779E+03</rscale>
<asrwt>0</asrwt>
<pdfrwt beam="1">  1        1 0.10818100E+00 0.30428779E+03</pdfrwt>
<pdfrwt beam="2">  1       -1 0.50644392E-02 0.30428779E+03</pdfrwt>
<totfact> 0.48367171E+03</totfact>
</mgrwt>
</event>
<event>
 4    1  0.1774755E-004  0.3713638E+03  0.7818608E-02  0.1054173E+00
          2   -1    0    0  501    0  0.00000000000E+00  0.00000000000E+00  0.29206612693E+04  0.29206612693E+04  0.00000000000E+00 0. -1.
         -2   -1    0    0    0  501 -0.00000000000E+00 -0.00000000000E+00 -0.11804780303E+02  0.11804780303E+02  0.00000000000E+00 0. -1.
         25    1    1    2    0    0  0.13194317417E+03 -0.26165299578E+02  0.11026899453E+04  0.11173266039E+04  0.12000000000E+03 0.  0.
         25    1    1    2    0    0 -0.13194317417E+03  0.26165299578E+02  0.18061665437E+04  0.18151394458E+04  0.12000000000E+03 0.  0.
<mgrwt>
<rscale>  0 0.37136378E+03</rscale>
<asrwt>0</asrwt>
<pdfrwt beam="1">  1        2 0.44933193E+00 0.37136378E+03</pdfrwt>
<pdfrwt beam="2">  1       -2 0.18161224E-02 0.37136378E+03</pdfrwt>
<totfact> 0.20451774E+03</totfact>
</mgrwt>
</event>
<event>
 4    1  0.1774755E-004  0.2813463E+03  0.7818608E-02  0.1094956E+00
         -2   -1    0    0    0  501 -0.00000000000E+00  0.00000000000E+00  0.85275719815E+01  0.85275719815E+01  0.00000000000E+00 0.  1.
          2   -1    0    0  501    0  0.00000000000E+00 -0.00000000000E+00 -0.23205830461E+04  0.23205830461E+04  0.00000000000E+00 0.  1.
         25    1    1    2    0    0 -0.55970646808E+02  0.44961179611E+02 -0.12828577546E+04  0.12904566011E+04  0.12000000000E+03 0.  0.
         25    1    1    2    0    0  0.55970646808E+02 -0.44961179611E+02 -0.10291977195E+04  0.10386540169E+04  0.12000000000E+03 0.  0.
<mgrwt>
<rscale>  0 0.28134633E+03</rscale>
<asrwt>0</asrwt>
<pdfrwt beam="1">  1        2 0.35701265E+00 0.28134633E+03</pdfrwt>
<pdfrwt beam="2">  1       -2 0.13119346E-02 0.28134633E+03</pdfrwt>
<totfact> 0.72039887E+03</totfact>
</mgrwt>
</event>
<event>
 4    1  0.1774755E-004  0.2555489E+03  0.7818608E-02  0.1109847E+00
          2   -1    0    0  501    0  0.00000000000E+00  0.00000000000E+00  0.11360285952E+04  0.11360285952E+04  0.00000000000E+00 0. -1.
         -2   -1    0    0    0  501 -0.00000000000E+00 -0.00000000000E+00 -0.14371384862E+02  0.14371384862E+02  0.00000000000E+00 0. -1.
         25    1    1    2    0    0 -0.15119297247E+02 -0.36673075249E+02  0.47627403261E+03  0.49275801539E+03  0.12000000000E+03 0.  0.
         25    1    1    2    0    0  0.15119297247E+02  0.36673075249E+02  0.64538317777E+03  0.65764196471E+03  0.12000000000E+03 0.  0.
<mgrwt>
<rscale>  0 0.25554885E+03</rscale>
<asrwt>0</asrwt>
<pdfrwt beam="1">  1        2 0.17477356E+00 0.25554885E+03</pdfrwt>
<pdfrwt beam="2">  1       -2 0.22109832E-02 0.25554885E+03</pdfrwt>
<totfact> 0.14434829E+04</totfact>
</mgrwt>
</event>
<event>
 4    1  0.1774755E-004  0.2722941E+03  0.7818608E-02  0.1099974E+00
         -2   -1    0    0    0  501 -0.00000000000E+00  0.00000000000E+00  0.25736513229E+02  0.25736513229E+02  0.00000000000E+00 0. -1.
          2   -1    0    0  501    0  0.00000000000E+00 -0.00000000000E+00 -0.72022255299E+03  0.72022255299E+03  0.00000000000E+00 0. -1.
         25    1    1    2    0    0  0.18345618655E+02  0.49848092609E+02 -0.44657233358E+03  0.46545487770E+03  0.12000000000E+03 0.  0.
         25    1    1    2    0    0 -0.18345618655E+02 -0.49848092609E+02 -0.24791370618E+03  0.28050418851E+03  0.12000000000E+03 0.  0.
<mgrwt>
<rscale>  0 0.27229409E+03</rscale>
<asrwt>0</asrwt>
<pdfrwt beam="1">  1        2 0.11080347E+00 0.27229409E+03</pdfrwt>
<pdfrwt beam="2">  1       -2 0.39594635E-02 0.27229409E+03</pdfrwt>
<totfact> 0.11253091E+04</totfact>
</mgrwt>
</event>
<event>
 4    1  0.1774755E-004  0.2824433E+03  0.7818608E-02  0.1094362E+00
         -2   -1    0    0    0  501 -0.00000000000E+00  0.00000000000E+00  0.70333156075E+02  0.70333156075E+02  0.00000000000E+00 0. -1.
          2   -1    0    0  501    0  0.00000000000E+00 -0.00000000000E+00 -0.28355830977E+03  0.28355830977E+03  0.00000000000E+00 0. -1.
         25    1    1    2    0    0 -0.63088829371E+02 -0.19974685902E+02 -0.63857968169E+02  0.15118541122E+03  0.12000000000E+03 0.  0.
         25    1    1    2    0    0  0.63088829371E+02  0.19974685902E+02 -0.14936718552E+03  0.20270605462E+03  0.12000000000E+03 0.  0.
<mgrwt>
<rscale>  0 0.28244327E+03</rscale>
<asrwt>0</asrwt>
<pdfrwt beam="1">  1        2 0.43624355E-01 0.28244327E+03</pdfrwt>
<pdfrwt beam="2">  1       -2 0.10820486E-01 0.28244327E+03</pdfrwt>
<totfact> 0.67559773E+03</totfact>
</mgrwt>
</event>
<event>
 4    1  0.1774755E-004  0.2600365E+03  0.7818608E-02  0.1107121E+00
          2   -1    0    0  501    0  0.00000000000E+00  0.00000000000E+00  0.22771960660E+02  0.22771960660E+02  0.00000000000E+00 0. -1.
         -2   -1    0    0    0  501 -0.00000000000E+00 -0.00000000000E+00 -0.74234937955E+03  0.74234937955E+03  0.00000000000E+00 0. -1.
         25    1    1    2    0    0  0.32629949853E+02  0.37194755113E+02 -0.33765491236E+03  0.36174438942E+03  0.12000000000E+03 0.  0.
         25    1    1    2    0    0 -0.32629949853E+02 -0.37194755113E+02 -0.38192250653E+03  0.40337695079E+03  0.12000000000E+03 0.  0.
<mgrwt>
<rscale>  0 0.26003654E+03</rscale>
<asrwt>0</asrwt>
<pdfrwt beam="1">  1        2 0.35033786E-02 0.26003654E+03</pdfrwt>
<pdfrwt beam="2">  1       -2 0.11420760E+00 0.26003654E+03</pdfrwt>
<totfact> 0.15828607E+03</totfact>
</mgrwt>
</event>
<event>
 4    1  0.1774755E-004  0.2969668E+03  0.7818608E-02  0.1086767E+00
          1   -1    0    0  501    0  0.00000000000E+00  0.00000000000E+00  0.64460287047E+03  0.64460287047E+03  0.00000000000E+00 0.  1.
         -1   -1    0    0    0  501 -0.00000000000E+00 -0.00000000000E+00 -0.34202946584E+02  0.34202946584E+02  0.00000000000E+00 0.  1.
         25    1    1    2    0    0  0.74074432762E+02  0.19264850766E+02  0.40188570762E+03  0.42634525687E+03  0.12000000000E+03 0.  0.
         25    1    1    2    0    0 -0.74074432762E+02 -0.19264850766E+02  0.20851421626E+03  0.25246056018E+03  0.12000000000E+03 0.  0.
<mgrwt>
<rscale>  0 0.29696678E+03</rscale>
<asrwt>0</asrwt>
<pdfrwt beam="1">  1        1 0.99169663E-01 0.29696678E+03</pdfrwt>
<pdfrwt beam="2">  1       -1 0.52619923E-02 0.29696678E+03</pdfrwt>
<totfact> 0.51752382E+03</totfact>
</mgrwt>
</event>
<event>
 4    1  0.1774755E-004  0.4337669E+03  0.7818608E-02  0.1032677E+00
          1   -1    0    0  501    0  0.00000000000E+00  0.00000000000E+00  0.85859351033E+02  0.85859351033E+02  0.00000000000E+00 0. -1.
         -1   -1    0    0    0  501 -0.00000000000E+00 -0.00000000000E+00 -0.54785459610E+03  0.54785459610E+03  0.00000000000E+00 0. -1.
         25    1    1    2    0    0 -0.12271662665E+03 -0.65222717065E+02 -0.62353382832E+02  0.19391059184E+03  0.12000000000E+03 0.  0.
         25    1    1    2    0    0  0.12271662665E+03  0.65222717065E+02 -0.39964186224E+03  0.43980335530E+03  0.12000000000E+03 0.  0.
<mgrwt>
<rscale>  0 0.43376694E+03</rscale>
<asrwt>0</asrwt>
<pdfrwt beam="1">  1        1 0.13209131E-01 0.43376694E+03</pdfrwt>
<pdfrwt beam="2">  1       -1 0.84285322E-01 0.43376694E+03</pdfrwt>
<totfact> 0.64598209E+02</totfact>
</mgrwt>
</event>
<event>
 4    1  0.1774755E-004  0.2691358E+03  0.7818608E-02  0.1101775E+00
          4   -1    0    0  501    0  0.00000000000E+00  0.00000000000E+00  0.46107064715E+02  0.46107064715E+02  0.00000000000E+00 0. -1.
         -4   -1    0    0    0  501 -0.00000000000E+00 -0.00000000000E+00 -0.39274942481E+03  0.39274942481E+03  0.00000000000E+00 0. -1.
         25    1    1    2    0    0  0.60889869946E+02 -0.97132798805E+00 -0.17341635216E+03  0.21950341897E+03  0.12000000000E+03 0.  0.
         25    1    1    2    0    0 -0.60889869946E+02  0.97132798805E+00 -0.17322600794E+03  0.21935307056E+03  0.12000000000E+03 0.  0.
<mgrwt>
<rscale>  0 0.26913583E+03</rscale>
<asrwt>0</asrwt>
<pdfrwt beam="1">  1        4 0.70933945E-02 0.26913583E+03</pdfrwt>
<pdfrwt beam="2">  1       -4 0.60422989E-01 0.26913583E+03</pdfrwt>
<totfact> 0.65855438E+02</totfact>
</mgrwt>
</event>
<event>
 4    1  0.1774755E-004  0.2878775E+03  0.7818608E-02  0.1091463E+00
          2   -1    0    0  501    0  0.00000000000E+00  0.00000000000E+00  0.40997642602E+02  0.40997642602E+02  0.00000000000E+00 0. -1.
         -2   -1    0    0    0  501 -0.00000000000E+00 -0.00000000000E+00 -0.50535492817E+03  0.50535492817E+03  0.00000000000E+00 0. -1.
         25    1    1    2    0    0 -0.58252478869E+00 -0.79429768414E+02 -0.22650618944E+03  0.26835514025E+03  0.12000000000E+03 0.  0.
         25    1    1    2    0    0  0.58252478869E+00  0.79429768414E+02 -0.23785109613E+03  0.27799743052E+03  0.12000000000E+03 0.  0.
<mgrwt>
<rscale>  0 0.28787748E+03</rscale>
<asrwt>0</asrwt>
<pdfrwt beam="1">  1        2 0.63073297E-02 0.28787748E+03</pdfrwt>
<pdfrwt beam="2">  1       -2 0.77746911E-01 0.28787748E+03</pdfrwt>
<totfact> 0.17556640E+03</totfact>
</mgrwt>
</event>
<event>
 4    1  0.1774755E-004  0.2976883E+03  0.7818608E-02  0.1086402E+00
         -1   -1    0    0    0  501 -0.00000000000E+00  0.00000000000E+00  0.16732496896E+02  0.16732496896E+02  0.00000000000E+00 0.  1.
          1   -1    0    0  501    0  0.00000000000E+00 -0.00000000000E+00 -0.13240451647E+04  0.13240451647E+04  0.00000000000E+00 0.  1.
         25    1    1    2    0    0 -0.32577814999E+02  0.81676503503E+02 -0.67488542472E+03  0.69108805644E+03  0.12000000000E+03 0.  0.
         25    1    1    2    0    0  0.32577814999E+02 -0.81676503503E+02 -0.63242724310E+03  0.64968960517E+03  0.12000000000E+03 0.  0.
<mgrwt>
<rscale>  0 0.29768830E+03</rscale>
<asrwt>0</asrwt>
<pdfrwt beam="1">  1        1 0.20369922E+00 0.29768830E+03</pdfrwt>
<pdfrwt beam="2">  1       -1 0.25742307E-02 0.29768830E+03</pdfrwt>
<totfact> 0.44506804E+03</totfact>
</mgrwt>
</event>
<event>
 4    1  0.1774755E-004  0.2598782E+03  0.7818608E-02  0.1107216E+00
          2   -1    0    0  501    0  0.00000000000E+00  0.00000000000E+00  0.23004161674E+03  0.23004161674E+03  0.00000000000E+00 0.  1.
         -2   -1    0    0    0  501 -0.00000000000E+00 -0.00000000000E+00 -0.73396161290E+02  0.73396161290E+02  0.00000000000E+00 0.  1.
         25    1    1    2    0    0 -0.36561173396E+02  0.18421293433E+02  0.11151481162E+03  0.16885383224E+03  0.12000000000E+03 0.  0.
         25    1    1    2    0    0  0.36561173396E+02 -0.18421293433E+02  0.45130643831E+02  0.13458394579E+03  0.12000000000E+03 0.  0.
<mgrwt>
<rscale>  0 0.25987821E+03</rscale>
<asrwt>0</asrwt>
<pdfrwt beam="1">  1        2 0.35391018E-01 0.25987821E+03</pdfrwt>
<pdfrwt beam="2">  1       -2 0.11291717E-01 0.25987821E+03</pdfrwt>
<totfact> 0.78823028E+03</totfact>
</mgrwt>
</event>
<event>
 4    1  0.1774755E-004  0.3014798E+03  0.7818608E-02  0.1084503E+00
          2   -1    0    0  501    0  0.00000000000E+00  0.00000000000E+00  0.27565317143E+04  0.27565317143E+04  0.00000000000E+00 0. -1.
         -2   -1    0    0    0  501 -0.00000000000E+00 -0.00000000000E+00 -0.82431547631E+01  0.82431547631E+01  0.00000000000E+00 0. -1.
         25    1    1    2    0    0  0.13339742631E+02  0.65082105861E+02  0.80078323377E+03  0.81244533153E+03  0.12000000000E+03 0.  0.
         25    1    1    2    0    0 -0.13339742631E+02 -0.65082105861E+02  0.19475053258E+04  0.19523295376E+04  0.12000000000E+03 0.  0.
<mgrwt>
<rscale>  0 0.30147980E+03</rscale>
<asrwt>0</asrwt>
<pdfrwt beam="1">  1        2 0.42408107E+00 0.30147980E+03</pdfrwt>
<pdfrwt beam="2">  1       -2 0.12681799E-02 0.30147980E+03</pdfrwt>
<totfact> 0.43445946E+03</totfact>
</mgrwt>
</event>
<event>
 4    1  0.1774755E-004  0.3482102E+03  0.7818608E-02  0.1063352E+00
          1   -1    0    0  501    0  0.00000000000E+00  0.00000000000E+00  0.22965407303E+03  0.22965407303E+03  0.00000000000E+00 0.  1.
         -1   -1    0    0    0  501 -0.00000000000E+00 -0.00000000000E+00 -0.13199238630E+03  0.13199238630E+03  0.00000000000E+00 0.  1.
         25    1    1    2    0    0  0.11770355320E+01  0.12288424826E+03  0.19260015609E+02  0.17283770446E+03  0.12000000000E+03 0.  0.
         25    1    1    2    0    0 -0.11770355320E+01 -0.12288424826E+03  0.78401671114E+02  0.18880875487E+03  0.12000000000E+03 0.  0.
<mgrwt>
<rscale>  0 0.34821022E+03</rscale>
<asrwt>0</asrwt>
<pdfrwt beam="1">  1        1 0.35331396E-01 0.34821022E+03</pdfrwt>
<pdfrwt beam="2">  1       -1 0.20306521E-01 0.34821022E+03</pdfrwt>
<totfact> 0.24266056E+03</totfact>
</mgrwt>
</event>
<event>
 4    1  0.1774755E-004  0.2918605E+03  0.7818608E-02  0.1089382E+00
         -1   -1    0    0    0  501 -0.00000000000E+00  0.00000000000E+00  0.20116331954E+02  0.20116331954E+02  0.00000000000E+00 0.  1.
          1   -1    0    0  501    0  0.00000000000E+00 -0.00000000000E+00 -0.10586241910E+04  0.10586241910E+04  0.00000000000E+00 0.  1.
         25    1    1    2    0    0  0.35192827167E+02 -0.65681744970E+02 -0.38380326351E+03  0.40897135815E+03  0.12000000000E+03 0.  0.
         25    1    1    2    0    0 -0.35192827167E+02  0.65681744970E+02 -0.65470459551E+03  0.66976916478E+03  0.12000000000E+03 0.  0.
<mgrwt>
<rscale>  0 0.29186048E+03</rscale>
<asrwt>0</asrwt>
<pdfrwt beam="1">  1        1 0.16286523E+00 0.29186048E+03</pdfrwt>
<pdfrwt beam="2">  1       -1 0.30948209E-02 0.29186048E+03</pdfrwt>
<totfact> 0.52153056E+03</totfact>
</mgrwt>
</event>
<event>
 4    1  0.1774755E-004  0.2485547E+03  0.7818608E-02  0.1114222E+00
          2   -1    0    0  501    0  0.00000000000E+00  0.00000000000E+00  0.17950157797E+02  0.17950157797E+02  0.00000000000E+00 0. -1.
         -2   -1    0    0    0  501 -0.00000000000E+00 -0.00000000000E+00 -0.86043049791E+03  0.86043049791E+03  0.00000000000E+00 0. -1.
         25    1    1    2    0    0  0.24388812260E+02  0.18594123705E+02 -0.38514752306E+03  0.40457282424E+03  0.12000000000E+03 0.  0.
         25    1    1    2    0    0 -0.24388812260E+02 -0.18594123705E+02 -0.45733281705E+03  0.47380783146E+03  0.12000000000E+03 0.  0.
<mgrwt>
<rscale>  0 0.24855473E+03</rscale>
<asrwt>0</asrwt>
<pdfrwt beam="1">  1        2 0.27615624E-02 0.24855473E+03</pdfrwt>
<pdfrwt beam="2">  1       -2 0.13237394E+00 0.24855473E+03</pdfrwt>
<totfact> 0.15228346E+03</totfact>
</mgrwt>
</event>
<event>
 4    1  0.1774755E-004  0.2599055E+03  0.7818608E-02  0.1107200E+00
          2   -1    0    0  501    0  0.00000000000E+00  0.00000000000E+00  0.24896881188E+04  0.24896881188E+04  0.00000000000E+00 0. -1.
         -2   -1    0    0    0  501 -0.00000000000E+00 -0.00000000000E+00 -0.67830663418E+01  0.67830663418E+01  0.00000000000E+00 0. -1.
         25    1    1    2    0    0 -0.37506319500E+02 -0.12641992380E+02  0.15329818830E+04  0.15381807428E+04  0.12000000000E+03 0.  0.
         25    1    1    2    0    0  0.37506319500E+02  0.12641992380E+02  0.94992316950E+03  0.95829044236E+03  0.12000000000E+03 0.  0.
<mgrwt>
<rscale>  0 0.25990552E+03</rscale>
<asrwt>0</asrwt>
<pdfrwt beam="1">  1        2 0.38302821E+00 0.25990552E+03</pdfrwt>
<pdfrwt beam="2">  1       -2 0.10435506E-02 0.25990552E+03</pdfrwt>
<totfact> 0.81408715E+03</totfact>
</mgrwt>
</event>
<event>
 4    1  0.1774755E-004  0.2815123E+03  0.7818608E-02  0.1094866E+00
          2   -1    0    0  501    0  0.00000000000E+00  0.00000000000E+00  0.24107351469E+04  0.24107351469E+04  0.00000000000E+00 0. -1.
         -2   -1    0    0    0  501 -0.00000000000E+00 -0.00000000000E+00 -0.82183626116E+01  0.82183626116E+01  0.00000000000E+00 0. -1.
         25    1    1    2    0    0 -0.61449388675E+02 -0.27739271602E+02  0.94827626588E+03  0.95821363536E+03  0.12000000000E+03 0.  0.
         25    1    1    2    0    0  0.61449388675E+02  0.27739271602E+02  0.14542405184E+04  0.14607398742E+04  0.12000000000E+03 0.  0.
<mgrwt>
<rscale>  0 0.28151231E+03</rscale>
<asrwt>0</asrwt>
<pdfrwt beam="1">  1        2 0.37088177E+00 0.28151231E+03</pdfrwt>
<pdfrwt beam="2">  1       -2 0.12643654E-02 0.28151231E+03</pdfrwt>
<totfact> 0.67963489E+03</totfact>
</mgrwt>
</event>
<event>
 4    1  0.1774755E-004  0.2909319E+03  0.7818608E-02  0.1089864E+00
         -3   -1    0    0    0  501 -0.00000000000E+00  0.00000000000E+00  0.26901181932E+03  0.26901181932E+03  0.00000000000E+00 0.  1.
          3   -1    0    0  501    0  0.00000000000E+00 -0.00000000000E+00 -0.78659551574E+02  0.78659551574E+02  0.00000000000E+00 0.  1.
         25    1    1    2    0    0 -0.81946319466E+02 -0.22373437133E+00  0.87150773115E+02  0.16944174983E+03  0.12000000000E+03 0.  0.
         25    1    1    2    0    0  0.81946319466E+02  0.22373437133E+00  0.10320149463E+03  0.17822962107E+03  0.12000000000E+03 0.  0.
<mgrwt>
<rscale>  0 0.29093194E+03</rscale>
<asrwt>0</asrwt>
<pdfrwt beam="1">  1        3 0.12101470E-01 0.29093194E+03</pdfrwt>
<pdfrwt beam="2">  1       -3 0.41386433E-01 0.29093194E+03</pdfrwt>
<totfact> 0.79563075E+02</totfact>
</mgrwt>
</event>
<event>
 4    1  0.1774755E-004  0.3477111E+03  0.7818608E-02  0.1063558E+00
          1   -1    0    0  501    0  0.00000000000E+00  0.00000000000E+00  0.56304750140E+03  0.56304750140E+03  0.00000000000E+00 0. -1.
         -1   -1    0    0    0  501 -0.00000000000E+00 -0.00000000000E+00 -0.53682410393E+02  0.53682410393E+02  0.00000000000E+00 0. -1.
         25    1    1    2    0    0 -0.11411847691E+03  0.51487572967E+02  0.27653201953E+03  0.32641071485E+03  0.12000000000E+03 0.  0.
         25    1    1    2    0    0  0.11411847691E+03 -0.51487572967E+02  0.23283307148E+03  0.29031919695E+03  0.12000000000E+03 0.  0.
<mgrwt>
<rscale>  0 0.34771107E+03</rscale>
<asrwt>0</asrwt>
<pdfrwt beam="1">  1        1 0.86622688E-01 0.34771107E+03</pdfrwt>
<pdfrwt beam="2">  1       -1 0.82588328E-02 0.34771107E+03</pdfrwt>
<totfact> 0.31588680E+03</totfact>
</mgrwt>
</event>
<event>
 4    1  0.1774755E-004  0.2461508E+03  0.7818608E-02  0.1115762E+00
          1   -1    0    0  501    0  0.00000000000E+00  0.00000000000E+00  0.29645099855E+04  0.29645099855E+04  0.00000000000E+00 0.  1.
         -1   -1    0    0    0  501 -0.00000000000E+00 -0.00000000000E+00 -0.51096317532E+01  0.51096317532E+01  0.00000000000E+00 0.  1.
         25    1    1    2    0    0  0.45427831762E+01 -0.66377716203E-01  0.11544325757E+04  0.11606615412E+04  0.12000000000E+03 0.  0.
         25    1    1    2    0    0 -0.45427831762E+01  0.66377716203E-01  0.18049677780E+04  0.18089580761E+04  0.12000000000E+03 0.  0.
<mgrwt>
<rscale>  0 0.24615080E+03</rscale>
<asrwt>0</asrwt>
<pdfrwt beam="1">  1        1 0.45607708E+00 0.24615080E+03</pdfrwt>
<pdfrwt beam="2">  1       -1 0.78609956E-03 0.24615080E+03</pdfrwt>
<totfact> 0.20457978E+03</totfact>
</mgrwt>
</event>
<event>
 4    1  0.1774755E-004  0.3439932E+03  0.7818608E-02  0.1065108E+00
          1   -1    0    0  501    0  0.00000000000E+00  0.00000000000E+00  0.14295051052E+03  0.14295051052E+03  0.00000000000E+00 0. -1.
         -1   -1    0    0    0  501 -0.00000000000E+00 -0.00000000000E+00 -0.20694454150E+03  0.20694454150E+03  0.00000000000E+00 0. -1.
         25    1    1    2    0    0 -0.10484699629E+03 -0.33060793872E+02  0.24607736886E+02  0.16459480380E+03  0.12000000000E+03 0.  0.
         25    1    1    2    0    0  0.10484699629E+03  0.33060793872E+02 -0.88601767868E+02  0.18530024823E+03  0.12000000000E+03 0.  0.
<mgrwt>
<rscale>  0 0.34399319E+03</rscale>
<asrwt>0</asrwt>
<pdfrwt beam="1">  1        1 0.21992386E-01 0.34399319E+03</pdfrwt>
<pdfrwt beam="2">  1       -1 0.31837622E-01 0.34399319E+03</pdfrwt>
<totfact> 0.20885259E+03</totfact>
</mgrwt>
</event>
<event>
 4    1  0.1774755E-004  0.2607912E+03  0.7818608E-02  0.1106669E+00
          2   -1    0    0  501    0  0.00000000000E+00  0.00000000000E+00  0.19959800913E+03  0.19959800913E+03  0.00000000000E+00 0. -1.
         -2   -1    0    0    0  501 -0.00000000000E+00 -0.00000000000E+00 -0.85186286648E+02  0.85186286648E+02  0.00000000000E+00 0. -1.
         25    1    1    2    0    0 -0.19939745633E+02 -0.31713645934E+02  0.19383121426E+02  0.12719691109E+03  0.12000000000E+03 0.  0.
         25    1    1    2    0    0  0.19939745633E+02  0.31713645934E+02  0.95028601055E+02  0.15758738469E+03  0.12000000000E+03 0.  0.
<mgrwt>
<rscale>  0 0.26079121E+03</rscale>
<asrwt>0</asrwt>
<pdfrwt beam="1">  1        2 0.30707386E-01 0.26079121E+03</pdfrwt>
<pdfrwt beam="2">  1       -2 0.13105583E-01 0.26079121E+03</pdfrwt>
<totfact> 0.72331132E+03</totfact>
</mgrwt>
</event>
<event>
 4    1  0.1774755E-004  0.3064652E+03  0.7818608E-02  0.1082053E+00
         -1   -1    0    0    0  501 -0.00000000000E+00  0.00000000000E+00  0.15503931501E+02  0.15503931501E+02  0.00000000000E+00 0. -1.
          1   -1    0    0  501    0  0.00000000000E+00 -0.00000000000E+00 -0.15144694358E+04  0.15144694358E+04  0.00000000000E+00 0. -1.
         25    1    1    2    0    0  0.87561222427E+02  0.12670450093E+02 -0.57278536711E+03  0.59187041213E+03  0.12000000000E+03 0.  0.
         25    1    1    2    0    0 -0.87561222427E+02 -0.12670450093E+02 -0.92618013715E+03  0.93810295513E+03  0.12000000000E+03 0.  0.
<mgrwt>
<rscale>  0 0.30646520E+03</rscale>
<asrwt>0</asrwt>
<pdfrwt beam="1">  1        1 0.23299532E+00 0.30646520E+03</pdfrwt>
<pdfrwt beam="2">  1       -1 0.23852200E-02 0.30646520E+03</pdfrwt>
<totfact> 0.37084418E+03</totfact>
</mgrwt>
</event>
<event>
 4    1  0.1774755E-004  0.2452013E+03  0.7818608E-02  0.1116376E+00
          1   -1    0    0  501    0  0.00000000000E+00  0.00000000000E+00  0.69575886271E+03  0.69575886271E+03  0.00000000000E+00 0. -1.
         -1   -1    0    0    0  501 -0.00000000000E+00 -0.00000000000E+00 -0.21603641336E+02  0.21603641336E+02  0.00000000000E+00 0. -1.
         25    1    1    2    0    0 -0.91603875870E+01  0.11390215905E+02  0.27731533659E+03  0.30251850460E+03  0.12000000000E+03 0.  0.
         25    1    1    2    0    0  0.91603875870E+01 -0.11390215905E+02  0.39683988478E+03  0.41484399944E+03  0.12000000000E+03 0.  0.
<mgrwt>
<rscale>  0 0.24520135E+03</rscale>
<asrwt>0</asrwt>
<pdfrwt beam="1">  1        1 0.10703981E+00 0.24520135E+03</pdfrwt>
<pdfrwt beam="2">  1       -1 0.33236377E-02 0.24520135E+03</pdfrwt>
<totfact> 0.91405897E+03</totfact>
</mgrwt>
</event>
<event>
 4    1  0.1774755E-004  0.2583537E+03  0.7818608E-02  0.1108136E+00
         -2   -1    0    0    0  501 -0.00000000000E+00  0.00000000000E+00  0.20778304200E+02  0.20778304200E+02  0.00000000000E+00 0. -1.
          2   -1    0    0  501    0  0.00000000000E+00 -0.00000000000E+00 -0.80308077823E+03  0.80308077823E+03  0.00000000000E+00 0. -1.
         25    1    1    2    0    0 -0.45216129986E+02  0.57639826544E+00 -0.44074074777E+03  0.45901768744E+03  0.12000000000E+03 0.  0.
         25    1    1    2    0    0  0.45216129986E+02 -0.57639826544E+00 -0.34156172627E+03  0.36484139499E+03  0.12000000000E+03 0.  0.
<mgrwt>
<rscale>  0 0.25835369E+03</rscale>
<asrwt>0</asrwt>
<pdfrwt beam="1">  1        2 0.12355087E+00 0.25835369E+03</pdfrwt>
<pdfrwt beam="2">  1       -2 0.31966626E-02 0.25835369E+03</pdfrwt>
<totfact> 0.13503675E+04</totfact>
</mgrwt>
</event>
<event>
 4    1  0.1774755E-004  0.3236170E+03  0.7818608E-02  0.1073997E+00
          1   -1    0    0  501    0  0.00000000000E+00  0.00000000000E+00  0.20035107899E+03  0.20035107899E+03  0.00000000000E+00 0.  1.
         -1   -1    0    0    0  501 -0.00000000000E+00 -0.00000000000E+00 -0.13068052325E+03  0.13068052325E+03  0.00000000000E+00 0.  1.
         25    1    1    2    0    0 -0.99430692304E+02  0.42648384364E+02  0.25880470824E+02  0.16363112794E+03  0.12000000000E+03 0.  0.
         25    1    1    2    0    0  0.99430692304E+02 -0.42648384364E+02  0.43790084919E+02  0.16740047431E+03  0.12000000000E+03 0.  0.
<mgrwt>
<rscale>  0 0.32361696E+03</rscale>
<asrwt>0</asrwt>
<pdfrwt beam="1">  1        1 0.30823243E-01 0.32361696E+03</pdfrwt>
<pdfrwt beam="2">  1       -1 0.20104696E-01 0.32361696E+03</pdfrwt>
<totfact> 0.29283913E+03</totfact>
</mgrwt>
</event>
<event>
 4    1  0.1774755E-004  0.3777699E+03  0.7818608E-02  0.1051761E+00
         -2   -1    0    0    0  501 -0.00000000000E+00  0.00000000000E+00  0.13522430853E+04  0.13522430853E+04  0.00000000000E+00 0.  1.
          2   -1    0    0  501    0  0.00000000000E+00 -0.00000000000E+00 -0.26383964200E+02  0.26383964200E+02  0.00000000000E+00 0.  1.
         25    1    1    2    0    0 -0.67784721041E+02  0.81881643774E+02  0.10274691058E+04  0.10399000603E+04  0.12000000000E+03 0.  0.
         25    1    1    2    0    0  0.67784721041E+02 -0.81881643774E+02  0.29839001526E+03  0.33872698918E+03  0.12000000000E+03 0.  0.
<mgrwt>
<rscale>  0 0.37776995E+03</rscale>
<asrwt>0</asrwt>
<pdfrwt beam="1">  1        2 0.40590725E-02 0.37776995E+03</pdfrwt>
<pdfrwt beam="2">  1       -2 0.20803734E+00 0.37776995E+03</pdfrwt>
<totfact> 0.26671240E+02</totfact>
</mgrwt>
</event>
<event>
 4    1  0.1774755E-004  0.2793083E+03  0.7818608E-02  0.1096067E+00
         -2   -1    0    0    0  501 -0.00000000000E+00  0.00000000000E+00  0.91324979708E+03  0.91324979708E+03  0.00000000000E+00 0.  1.
          2   -1    0    0  501    0  0.00000000000E+00 -0.00000000000E+00 -0.21355905892E+02  0.21355905892E+02  0.00000000000E+00 0.  1.
         25    1    1    2    0    0  0.48229508985E+02  0.37008479912E+02  0.57148594226E+03  0.58710467153E+03  0.12000000000E+03 0.  0.
         25    1    1    2    0    0 -0.48229508985E+02 -0.37008479912E+02  0.32040794893E+03  0.34750103145E+03  0.12000000000E+03 0.  0.
<mgrwt>
<rscale>  0 0.27930826E+03</rscale>
<asrwt>0</asrwt>
<pdfrwt beam="1">  1        2 0.32855247E-02 0.27930826E+03</pdfrwt>
<pdfrwt beam="2">  1       -2 0.14049994E+00 0.27930826E+03</pdfrwt>
<totfact> 0.10388043E+03</totfact>
</mgrwt>
</event>
<event>
 4    1  0.1774755E-004  0.3357562E+03  0.7818608E-02  0.1068618E+00
          2   -1    0    0  501    0  0.00000000000E+00  0.00000000000E+00  0.33190994202E+03  0.33190994202E+03  0.00000000000E+00 0. -1.
         -2   -1    0    0    0  501 -0.00000000000E+00 -0.00000000000E+00 -0.84911761387E+02  0.84911761387E+02  0.00000000000E+00 0. -1.
         25    1    1    2    0    0 -0.60832114350E+02  0.23565709470E+01  0.24812002437E+03  0.28225811956E+03  0.12000000000E+03 0.  0.
         25    1    1    2    0    0  0.60832114350E+02 -0.23565709470E+01 -0.11218437450E+01  0.13456358384E+03  0.12000000000E+03 0.  0.
<mgrwt>
<rscale>  0 0.33575621E+03</rscale>
<asrwt>0</asrwt>
<pdfrwt beam="1">  1        2 0.51063067E-01 0.33575621E+03</pdfrwt>
<pdfrwt beam="2">  1       -2 0.13063348E-01 0.33575621E+03</pdfrwt>
<totfact> 0.42230564E+03</totfact>
</mgrwt>
</event>
<event>
 4    1  0.1774755E-004  0.2958729E+03  0.7818608E-02  0.1087322E+00
          2   -1    0    0  501    0  0.00000000000E+00  0.00000000000E+00  0.18162555713E+04  0.18162555713E+04  0.00000000000E+00 0. -1.
         -2   -1    0    0    0  501 -0.00000000000E+00 -0.00000000000E+00 -0.12049618499E+02  0.12049618499E+02  0.00000000000E+00 0. -1.
         25    1    1    2    0    0  0.83209869064E+01  0.79602878002E+02  0.69909147820E+03  0.71381702971E+03  0.12000000000E+03 0.  0.
         25    1    1    2    0    0 -0.83209869064E+01 -0.79602878002E+02  0.11051144746E+04  0.11144881601E+04  0.12000000000E+03 0.  0.
<mgrwt>
<rscale>  0 0.29587286E+03</rscale>
<asrwt>0</asrwt>
<pdfrwt beam="1">  1        2 0.27942372E+00 0.29587286E+03</pdfrwt>
<pdfrwt beam="2">  1       -2 0.18537889E-02 0.29587286E+03</pdfrwt>
<totfact> 0.80303934E+03</totfact>
</mgrwt>
</event>
<event>
 4    1  0.1774755E-004  0.3559536E+03  0.7818608E-02  0.1060198E+00
          1   -1    0    0  501    0  0.00000000000E+00  0.00000000000E+00  0.80255939315E+02  0.80255939315E+02  0.00000000000E+00 0.  1.
         -1   -1    0    0    0  501 -0.00000000000E+00 -0.00000000000E+00 -0.39468405141E+03  0.39468405141E+03  0.00000000000E+00 0.  1.
         25    1    1    2    0    0 -0.12411810411E+03  0.36172706277E+02 -0.12558383327E+03  0.21652959989E+03  0.12000000000E+03 0.  0.
         25    1    1    2    0    0  0.12411810411E+03 -0.36172706277E+02 -0.18884427882E+03  0.25841039084E+03  0.12000000000E+03 0.  0.
<mgrwt>
<rscale>  0 0.35595359E+03</rscale>
<asrwt>0</asrwt>
<pdfrwt beam="1">  1        1 0.12347068E-01 0.35595359E+03</pdfrwt>
<pdfrwt beam="2">  1       -1 0.60720623E-01 0.35595359E+03</pdfrwt>
<totfact> 0.13763212E+03</totfact>
</mgrwt>
</event>
<event>
 4    1  0.1774755E-004  0.2671984E+03  0.7818608E-02  0.1102894E+00
         -2   -1    0    0    0  501 -0.00000000000E+00  0.00000000000E+00  0.32993884219E+02  0.32993884219E+02  0.00000000000E+00 0.  1.
          2   -1    0    0  501    0  0.00000000000E+00 -0.00000000000E+00 -0.54097120413E+03  0.54097120413E+03  0.00000000000E+00 0.  1.
         25    1    1    2    0    0  0.44849306570E+01  0.48767683172E+02 -0.32360586525E+03  0.34859598040E+03  0.12000000000E+03 0.  0.
         25    1    1    2    0    0 -0.44849306570E+01 -0.48767683172E+02 -0.18437145466E+03  0.22536910795E+03  0.12000000000E+03 0.  0.
<mgrwt>
<rscale>  0 0.26719836E+03</rscale>
<asrwt>0</asrwt>
<pdfrwt beam="1">  1        2 0.83226333E-01 0.26719836E+03</pdfrwt>
<pdfrwt beam="2">  1       -2 0.50759826E-02 0.26719836E+03</pdfrwt>
<totfact> 0.10812397E+04</totfact>
</mgrwt>
</event>
<event>
 4    1  0.1774755E-004  0.7460194E+03  0.7818608E-02  0.9641616E-01
          1   -1    0    0  501    0  0.00000000000E+00  0.00000000000E+00  0.91565953924E+03  0.91565953924E+03  0.00000000000E+00 0. -1.
         -1   -1    0    0    0  501 -0.00000000000E+00 -0.00000000000E+00 -0.15195193151E+03  0.15195193151E+03  0.00000000000E+00 0. -1.
         25    1    1    2    0    0  0.31665911835E+03  0.15334494640E+03  0.33777834570E+03  0.50227669729E+03  0.12000000000E+03 0.  0.
         25    1    1    2    0    0 -0.31665911835E+03 -0.15334494640E+03  0.42592926204E+03  0.56533477346E+03  0.12000000000E+03 0.  0.
<mgrwt>
<rscale>  0 0.74601940E+03</rscale>
<asrwt>0</asrwt>
<pdfrwt beam="1">  1        1 0.14087070E+00 0.74601940E+03</pdfrwt>
<pdfrwt beam="2">  1       -1 0.23377221E-01 0.74601940E+03</pdfrwt>
<totfact> 0.28061244E+02</totfact>
</mgrwt>
</event>
<event>
 4    1  0.1774755E-004  0.2471254E+03  0.7818608E-02  0.1115135E+00
          2   -1    0    0  501    0  0.00000000000E+00  0.00000000000E+00  0.16604369211E+04  0.16604369211E+04  0.00000000000E+00 0.  1.
         -2   -1    0    0    0  501 -0.00000000000E+00 -0.00000000000E+00 -0.91950166909E+01  0.91950166909E+01  0.00000000000E+00 0.  1.
         25    1    1    2    0    0 -0.11313639690E+02 -0.24004982970E+02  0.73922921517E+03  0.74937578704E+03  0.12000000000E+03 0.  0.
         25    1    1    2    0    0  0.11313639690E+02  0.24004982970E+02  0.91201268926E+03  0.92025615077E+03  0.12000000000E+03 0.  0.
<mgrwt>
<rscale>  0 0.24712544E+03</rscale>
<asrwt>0</asrwt>
<pdfrwt beam="1">  1        2 0.25545160E+00 0.24712544E+03</pdfrwt>
<pdfrwt beam="2">  1       -2 0.14146193E-02 0.24712544E+03</pdfrwt>
<totfact> 0.14362218E+04</totfact>
</mgrwt>
</event>
<event>
 4    1  0.1774755E-004  0.2559970E+03  0.7818608E-02  0.1109572E+00
          2   -1    0    0  501    0  0.00000000000E+00  0.00000000000E+00  0.67592445838E+03  0.67592445838E+03  0.00000000000E+00 0.  1.
         -2   -1    0    0    0  501 -0.00000000000E+00 -0.00000000000E+00 -0.24238821703E+02  0.24238821703E+02  0.00000000000E+00 0.  1.
         25    1    1    2    0    0  0.32682097665E+02 -0.10120712802E+02  0.24785497805E+03  0.27749349268E+03  0.12000000000E+03 0.  0.
         25    1    1    2    0    0 -0.32682097665E+02  0.10120712802E+02  0.40383065863E+03  0.42266978741E+03  0.12000000000E+03 0.  0.
<mgrwt>
<rscale>  0 0.25599697E+03</rscale>
<asrwt>0</asrwt>
<pdfrwt beam="1">  1        2 0.10398836E+00 0.25599697E+03</pdfrwt>
<pdfrwt beam="2">  1       -2 0.37290500E-02 0.25599697E+03</pdfrwt>
<totfact> 0.13263177E+04</totfact>
</mgrwt>
</event>
<event>
 4    1  0.1774755E-004  0.5555043E+03  0.7818608E-02  0.1000228E+00
          2   -1    0    0  501    0  0.00000000000E+00  0.00000000000E+00  0.26025106425E+04  0.26025106425E+04  0.00000000000E+00 0.  1.
         -2   -1    0    0    0  501 -0.00000000000E+00 -0.00000000000E+00 -0.29643011806E+02  0.29643011806E+02  0.00000000000E+00 0.  1.
         25    1    1    2    0    0 -0.15793174236E+03  0.11296928831E+03  0.53661517623E+03  0.58314693064E+03  0.12000000000E+03 0.  0.
         25    1    1    2    0    0  0.15793174236E+03 -0.11296928831E+03  0.20362524545E+04  0.20490067237E+04  0.12000000000E+03 0.  0.
<mgrwt>
<rscale>  0 0.55550429E+03</rscale>
<asrwt>0</asrwt>
<pdfrwt beam="1">  1        2 0.40038607E+00 0.55550429E+03</pdfrwt>
<pdfrwt beam="2">  1       -2 0.45604654E-02 0.55550429E+03</pdfrwt>
<totfact> 0.76482656E+02</totfact>
</mgrwt>
</event>
<event>
 4    1  0.1774755E-004  0.2650804E+03  0.7818608E-02  0.1104129E+00
          2   -1    0    0  501    0  0.00000000000E+00  0.00000000000E+00  0.56851732864E+02  0.56851732864E+02  0.00000000000E+00 0. -1.
         -2   -1    0    0    0  501 -0.00000000000E+00 -0.00000000000E+00 -0.30899496121E+03  0.30899496121E+03  0.00000000000E+00 0. -1.
         25    1    1    2    0    0  0.80470249609E+01 -0.17390180681E+02 -0.53045304894E+02  0.13259327798E+03  0.12000000000E+03 0.  0.
         25    1    1    2    0    0 -0.80470249609E+01  0.17390180681E+02 -0.19909792345E+03  0.23325341609E+03  0.12000000000E+03 0.  0.
<mgrwt>
<rscale>  0 0.26508036E+03</rscale>
<asrwt>0</asrwt>
<pdfrwt beam="1">  1        2 0.87464207E-02 0.26508036E+03</pdfrwt>
<pdfrwt beam="2">  1       -2 0.47537685E-01 0.26508036E+03</pdfrwt>
<totfact> 0.32059907E+03</totfact>
</mgrwt>
</event>
<event>
 4    1  0.1774755E-004  0.2737339E+03  0.7818608E-02  0.1099161E+00
         -2   -1    0    0    0  501 -0.00000000000E+00  0.00000000000E+00  0.14964744420E+02  0.14964744420E+02  0.00000000000E+00 0.  1.
          2   -1    0    0  501    0  0.00000000000E+00 -0.00000000000E+00 -0.12517799675E+04  0.12517799675E+04  0.00000000000E+00 0.  1.
         25    1    1    2    0    0  0.85769875291E+01 -0.17176607963E+02 -0.32705061411E+03  0.34889927596E+03  0.12000000000E+03 0.  0.
         25    1    1    2    0    0 -0.85769875291E+01  0.17176607963E+02 -0.90976460896E+03  0.91784543595E+03  0.12000000000E+03 0.  0.
<mgrwt>
<rscale>  0 0.27373394E+03</rscale>
<asrwt>0</asrwt>
<pdfrwt beam="1">  1        2 0.19258155E+00 0.27373394E+03</pdfrwt>
<pdfrwt beam="2">  1       -2 0.23022682E-02 0.27373394E+03</pdfrwt>
<totfact> 0.11711306E+04</totfact>
</mgrwt>
</event>
<event>
 4    1  0.1774755E-004  0.2515053E+03  0.7818608E-02  0.1112357E+00
          2   -1    0    0  501    0  0.00000000000E+00  0.00000000000E+00  0.20064980710E+04  0.20064980710E+04  0.00000000000E+00 0.  1.
         -2   -1    0    0    0  501 -0.00000000000E+00 -0.00000000000E+00 -0.78812557306E+01  0.78812557306E+01  0.00000000000E+00 0.  1.
         25    1    1    2    0    0  0.16307403035E+02 -0.93587392299E+01  0.12600975559E+04  0.12659381375E+04  0.12000000000E+03 0.  0.
         25    1    1    2    0    0 -0.16307403035E+02  0.93587392299E+01  0.73851925932E+03  0.74844118926E+03  0.12000000000E+03 0.  0.
<mgrwt>
<rscale>  0 0.25150526E+03</rscale>
<asrwt>0</asrwt>
<pdfrwt beam="1">  1        2 0.30869161E+00 0.25150526E+03</pdfrwt>
<pdfrwt beam="2">  1       -2 0.12125025E-02 0.25150526E+03</pdfrwt>
<totfact> 0.11847721E+04</totfact>
</mgrwt>
</event>
<event>
 4    1  0.1774755E-004  0.2674154E+03  0.7818608E-02  0.1102768E+00
          2   -1    0    0  501    0  0.00000000000E+00  0.00000000000E+00  0.10254370700E+02  0.10254370700E+02  0.00000000000E+00 0.  1.
         -2   -1    0    0    0  501 -0.00000000000E+00 -0.00000000000E+00 -0.17434270406E+04  0.17434270406E+04  0.00000000000E+00 0.  1.
         25    1    1    2    0    0  0.86568358147E+01 -0.36786704962E+02 -0.11634745811E+04  0.11702569390E+04  0.12000000000E+03 0.  0.
         25    1    1    2    0    0 -0.86568358147E+01  0.36786704962E+02 -0.56969808879E+03  0.58342447226E+03  0.12000000000E+03 0.  0.
<mgrwt>
<rscale>  0 0.26741539E+03</rscale>
<asrwt>0</asrwt>
<pdfrwt beam="1">  1        2 0.15775938E-02 0.26741539E+03</pdfrwt>
<pdfrwt beam="2">  1       -2 0.26821983E+00 0.26741539E+03</pdfrwt>
<totfact> 0.42724408E+02</totfact>
</mgrwt>
</event>
<event>
 4    1  0.1774755E-004  0.2633035E+03  0.7818608E-02  0.1105175E+00
         -1   -1    0    0    0  501 -0.00000000000E+00  0.00000000000E+00  0.10756059384E+02  0.10756059384E+02  0.00000000000E+00 0. -1.
          1   -1    0    0  501    0  0.00000000000E+00 -0.00000000000E+00 -0.16113879942E+04  0.16113879942E+04  0.00000000000E+00 0. -1.
         25    1    1    2    0    0  0.51730669185E+02  0.13295932015E+02 -0.85519186523E+03  0.86522018602E+03  0.12000000000E+03 0.  0.
         25    1    1    2    0    0 -0.51730669185E+02 -0.13295932015E+02 -0.74544006962E+03  0.75692386760E+03  0.12000000000E+03 0.  0.
<mgrwt>
<rscale>  0 0.26330351E+03</rscale>
<asrwt>0</asrwt>
<pdfrwt beam="1">  1        1 0.24790578E+00 0.26330351E+03</pdfrwt>
<pdfrwt beam="2">  1       -1 0.16547788E-02 0.26330351E+03</pdfrwt>
<totfact> 0.54622260E+03</totfact>
</mgrwt>
</event>
<event>
 4    1  0.1774755E-004  0.3193615E+03  0.7818608E-02  0.1075944E+00
         -1   -1    0    0    0  501 -0.00000000000E+00  0.00000000000E+00  0.33354806077E+02  0.33354806077E+02  0.00000000000E+00 0.  1.
          1   -1    0    0  501    0  0.00000000000E+00 -0.00000000000E+00 -0.76444574690E+03  0.76444574690E+03  0.00000000000E+00 0.  1.
         25    1    1    2    0    0 -0.22800956773E+02  0.86138379012E+02 -0.50593478719E+03  0.52755067326E+03  0.12000000000E+03 0.  0.
         25    1    1    2    0    0  0.22800956773E+02 -0.86138379012E+02 -0.22515615364E+03  0.27024987972E+03  0.12000000000E+03 0.  0.
<mgrwt>
<rscale>  0 0.31936149E+03</rscale>
<asrwt>0</asrwt>
<pdfrwt beam="1">  1        1 0.11760703E+00 0.31936149E+03</pdfrwt>
<pdfrwt beam="2">  1       -1 0.51315090E-02 0.31936149E+03</pdfrwt>
<totfact> 0.41897011E+03</totfact>
</mgrwt>
</event>
<event>
 4    1  0.1774755E-004  0.3974647E+03  0.7818608E-02  0.1044661E+00
         -2   -1    0    0    0  501 -0.00000000000E+00  0.00000000000E+00  0.24132778951E+03  0.24132778951E+03  0.00000000000E+00 0. -1.
          2   -1    0    0  501    0  0.00000000000E+00 -0.00000000000E+00 -0.16365519574E+03  0.16365519574E+03  0.00000000000E+00 0. -1.
         25    1    1    2    0    0 -0.49121002421E+02  0.80927345705E+02  0.16825237183E+03  0.22731249149E+03  0.12000000000E+03 0.  0.
         25    1    1    2    0    0  0.49121002421E+02 -0.80927345705E+02 -0.90579778053E+02  0.17767049376E+03  0.12000000000E+03 0.  0.
<mgrwt>
<rscale>  0 0.39746470E+03</rscale>
<asrwt>0</asrwt>
<pdfrwt beam="1">  1        2 0.25177722E-01 0.39746470E+03</pdfrwt>
<pdfrwt beam="2">  1       -2 0.37127352E-01 0.39746470E+03</pdfrwt>
<totfact> 0.14765619E+03</totfact>
</mgrwt>
</event>
<event>
 4    1  0.1774755E-004  0.2704891E+03  0.7818608E-02  0.1101000E+00
         -2   -1    0    0    0  501 -0.00000000000E+00  0.00000000000E+00  0.32108541372E+03  0.32108541372E+03  0.00000000000E+00 0.  1.
          2   -1    0    0  501    0  0.00000000000E+00 -0.00000000000E+00 -0.56966422642E+02  0.56966422642E+02  0.00000000000E+00 0.  1.
         25    1    1    2    0    0  0.58723413953E+02  0.20158028177E+02  0.14048055019E+03  0.19490913378E+03  0.12000000000E+03 0.  0.
         25    1    1    2    0    0 -0.58723413953E+02 -0.20158028177E+02  0.12363844088E+03  0.18314270258E+03  0.12000000000E+03 0.  0.
<mgrwt>
<rscale>  0 0.27048909E+03</rscale>
<asrwt>0</asrwt>
<pdfrwt beam="1">  1        2 0.87640653E-02 0.27048909E+03</pdfrwt>
<pdfrwt beam="2">  1       -2 0.49397755E-01 0.27048909E+03</pdfrwt>
<totfact> 0.29655638E+03</totfact>
</mgrwt>
</event>
<event>
 4    1  0.1774755E-004  0.2427716E+03  0.7818608E-02  0.1117960E+00
         -2   -1    0    0    0  501 -0.00000000000E+00  0.00000000000E+00  0.55103622822E+02  0.55103622822E+02  0.00000000000E+00 0. -1.
          2   -1    0    0  501    0  0.00000000000E+00 -0.00000000000E+00 -0.26739650402E+03  0.26739650402E+03  0.00000000000E+00 0. -1.
         25    1    1    2    0    0 -0.10842450388E+02 -0.48131883499E+01 -0.12463905425E+03  0.17342323765E+03  0.12000000000E+03 0.  0.
         25    1    1    2    0    0  0.10842450388E+02  0.48131883499E+01 -0.87653826942E+02  0.14907688919E+03  0.12000000000E+03 0.  0.
<mgrwt>
<rscale>  0 0.24277163E+03</rscale>
<asrwt>0</asrwt>
<pdfrwt beam="1">  1        2 0.41137923E-01 0.24277163E+03</pdfrwt>
<pdfrwt beam="2">  1       -2 0.84774805E-02 0.24277163E+03</pdfrwt>
<totfact> 0.10520694E+04</totfact>
</mgrwt>
</event>
<event>
 4    1  0.1774755E-004  0.2671676E+03  0.7818608E-02  0.1102912E+00
         -1   -1    0    0    0  501 -0.00000000000E+00  0.00000000000E+00  0.62374991041E+01  0.62374991041E+01  0.00000000000E+00 0. -1.
          1   -1    0    0  501    0  0.00000000000E+00 -0.00000000000E+00 -0.28608635787E+04  0.28608635787E+04  0.00000000000E+00 0. -1.
         25    1    1    2    0    0  0.58649889122E+02  0.13409684538E+01 -0.14459818437E+04  0.14521381133E+04  0.12000000000E+03 0.  0.
         25    1    1    2    0    0 -0.58649889122E+02 -0.13409684538E+01 -0.14086442358E+04  0.14149629645E+04  0.12000000000E+03 0.  0.
<mgrwt>
<rscale>  0 0.26716762E+03</rscale>
<asrwt>0</asrwt>
<pdfrwt beam="1">  1        1 0.44013369E+00 0.26716762E+03</pdfrwt>
<pdfrwt beam="2">  1       -1 0.95961343E-03 0.26716762E+03</pdfrwt>
<totfact> 0.18063875E+03</totfact>
</mgrwt>
</event>
<event>
 4    1  0.1774755E-004  0.2842819E+03  0.7818608E-02  0.1093373E+00
         -2   -1    0    0    0  501 -0.00000000000E+00  0.00000000000E+00  0.93092629424E+02  0.93092629424E+02  0.00000000000E+00 0.  1.
          2   -1    0    0  501    0  0.00000000000E+00 -0.00000000000E+00 -0.21703166007E+03  0.21703166007E+03  0.00000000000E+00 0.  1.
         25    1    1    2    0    0 -0.57797476586E+02 -0.47123976110E+02 -0.78969095290E+02  0.16185590948E+03  0.12000000000E+03 0.  0.
         25    1    1    2    0    0  0.57797476586E+02  0.47123976110E+02 -0.44969935353E+02  0.14826838001E+03  0.12000000000E+03 0.  0.
<mgrwt>
<rscale>  0 0.28428189E+03</rscale>
<asrwt>0</asrwt>
<pdfrwt beam="1">  1        2 0.33389486E-01 0.28428189E+03</pdfrwt>
<pdfrwt beam="2">  1       -2 0.14321943E-01 0.28428189E+03</pdfrwt>
<totfact> 0.57271651E+03</totfact>
</mgrwt>
</event>
<event>
 4    1  0.1774755E-004  0.2743775E+03  0.7818608E-02  0.1098800E+00
          2   -1    0    0  501    0  0.00000000000E+00  0.00000000000E+00  0.17792145855E+04  0.17792145855E+04  0.00000000000E+00 0. -1.
         -2   -1    0    0    0  501 -0.00000000000E+00 -0.00000000000E+00 -0.10578125680E+02  0.10578125680E+02  0.00000000000E+00 0. -1.
         25    1    1    2    0    0 -0.19949899980E+02  0.60790351956E+02  0.10023287287E+04  0.10115119108E+04  0.12000000000E+03 0.  0.
         25    1    1    2    0    0  0.19949899980E+02 -0.60790351956E+02  0.76630773117E+03  0.77828080038E+03  0.12000000000E+03 0.  0.
<mgrwt>
<rscale>  0 0.27437752E+03</rscale>
<asrwt>0</asrwt>
<pdfrwt beam="1">  1        2 0.27372508E+00 0.27437752E+03</pdfrwt>
<pdfrwt beam="2">  1       -2 0.16274054E-02 0.27437752E+03</pdfrwt>
<totfact> 0.10159917E+04</totfact>
</mgrwt>
</event>
<event>
 4    1  0.1774755E-004  0.2404504E+03  0.7818608E-02  0.1119493E+00
          1   -1    0    0  501    0  0.00000000000E+00  0.00000000000E+00  0.83884551331E+03  0.83884551331E+03  0.00000000000E+00 0. -1.
         -1   -1    0    0    0  501 -0.00000000000E+00 -0.00000000000E+00 -0.17230936013E+02  0.17230936013E+02  0.00000000000E+00 0. -1.
         25    1    1    2    0    0  0.67898348844E+01 -0.28259554470E+01  0.41107090974E+03  0.42829123353E+03  0.12000000000E+03 0.  0.
         25    1    1    2    0    0 -0.67898348844E+01  0.28259554470E+01  0.41054366756E+03  0.42778521579E+03  0.12000000000E+03 0.  0.
<mgrwt>
<rscale>  0 0.24045036E+03</rscale>
<asrwt>0</asrwt>
<pdfrwt beam="1">  1        1 0.12905312E+00 0.24045036E+03</pdfrwt>
<pdfrwt beam="2">  1       -1 0.26509139E-02 0.24045036E+03</pdfrwt>
<totfact> 0.96132796E+03</totfact>
</mgrwt>
</event>
<event>
 4    1  0.1774755E-004  0.2509529E+03  0.7818608E-02  0.1112704E+00
         -1   -1    0    0    0  501 -0.00000000000E+00  0.00000000000E+00  0.87433932776E+02  0.87433932776E+02  0.00000000000E+00 0.  1.
          1   -1    0    0  501    0  0.00000000000E+00 -0.00000000000E+00 -0.18007130453E+03  0.18007130453E+03  0.00000000000E+00 0.  1.
         25    1    1    2    0    0  0.34896432336E+02 -0.11227814495E+02 -0.47085529181E+02  0.13401817737E+03  0.12000000000E+03 0.  0.
         25    1    1    2    0    0 -0.34896432336E+02  0.11227814495E+02 -0.45551842576E+02  0.13348705994E+03  0.12000000000E+03 0.  0.
<mgrwt>
<rscale>  0 0.25095292E+03</rscale>
<asrwt>0</asrwt>
<pdfrwt beam="1">  1        1 0.27703277E-01 0.25095292E+03</pdfrwt>
<pdfrwt beam="2">  1       -1 0.13451374E-01 0.25095292E+03</pdfrwt>
<totfact> 0.63303661E+03</totfact>
</mgrwt>
</event>
<event>
 4    1  0.1774755E-004  0.3013692E+03  0.7818608E-02  0.1084558E+00
         -1   -1    0    0    0  501 -0.00000000000E+00  0.00000000000E+00  0.16717320514E+04  0.16717320514E+04  0.00000000000E+00 0. -1.
          1   -1    0    0  501    0  0.00000000000E+00 -0.00000000000E+00 -0.13582225581E+02  0.13582225581E+02  0.00000000000E+00 0. -1.
         25    1    1    2    0    0  0.16938402398E+02  0.86928664052E+02  0.94931871618E+03  0.96096281249E+03  0.12000000000E+03 0.  0.
         25    1    1    2    0    0 -0.16938402398E+02 -0.86928664052E+02  0.70883110965E+03  0.72435146450E+03  0.12000000000E+03 0.  0.
<mgrwt>
<rscale>  0 0.30136915E+03</rscale>
<asrwt>0</asrwt>
<pdfrwt beam="1">  1        1 0.20895745E-02 0.30136915E+03</pdfrwt>
<pdfrwt beam="2">  1       -1 0.25718938E+00 0.30136915E+03</pdfrwt>
<totfact> 0.40624435E+02</totfact>
</mgrwt>
</event>
<event>
 4    1  0.1774755E-004  0.2600986E+03  0.7818608E-02  0.1107084E+00
         -1   -1    0    0    0  501 -0.00000000000E+00  0.00000000000E+00  0.10747419687E+03  0.10747419687E+03  0.00000000000E+00 0.  1.
          1   -1    0    0  501    0  0.00000000000E+00 -0.00000000000E+00 -0.15736631362E+03  0.15736631362E+03  0.00000000000E+00 0.  1.
         25    1    1    2    0    0  0.11015581394E+02  0.48500166992E+02 -0.18570195319E+02  0.13121913498E+03  0.12000000000E+03 0.  0.
         25    1    1    2    0    0 -0.11015581394E+02 -0.48500166992E+02 -0.31321921433E+02  0.13362137551E+03  0.12000000000E+03 0.  0.
<mgrwt>
<rscale>  0 0.26009858E+03</rscale>
<asrwt>0</asrwt>
<pdfrwt beam="1">  1        1 0.24210202E-01 0.26009858E+03</pdfrwt>
<pdfrwt beam="2">  1       -1 0.16534492E-01 0.26009858E+03</pdfrwt>
<totfact> 0.54238788E+03</totfact>
</mgrwt>
</event>
<event>
 4    1  0.1774755E-004  0.3196668E+03  0.7818608E-02  0.1075803E+00
         -3   -1    0    0    0  501 -0.00000000000E+00  0.00000000000E+00  0.73406380705E+02  0.73406380705E+02  0.00000000000E+00 0.  1.
          3   -1    0    0  501    0  0.00000000000E+00 -0.00000000000E+00 -0.34801766327E+03  0.34801766327E+03  0.00000000000E+00 0.  1.
         25    1    1    2    0    0 -0.69073671292E+02 -0.22095267243E+02 -0.36152009908E+02  0.14479758534E+03  0.12000000000E+03 0.  0.
         25    1    1    2    0    0  0.69073671292E+02  0.22095267243E+02 -0.23845927265E+03  0.27662645863E+03  0.12000000000E+03 0.  0.
<mgrwt>
<rscale>  0 0.31966681E+03</rscale>
<asrwt>0</asrwt>
<pdfrwt beam="1">  1        3 0.53541179E-01 0.31966681E+03</pdfrwt>
<pdfrwt beam="2">  1       -3 0.11293289E-01 0.31966681E+03</pdfrwt>
<totfact> 0.53922481E+02</totfact>
</mgrwt>
</event>
<event>
 4    1  0.1774755E-004  0.3450048E+03  0.7818608E-02  0.1064684E+00
         -1   -1    0    0    0  501 -0.00000000000E+00  0.00000000000E+00  0.46280988577E+03  0.46280988577E+03  0.00000000000E+00 0. -1.
          1   -1    0    0  501    0  0.00000000000E+00 -0.00000000000E+00 -0.64296543419E+02  0.64296543419E+02  0.00000000000E+00 0. -1.
         25    1    1    2    0    0 -0.11338408983E+03 -0.18042746550E+02  0.12799417052E+03  0.20967594096E+03  0.12000000000E+03 0.  0.
         25    1    1    2    0    0  0.11338408983E+03  0.18042746550E+02  0.27051917183E+03  0.31743048823E+03  0.12000000000E+03 0.  0.
<mgrwt>
<rscale>  0 0.34500479E+03</rscale>
<asrwt>0</asrwt>
<pdfrwt beam="1">  1        1 0.98917762E-02 0.34500479E+03</pdfrwt>
<pdfrwt beam="2">  1       -1 0.71201519E-01 0.34500479E+03</pdfrwt>
<totfact> 0.13532577E+03</totfact>
</mgrwt>
</event>
<event>
 4    1  0.1774755E-004  0.2924739E+03  0.7818608E-02  0.1089065E+00
         -2   -1    0    0    0  501 -0.00000000000E+00  0.00000000000E+00  0.33695109671E+02  0.33695109671E+02  0.00000000000E+00 0. -1.
          2   -1    0    0  501    0  0.00000000000E+00 -0.00000000000E+00 -0.63466931392E+03  0.63466931392E+03  0.00000000000E+00 0. -1.
         25    1    1    2    0    0 -0.59424090203E+02  0.24275504216E+02 -0.42279878862E+03  0.44416138762E+03  0.12000000000E+03 0.  0.
         25    1    1    2    0    0  0.59424090203E+02 -0.24275504216E+02 -0.17817541564E+03  0.22420303597E+03  0.12000000000E+03 0.  0.
<mgrwt>
<rscale>  0 0.29247395E+03</rscale>
<asrwt>0</asrwt>
<pdfrwt beam="1">  1        2 0.97641427E-01 0.29247395E+03</pdfrwt>
<pdfrwt beam="2">  1       -2 0.51838634E-02 0.29247395E+03</pdfrwt>
<totfact> 0.87340285E+03</totfact>
</mgrwt>
</event>
<event>
 4    1  0.1774755E-004  0.2954937E+03  0.7818608E-02  0.1087515E+00
         -2   -1    0    0    0  501 -0.00000000000E+00  0.00000000000E+00  0.11748994118E+02  0.11748994118E+02  0.00000000000E+00 0. -1.
          2   -1    0    0  501    0  0.00000000000E+00 -0.00000000000E+00 -0.18579575824E+04  0.18579575824E+04  0.00000000000E+00 0. -1.
         25    1    1    2    0    0  0.73276085302E+02 -0.45341152686E+02 -0.93564452696E+03  0.94723591868E+03  0.12000000000E+03 0.  0.
         25    1    1    2    0    0 -0.73276085302E+02  0.45341152686E+02 -0.91056406132E+03  0.92247065784E+03  0.12000000000E+03 0.  0.
<mgrwt>
<rscale>  0 0.29549371E+03</rscale>
<asrwt>0</asrwt>
<pdfrwt beam="1">  1        2 0.28583948E+00 0.29549371E+03</pdfrwt>
<pdfrwt beam="2">  1       -2 0.18075385E-02 0.29549371E+03</pdfrwt>
<totfact> 0.79237396E+03</totfact>
</mgrwt>
</event>
<event>
 4    1  0.1774755E-004  0.3583380E+03  0.7818608E-02  0.1059244E+00
          2   -1    0    0  501    0  0.00000000000E+00  0.00000000000E+00  0.35901067795E+04  0.35901067795E+04  0.00000000000E+00 0. -1.
         -2   -1    0    0    0  501 -0.00000000000E+00 -0.00000000000E+00 -0.89416658345E+01  0.89416658345E+01  0.00000000000E+00 0. -1.
         25    1    1    2    0    0  0.66403623565E+02  0.11352588951E+03  0.15887146055E+04  0.15986593341E+04  0.12000000000E+03 0.  0.
         25    1    1    2    0    0 -0.66403623565E+02 -0.11352588951E+03  0.19924505081E+04  0.20003891112E+04  0.12000000000E+03 0.  0.
<mgrwt>
<rscale>  0 0.35833803E+03</rscale>
<asrwt>0</asrwt>
<pdfrwt beam="1">  1        2 0.55232297E+00 0.35833803E+03</pdfrwt>
<pdfrwt beam="2">  1       -2 0.13756438E-02 0.35833803E+03</pdfrwt>
<totfact> 0.11640740E+03</totfact>
</mgrwt>
</event>
<event>
 4    1  0.1774755E-004  0.3002214E+03  0.7818608E-02  0.1085130E+00
          1   -1    0    0  501    0  0.00000000000E+00  0.00000000000E+00  0.16277305269E+04  0.16277305269E+04  0.00000000000E+00 0. -1.
         -1   -1    0    0    0  501 -0.00000000000E+00 -0.00000000000E+00 -0.13843339460E+02  0.13843339460E+02  0.00000000000E+00 0. -1.
         25    1    1    2    0    0  0.43662432865E+02  0.26216950448E+02  0.39998181300E+03  0.42068894360E+03  0.12000000000E+03 0.  0.
         25    1    1    2    0    0 -0.43662432865E+02 -0.26216950448E+02  0.12139053744E+04  0.12208849227E+04  0.12000000000E+03 0.  0.
<mgrwt>
<rscale>  0 0.30022143E+03</rscale>
<asrwt>0</asrwt>
<pdfrwt beam="1">  1        1 0.25041993E+00 0.30022143E+03</pdfrwt>
<pdfrwt beam="2">  1       -1 0.21297458E-02 0.30022143E+03</pdfrwt>
<totfact> 0.36872520E+03</totfact>
</mgrwt>
</event>
<event>
 4    1  0.1774755E-004  0.2649737E+03  0.7818608E-02  0.1104191E+00
          2   -1    0    0  501    0  0.00000000000E+00  0.00000000000E+00  0.14465359533E+04  0.14465359533E+04  0.00000000000E+00 0.  1.
         -2   -1    0    0    0  501 -0.00000000000E+00 -0.00000000000E+00 -0.12134344262E+02  0.12134344262E+02  0.00000000000E+00 0.  1.
         25    1    1    2    0    0 -0.28903368577E+02  0.70863406985E+01  0.45508454984E+03  0.47157986433E+03  0.12000000000E+03 0.  0.
         25    1    1    2    0    0  0.28903368577E+02 -0.70863406985E+01  0.97931705921E+03  0.98709043324E+03  0.12000000000E+03 0.  0.
<mgrwt>
<rscale>  0 0.26497370E+03</rscale>
<asrwt>0</asrwt>
<pdfrwt beam="1">  1        2 0.22254386E+00 0.26497370E+03</pdfrwt>
<pdfrwt beam="2">  1       -2 0.18668233E-02 0.26497370E+03</pdfrwt>
<totfact> 0.12459230E+04</totfact>
</mgrwt>
</event>
<event>
 4    1  0.1774755E-004  0.2847185E+03  0.7818608E-02  0.1093139E+00
          1   -1    0    0  501    0  0.00000000000E+00  0.00000000000E+00  0.12614405347E+03  0.12614405347E+03  0.00000000000E+00 0.  1.
         -1   -1    0    0    0  501 -0.00000000000E+00 -0.00000000000E+00 -0.16065885192E+03  0.16065885192E+03  0.00000000000E+00 0.  1.
         25    1    1    2    0    0  0.41623203365E+02 -0.64196020445E+02 -0.20824326091E+02  0.14383070832E+03  0.12000000000E+03 0.  0.
         25    1    1    2    0    0 -0.41623203365E+02  0.64196020445E+02 -0.13690472358E+02  0.14297219706E+03  0.12000000000E+03 0.  0.
<mgrwt>
<rscale>  0 0.28471852E+03</rscale>
<asrwt>0</asrwt>
<pdfrwt beam="1">  1        1 0.19406778E-01 0.28471852E+03</pdfrwt>
<pdfrwt beam="2">  1       -1 0.24716746E-01 0.28471852E+03</pdfrwt>
<totfact> 0.37538707E+03</totfact>
</mgrwt>
</event>
<event>
 4    1  0.1774755E-004  0.3372511E+03  0.7818608E-02  0.1067973E+00
         -1   -1    0    0    0  501 -0.00000000000E+00  0.00000000000E+00  0.47563928221E+02  0.47563928221E+02  0.00000000000E+00 0. -1.
          1   -1    0    0  501    0  0.00000000000E+00 -0.00000000000E+00 -0.59781819010E+03  0.59781819010E+03  0.00000000000E+00 0. -1.
         25    1    1    2    0    0 -0.38054914431E+02  0.76681052311E+02 -0.11841272350E+03  0.18907599896E+03  0.12000000000E+03 0.  0.
         25    1    1    2    0    0  0.38054914431E+02 -0.76681052311E+02 -0.43184153838E+03  0.45630611936E+03  0.12000000000E+03 0.  0.
<mgrwt>
<rscale>  0 0.33725113E+03</rscale>
<asrwt>0</asrwt>
<pdfrwt beam="1">  1        1 0.91972024E-01 0.33725113E+03</pdfrwt>
<pdfrwt beam="2">  1       -1 0.73175278E-02 0.33725113E+03</pdfrwt>
<totfact> 0.34986423E+03</totfact>
</mgrwt>
</event>
<event>
 4    1  0.1774755E-004  0.2811738E+03  0.7818608E-02  0.1095050E+00
         -2   -1    0    0    0  501 -0.00000000000E+00  0.00000000000E+00  0.77683025840E+02  0.77683025840E+02  0.00000000000E+00 0.  1.
          2   -1    0    0  501    0  0.00000000000E+00 -0.00000000000E+00 -0.25442730333E+03  0.25442730333E+03  0.00000000000E+00 0.  1.
         25    1    1    2    0    0 -0.42204290468E+01  0.71921680754E+02 -0.72785230848E+02  0.15776003934E+03  0.12000000000E+03 0.  0.
         25    1    1    2    0    0  0.42204290468E+01 -0.71921680754E+02 -0.10395904664E+03  0.17435028982E+03  0.12000000000E+03 0.  0.
<mgrwt>
<rscale>  0 0.28117385E+03</rscale>
<asrwt>0</asrwt>
<pdfrwt beam="1">  1        2 0.39142662E-01 0.28117385E+03</pdfrwt>
<pdfrwt beam="2">  1       -2 0.11951235E-01 0.28117385E+03</pdfrwt>
<totfact> 0.64707372E+03</totfact>
</mgrwt>
</event>
<event>
 4    1  0.1774755E-004  0.2434287E+03  0.7818608E-02  0.1117530E+00
          1   -1    0    0  501    0  0.00000000000E+00  0.00000000000E+00  0.28958159732E+03  0.28958159732E+03  0.00000000000E+00 0.  1.
         -1   -1    0    0    0  501 -0.00000000000E+00 -0.00000000000E+00 -0.51157905044E+02  0.51157905044E+02  0.00000000000E+00 0.  1.
         25    1    1    2    0    0 -0.86457806104E+01  0.12438066309E+02  0.13824705542E+03  0.18368914870E+03  0.12000000000E+03 0.  0.
         25    1    1    2    0    0  0.86457806104E+01 -0.12438066309E+02  0.10017663685E+03  0.15705035367E+03  0.12000000000E+03 0.  0.
<mgrwt>
<rscale>  0 0.24342874E+03</rscale>
<asrwt>0</asrwt>
<pdfrwt beam="1">  1        1 0.44551014E-01 0.24342874E+03</pdfrwt>
<pdfrwt beam="2">  1       -1 0.78704471E-02 0.24342874E+03</pdfrwt>
<totfact> 0.79742194E+03</totfact>
</mgrwt>
</event>
<event>
 4    1  0.1774755E-004  0.2941230E+03  0.7818608E-02  0.1088216E+00
         -2   -1    0    0    0  501 -0.00000000000E+00  0.00000000000E+00  0.24795358925E+02  0.24795358925E+02  0.00000000000E+00 0.  1.
          2   -1    0    0  501    0  0.00000000000E+00 -0.00000000000E+00 -0.87222296678E+03  0.87222296678E+03  0.00000000000E+00 0.  1.
         25    1    1    2    0    0  0.34807350039E+02 -0.66748055855E+02 -0.30324731619E+03  0.33470253861E+03  0.12000000000E+03 0.  0.
         25    1    1    2    0    0 -0.34807350039E+02  0.66748055855E+02 -0.54418029167E+03  0.56231578709E+03  0.12000000000E+03 0.  0.
<mgrwt>
<rscale>  0 0.29412298E+03</rscale>
<asrwt>0</asrwt>
<pdfrwt beam="1">  1        2 0.13418814E+00 0.29412298E+03</pdfrwt>
<pdfrwt beam="2">  1       -2 0.38146710E-02 0.29412298E+03</pdfrwt>
<totfact> 0.93533105E+03</totfact>
</mgrwt>
</event>
<event>
 4    1  0.1774755E-004  0.2530708E+03  0.7818608E-02  0.1111379E+00
          2   -1    0    0  501    0  0.00000000000E+00  0.00000000000E+00  0.89735134194E+03  0.89735134194E+03  0.00000000000E+00 0.  1.
         -2   -1    0    0    0  501 -0.00000000000E+00 -0.00000000000E+00 -0.17842744599E+02  0.17842744599E+02  0.00000000000E+00 0.  1.
         25    1    1    2    0    0  0.37823620938E+02 -0.31862243862E+01  0.39254285211E+03  0.41222647789E+03  0.12000000000E+03 0.  0.
         25    1    1    2    0    0 -0.37823620938E+02  0.31862243862E+01  0.48696574523E+03  0.50296760865E+03  0.12000000000E+03 0.  0.
<mgrwt>
<rscale>  0 0.25307083E+03</rscale>
<asrwt>0</asrwt>
<pdfrwt beam="1">  1        2 0.13805402E+00 0.25307083E+03</pdfrwt>
<pdfrwt beam="2">  1       -2 0.27450383E-02 0.25307083E+03</pdfrwt>
<totfact> 0.14642085E+04</totfact>
</mgrwt>
</event>
<event>
 4    1  0.1774755E-004  0.3281601E+03  0.7818608E-02  0.1071954E+00
         -1   -1    0    0    0  501 -0.00000000000E+00  0.00000000000E+00  0.33482229832E+03  0.33482229832E+03  0.00000000000E+00 0. -1.
          1   -1    0    0  501    0  0.00000000000E+00 -0.00000000000E+00 -0.80407611106E+02  0.80407611106E+02  0.00000000000E+00 0. -1.
         25    1    1    2    0    0  0.81789372336E+02  0.76361966971E+02  0.12560196006E+03  0.20663132337E+03  0.12000000000E+03 0.  0.
         25    1    1    2    0    0 -0.81789372336E+02 -0.76361966971E+02  0.12881272715E+03  0.20859858605E+03  0.12000000000E+03 0.  0.
<mgrwt>
<rscale>  0 0.32816009E+03</rscale>
<asrwt>0</asrwt>
<pdfrwt beam="1">  1        1 0.12370402E-01 0.32816009E+03</pdfrwt>
<pdfrwt beam="2">  1       -1 0.51511122E-01 0.32816009E+03</pdfrwt>
<totfact> 0.18762641E+03</totfact>
</mgrwt>
</event>
<event>
 4    1  0.1774755E-004  0.3611922E+03  0.7818608E-02  0.1058113E+00
          3   -1    0    0  501    0  0.00000000000E+00  0.00000000000E+00  0.37012728141E+02  0.37012728141E+02  0.00000000000E+00 0.  1.
         -3   -1    0    0    0  501 -0.00000000000E+00 -0.00000000000E+00 -0.88118194511E+03  0.88118194511E+03  0.00000000000E+00 0.  1.
         25    1    1    2    0    0 -0.98568375143E+02  0.87171305186E+02 -0.49836465995E+03  0.52922764035E+03  0.12000000000E+03 0.  0.
         25    1    1    2    0    0  0.98568375143E+02 -0.87171305186E+02 -0.34580455701E+03  0.38896703289E+03  0.12000000000E+03 0.  0.
<mgrwt>
<rscale>  0 0.36119218E+03</rscale>
<asrwt>0</asrwt>
<pdfrwt beam="1">  1        3 0.56942663E-02 0.36119218E+03</pdfrwt>
<pdfrwt beam="2">  1       -3 0.13556644E+00 0.36119218E+03</pdfrwt>
<totfact> 0.21003436E+02</totfact>
</mgrwt>
</event>
<event>
 4    1  0.1774755E-004  0.3191714E+03  0.7818608E-02  0.1076031E+00
          2   -1    0    0  501    0  0.00000000000E+00  0.00000000000E+00  0.17567444794E+02  0.17567444794E+02  0.00000000000E+00 0. -1.
         -2   -1    0    0    0  501 -0.00000000000E+00 -0.00000000000E+00 -0.14497042100E+04  0.14497042100E+04  0.00000000000E+00 0. -1.
         25    1    1    2    0    0 -0.82527095445E+02 -0.49826226255E+02 -0.52243028664E+03  0.54463453682E+03  0.12000000000E+03 0.  0.
         25    1    1    2    0    0  0.82527095445E+02  0.49826226255E+02 -0.90970647852E+03  0.92263711792E+03  0.12000000000E+03 0.  0.
<mgrwt>
<rscale>  0 0.31917142E+03</rscale>
<asrwt>0</asrwt>
<pdfrwt beam="1">  1        2 0.27026832E-02 0.31917142E+03</pdfrwt>
<pdfrwt beam="2">  1       -2 0.22303146E+00 0.31917142E+03</pdfrwt>
<totfact> 0.37576374E+02</totfact>
</mgrwt>
</event>
<event>
 4    1  0.1774755E-004  0.2870590E+03  0.7818608E-02  0.1091895E+00
          3   -1    0    0  501    0  0.00000000000E+00  0.00000000000E+00  0.34170178461E+03  0.34170178461E+03  0.00000000000E+00 0. -1.
         -3   -1    0    0    0  501 -0.00000000000E+00 -0.00000000000E+00 -0.60288589008E+02  0.60288589008E+02  0.00000000000E+00 0. -1.
         25    1    1    2    0    0 -0.63469196252E+02  0.45230107874E+02  0.15646420806E+03  0.21202629539E+03  0.12000000000E+03 0.  0.
         25    1    1    2    0    0  0.63469196252E+02 -0.45230107874E+02  0.12494898754E+03  0.18996407823E+03  0.12000000000E+03 0.  0.
<mgrwt>
<rscale>  0 0.28705901E+03</rscale>
<asrwt>0</asrwt>
<pdfrwt beam="1">  1        3 0.52569504E-01 0.28705901E+03</pdfrwt>
<pdfrwt beam="2">  1       -3 0.92751677E-02 0.28705901E+03</pdfrwt>
<totfact> 0.77081471E+02</totfact>
</mgrwt>
</event>
<event>
 4    1  0.1774755E-004  0.2470004E+03  0.7818608E-02  0.1115215E+00
          2   -1    0    0  501    0  0.00000000000E+00  0.00000000000E+00  0.22387010885E+04  0.22387010885E+04  0.00000000000E+00 0.  1.
         -2   -1    0    0    0  501 -0.00000000000E+00 -0.00000000000E+00 -0.68130120399E+01  0.68130120399E+01  0.00000000000E+00 0.  1.
         25    1    1    2    0    0 -0.15141811869E+02 -0.23625971200E+02  0.11891468727E+04  0.11955156820E+04  0.12000000000E+03 0.  0.
         25    1    1    2    0    0  0.15141811869E+02  0.23625971200E+02  0.10427412038E+04  0.10499984186E+04  0.12000000000E+03 0.  0.
<mgrwt>
<rscale>  0 0.24700038E+03</rscale>
<asrwt>0</asrwt>
<pdfrwt beam="1">  1        2 0.34441497E+00 0.24700038E+03</pdfrwt>
<pdfrwt beam="2">  1       -2 0.10481575E-02 0.24700038E+03</pdfrwt>
<totfact> 0.11037451E+04</totfact>
</mgrwt>
</event>
<event>
 4    1  0.1774755E-004  0.2631043E+03  0.7818608E-02  0.1105292E+00
          2   -1    0    0  501    0  0.00000000000E+00  0.00000000000E+00  0.13287310530E+04  0.13287310530E+04  0.00000000000E+00 0.  1.
         -2   -1    0    0    0  501 -0.00000000000E+00 -0.00000000000E+00 -0.13024436568E+02  0.13024436568E+02  0.00000000000E+00 0.  1.
         25    1    1    2    0    0  0.42704966394E+01 -0.34016827780E+02  0.44570348895E+03  0.46284660718E+03  0.12000000000E+03 0.  0.
         25    1    1    2    0    0 -0.42704966394E+01  0.34016827780E+02  0.87000312746E+03  0.87890888237E+03  0.12000000000E+03 0.  0.
<mgrwt>
<rscale>  0 0.26310434E+03</rscale>
<asrwt>0</asrwt>
<pdfrwt beam="1">  1        2 0.20442005E+00 0.26310434E+03</pdfrwt>
<pdfrwt beam="2">  1       -2 0.20037605E-02 0.26310434E+03</pdfrwt>
<totfact> 0.13010467E+04</totfact>
</mgrwt>
</event>
<event>
 4    1  0.1774755E-004  0.2740646E+03  0.7818608E-02  0.1098976E+00
          2   -1    0    0  501    0  0.00000000000E+00  0.00000000000E+00  0.77094304751E+03  0.77094304751E+03  0.00000000000E+00 0.  1.
         -2   -1    0    0    0  501 -0.00000000000E+00 -0.00000000000E+00 -0.24356980496E+02  0.24356980496E+02  0.00000000000E+00 0.  1.
         25    1    1    2    0    0  0.30465281552E+02  0.54294414614E+02  0.30828671882E+03  0.33662548602E+03  0.12000000000E+03 0.  0.
         25    1    1    2    0    0 -0.30465281552E+02 -0.54294414614E+02  0.43829934820E+03  0.45867454199E+03  0.12000000000E+03 0.  0.
<mgrwt>
<rscale>  0 0.27406455E+03</rscale>
<asrwt>0</asrwt>
<pdfrwt beam="1">  1        2 0.11860660E+00 0.27406455E+03</pdfrwt>
<pdfrwt beam="2">  1       -2 0.37472284E-02 0.27406455E+03</pdfrwt>
<totfact> 0.11237718E+04</totfact>
</mgrwt>
</event>
<event>
 4    1  0.1774755E-004  0.2895989E+03  0.7818608E-02  0.1090559E+00
          1   -1    0    0  501    0  0.00000000000E+00  0.00000000000E+00  0.13148875371E+04  0.13148875371E+04  0.00000000000E+00 0.  1.
         -1   -1    0    0    0  501 -0.00000000000E+00 -0.00000000000E+00 -0.15945759332E+02  0.15945759332E+02  0.00000000000E+00 0.  1.
         25    1    1    2    0    0 -0.31844518586E+02 -0.64912961726E+02  0.81763587325E+03  0.82955179898E+03  0.12000000000E+03 0.  0.
         25    1    1    2    0    0  0.31844518586E+02  0.64912961726E+02  0.48130590449E+03  0.50128149742E+03  0.12000000000E+03 0.  0.
<mgrwt>
<rscale>  0 0.28959890E+03</rscale>
<asrwt>0</asrwt>
<pdfrwt beam="1">  1        1 0.20229031E+00 0.28959890E+03</pdfrwt>
<pdfrwt beam="2">  1       -1 0.24531948E-02 0.28959890E+03</pdfrwt>
<totfact> 0.48458182E+03</totfact>
</mgrwt>
</event>
<event>
 4    1  0.1774755E-004  0.2893699E+03  0.7818608E-02  0.1090679E+00
          2   -1    0    0  501    0  0.00000000000E+00  0.00000000000E+00  0.62672555216E+02  0.62672555216E+02  0.00000000000E+00 0. -1.
         -2   -1    0    0    0  501 -0.00000000000E+00 -0.00000000000E+00 -0.33401757872E+03  0.33401757872E+03  0.00000000000E+00 0. -1.
         25    1    1    2    0    0  0.49299947047E+02 -0.57362053237E+02 -0.17475677843E+03  0.22507958934E+03  0.12000000000E+03 0.  0.
         25    1    1    2    0    0 -0.49299947047E+02  0.57362053237E+02 -0.96588245076E+02  0.17161054460E+03  0.12000000000E+03 0.  0.
<mgrwt>
<rscale>  0 0.28936990E+03</rscale>
<asrwt>0</asrwt>
<pdfrwt beam="1">  1        2 0.96419313E-02 0.28936990E+03</pdfrwt>
<pdfrwt beam="2">  1       -2 0.51387321E-01 0.28936990E+03</pdfrwt>
<totfact> 0.24358184E+03</totfact>
</mgrwt>
</event>
<event>
 4    1  0.1774755E-004  0.3362897E+03  0.7818608E-02  0.1068387E+00
          1   -1    0    0  501    0  0.00000000000E+00  0.00000000000E+00  0.15716742791E+03  0.15716742791E+03  0.00000000000E+00 0. -1.
         -1   -1    0    0    0  501 -0.00000000000E+00 -0.00000000000E+00 -0.17988898120E+03  0.17988898120E+03  0.00000000000E+00 0. -1.
         25    1    1    2    0    0  0.22554811063E+02 -0.94430851748E+02  0.55475464769E+02  0.16402265836E+03  0.12000000000E+03 0.  0.
         25    1    1    2    0    0 -0.22554811063E+02  0.94430851748E+02 -0.78197018069E+02  0.17303375075E+03  0.12000000000E+03 0.  0.
<mgrwt>
<rscale>  0 0.33628969E+03</rscale>
<asrwt>0</asrwt>
<pdfrwt beam="1">  1        1 0.24179604E-01 0.33628969E+03</pdfrwt>
<pdfrwt beam="2">  1       -1 0.27675228E-01 0.33628969E+03</pdfrwt>
<totfact> 0.23479274E+03</totfact>
</mgrwt>
</event>
<event>
 4    1  0.1774755E-004  0.3242328E+03  0.7818608E-02  0.1073718E+00
          2   -1    0    0  501    0  0.00000000000E+00  0.00000000000E+00  0.97156459140E+03  0.97156459140E+03  0.00000000000E+00 0.  1.
         -2   -1    0    0    0  501 -0.00000000000E+00 -0.00000000000E+00 -0.27050934069E+02  0.27050934069E+02  0.00000000000E+00 0.  1.
         25    1    1    2    0    0  0.10232817989E+03 -0.43322741452E+01  0.58716372587E+03  0.60798936337E+03  0.12000000000E+03 0.  0.
         25    1    1    2    0    0 -0.10232817989E+03  0.43322741452E+01  0.35734993147E+03  0.39062616210E+03  0.12000000000E+03 0.  0.
<mgrwt>
<rscale>  0 0.32423282E+03</rscale>
<asrwt>0</asrwt>
<pdfrwt beam="1">  1        2 0.14947145E+00 0.32423282E+03</pdfrwt>
<pdfrwt beam="2">  1       -2 0.41616829E-02 0.32423282E+03</pdfrwt>
<totfact> 0.70991646E+03</totfact>
</mgrwt>
</event>
<event>
 4    1  0.1774755E-004  0.3002219E+03  0.7818608E-02  0.1085130E+00
          1   -1    0    0  501    0  0.00000000000E+00  0.00000000000E+00  0.14243582132E+03  0.14243582132E+03  0.00000000000E+00 0. -1.
         -1   -1    0    0    0  501 -0.00000000000E+00 -0.00000000000E+00 -0.15819969835E+03  0.15819969835E+03  0.00000000000E+00 0. -1.
         25    1    1    2    0    0 -0.89650742815E+02  0.76660251143E+01 -0.17677646384E+01  0.14999716204E+03  0.12000000000E+03 0.  0.
         25    1    1    2    0    0  0.89650742815E+02 -0.76660251143E+01 -0.13996112388E+02  0.15063835763E+03  0.12000000000E+03 0.  0.
<mgrwt>
<rscale>  0 0.30022194E+03</rscale>
<asrwt>0</asrwt>
<pdfrwt beam="1">  1        1 0.21913203E-01 0.30022194E+03</pdfrwt>
<pdfrwt beam="2">  1       -1 0.24338415E-01 0.30022194E+03</pdfrwt>
<totfact> 0.32974958E+03</totfact>
</mgrwt>
</event>
<event>
 4    1  0.1774755E-004  0.2906876E+03  0.7818608E-02  0.1089991E+00
          1   -1    0    0  501    0  0.00000000000E+00  0.00000000000E+00  0.14012765966E+03  0.14012765966E+03  0.00000000000E+00 0. -1.
         -1   -1    0    0    0  501 -0.00000000000E+00 -0.00000000000E+00 -0.15075414195E+03  0.15075414195E+03  0.00000000000E+00 0. -1.
         25    1    1    2    0    0  0.71133797196E+02  0.61592140680E+01 -0.45674685283E+02  0.14691538346E+03  0.12000000000E+03 0.  0.
         25    1    1    2    0    0 -0.71133797196E+02 -0.61592140680E+01  0.35048202987E+02  0.14396641815E+03  0.12000000000E+03 0.  0.
<mgrwt>
<rscale>  0 0.29068763E+03</rscale>
<asrwt>0</asrwt>
<pdfrwt beam="1">  1        1 0.21558101E-01 0.29068763E+03</pdfrwt>
<pdfrwt beam="2">  1       -1 0.23192945E-01 0.29068763E+03</pdfrwt>
<totfact> 0.36447699E+03</totfact>
</mgrwt>
</event>
<event>
 4    1  0.1774755E-004  0.3116776E+03  0.7818608E-02  0.1079545E+00
          2   -1    0    0  501    0  0.00000000000E+00  0.00000000000E+00  0.11681895587E+03  0.11681895587E+03  0.00000000000E+00 0. -1.
         -2   -1    0    0    0  501 -0.00000000000E+00 -0.00000000000E+00 -0.20789204397E+03  0.20789204397E+03  0.00000000000E+00 0. -1.
         25    1    1    2    0    0 -0.86477997093E+02 -0.22141842678E+02 -0.91151309875E+02  0.17514926911E+03  0.12000000000E+03 0.  0.
         25    1    1    2    0    0  0.86477997093E+02  0.22141842678E+02  0.78221774200E-01  0.14956173072E+03  0.12000000000E+03 0.  0.
<mgrwt>
<rscale>  0 0.31167760E+03</rscale>
<asrwt>0</asrwt>
<pdfrwt beam="1">  1        2 0.17972147E-01 0.31167760E+03</pdfrwt>
<pdfrwt beam="2">  1       -2 0.31983391E-01 0.31167760E+03</pdfrwt>
<totfact> 0.28605377E+03</totfact>
</mgrwt>
</event>
<event>
 4    1  0.1774755E-004  0.3756962E+03  0.7818608E-02  0.1052536E+00
         -2   -1    0    0    0  501 -0.00000000000E+00  0.00000000000E+00  0.50827834252E+02  0.50827834252E+02  0.00000000000E+00 0.  1.
          2   -1    0    0  501    0  0.00000000000E+00 -0.00000000000E+00 -0.69424393524E+03  0.69424393524E+03  0.00000000000E+00 0.  1.
         25    1    1    2    0    0  0.13962096763E+03 -0.13310792947E+01 -0.39567624384E+03  0.43641204877E+03  0.12000000000E+03 0.  0.
         25    1    1    2    0    0 -0.13962096763E+03  0.13310792947E+01 -0.24773985715E+03  0.30865972072E+03  0.12000000000E+03 0.  0.
<mgrwt>
<rscale>  0 0.37569624E+03</rscale>
<asrwt>0</asrwt>
<pdfrwt beam="1">  1        2 0.10680675E+00 0.37569624E+03</pdfrwt>
<pdfrwt beam="2">  1       -2 0.78196675E-02 0.37569624E+03</pdfrwt>
<totfact> 0.41733036E+03</totfact>
</mgrwt>
</event>
<event>
 4    1  0.1774755E-004  0.2491189E+03  0.7818608E-02  0.1113863E+00
          2   -1    0    0  501    0  0.00000000000E+00  0.00000000000E+00  0.20577019280E+03  0.20577019280E+03  0.00000000000E+00 0. -1.
         -2   -1    0    0    0  501 -0.00000000000E+00 -0.00000000000E+00 -0.75399931022E+02  0.75399931022E+02  0.00000000000E+00 0. -1.
         25    1    1    2    0    0  0.34059238085E+01  0.91871820636E+01  0.10121486090E+03  0.15729098098E+03  0.12000000000E+03 0.  0.
         25    1    1    2    0    0 -0.34059238085E+01 -0.91871820636E+01  0.29155400883E+02  0.12387914284E+03  0.12000000000E+03 0.  0.
<mgrwt>
<rscale>  0 0.24911891E+03</rscale>
<asrwt>0</asrwt>
<pdfrwt beam="1">  1        2 0.31656953E-01 0.24911891E+03</pdfrwt>
<pdfrwt beam="2">  1       -2 0.11599989E-01 0.24911891E+03</pdfrwt>
<totfact> 0.85057749E+03</totfact>
</mgrwt>
</event>
<event>
 4    1  0.1774755E-004  0.2450971E+03  0.7818608E-02  0.1116443E+00
         -1   -1    0    0    0  501 -0.00000000000E+00  0.00000000000E+00  0.36025491060E+02  0.36025491060E+02  0.00000000000E+00 0. -1.
          1   -1    0    0  501    0  0.00000000000E+00 -0.00000000000E+00 -0.41687551452E+03  0.41687551452E+03  0.00000000000E+00 0. -1.
         25    1    1    2    0    0  0.24684236892E+01  0.24000490527E+02 -0.20151645323E+03  0.23577743230E+03  0.12000000000E+03 0.  0.
         25    1    1    2    0    0 -0.24684236892E+01 -0.24000490527E+02 -0.17933357023E+03  0.21712357328E+03  0.12000000000E+03 0.  0.
<mgrwt>
<rscale>  0 0.24509708E+03</rscale>
<asrwt>0</asrwt>
<pdfrwt beam="1">  1        1 0.64134694E-01 0.24509708E+03</pdfrwt>
<pdfrwt beam="2">  1       -1 0.55423833E-02 0.24509708E+03</pdfrwt>
<totfact> 0.85456288E+03</totfact>
</mgrwt>
</event>
<event>
 4    1  0.1774755E-004  0.3950530E+03  0.7818608E-02  0.1045506E+00
         -2   -1    0    0    0  501 -0.00000000000E+00  0.00000000000E+00  0.50650691810E+02  0.50650691810E+02  0.00000000000E+00 0. -1.
          2   -1    0    0  501    0  0.00000000000E+00 -0.00000000000E+00 -0.77030984414E+03  0.77030984414E+03  0.00000000000E+00 0. -1.
         25    1    1    2    0    0 -0.10722034300E+02  0.13253377672E+03 -0.53290644233E+03  0.56220053385E+03  0.12000000000E+03 0.  0.
         25    1    1    2    0    0  0.10722034300E+02 -0.13253377672E+03 -0.18675271001E+03  0.25876000210E+03  0.12000000000E+03 0.  0.
<mgrwt>
<rscale>  0 0.39505304E+03</rscale>
<asrwt>0</asrwt>
<pdfrwt beam="1">  1        2 0.11850920E+00 0.39505304E+03</pdfrwt>
<pdfrwt beam="2">  1       -2 0.77924148E-02 0.39505304E+03</pdfrwt>
<totfact> 0.36876169E+03</totfact>
</mgrwt>
</event>
<event>
 4    1  0.1774755E-004  0.3985743E+03  0.7818608E-02  0.1044274E+00
         -1   -1    0    0    0  501 -0.00000000000E+00  0.00000000000E+00  0.72071879393E+02  0.72071879393E+02  0.00000000000E+00 0.  1.
          1   -1    0    0  501    0  0.00000000000E+00 -0.00000000000E+00 -0.55105223643E+03  0.55105223643E+03  0.00000000000E+00 0.  1.
         25    1    1    2    0    0 -0.10352700294E+03  0.11095014844E+03 -0.16471546088E+03  0.25408455055E+03  0.12000000000E+03 0.  0.
         25    1    1    2    0    0  0.10352700294E+03 -0.11095014844E+03 -0.31426489615E+03  0.36903956527E+03  0.12000000000E+03 0.  0.
<mgrwt>
<rscale>  0 0.39857431E+03</rscale>
<asrwt>0</asrwt>
<pdfrwt beam="1">  1        1 0.84777266E-01 0.39857431E+03</pdfrwt>
<pdfrwt beam="2">  1       -1 0.11087982E-01 0.39857431E+03</pdfrwt>
<totfact> 0.20608256E+03</totfact>
</mgrwt>
</event>
<event>
 4    1  0.1774755E-004  0.3342812E+03  0.7818608E-02  0.1069258E+00
          2   -1    0    0  501    0  0.00000000000E+00  0.00000000000E+00  0.22598689591E+04  0.22598689591E+04  0.00000000000E+00 0.  1.
         -2   -1    0    0    0  501 -0.00000000000E+00 -0.00000000000E+00 -0.12361769215E+02  0.12361769215E+02  0.00000000000E+00 0.  1.
         25    1    1    2    0    0 -0.87897429728E+02 -0.52473427068E+02  0.74795345341E+03  0.76440420405E+03  0.12000000000E+03 0.  0.
         25    1    1    2    0    0  0.87897429728E+02  0.52473427068E+02  0.14995537365E+04  0.15078265243E+04  0.12000000000E+03 0.  0.
<mgrwt>
<rscale>  0 0.33428119E+03</rscale>
<asrwt>0</asrwt>
<pdfrwt beam="1">  1        2 0.34767182E+00 0.33428119E+03</pdfrwt>
<pdfrwt beam="2">  1       -2 0.19018124E-02 0.33428119E+03</pdfrwt>
<totfact> 0.44967950E+03</totfact>
</mgrwt>
</event>
<event>
 4    1  0.1774755E-004  0.3233267E+03  0.7818608E-02  0.1074128E+00
          2   -1    0    0  501    0  0.00000000000E+00  0.00000000000E+00  0.30306080473E+03  0.30306080473E+03  0.00000000000E+00 0.  1.
         -2   -1    0    0    0  501 -0.00000000000E+00 -0.00000000000E+00 -0.86236949827E+02  0.86236949827E+02  0.00000000000E+00 0.  1.
         25    1    1    2    0    0  0.62175069539E+01 -0.56319587768E+02 -0.27546988078E+01  0.13273334820E+03  0.12000000000E+03 0.  0.
         25    1    1    2    0    0 -0.62175069539E+01  0.56319587768E+02  0.21957855371E+03  0.25656440636E+03  0.12000000000E+03 0.  0.
<mgrwt>
<rscale>  0 0.32332670E+03</rscale>
<asrwt>0</asrwt>
<pdfrwt beam="1">  1        2 0.46624739E-01 0.32332670E+03</pdfrwt>
<pdfrwt beam="2">  1       -2 0.13267223E-01 0.32332670E+03</pdfrwt>
<totfact> 0.45390825E+03</totfact>
</mgrwt>
</event>
<event>
 4    1  0.1774755E-004  0.2702269E+03  0.7818608E-02  0.1101150E+00
         -2   -1    0    0    0  501 -0.00000000000E+00  0.00000000000E+00  0.18372322062E+02  0.18372322062E+02  0.00000000000E+00 0.  1.
          2   -1    0    0  501    0  0.00000000000E+00 -0.00000000000E+00 -0.99364917014E+03  0.99364917014E+03  0.00000000000E+00 0.  1.
         25    1    1    2    0    0  0.58378425785E+02 -0.39368757054E+01 -0.56548774172E+03  0.58103349784E+03  0.12000000000E+03 0.  0.
         25    1    1    2    0    0 -0.58378425785E+02  0.39368757054E+01 -0.40978910637E+03  0.43098799436E+03  0.12000000000E+03 0.  0.
<mgrwt>
<rscale>  0 0.27022689E+03</rscale>
<asrwt>0</asrwt>
<pdfrwt beam="1">  1        2 0.15286911E+00 0.27022689E+03</pdfrwt>
<pdfrwt beam="2">  1       -2 0.28265109E-02 0.27022689E+03</pdfrwt>
<totfact> 0.12225380E+04</totfact>
</mgrwt>
</event>
<event>
 4    1  0.1774755E-004  0.2700165E+03  0.7818608E-02  0.1101270E+00
          2   -1    0    0  501    0  0.00000000000E+00  0.00000000000E+00  0.23374545833E+03  0.23374545833E+03  0.00000000000E+00 0. -1.
         -2   -1    0    0    0  501 -0.00000000000E+00 -0.00000000000E+00 -0.77978936348E+02  0.77978936348E+02  0.00000000000E+00 0. -1.
         25    1    1    2    0    0 -0.14067433546E+02  0.85070659833E+01  0.90307153219E+01  0.12145705693E+03  0.12000000000E+03 0.  0.
         25    1    1    2    0    0  0.14067433546E+02 -0.85070659833E+01  0.14673580666E+03  0.19026733775E+03  0.12000000000E+03 0.  0.
<mgrwt>
<rscale>  0 0.27001646E+03</rscale>
<asrwt>0</asrwt>
<pdfrwt beam="1">  1        2 0.35960839E-01 0.27001646E+03</pdfrwt>
<pdfrwt beam="2">  1       -2 0.11996760E-01 0.27001646E+03</pdfrwt>
<totfact> 0.70384601E+03</totfact>
</mgrwt>
</event>
<event>
 4    1  0.1774755E-004  0.2793065E+03  0.7818608E-02  0.1096068E+00
         -2   -1    0    0    0  501 -0.00000000000E+00  0.00000000000E+00  0.79200490454E+01  0.79200490454E+01  0.00000000000E+00 0. -1.
          2   -1    0    0  501    0  0.00000000000E+00 -0.00000000000E+00 -0.24624885918E+04  0.24624885918E+04  0.00000000000E+00 0. -1.
         25    1    1    2    0    0  0.15116627212E+02  0.17362560984E+02 -0.62916034172E+03  0.64091552215E+03  0.12000000000E+03 0.  0.
         25    1    1    2    0    0 -0.15116627212E+02 -0.17362560984E+02 -0.18254082011E+04  0.18294931187E+04  0.12000000000E+03 0.  0.
<mgrwt>
<rscale>  0 0.27930650E+03</rscale>
<asrwt>0</asrwt>
<pdfrwt beam="1">  1        2 0.37884426E+00 0.27930650E+03</pdfrwt>
<pdfrwt beam="2">  1       -2 0.12184695E-02 0.27930650E+03</pdfrwt>
<totfact> 0.67226097E+03</totfact>
</mgrwt>
</event>
<event>
 4    1  0.1774755E-004  0.3188530E+03  0.7818608E-02  0.1076178E+00
         -1   -1    0    0    0  501 -0.00000000000E+00  0.00000000000E+00  0.11969399618E+03  0.11969399618E+03  0.00000000000E+00 0. -1.
          1   -1    0    0  501    0  0.00000000000E+00 -0.00000000000E+00 -0.21234818953E+03  0.21234818953E+03  0.00000000000E+00 0. -1.
         25    1    1    2    0    0 -0.65891792859E+02  0.69697901302E+02 -0.90719988568E+02  0.17840863807E+03  0.12000000000E+03 0.  0.
         25    1    1    2    0    0  0.65891792859E+02 -0.69697901302E+02 -0.19342047825E+01  0.15363354764E+03  0.12000000000E+03 0.  0.
<mgrwt>
<rscale>  0 0.31885297E+03</rscale>
<asrwt>0</asrwt>
<pdfrwt beam="1">  1        1 0.32668952E-01 0.31885297E+03</pdfrwt>
<pdfrwt beam="2">  1       -1 0.18414461E-01 0.31885297E+03</pdfrwt>
<totfact> 0.31374067E+03</totfact>
</mgrwt>
</event>
<event>
 4    1  0.1774755E-004  0.2457586E+03  0.7818608E-02  0.1116015E+00
         -2   -1    0    0    0  501 -0.00000000000E+00  0.00000000000E+00  0.49282045285E+02  0.49282045285E+02  0.00000000000E+00 0. -1.
          2   -1    0    0  501    0  0.00000000000E+00 -0.00000000000E+00 -0.30638588023E+03  0.30638588023E+03  0.00000000000E+00 0. -1.
         25    1    1    2    0    0 -0.49808720686E+01 -0.16560036207E+02 -0.15750650221E+03  0.19876453940E+03  0.12000000000E+03 0.  0.
         25    1    1    2    0    0  0.49808720686E+01  0.16560036207E+02 -0.99597332740E+02  0.15690338612E+03  0.12000000000E+03 0.  0.
<mgrwt>
<rscale>  0 0.24575860E+03</rscale>
<asrwt>0</asrwt>
<pdfrwt beam="1">  1        2 0.47136290E-01 0.24575860E+03</pdfrwt>
<pdfrwt beam="2">  1       -2 0.75818530E-02 0.24575860E+03</pdfrwt>
<totfact> 0.10826734E+04</totfact>
</mgrwt>
</event>
<event>
 4    1  0.1774755E-004  0.2582817E+03  0.7818608E-02  0.1108180E+00
          2   -1    0    0  501    0  0.00000000000E+00  0.00000000000E+00  0.34023312253E+03  0.34023312253E+03  0.00000000000E+00 0.  1.
         -2   -1    0    0    0  501 -0.00000000000E+00 -0.00000000000E+00 -0.49017462681E+02  0.49017462681E+02  0.00000000000E+00 0.  1.
         25    1    1    2    0    0  0.13558033788E+02 -0.43050312809E+02  0.12224984705E+03  0.17715014766E+03  0.12000000000E+03 0.  0.
         25    1    1    2    0    0 -0.13558033788E+02  0.43050312809E+02  0.16896581280E+03  0.21210043755E+03  0.12000000000E+03 0.  0.
<mgrwt>
<rscale>  0 0.25828174E+03</rscale>
<asrwt>0</asrwt>
<pdfrwt beam="1">  1        2 0.52343556E-01 0.25828174E+03</pdfrwt>
<pdfrwt beam="2">  1       -2 0.75411483E-02 0.25828174E+03</pdfrwt>
<totfact> 0.97775897E+03</totfact>
</mgrwt>
</event>
<event>
 4    1  0.1774755E-004  0.2945132E+03  0.7818608E-02  0.1088016E+00
          2   -1    0    0  501    0  0.00000000000E+00  0.00000000000E+00  0.22337533186E+02  0.22337533186E+02  0.00000000000E+00 0. -1.
         -2   -1    0    0    0  501 -0.00000000000E+00 -0.00000000000E+00 -0.97076551521E+03  0.97076551521E+03  0.00000000000E+00 0. -1.
         25    1    1    2    0    0  0.35070107011E+02 -0.56895015507E+01 -0.73589246546E+03  0.74645830664E+03  0.12000000000E+03 0.  0.
         25    1    1    2    0    0 -0.35070107011E+02  0.56895015507E+01 -0.21253551656E+03  0.24664474175E+03  0.12000000000E+03 0.  0.
<mgrwt>
<rscale>  0 0.29451320E+03</rscale>
<asrwt>0</asrwt>
<pdfrwt beam="1">  1        2 0.34365444E-02 0.29451320E+03</pdfrwt>
<pdfrwt beam="2">  1       -2 0.14934850E+00 0.29451320E+03</pdfrwt>
<totfact> 0.83664948E+02</totfact>
</mgrwt>
</event>
<event>
 4    1  0.1774755E-004  0.2722661E+03  0.7818608E-02  0.1099990E+00
          2   -1    0    0  501    0  0.00000000000E+00  0.00000000000E+00  0.13748461015E+04  0.13748461015E+04  0.00000000000E+00 0. -1.
         -2   -1    0    0    0  501 -0.00000000000E+00 -0.00000000000E+00 -0.13479481001E+02  0.13479481001E+02  0.00000000000E+00 0. -1.
         25    1    1    2    0    0 -0.35803113467E+02  0.30383236840E+00  0.40845098894E+03  0.42721676654E+03  0.12000000000E+03 0.  0.
         25    1    1    2    0    0  0.35803113467E+02 -0.30383236840E+00  0.95291563161E+03  0.96110881601E+03  0.12000000000E+03 0.  0.
<mgrwt>
<rscale>  0 0.27226613E+03</rscale>
<asrwt>0</asrwt>
<pdfrwt beam="1">  1        2 0.21151467E+00 0.27226613E+03</pdfrwt>
<pdfrwt beam="2">  1       -2 0.20737674E-02 0.27226613E+03</pdfrwt>
<totfact> 0.11681805E+04</totfact>
</mgrwt>
</event>
<event>
 4    1  0.1774755E-004  0.2934361E+03  0.7818608E-02  0.1088569E+00
         -1   -1    0    0    0  501 -0.00000000000E+00  0.00000000000E+00  0.83148370757E+02  0.83148370757E+02  0.00000000000E+00 0. -1.
          1   -1    0    0  501    0  0.00000000000E+00 -0.00000000000E+00 -0.25888885125E+03  0.25888885125E+03  0.00000000000E+00 0. -1.
         25    1    1    2    0    0 -0.80002300465E+02 -0.55433930346E+01 -0.11860147470E+03  0.18680847702E+03  0.12000000000E+03 0.  0.
         25    1    1    2    0    0  0.80002300465E+02  0.55433930346E+01 -0.57139005792E+02  0.15522874498E+03  0.12000000000E+03 0.  0.
<mgrwt>
<rscale>  0 0.29343610E+03</rscale>
<asrwt>0</asrwt>
<pdfrwt beam="1">  1        1 0.39829053E-01 0.29343610E+03</pdfrwt>
<pdfrwt beam="2">  1       -1 0.12792057E-01 0.29343610E+03</pdfrwt>
<totfact> 0.43602414E+03</totfact>
</mgrwt>
</event>
<event>
 4    1  0.1774755E-004  0.2928914E+03  0.7818608E-02  0.1088849E+00
          1   -1    0    0  501    0  0.00000000000E+00  0.00000000000E+00  0.10461678459E+04  0.10461678459E+04  0.00000000000E+00 0.  1.
         -1   -1    0    0    0  501 -0.00000000000E+00 -0.00000000000E+00 -0.20499911807E+02  0.20499911807E+02  0.00000000000E+00 0.  1.
         25    1    1    2    0    0 -0.19643996018E+02 -0.53056006137E+01  0.80942293015E+03  0.81852276440E+03  0.12000000000E+03 0.  0.
         25    1    1    2    0    0  0.19643996018E+02  0.53056006137E+01  0.21624500397E+03  0.24814499334E+03  0.12000000000E+03 0.  0.
<mgrwt>
<rscale>  0 0.29289144E+03</rscale>
<asrwt>0</asrwt>
<pdfrwt beam="1">  1        1 0.16094886E+00 0.29289144E+03</pdfrwt>
<pdfrwt beam="2">  1       -1 0.31538334E-02 0.29289144E+03</pdfrwt>
<totfact> 0.51798400E+03</totfact>
</mgrwt>
</event>
<event>
 4    1  0.1774755E-004  0.2990746E+03  0.7818608E-02  0.1085704E+00
          1   -1    0    0  501    0  0.00000000000E+00  0.00000000000E+00  0.28312164710E+03  0.28312164710E+03  0.00000000000E+00 0. -1.
         -1   -1    0    0    0  501 -0.00000000000E+00 -0.00000000000E+00 -0.78981602433E+02  0.78981602433E+02  0.00000000000E+00 0. -1.
         25    1    1    2    0    0 -0.48612016511E+02  0.58953505108E+02  0.46286863205E+02  0.14960320056E+03  0.12000000000E+03 0.  0.
         25    1    1    2    0    0  0.48612016511E+02 -0.58953505108E+02  0.15785318146E+03  0.21250004897E+03  0.12000000000E+03 0.  0.
<mgrwt>
<rscale>  0 0.29907458E+03</rscale>
<asrwt>0</asrwt>
<pdfrwt beam="1">  1        1 0.43557176E-01 0.29907458E+03</pdfrwt>
<pdfrwt beam="2">  1       -1 0.12151016E-01 0.29907458E+03</pdfrwt>
<totfact> 0.42255084E+03</totfact>
</mgrwt>
</event>
<event>
 4    1  0.1774755E-004  0.3191635E+03  0.7818608E-02  0.1076035E+00
          2   -1    0    0  501    0  0.00000000000E+00  0.00000000000E+00  0.19444239210E+04  0.19444239210E+04  0.00000000000E+00 0.  1.
         -2   -1    0    0    0  501 -0.00000000000E+00 -0.00000000000E+00 -0.13097111058E+02  0.13097111058E+02  0.00000000000E+00 0.  1.
         25    1    1    2    0    0 -0.52652927903E+02  0.62345429143E+02  0.13728254900E+04  0.13804742335E+04  0.12000000000E+03 0.  0.
         25    1    1    2    0    0  0.52652927903E+02 -0.62345429143E+02  0.55850131990E+03  0.57704679852E+03  0.12000000000E+03 0.  0.
<mgrwt>
<rscale>  0 0.31916351E+03</rscale>
<asrwt>0</asrwt>
<pdfrwt beam="1">  1        2 0.29914191E+00 0.31916351E+03</pdfrwt>
<pdfrwt beam="2">  1       -2 0.20149417E-02 0.31916351E+03</pdfrwt>
<totfact> 0.60799050E+03</totfact>
</mgrwt>
</event>
<event>
 4    1  0.1774755E-004  0.2891796E+03  0.7818608E-02  0.1090778E+00
         -1   -1    0    0    0  501 -0.00000000000E+00  0.00000000000E+00  0.25171253594E+02  0.25171253594E+02  0.00000000000E+00 0. -1.
          1   -1    0    0  501    0  0.00000000000E+00 -0.00000000000E+00 -0.83055912745E+03  0.83055912745E+03  0.00000000000E+00 0. -1.
         25    1    1    2    0    0 -0.12045196893E+02  0.19597833193E+02 -0.17391670887E+03  0.21254689708E+03  0.12000000000E+03 0.  0.
         25    1    1    2    0    0  0.12045196893E+02 -0.19597833193E+02 -0.63147116499E+03  0.64318348397E+03  0.12000000000E+03 0.  0.
<mgrwt>
<rscale>  0 0.28917963E+03</rscale>
<asrwt>0</asrwt>
<pdfrwt beam="1">  1        1 0.12777833E+00 0.28917963E+03</pdfrwt>
<pdfrwt beam="2">  1       -1 0.38725004E-02 0.28917963E+03</pdfrwt>
<totfact> 0.56079696E+03</totfact>
</mgrwt>
</event>
<event>
 4    1  0.1774755E-004  0.2677013E+03  0.7818608E-02  0.1102602E+00
         -1   -1    0    0    0  501 -0.00000000000E+00  0.00000000000E+00  0.71731278773E+03  0.71731278773E+03  0.00000000000E+00 0.  1.
          1   -1    0    0  501    0  0.00000000000E+00 -0.00000000000E+00 -0.24976552727E+02  0.24976552727E+02  0.00000000000E+00 0.  1.
         25    1    1    2    0    0 -0.55281770968E+02  0.15486534253E+02  0.30503169512E+03  0.33277656464E+03  0.12000000000E+03 0.  0.
         25    1    1    2    0    0  0.55281770968E+02 -0.15486534253E+02  0.38730453989E+03  0.40951277582E+03  0.12000000000E+03 0.  0.
<mgrwt>
<rscale>  0 0.26770133E+03</rscale>
<asrwt>0</asrwt>
<pdfrwt beam="1">  1        1 0.38425471E-02 0.26770133E+03</pdfrwt>
<pdfrwt beam="2">  1       -1 0.11035580E+00 0.26770133E+03</pdfrwt>
<totfact> 0.19338485E+03</totfact>
</mgrwt>
</event>
<event>
 4    1  0.1774755E-004  0.2794543E+03  0.7818608E-02  0.1095987E+00
          1   -1    0    0  501    0  0.00000000000E+00  0.00000000000E+00  0.95257607383E+03  0.95257607383E+03  0.00000000000E+00 0.  1.
         -1   -1    0    0    0  501 -0.00000000000E+00 -0.00000000000E+00 -0.20495654230E+02  0.20495654230E+02  0.00000000000E+00 0.  1.
         25    1    1    2    0    0 -0.27187421048E+02 -0.42708444379E+02  0.64223649795E+03  0.65530976369E+03  0.12000000000E+03 0.  0.
         25    1    1    2    0    0  0.27187421048E+02  0.42708444379E+02  0.28984392164E+03  0.31776196437E+03  0.12000000000E+03 0.  0.
<mgrwt>
<rscale>  0 0.27945425E+03</rscale>
<asrwt>0</asrwt>
<pdfrwt beam="1">  1        1 0.14655013E+00 0.27945425E+03</pdfrwt>
<pdfrwt beam="2">  1       -1 0.31531783E-02 0.27945425E+03</pdfrwt>
<totfact> 0.60857170E+03</totfact>
</mgrwt>
</event>
<event>
 4    1  0.1774755E-004  0.2626135E+03  0.7818608E-02  0.1105583E+00
          2   -1    0    0  501    0  0.00000000000E+00  0.00000000000E+00  0.26698873548E+03  0.26698873548E+03  0.00000000000E+00 0. -1.
         -2   -1    0    0    0  501 -0.00000000000E+00 -0.00000000000E+00 -0.64577479379E+02  0.64577479379E+02  0.00000000000E+00 0. -1.
         25    1    1    2    0    0 -0.85170783629E+01 -0.45165138003E+02  0.67115727274E+02  0.14497224273E+03  0.12000000000E+03 0.  0.
         25    1    1    2    0    0  0.85170783629E+01  0.45165138003E+02  0.13529552883E+03  0.18659397213E+03  0.12000000000E+03 0.  0.
<mgrwt>
<rscale>  0 0.26261348E+03</rscale>
<asrwt>0</asrwt>
<pdfrwt beam="1">  1        2 0.41075189E-01 0.26261348E+03</pdfrwt>
<pdfrwt beam="2">  1       -2 0.99349970E-02 0.26261348E+03</pdfrwt>
<totfact> 0.82356874E+03</totfact>
</mgrwt>
</event>
<event>
 4    1  0.1774755E-004  0.2789460E+03  0.7818608E-02  0.1096266E+00
         -1   -1    0    0    0  501 -0.00000000000E+00  0.00000000000E+00  0.38762679367E+02  0.38762679367E+02  0.00000000000E+00 0. -1.
          1   -1    0    0  501    0  0.00000000000E+00 -0.00000000000E+00 -0.50184151072E+03  0.50184151072E+03  0.00000000000E+00 0. -1.
         25    1    1    2    0    0  0.17143245112E+02  0.68798538586E+02 -0.24134356046E+03  0.27870027618E+03  0.12000000000E+03 0.  0.
         25    1    1    2    0    0 -0.17143245112E+02 -0.68798538586E+02 -0.22173527089E+03  0.26190391391E+03  0.12000000000E+03 0.  0.
<mgrwt>
<rscale>  0 0.27894603E+03</rscale>
<asrwt>0</asrwt>
<pdfrwt beam="1">  1        1 0.77206385E-01 0.27894603E+03</pdfrwt>
<pdfrwt beam="2">  1       -1 0.59634892E-02 0.27894603E+03</pdfrwt>
<totfact> 0.60349102E+03</totfact>
</mgrwt>
</event>
<event>
 4    1  0.1774755E-004  0.2649765E+03  0.7818608E-02  0.1104190E+00
          2   -1    0    0  501    0  0.00000000000E+00  0.00000000000E+00  0.10412363347E+03  0.10412363347E+03  0.00000000000E+00 0. -1.
         -2   -1    0    0    0  501 -0.00000000000E+00 -0.00000000000E+00 -0.16857974762E+03  0.16857974762E+03  0.00000000000E+00 0. -1.
         25    1    1    2    0    0 -0.75121229261E+01  0.36729294818E+01  0.24917828294E+02  0.12284470102E+03  0.12000000000E+03 0.  0.
         25    1    1    2    0    0  0.75121229261E+01 -0.36729294818E+01 -0.89373942448E+02  0.14985868006E+03  0.12000000000E+03 0.  0.
<mgrwt>
<rscale>  0 0.26497650E+03</rscale>
<asrwt>0</asrwt>
<pdfrwt beam="1">  1        2 0.16019021E-01 0.26497650E+03</pdfrwt>
<pdfrwt beam="2">  1       -2 0.25935346E-01 0.26497650E+03</pdfrwt>
<totfact> 0.47565174E+03</totfact>
</mgrwt>
</event>
<event>
 4    1  0.1774755E-004  0.2765310E+03  0.7818608E-02  0.1097599E+00
         -1   -1    0    0    0  501 -0.00000000000E+00  0.00000000000E+00  0.69418140708E+01  0.69418140708E+01  0.00000000000E+00 0. -1.
          1   -1    0    0  501    0  0.00000000000E+00 -0.00000000000E+00 -0.27539411909E+04  0.27539411909E+04  0.00000000000E+00 0. -1.
         25    1    1    2    0    0 -0.52362827753E+02 -0.44367954857E+01 -0.93196375191E+03  0.94112591387E+03  0.12000000000E+03 0.  0.
         25    1    1    2    0    0  0.52362827753E+02  0.44367954857E+01 -0.18150356249E+04  0.18197570911E+04  0.12000000000E+03 0.  0.
<mgrwt>
<rscale>  0 0.27653099E+03</rscale>
<asrwt>0</asrwt>
<pdfrwt beam="1">  1        1 0.42368354E+00 0.27653099E+03</pdfrwt>
<pdfrwt beam="2">  1       -1 0.10679707E-02 0.27653099E+03</pdfrwt>
<totfact> 0.18296280E+03</totfact>
</mgrwt>
</event>
<event>
 4    1  0.1774755E-004  0.2448089E+03  0.7818608E-02  0.1116630E+00
          2   -1    0    0  501    0  0.00000000000E+00  0.00000000000E+00  0.18609285679E+04  0.18609285679E+04  0.00000000000E+00 0. -1.
         -2   -1    0    0    0  501 -0.00000000000E+00 -0.00000000000E+00 -0.80512777859E+01  0.80512777859E+01  0.00000000000E+00 0. -1.
         25    1    1    2    0    0  0.34882749003E+01  0.12901148746E+02  0.77294168856E+03  0.78231544892E+03  0.12000000000E+03 0.  0.
         25    1    1    2    0    0 -0.34882749003E+01 -0.12901148746E+02  0.10799356016E+04  0.10866643968E+04  0.12000000000E+03 0.  0.
<mgrwt>
<rscale>  0 0.24480893E+03</rscale>
<asrwt>0</asrwt>
<pdfrwt beam="1">  1        2 0.28629636E+00 0.24480893E+03</pdfrwt>
<pdfrwt beam="2">  1       -2 0.12386596E-02 0.24480893E+03</pdfrwt>
<totfact> 0.13680217E+04</totfact>
</mgrwt>
</event>
<event>
 4    1  0.1774755E-004  0.2827487E+03  0.7818608E-02  0.1094197E+00
         -1   -1    0    0    0  501 -0.00000000000E+00  0.00000000000E+00  0.37991679960E+02  0.37991679960E+02  0.00000000000E+00 0. -1.
          1   -1    0    0  501    0  0.00000000000E+00 -0.00000000000E+00 -0.52608126699E+03  0.52608126699E+03  0.00000000000E+00 0. -1.
         25    1    1    2    0    0 -0.74028200850E+02  0.60624506969E+01 -0.26070998680E+03  0.29645678445E+03  0.12000000000E+03 0.  0.
         25    1    1    2    0    0  0.74028200850E+02 -0.60624506969E+01 -0.22737960023E+03  0.26761616250E+03  0.12000000000E+03 0.  0.
<mgrwt>
<rscale>  0 0.28274873E+03</rscale>
<asrwt>0</asrwt>
<pdfrwt beam="1">  1        1 0.80935574E-01 0.28274873E+03</pdfrwt>
<pdfrwt beam="2">  1       -1 0.58448743E-02 0.28274873E+03</pdfrwt>
<totfact> 0.58425211E+03</totfact>
</mgrwt>
</event>
<event>
 4    1  0.1774755E-004  0.2988812E+03  0.7818608E-02  0.1085801E+00
         -1   -1    0    0    0  501 -0.00000000000E+00  0.00000000000E+00  0.96609769030E+01  0.96609769030E+01  0.00000000000E+00 0.  1.
          1   -1    0    0  501    0  0.00000000000E+00 -0.00000000000E+00 -0.23116192677E+04  0.23116192677E+04  0.00000000000E+00 0.  1.
         25    1    1    2    0    0 -0.23555170142E+02 -0.34648185023E+02 -0.54056688874E+03  0.55530883657E+03  0.12000000000E+03 0.  0.
         25    1    1    2    0    0  0.23555170142E+02  0.34648185023E+02 -0.17613914021E+04  0.17659714081E+04  0.12000000000E+03 0.  0.
<mgrwt>
<rscale>  0 0.29888125E+03</rscale>
<asrwt>0</asrwt>
<pdfrwt beam="1">  1        1 0.35563423E+00 0.29888125E+03</pdfrwt>
<pdfrwt beam="2">  1       -1 0.14863021E-02 0.29888125E+03</pdfrwt>
<totfact> 0.22316608E+03</totfact>
</mgrwt>
</event>
<event>
 4    1  0.1774755E-004  0.2447810E+03  0.7818608E-02  0.1116648E+00
         -1   -1    0    0    0  501 -0.00000000000E+00  0.00000000000E+00  0.51604959251E+02  0.51604959251E+02  0.00000000000E+00 0.  1.
          1   -1    0    0  501    0  0.00000000000E+00 -0.00000000000E+00 -0.29027110289E+03  0.29027110289E+03  0.00000000000E+00 0.  1.
         25    1    1    2    0    0 -0.21770000853E+02  0.14423091518E+01 -0.10512996495E+03  0.16102273977E+03  0.12000000000E+03 0.  0.
         25    1    1    2    0    0  0.21770000853E+02 -0.14423091518E+01 -0.13353617869E+03  0.18085332237E+03  0.12000000000E+03 0.  0.
<mgrwt>
<rscale>  0 0.24478095E+03</rscale>
<asrwt>0</asrwt>
<pdfrwt beam="1">  1        1 0.44657092E-01 0.24478095E+03</pdfrwt>
<pdfrwt beam="2">  1       -1 0.79392246E-02 0.24478095E+03</pdfrwt>
<totfact> 0.78476894E+03</totfact>
</mgrwt>
</event>
<event>
 4    1  0.1774755E-004  0.2854103E+03  0.7818608E-02  0.1092770E+00
         -1   -1    0    0    0  501 -0.00000000000E+00  0.00000000000E+00  0.67758727782E+02  0.67758727782E+02  0.00000000000E+00 0. -1.
          1   -1    0    0  501    0  0.00000000000E+00 -0.00000000000E+00 -0.30054816583E+03  0.30054816583E+03  0.00000000000E+00 0. -1.
         25    1    1    2    0    0  0.54547155940E+02 -0.19655526637E+02 -0.18223318851E+03  0.22576684199E+03  0.12000000000E+03 0.  0.
         25    1    1    2    0    0 -0.54547155940E+02  0.19655526637E+02 -0.50556249540E+02  0.14254005162E+03  0.12000000000E+03 0.  0.
<mgrwt>
<rscale>  0 0.28541031E+03</rscale>
<asrwt>0</asrwt>
<pdfrwt beam="1">  1        1 0.46238178E-01 0.28541031E+03</pdfrwt>
<pdfrwt beam="2">  1       -1 0.10424420E-01 0.28541031E+03</pdfrwt>
<totfact> 0.49707865E+03</totfact>
</mgrwt>
</event>
<event>
 4    1  0.1774755E-004  0.3097756E+03  0.7818608E-02  0.1080453E+00
          1   -1    0    0  501    0  0.00000000000E+00  0.00000000000E+00  0.25875142066E+02  0.25875142066E+02  0.00000000000E+00 0. -1.
         -1   -1    0    0    0  501 -0.00000000000E+00 -0.00000000000E+00 -0.92715351725E+03  0.92715351725E+03  0.00000000000E+00 0. -1.
         25    1    1    2    0    0 -0.59021978746E+02 -0.42878051841E+02 -0.65163011404E+03  0.66659127419E+03  0.12000000000E+03 0.  0.
         25    1    1    2    0    0  0.59021978746E+02  0.42878051841E+02 -0.24964826114E+03  0.28643738512E+03  0.12000000000E+03 0.  0.
<mgrwt>
<rscale>  0 0.30977559E+03</rscale>
<asrwt>0</asrwt>
<pdfrwt beam="1">  1        1 0.39807910E-02 0.30977559E+03</pdfrwt>
<pdfrwt beam="2">  1       -1 0.14263901E+00 0.30977559E+03</pdfrwt>
<totfact> 0.98827913E+02</totfact>
</mgrwt>
</event>
<event>
 4    1  0.1774755E-004  0.2479638E+03  0.7818608E-02  0.1114598E+00
          1   -1    0    0  501    0  0.00000000000E+00  0.00000000000E+00  0.14729038322E+04  0.14729038322E+04  0.00000000000E+00 0. -1.
         -1   -1    0    0    0  501 -0.00000000000E+00 -0.00000000000E+00 -0.10436197318E+02  0.10436197318E+02  0.00000000000E+00 0. -1.
         25    1    1    2    0    0  0.80037937169E+01 -0.97188044925E+01  0.56066586755E+03  0.57350216296E+03  0.12000000000E+03 0.  0.
         25    1    1    2    0    0 -0.80037937169E+01  0.97188044925E+01  0.90180176729E+03  0.90983786653E+03  0.12000000000E+03 0.  0.
<mgrwt>
<rscale>  0 0.24796383E+03</rscale>
<asrwt>0</asrwt>
<pdfrwt beam="1">  1        1 0.22660042E+00 0.24796383E+03</pdfrwt>
<pdfrwt beam="2">  1       -1 0.16055700E-02 0.24796383E+03</pdfrwt>
<totfact> 0.70354530E+03</totfact>
</mgrwt>
</event>
<event>
 4    1  0.1774755E-004  0.2401076E+03  0.7818608E-02  0.1119721E+00
         -3   -1    0    0    0  501 -0.00000000000E+00  0.00000000000E+00  0.17692389293E+04  0.17692389293E+04  0.00000000000E+00 0.  1.
          3   -1    0    0  501    0  0.00000000000E+00 -0.00000000000E+00 -0.81463910341E+01  0.81463910341E+01  0.00000000000E+00 0.  1.
         25    1    1    2    0    0 -0.24846010779E+01  0.16762906201E+01  0.89521911791E+03  0.90323100714E+03  0.12000000000E+03 0.  0.
         25    1    1    2    0    0  0.24846010779E+01 -0.16762906201E+01  0.86587342040E+03  0.87415431324E+03  0.12000000000E+03 0.  0.
<mgrwt>
<rscale>  0 0.24010758E+03</rscale>
<asrwt>0</asrwt>
<pdfrwt beam="1">  1        3 0.12532923E-02 0.24010758E+03</pdfrwt>
<pdfrwt beam="2">  1       -3 0.27219030E+00 0.24010758E+03</pdfrwt>
<totfact> 0.30194337E+02</totfact>
</mgrwt>
</event>
<event>
 4    1  0.1774755E-004  0.3474661E+03  0.7818608E-02  0.1063660E+00
         -1   -1    0    0    0  501 -0.00000000000E+00  0.00000000000E+00  0.11977352187E+04  0.11977352187E+04  0.00000000000E+00 0.  1.
          1   -1    0    0  501    0  0.00000000000E+00 -0.00000000000E+00 -0.25200207575E+02  0.25200207575E+02  0.00000000000E+00 0.  1.
         25    1    1    2    0    0 -0.20597253842E+02 -0.69198534507E+02  0.22440910106E+03  0.26452245402E+03  0.12000000000E+03 0.  0.
         25    1    1    2    0    0  0.20597253842E+02  0.69198534507E+02  0.94812591010E+03  0.95841297229E+03  0.12000000000E+03 0.  0.
<mgrwt>
<rscale>  0 0.34746612E+03</rscale>
<asrwt>0</asrwt>
<pdfrwt beam="1">  1        1 0.38769559E-02 0.34746612E+03</pdfrwt>
<pdfrwt beam="2">  1       -1 0.18426691E+00 0.34746612E+03</pdfrwt>
<totfact> 0.50763014E+02</totfact>
</mgrwt>
</event>
<event>
 4    1  0.1774755E-004  0.2941887E+03  0.7818608E-02  0.1088182E+00
         -1   -1    0    0    0  501 -0.00000000000E+00  0.00000000000E+00  0.16921574933E+03  0.16921574933E+03  0.00000000000E+00 0.  1.
          1   -1    0    0  501    0  0.00000000000E+00 -0.00000000000E+00 -0.12786485664E+03  0.12786485664E+03  0.00000000000E+00 0.  1.
         25    1    1    2    0    0 -0.43366865949E+02 -0.67506181707E+02  0.49219503330E+02  0.15251337364E+03  0.12000000000E+03 0.  0.
         25    1    1    2    0    0  0.43366865949E+02  0.67506181707E+02 -0.78686106388E+01  0.14456723233E+03  0.12000000000E+03 0.  0.
<mgrwt>
<rscale>  0 0.29418870E+03</rscale>
<asrwt>0</asrwt>
<pdfrwt beam="1">  1        1 0.19671516E-01 0.29418870E+03</pdfrwt>
<pdfrwt beam="2">  1       -1 0.26033192E-01 0.29418870E+03</pdfrwt>
<totfact> 0.33854911E+03</totfact>
</mgrwt>
</event>
<event>
 4    1  0.1774755E-004  0.3019047E+03  0.7818608E-02  0.1084292E+00
         -1   -1    0    0    0  501 -0.00000000000E+00  0.00000000000E+00  0.11515734703E+03  0.11515734703E+03  0.00000000000E+00 0. -1.
          1   -1    0    0  501    0  0.00000000000E+00 -0.00000000000E+00 -0.19787370615E+03  0.19787370615E+03  0.00000000000E+00 0. -1.
         25    1    1    2    0    0  0.61028560058E+02 -0.22469024276E+02  0.25494930047E+02  0.13885004016E+03  0.12000000000E+03 0.  0.
         25    1    1    2    0    0 -0.61028560058E+02  0.22469024276E+02 -0.10821128917E+03  0.17418101302E+03  0.12000000000E+03 0.  0.
<mgrwt>
<rscale>  0 0.30190469E+03</rscale>
<asrwt>0</asrwt>
<pdfrwt beam="1">  1        1 0.30442109E-01 0.30190469E+03</pdfrwt>
<pdfrwt beam="2">  1       -1 0.17716515E-01 0.30190469E+03</pdfrwt>
<totfact> 0.36469533E+03</totfact>
</mgrwt>
</event>
<event>
 4    1  0.1774755E-004  0.4339419E+03  0.7818608E-02  0.1032622E+00
          1   -1    0    0  501    0  0.00000000000E+00  0.00000000000E+00  0.95541565517E+03  0.95541565517E+03  0.00000000000E+00 0.  1.
         -1   -1    0    0    0  501 -0.00000000000E+00 -0.00000000000E+00 -0.49273197067E+02  0.49273197067E+02  0.00000000000E+00 0.  1.
         25    1    1    2    0    0 -0.55913621401E+02 -0.24938139368E+02  0.59285207713E+02  0.14718348993E+03  0.12000000000E+03 0.  0.
         25    1    1    2    0    0  0.55913621401E+02  0.24938139368E+02  0.84685725039E+03  0.85750536231E+03  0.12000000000E+03 0.  0.
<mgrwt>
<rscale>  0 0.43394186E+03</rscale>
<asrwt>0</asrwt>
<pdfrwt beam="1">  1        1 0.14698701E+00 0.43394186E+03</pdfrwt>
<pdfrwt beam="2">  1       -1 0.75804926E-02 0.43394186E+03</pdfrwt>
<totfact> 0.16168119E+03</totfact>
</mgrwt>
</event>
<event>
 4    1  0.1774755E-004  0.3349379E+03  0.7818608E-02  0.1068973E+00
          1   -1    0    0  501    0  0.00000000000E+00  0.00000000000E+00  0.40194787957E+02  0.40194787957E+02  0.00000000000E+00 0.  1.
         -1   -1    0    0    0  501 -0.00000000000E+00 -0.00000000000E+00 -0.69774829706E+03  0.69774829706E+03  0.00000000000E+00 0.  1.
         25    1    1    2    0    0  0.71020095177E+02 -0.15682782468E+02 -0.12737701889E+03  0.18951176356E+03  0.12000000000E+03 0.  0.
         25    1    1    2    0    0 -0.71020095177E+02  0.15682782468E+02 -0.53017649021E+03  0.54843132146E+03  0.12000000000E+03 0.  0.
<mgrwt>
<rscale>  0 0.33493787E+03</rscale>
<asrwt>0</asrwt>
<pdfrwt beam="1">  1        1 0.61838137E-02 0.33493787E+03</pdfrwt>
<pdfrwt beam="2">  1       -1 0.10734589E+00 0.33493787E+03</pdfrwt>
<totfact> 0.10664774E+03</totfact>
</mgrwt>
</event>
<event>
 4    1  0.1774755E-004  0.2449062E+03  0.7818608E-02  0.1116567E+00
         -2   -1    0    0    0  501 -0.00000000000E+00  0.00000000000E+00  0.16912345124E+02  0.16912345124E+02  0.00000000000E+00 0.  1.
          2   -1    0    0  501    0  0.00000000000E+00 -0.00000000000E+00 -0.88661618594E+03  0.88661618594E+03  0.00000000000E+00 0.  1.
         25    1    1    2    0    0  0.81366742769E+00  0.10764468663E+02 -0.35417349723E+03  0.37410613732E+03  0.12000000000E+03 0.  0.
         25    1    1    2    0    0 -0.81366742769E+00 -0.10764468663E+02 -0.51553034359E+03  0.52942239375E+03  0.12000000000E+03 0.  0.
<mgrwt>
<rscale>  0 0.24490618E+03</rscale>
<asrwt>0</asrwt>
<pdfrwt beam="1">  1        2 0.13640251E+00 0.24490618E+03</pdfrwt>
<pdfrwt beam="2">  1       -2 0.26018990E-02 0.24490618E+03</pdfrwt>
<totfact> 0.16082568E+04</totfact>
</mgrwt>
</event>
<event>
 4    1  0.1774755E-004  0.5021858E+03  0.7818608E-02  0.1013210E+00
          1   -1    0    0  501    0  0.00000000000E+00  0.00000000000E+00  0.26856678072E+04  0.26856678072E+04  0.00000000000E+00 0. -1.
         -1   -1    0    0    0  501 -0.00000000000E+00 -0.00000000000E+00 -0.23475595289E+02  0.23475595289E+02  0.00000000000E+00 0. -1.
         25    1    1    2    0    0 -0.28205328263E+02  0.10467447634E+03  0.23673196230E+04  0.23728368010E+04  0.12000000000E+03 0.  0.
         25    1    1    2    0    0  0.28205328263E+02 -0.10467447634E+03  0.29487258887E+03  0.33630660149E+03  0.12000000000E+03 0.  0.
<mgrwt>
<rscale>  0 0.50218582E+03</rscale>
<asrwt>0</asrwt>
<pdfrwt beam="1">  1        1 0.41317942E+00 0.50218582E+03</pdfrwt>
<pdfrwt beam="2">  1       -1 0.36116322E-02 0.50218582E+03</pdfrwt>
<totfact> 0.32907394E+02</totfact>
</mgrwt>
</event>
<event>
 4    1  0.1774755E-004  0.2908444E+03  0.7818608E-02  0.1089909E+00
         -1   -1    0    0    0  501 -0.00000000000E+00  0.00000000000E+00  0.44531271752E+02  0.44531271752E+02  0.00000000000E+00 0. -1.
          1   -1    0    0  501    0  0.00000000000E+00 -0.00000000000E+00 -0.47489363154E+03  0.47489363154E+03  0.00000000000E+00 0. -1.
         25    1    1    2    0    0 -0.69184652970E+02  0.41881214616E+02 -0.18948222785E+03  0.23841993837E+03  0.12000000000E+03 0.  0.
         25    1    1    2    0    0  0.69184652970E+02 -0.41881214616E+02 -0.24088013194E+03  0.28100496492E+03  0.12000000000E+03 0.  0.
<mgrwt>
<rscale>  0 0.29084441E+03</rscale>
<asrwt>0</asrwt>
<pdfrwt beam="1">  1        1 0.73060559E-01 0.29084441E+03</pdfrwt>
<pdfrwt beam="2">  1       -1 0.68509649E-02 0.29084441E+03</pdfrwt>
<totfact> 0.52685183E+03</totfact>
</mgrwt>
</event>
<event>
 4    1  0.1774755E-004  0.2427627E+03  0.7818608E-02  0.1117966E+00
          1   -1    0    0  501    0  0.00000000000E+00  0.00000000000E+00  0.59873922304E+03  0.59873922304E+03  0.00000000000E+00 0.  1.
         -1   -1    0    0    0  501 -0.00000000000E+00 -0.00000000000E+00 -0.24607425851E+02  0.24607425851E+02  0.00000000000E+00 0.  1.
         25    1    1    2    0    0 -0.49940362905E+01 -0.29208354311E+01  0.24259469403E+03  0.27071323804E+03  0.12000000000E+03 0.  0.
         25    1    1    2    0    0  0.49940362905E+01  0.29208354311E+01  0.33153710316E+03  0.35263341085E+03  0.12000000000E+03 0.  0.
<mgrwt>
<rscale>  0 0.24276269E+03</rscale>
<asrwt>0</asrwt>
<pdfrwt beam="1">  1        1 0.92113715E-01 0.24276269E+03</pdfrwt>
<pdfrwt beam="2">  1       -1 0.37857583E-02 0.24276269E+03</pdfrwt>
<totfact> 0.93229086E+03</totfact>
</mgrwt>
</event>
<event>
 4    1  0.1774755E-004  0.2552401E+03  0.7818608E-02  0.1110037E+00
         -2   -1    0    0    0  501 -0.00000000000E+00  0.00000000000E+00  0.70499951332E+02  0.70499951332E+02  0.00000000000E+00 0.  1.
          2   -1    0    0  501    0  0.00000000000E+00 -0.00000000000E+00 -0.23101973241E+03  0.23101973241E+03  0.00000000000E+00 0.  1.
         25    1    1    2    0    0 -0.27135778384E+02  0.28679718515E+02 -0.10165456814E+03  0.16214970844E+03  0.12000000000E+03 0.  0.
         25    1    1    2    0    0  0.27135778384E+02 -0.28679718515E+02 -0.58865212940E+02  0.13936997531E+03  0.12000000000E+03 0.  0.
<mgrwt>
<rscale>  0 0.25524012E+03</rscale>
<asrwt>0</asrwt>
<pdfrwt beam="1">  1        2 0.35541498E-01 0.25524012E+03</pdfrwt>
<pdfrwt beam="2">  1       -2 0.10846146E-01 0.25524012E+03</pdfrwt>
<totfact> 0.83621530E+03</totfact>
</mgrwt>
</event>
<event>
 4    1  0.1774755E-004  0.2987782E+03  0.7818608E-02  0.1085853E+00
         -1   -1    0    0    0  501 -0.00000000000E+00  0.00000000000E+00  0.86275160119E+02  0.86275160119E+02  0.00000000000E+00 0. -1.
          1   -1    0    0  501    0  0.00000000000E+00 -0.00000000000E+00 -0.25867363032E+03  0.25867363032E+03  0.00000000000E+00 0. -1.
         25    1    1    2    0    0 -0.41560289543E+01  0.26240174072E+02  0.11842758119E+02  0.12347497816E+03  0.12000000000E+03 0.  0.
         25    1    1    2    0    0  0.41560289543E+01 -0.26240174072E+02 -0.18424122832E+03  0.22147381228E+03  0.12000000000E+03 0.  0.
<mgrwt>
<rscale>  0 0.29877824E+03</rscale>
<asrwt>0</asrwt>
<pdfrwt beam="1">  1        1 0.39795943E-01 0.29877824E+03</pdfrwt>
<pdfrwt beam="2">  1       -1 0.13273101E-01 0.29877824E+03</pdfrwt>
<totfact> 0.41203105E+03</totfact>
</mgrwt>
</event>
<event>
 4    1  0.1774755E-004  0.2624898E+03  0.7818608E-02  0.1105657E+00
          3   -1    0    0  501    0  0.00000000000E+00  0.00000000000E+00  0.10699177466E+03  0.10699177466E+03  0.00000000000E+00 0. -1.
         -3   -1    0    0    0  501 -0.00000000000E+00 -0.00000000000E+00 -0.16099572095E+03  0.16099572095E+03  0.00000000000E+00 0. -1.
         25    1    1    2    0    0  0.37297597960E+02 -0.12305526773E+02 -0.63566631433E+02  0.14136213579E+03  0.12000000000E+03 0.  0.
         25    1    1    2    0    0 -0.37297597960E+02  0.12305526773E+02  0.95626851354E+01  0.12662535982E+03  0.12000000000E+03 0.  0.
<mgrwt>
<rscale>  0 0.26248976E+03</rscale>
<asrwt>0</asrwt>
<pdfrwt beam="1">  1        3 0.16460273E-01 0.26248976E+03</pdfrwt>
<pdfrwt beam="2">  1       -3 0.24768572E-01 0.26248976E+03</pdfrwt>
<totfact> 0.12221127E+03</totfact>
</mgrwt>
</event>
<event>
 4    1  0.1774755E-004  0.4719620E+03  0.7818608E-02  0.1021368E+00
         -1   -1    0    0    0  501 -0.00000000000E+00  0.00000000000E+00  0.16182547123E+03  0.16182547123E+03  0.00000000000E+00 0.  1.
          1   -1    0    0  501    0  0.00000000000E+00 -0.00000000000E+00 -0.34411783798E+03  0.34411783798E+03  0.00000000000E+00 0.  1.
         25    1    1    2    0    0  0.17614254738E+03 -0.10010321669E+03 -0.10775977462E+03  0.25895756412E+03  0.12000000000E+03 0.  0.
         25    1    1    2    0    0 -0.17614254738E+03  0.10010321669E+03 -0.74532592120E+02  0.24698574509E+03  0.12000000000E+03 0.  0.
<mgrwt>
<rscale>  0 0.47196200E+03</rscale>
<asrwt>0</asrwt>
<pdfrwt beam="1">  1        1 0.52941205E-01 0.47196200E+03</pdfrwt>
<pdfrwt beam="2">  1       -1 0.24896227E-01 0.47196200E+03</pdfrwt>
<totfact> 0.10347831E+03</totfact>
</mgrwt>
</event>
<event>
 4    1  0.1774755E-004  0.3473741E+03  0.7818608E-02  0.1063698E+00
          2   -1    0    0  501    0  0.00000000000E+00  0.00000000000E+00  0.66185708867E+03  0.66185708867E+03  0.00000000000E+00 0.  1.
         -2   -1    0    0    0  501 -0.00000000000E+00 -0.00000000000E+00 -0.45579622194E+02  0.45579622194E+02  0.00000000000E+00 0.  1.
         25    1    1    2    0    0 -0.54315534429E+02 -0.10938095948E+03  0.24866571885E+03  0.30190894539E+03  0.12000000000E+03 0.  0.
         25    1    1    2    0    0  0.54315534429E+02  0.10938095948E+03  0.36761174763E+03  0.40552776548E+03  0.12000000000E+03 0.  0.
<mgrwt>
<rscale>  0 0.34737413E+03</rscale>
<asrwt>0</asrwt>
<pdfrwt beam="1">  1        2 0.10182416E+00 0.34737413E+03</pdfrwt>
<pdfrwt beam="2">  1       -2 0.70122500E-02 0.34737413E+03</pdfrwt>
<totfact> 0.52386303E+03</totfact>
</mgrwt>
</event>
<event>
 4    1  0.1774755E-004  0.3137901E+03  0.7818608E-02  0.1078543E+00
         -2   -1    0    0    0  501 -0.00000000000E+00  0.00000000000E+00  0.76300016067E+01  0.76300016067E+01  0.00000000000E+00 0. -1.
          2   -1    0    0  501    0  0.00000000000E+00 -0.00000000000E+00 -0.32262190906E+04  0.32262190906E+04  0.00000000000E+00 0. -1.
         25    1    1    2    0    0 -0.92223573275E+02  0.41303094278E+02 -0.16321626323E+04  0.16396847232E+04  0.12000000000E+03 0.  0.
         25    1    1    2    0    0  0.92223573275E+02 -0.41303094278E+02 -0.15864264567E+04  0.15941643691E+04  0.12000000000E+03 0.  0.
<mgrwt>
<rscale>  0 0.31379010E+03</rscale>
<asrwt>0</asrwt>
<pdfrwt beam="1">  1        2 0.49634002E+00 0.31379010E+03</pdfrwt>
<pdfrwt beam="2">  1       -2 0.11738497E-02 0.31379010E+03</pdfrwt>
<totfact> 0.25532259E+03</totfact>
</mgrwt>
</event>
<event>
 4    1  0.1774755E-004  0.3466500E+03  0.7818608E-02  0.1063998E+00
         -2   -1    0    0    0  501 -0.00000000000E+00  0.00000000000E+00  0.30308361941E+02  0.30308361941E+02  0.00000000000E+00 0.  1.
          2   -1    0    0  501    0  0.00000000000E+00 -0.00000000000E+00 -0.99119667715E+03  0.99119667715E+03  0.00000000000E+00 0.  1.
         25    1    1    2    0    0 -0.82661707475E+02  0.92278657293E+02 -0.42998263412E+03  0.46328541324E+03  0.12000000000E+03 0.  0.
         25    1    1    2    0    0  0.82661707475E+02 -0.92278657293E+02 -0.53090568109E+03  0.55821962585E+03  0.12000000000E+03 0.  0.
<mgrwt>
<rscale>  0 0.34664995E+03</rscale>
<asrwt>0</asrwt>
<pdfrwt beam="1">  1        2 0.15249179E+00 0.34664995E+03</pdfrwt>
<pdfrwt beam="2">  1       -2 0.46628251E-02 0.34664995E+03</pdfrwt>
<totfact> 0.58139121E+03</totfact>
</mgrwt>
</event>
<event>
 4    1  0.1774755E-004  0.2942495E+03  0.7818608E-02  0.1088151E+00
          1   -1    0    0  501    0  0.00000000000E+00  0.00000000000E+00  0.24204187547E+03  0.24204187547E+03  0.00000000000E+00 0.  1.
         -1   -1    0    0    0  501 -0.00000000000E+00 -0.00000000000E+00 -0.89429519425E+02  0.89429519425E+02  0.00000000000E+00 0.  1.
         25    1    1    2    0    0 -0.67483193532E+02 -0.41166271581E+02  0.11187650010E+03  0.18211258770E+03  0.12000000000E+03 0.  0.
         25    1    1    2    0    0  0.67483193532E+02  0.41166271581E+02  0.40735855941E+02  0.14935880719E+03  0.12000000000E+03 0.  0.
<mgrwt>
<rscale>  0 0.29424948E+03</rscale>
<asrwt>0</asrwt>
<pdfrwt beam="1">  1        1 0.37237212E-01 0.29424948E+03</pdfrwt>
<pdfrwt beam="2">  1       -1 0.13758388E-01 0.29424948E+03</pdfrwt>
<totfact> 0.42313087E+03</totfact>
</mgrwt>
</event>
<event>
 4    1  0.1774755E-004  0.3209544E+03  0.7818608E-02  0.1075211E+00
         -1   -1    0    0    0  501 -0.00000000000E+00  0.00000000000E+00  0.15532461737E+03  0.15532461737E+03  0.00000000000E+00 0.  1.
          1   -1    0    0  501    0  0.00000000000E+00 -0.00000000000E+00 -0.16580075735E+03  0.16580075735E+03  0.00000000000E+00 0.  1.
         25    1    1    2    0    0  0.97323104907E+02 -0.10072387833E+02  0.36970881124E+02  0.15918569595E+03  0.12000000000E+03 0.  0.
         25    1    1    2    0    0 -0.97323104907E+02  0.10072387833E+02 -0.47447021104E+02  0.16193967876E+03  0.12000000000E+03 0.  0.
<mgrwt>
<rscale>  0 0.32095445E+03</rscale>
<asrwt>0</asrwt>
<pdfrwt beam="1">  1        1 0.25507809E-01 0.32095445E+03</pdfrwt>
<pdfrwt beam="2">  1       -1 0.23896095E-01 0.32095445E+03</pdfrwt>
<totfact> 0.28022533E+03</totfact>
</mgrwt>
</event>
<event>
 4    1  0.1774755E-004  0.2719743E+03  0.7818608E-02  0.1100155E+00
         -2   -1    0    0    0  501 -0.00000000000E+00  0.00000000000E+00  0.16055753174E+02  0.16055753174E+02  0.00000000000E+00 0. -1.
          2   -1    0    0  501    0  0.00000000000E+00 -0.00000000000E+00 -0.11517679262E+04  0.11517679262E+04  0.00000000000E+00 0. -1.
         25    1    1    2    0    0 -0.27473289185E+02  0.18662464160E+02 -0.33308542998E+03  0.35559664347E+03  0.12000000000E+03 0.  0.
         25    1    1    2    0    0  0.27473289185E+02 -0.18662464160E+02 -0.80262674302E+03  0.81222703587E+03  0.12000000000E+03 0.  0.
<mgrwt>
<rscale>  0 0.27197427E+03</rscale>
<asrwt>0</asrwt>
<pdfrwt beam="1">  1        2 0.17719510E+00 0.27197427E+03</pdfrwt>
<pdfrwt beam="2">  1       -2 0.24701154E-02 0.27197427E+03</pdfrwt>
<totfact> 0.12027408E+04</totfact>
</mgrwt>
</event>
<event>
 4    1  0.1774755E-004  0.2752272E+03  0.7818608E-02  0.1098325E+00
         -2   -1    0    0    0  501 -0.00000000000E+00  0.00000000000E+00  0.31404258471E+02  0.31404258471E+02  0.00000000000E+00 0.  1.
          2   -1    0    0  501    0  0.00000000000E+00 -0.00000000000E+00 -0.60302324314E+03  0.60302324314E+03  0.00000000000E+00 0.  1.
         25    1    1    2    0    0 -0.16689915303E+02  0.62222978118E+02 -0.24044835818E+03  0.27634338282E+03  0.12000000000E+03 0.  0.
         25    1    1    2    0    0  0.16689915303E+02 -0.62222978118E+02 -0.33117062649E+03  0.35808411879E+03  0.12000000000E+03 0.  0.
<mgrwt>
<rscale>  0 0.27522716E+03</rscale>
<asrwt>0</asrwt>
<pdfrwt beam="1">  1        2 0.92772801E-01 0.27522716E+03</pdfrwt>
<pdfrwt beam="2">  1       -2 0.48314247E-02 0.27522716E+03</pdfrwt>
<totfact> 0.10300586E+04</totfact>
</mgrwt>
</event>
<event>
 4    1  0.1774755E-004  0.2633927E+03  0.7818608E-02  0.1105122E+00
         -1   -1    0    0    0  501 -0.00000000000E+00  0.00000000000E+00  0.41184631592E+02  0.41184631592E+02  0.00000000000E+00 0. -1.
          1   -1    0    0  501    0  0.00000000000E+00 -0.00000000000E+00 -0.42112619732E+03  0.42112619732E+03  0.00000000000E+00 0. -1.
         25    1    1    2    0    0 -0.17154190689E+02  0.38464268339E+01 -0.99873930667E+02  0.15711099034E+03  0.12000000000E+03 0.  0.
         25    1    1    2    0    0  0.17154190689E+02 -0.38464268339E+01 -0.28006763506E+03  0.30519983858E+03  0.12000000000E+03 0.  0.
<mgrwt>
<rscale>  0 0.26339269E+03</rscale>
<asrwt>0</asrwt>
<pdfrwt beam="1">  1        1 0.64788649E-01 0.26339269E+03</pdfrwt>
<pdfrwt beam="2">  1       -1 0.63360968E-02 0.26339269E+03</pdfrwt>
<totfact> 0.69147625E+03</totfact>
</mgrwt>
</event>
<event>
 4    1  0.1774755E-004  0.3545312E+03  0.7818608E-02  0.1060770E+00
          1   -1    0    0  501    0  0.00000000000E+00  0.00000000000E+00  0.95018521772E+02  0.95018521772E+02  0.00000000000E+00 0. -1.
         -1   -1    0    0    0  501 -0.00000000000E+00 -0.00000000000E+00 -0.33070495730E+03  0.33070495730E+03  0.00000000000E+00 0. -1.
         25    1    1    2    0    0 -0.56403378370E+02  0.48917779935E+02  0.10642015057E+02  0.14173052871E+03  0.12000000000E+03 0.  0.
         25    1    1    2    0    0  0.56403378370E+02 -0.48917779935E+02 -0.24632845059E+03  0.28399295036E+03  0.12000000000E+03 0.  0.
<mgrwt>
<rscale>  0 0.35453122E+03</rscale>
<asrwt>0</asrwt>
<pdfrwt beam="1">  1        1 0.14618234E-01 0.35453122E+03</pdfrwt>
<pdfrwt beam="2">  1       -1 0.50877686E-01 0.35453122E+03</pdfrwt>
<totfact> 0.15391191E+03</totfact>
</mgrwt>
</event>
<event>
 4    1  0.1774755E-004  0.2765234E+03  0.7818608E-02  0.1097603E+00
         -2   -1    0    0    0  501 -0.00000000000E+00  0.00000000000E+00  0.58774928776E+01  0.58774928776E+01  0.00000000000E+00 0. -1.
          2   -1    0    0  501    0  0.00000000000E+00 -0.00000000000E+00 -0.32524576024E+04  0.32524576024E+04  0.00000000000E+00 0. -1.
         25    1    1    2    0    0 -0.19913200200E+02  0.30891365307E+02 -0.23068674040E+04  0.23102787779E+04  0.12000000000E+03 0.  0.
         25    1    1    2    0    0  0.19913200200E+02 -0.30891365307E+02 -0.93971270551E+03  0.94805631736E+03  0.12000000000E+03 0.  0.
<mgrwt>
<rscale>  0 0.27652339E+03</rscale>
<asrwt>0</asrwt>
<pdfrwt beam="1">  1        2 0.50037888E+00 0.27652339E+03</pdfrwt>
<pdfrwt beam="2">  1       -2 0.90422824E-03 0.27652339E+03</pdfrwt>
<totfact> 0.36099125E+03</totfact>
</mgrwt>
</event>
<event>
 4    1  0.1774755E-004  0.2874210E+03  0.7818608E-02  0.1091703E+00
         -2   -1    0    0    0  501 -0.00000000000E+00  0.00000000000E+00  0.35332535474E+02  0.35332535474E+02  0.00000000000E+00 0. -1.
          2   -1    0    0  501    0  0.00000000000E+00 -0.00000000000E+00 -0.58452375856E+03  0.58452375856E+03  0.00000000000E+00 0. -1.
         25    1    1    2    0    0  0.34491815061E+02 -0.78697248357E+01 -0.12208333410E+03  0.17480262681E+03  0.12000000000E+03 0.  0.
         25    1    1    2    0    0 -0.34491815061E+02  0.78697248357E+01 -0.42710788898E+03  0.44505366722E+03  0.12000000000E+03 0.  0.
<mgrwt>
<rscale>  0 0.28742099E+03</rscale>
<asrwt>0</asrwt>
<pdfrwt beam="1">  1        2 0.89926737E-01 0.28742099E+03</pdfrwt>
<pdfrwt beam="2">  1       -2 0.54357744E-02 0.28742099E+03</pdfrwt>
<totfact> 0.89390090E+03</totfact>
</mgrwt>
</event>
<event>
 4    1  0.1774755E-004  0.2635617E+03  0.7818608E-02  0.1105022E+00
         -2   -1    0    0    0  501 -0.00000000000E+00  0.00000000000E+00  0.12400166237E+02  0.12400166237E+02  0.00000000000E+00 0. -1.
          2   -1    0    0  501    0  0.00000000000E+00 -0.00000000000E+00 -0.14004808244E+04  0.14004808244E+04  0.00000000000E+00 0. -1.
         25    1    1    2    0    0 -0.91499156824E+01 -0.53188962837E+02 -0.73321701280E+03  0.74492950981E+03  0.12000000000E+03 0.  0.
         25    1    1    2    0    0  0.91499156824E+01  0.53188962837E+02 -0.65486364541E+03  0.66795148088E+03  0.12000000000E+03 0.  0.
<mgrwt>
<rscale>  0 0.26356172E+03</rscale>
<asrwt>0</asrwt>
<pdfrwt beam="1">  1        2 0.21545840E+00 0.26356172E+03</pdfrwt>
<pdfrwt beam="2">  1       -2 0.19077195E-02 0.26356172E+03</pdfrwt>
<totfact> 0.12778953E+04</totfact>
</mgrwt>
</event>
<event>
 4    1  0.1774755E-004  0.2827441E+03  0.7818608E-02  0.1094200E+00
          2   -1    0    0  501    0  0.00000000000E+00  0.00000000000E+00  0.27725675905E+04  0.27725675905E+04  0.00000000000E+00 0.  1.
         -2   -1    0    0    0  501 -0.00000000000E+00 -0.00000000000E+00 -0.72085029933E+01  0.72085029933E+01  0.00000000000E+00 0.  1.
         25    1    1    2    0    0 -0.52187100971E+02  0.21905296310E+02  0.90277674477E+03  0.91247421137E+03  0.12000000000E+03 0.  0.
         25    1    1    2    0    0  0.52187100971E+02 -0.21905296310E+02  0.18625823428E+04  0.18673018822E+04  0.12000000000E+03 0.  0.
<mgrwt>
<rscale>  0 0.28274414E+03</rscale>
<asrwt>0</asrwt>
<pdfrwt beam="1">  1        2 0.42654801E+00 0.28274414E+03</pdfrwt>
<pdfrwt beam="2">  1       -2 0.11090027E-02 0.28274414E+03</pdfrwt>
<totfact> 0.51787846E+03</totfact>
</mgrwt>
</event>
<event>
 4    1  0.1774755E-004  0.2540398E+03  0.7818608E-02  0.1110778E+00
          2   -1    0    0  501    0  0.00000000000E+00  0.00000000000E+00  0.48959000337E+03  0.48959000337E+03  0.00000000000E+00 0. -1.
         -2   -1    0    0    0  501 -0.00000000000E+00 -0.00000000000E+00 -0.32954207183E+02  0.32954207183E+02  0.00000000000E+00 0. -1.
         25    1    1    2    0    0  0.28244456466E+02  0.24015525821E+02  0.26732146911E+03  0.29535616236E+03  0.12000000000E+03 0.  0.
         25    1    1    2    0    0 -0.28244456466E+02 -0.24015525821E+02  0.18931432708E+03  0.22718804819E+03  0.12000000000E+03 0.  0.
<mgrwt>
<rscale>  0 0.25403976E+03</rscale>
<asrwt>0</asrwt>
<pdfrwt beam="1">  1        2 0.75321534E-01 0.25403976E+03</pdfrwt>
<pdfrwt beam="2">  1       -2 0.50698784E-02 0.25403976E+03</pdfrwt>
<totfact> 0.12090409E+04</totfact>
</mgrwt>
</event>
<event>
 4    1  0.1774755E-004  0.2465613E+03  0.7818608E-02  0.1115497E+00
          1   -1    0    0  501    0  0.00000000000E+00  0.00000000000E+00  0.28459609372E+04  0.28459609372E+04  0.00000000000E+00 0. -1.
         -1   -1    0    0    0  501 -0.00000000000E+00 -0.00000000000E+00 -0.53402432399E+01  0.53402432399E+01  0.00000000000E+00 0. -1.
         25    1    1    2    0    0 -0.16261539353E+02 -0.32100094002E+01  0.11557483662E+04  0.11620796134E+04  0.12000000000E+03 0.  0.
         25    1    1    2    0    0  0.16261539353E+02  0.32100094002E+01  0.16848723277E+04  0.16892215670E+04  0.12000000000E+03 0.  0.
<mgrwt>
<rscale>  0 0.24656134E+03</rscale>
<asrwt>0</asrwt>
<pdfrwt beam="1">  1        1 0.43783893E+00 0.24656134E+03</pdfrwt>
<pdfrwt beam="2">  1       -1 0.82157816E-03 0.24656134E+03</pdfrwt>
<totfact> 0.23177618E+03</totfact>
</mgrwt>
</event>
<event>
 4    1  0.1774755E-004  0.3063570E+03  0.7818608E-02  0.1082105E+00
          2   -1    0    0  501    0  0.00000000000E+00  0.00000000000E+00  0.77928261755E+03  0.77928261755E+03  0.00000000000E+00 0. -1.
         -2   -1    0    0    0  501 -0.00000000000E+00 -0.00000000000E+00 -0.30109289960E+02  0.30109289960E+02  0.00000000000E+00 0. -1.
         25    1    1    2    0    0 -0.19585784887E+02 -0.32393780528E+02  0.60537449757E+03  0.61831322345E+03  0.12000000000E+03 0.  0.
         25    1    1    2    0    0  0.19585784887E+02  0.32393780528E+02  0.14379883002E+03  0.19107868406E+03  0.12000000000E+03 0.  0.
<mgrwt>
<rscale>  0 0.30635696E+03</rscale>
<asrwt>0</asrwt>
<pdfrwt beam="1">  1        2 0.11988962E+00 0.30635696E+03</pdfrwt>
<pdfrwt beam="2">  1       -2 0.46321991E-02 0.30635696E+03</pdfrwt>
<totfact> 0.80781992E+03</totfact>
</mgrwt>
</event>
<event>
 4    1  0.1774755E-004  0.3124646E+03  0.7818608E-02  0.1079171E+00
          2   -1    0    0  501    0  0.00000000000E+00  0.00000000000E+00  0.20925162015E+04  0.20925162015E+04  0.00000000000E+00 0.  1.
         -2   -1    0    0    0  501 -0.00000000000E+00 -0.00000000000E+00 -0.11664680591E+02  0.11664680591E+02  0.00000000000E+00 0.  1.
         25    1    1    2    0    0 -0.40207953913E+02  0.42604023247E+02  0.15865455656E+04  0.15921553361E+04  0.12000000000E+03 0.  0.
         25    1    1    2    0    0  0.40207953913E+02 -0.42604023247E+02  0.49430595532E+03  0.51202554606E+03  0.12000000000E+03 0.  0.
<mgrwt>
<rscale>  0 0.31246461E+03</rscale>
<asrwt>0</asrwt>
<pdfrwt beam="1">  1        2 0.32192527E+00 0.31246461E+03</pdfrwt>
<pdfrwt beam="2">  1       -2 0.17945679E-02 0.31246461E+03</pdfrwt>
<totfact> 0.60221294E+03</totfact>
</mgrwt>
</event>
<event>
 4    1  0.1774755E-004  0.2422011E+03  0.7818608E-02  0.1118335E+00
         -1   -1    0    0    0  501 -0.00000000000E+00  0.00000000000E+00  0.19567247983E+02  0.19567247983E+02  0.00000000000E+00 0.  1.
          1   -1    0    0  501    0  0.00000000000E+00 -0.00000000000E+00 -0.74948398614E+03  0.74948398614E+03  0.00000000000E+00 0.  1.
         25    1    1    2    0    0 -0.11022515817E+02  0.11482225746E+02 -0.37595854817E+03  0.39496603310E+03  0.12000000000E+03 0.  0.
         25    1    1    2    0    0  0.11022515817E+02 -0.11482225746E+02 -0.35395818999E+03  0.37408520103E+03  0.12000000000E+03 0.  0.
<mgrwt>
<rscale>  0 0.24220107E+03</rscale>
<asrwt>0</asrwt>
<pdfrwt beam="1">  1        1 0.11530522E+00 0.24220107E+03</pdfrwt>
<pdfrwt beam="2">  1       -1 0.30103461E-02 0.24220107E+03</pdfrwt>
<totfact> 0.94759583E+03</totfact>
</mgrwt>
</event>
<event>
 4    1  0.1774755E-004  0.4319277E+03  0.7818608E-02  0.1033253E+00
          1   -1    0    0  501    0  0.00000000000E+00  0.00000000000E+00  0.23114183766E+03  0.23114183766E+03  0.00000000000E+00 0. -1.
         -1   -1    0    0    0  501 -0.00000000000E+00 -0.00000000000E+00 -0.20178253839E+03  0.20178253839E+03  0.00000000000E+00 0. -1.
         25    1    1    2    0    0  0.71806668785E+01 -0.17938102304E+03  0.11314324280E+02  0.21623396435E+03  0.12000000000E+03 0.  0.
         25    1    1    2    0    0 -0.71806668785E+01  0.17938102304E+03  0.18044974988E+02  0.21669041171E+03  0.12000000000E+03 0.  0.
<mgrwt>
<rscale>  0 0.43192771E+03</rscale>
<asrwt>0</asrwt>
<pdfrwt beam="1">  1        1 0.35560283E-01 0.43192771E+03</pdfrwt>
<pdfrwt beam="2">  1       -1 0.31043467E-01 0.43192771E+03</pdfrwt>
<totfact> 0.11810037E+03</totfact>
</mgrwt>
</event>
<event>
 4    1  0.1774755E-004  0.2600955E+03  0.7818608E-02  0.1107086E+00
          1   -1    0    0  501    0  0.00000000000E+00  0.00000000000E+00  0.22598981246E+03  0.22598981246E+03  0.00000000000E+00 0. -1.
         -1   -1    0    0    0  501 -0.00000000000E+00 -0.00000000000E+00 -0.74837098236E+02  0.74837098236E+02  0.00000000000E+00 0. -1.
         25    1    1    2    0    0 -0.39985929674E+02  0.28962495390E+02  0.65578535826E+02  0.14538997583E+03  0.12000000000E+03 0.  0.
         25    1    1    2    0    0  0.39985929674E+02 -0.28962495390E+02  0.85574178394E+02  0.15543693486E+03  0.12000000000E+03 0.  0.
<mgrwt>
<rscale>  0 0.26009553E+03</rscale>
<asrwt>0</asrwt>
<pdfrwt beam="1">  1        1 0.34767663E-01 0.26009553E+03</pdfrwt>
<pdfrwt beam="2">  1       -1 0.11513400E-01 0.26009553E+03</pdfrwt>
<totfact> 0.60746460E+03</totfact>
</mgrwt>
</event>
<event>
 4    1  0.1774755E-004  0.4395576E+03  0.7818608E-02  0.1030883E+00
         -1   -1    0    0    0  501 -0.00000000000E+00  0.00000000000E+00  0.20026886864E+03  0.20026886864E+03  0.00000000000E+00 0. -1.
          1   -1    0    0  501    0  0.00000000000E+00 -0.00000000000E+00 -0.24118941213E+03  0.24118941213E+03  0.00000000000E+00 0. -1.
         25    1    1    2    0    0  0.26190382178E+02 -0.18203734225E+03 -0.11522318607E+02  0.21990064556E+03  0.12000000000E+03 0.  0.
         25    1    1    2    0    0 -0.26190382178E+02  0.18203734225E+03 -0.29398224877E+02  0.22155763521E+03  0.12000000000E+03 0.  0.
<mgrwt>
<rscale>  0 0.43955764E+03</rscale>
<asrwt>0</asrwt>
<pdfrwt beam="1">  1        1 0.37106063E-01 0.43955764E+03</pdfrwt>
<pdfrwt beam="2">  1       -1 0.30810595E-01 0.43955764E+03</pdfrwt>
<totfact> 0.11332967E+03</totfact>
</mgrwt>
</event>
<event>
 4    1  0.1774755E-004  0.2556226E+03  0.7818608E-02  0.1109802E+00
         -2   -1    0    0    0  501 -0.00000000000E+00  0.00000000000E+00  0.19423226257E+03  0.19423226257E+03  0.00000000000E+00 0.  1.
          2   -1    0    0  501    0  0.00000000000E+00 -0.00000000000E+00 -0.84104063103E+02  0.84104063103E+02  0.00000000000E+00 0.  1.
         25    1    1    2    0    0  0.27286966546E+02 -0.32005902938E+02  0.41002827724E+02  0.13360459666E+03  0.12000000000E+03 0.  0.
         25    1    1    2    0    0 -0.27286966546E+02  0.32005902938E+02  0.69125371745E+02  0.14473172902E+03  0.12000000000E+03 0.  0.
<mgrwt>
<rscale>  0 0.25562255E+03</rscale>
<asrwt>0</asrwt>
<pdfrwt beam="1">  1        2 0.12939087E-01 0.25562255E+03</pdfrwt>
<pdfrwt beam="2">  1       -2 0.29881886E-01 0.25562255E+03</pdfrwt>
<totfact> 0.47509298E+03</totfact>
</mgrwt>
</event>
<event>
 4    1  0.1774755E-004  0.2731150E+03  0.7818608E-02  0.1099510E+00
          1   -1    0    0  501    0  0.00000000000E+00  0.00000000000E+00  0.38871199179E+03  0.38871199179E+03  0.00000000000E+00 0.  1.
         -1   -1    0    0    0  501 -0.00000000000E+00 -0.00000000000E+00 -0.47973682738E+02  0.47973682738E+02  0.00000000000E+00 0.  1.
         25    1    1    2    0    0  0.76346047402E+01 -0.33389657299E+02  0.81708458595E+02  0.14916242359E+03  0.12000000000E+03 0.  0.
         25    1    1    2    0    0 -0.76346047402E+01  0.33389657299E+02  0.25902985046E+03  0.28752325094E+03  0.12000000000E+03 0.  0.
<mgrwt>
<rscale>  0 0.27311496E+03</rscale>
<asrwt>0</asrwt>
<pdfrwt beam="1">  1        1 0.59801843E-01 0.27311496E+03</pdfrwt>
<pdfrwt beam="2">  1       -1 0.73805668E-02 0.27311496E+03</pdfrwt>
<totfact> 0.60884893E+03</totfact>
</mgrwt>
</event>
<event>
 4    1  0.1774755E-004  0.3632572E+03  0.7818608E-02  0.1057302E+00
          2   -1    0    0  501    0  0.00000000000E+00  0.00000000000E+00  0.95788707354E+03  0.95788707354E+03  0.00000000000E+00 0. -1.
         -2   -1    0    0    0  501 -0.00000000000E+00 -0.00000000000E+00 -0.34439282684E+02  0.34439282684E+02  0.00000000000E+00 0. -1.
         25    1    1    2    0    0  0.91821796383E+02  0.40946700458E+02  0.21014996928E+03  0.26205130062E+03  0.12000000000E+03 0.  0.
         25    1    1    2    0    0 -0.91821796383E+02 -0.40946700458E+02  0.71329782157E+03  0.73027505560E+03  0.12000000000E+03 0.  0.
<mgrwt>
<rscale>  0 0.36325717E+03</rscale>
<asrwt>0</asrwt>
<pdfrwt beam="1">  1        2 0.14736722E+00 0.36325717E+03</pdfrwt>
<pdfrwt beam="2">  1       -2 0.52983519E-02 0.36325717E+03</pdfrwt>
<totfact> 0.50203071E+03</totfact>
</mgrwt>
</event>
<event>
 4    1  0.1774755E-004  0.2708400E+03  0.7818608E-02  0.1100800E+00
          2   -1    0    0  501    0  0.00000000000E+00  0.00000000000E+00  0.81133244097E+03  0.81133244097E+03  0.00000000000E+00 0.  1.
         -2   -1    0    0    0  501 -0.00000000000E+00 -0.00000000000E+00 -0.22603034007E+02  0.22603034007E+02  0.00000000000E+00 0.  1.
         25    1    1    2    0    0 -0.30720884209E+02  0.41881076475E+02  0.28590544996E+03  0.31438785538E+03  0.12000000000E+03 0.  0.
         25    1    1    2    0    0  0.30720884209E+02 -0.41881076475E+02  0.50282395701E+03  0.51954761960E+03  0.12000000000E+03 0.  0.
<mgrwt>
<rscale>  0 0.27083999E+03</rscale>
<asrwt>0</asrwt>
<pdfrwt beam="1">  1        2 0.12482035E+00 0.27083999E+03</pdfrwt>
<pdfrwt beam="2">  1       -2 0.34773905E-02 0.27083999E+03</pdfrwt>
<totfact> 0.11776350E+04</totfact>
</mgrwt>
</event>
<event>
 4    1  0.1774755E-004  0.2446909E+03  0.7818608E-02  0.1116707E+00
          2   -1    0    0  501    0  0.00000000000E+00  0.00000000000E+00  0.71160943139E+03  0.71160943139E+03  0.00000000000E+00 0. -1.
         -2   -1    0    0    0  501 -0.00000000000E+00 -0.00000000000E+00 -0.21034586050E+02  0.21034586050E+02  0.00000000000E+00 0. -1.
         25    1    1    2    0    0  0.13216372508E+02 -0.16423429104E+02  0.37863010571E+03  0.39775012065E+03  0.12000000000E+03 0.  0.
         25    1    1    2    0    0 -0.13216372508E+02  0.16423429104E+02  0.31194473963E+03  0.33489389679E+03  0.12000000000E+03 0.  0.
<mgrwt>
<rscale>  0 0.24469091E+03</rscale>
<asrwt>0</asrwt>
<pdfrwt beam="1">  1        2 0.10947836E+00 0.24469091E+03</pdfrwt>
<pdfrwt beam="2">  1       -2 0.32360907E-02 0.24469091E+03</pdfrwt>
<totfact> 0.15372972E+04</totfact>
</mgrwt>
</event>
<event>
 4    1  0.1774755E-004  0.3274140E+03  0.7818608E-02  0.1072287E+00
          1   -1    0    0  501    0  0.00000000000E+00  0.00000000000E+00  0.17515379166E+04  0.17515379166E+04  0.00000000000E+00 0.  1.
         -1   -1    0    0    0  501 -0.00000000000E+00 -0.00000000000E+00 -0.15300827000E+02  0.15300827000E+02  0.00000000000E+00 0.  1.
         25    1    1    2    0    0 -0.54999179002E+02 -0.71494116074E+00  0.13906050648E+04  0.13968564232E+04  0.12000000000E+03 0.  0.
         25    1    1    2    0    0  0.54999179002E+02  0.71494116074E+00  0.34563202485E+03  0.36998232043E+03  0.12000000000E+03 0.  0.
<mgrwt>
<rscale>  0 0.32741398E+03</rscale>
<asrwt>0</asrwt>
<pdfrwt beam="1">  1        1 0.26946721E+00 0.32741398E+03</pdfrwt>
<pdfrwt beam="2">  1       -1 0.23539748E-02 0.32741398E+03</pdfrwt>
<totfact> 0.26384515E+03</totfact>
</mgrwt>
</event>
<event>
 4    1  0.1774755E-004  0.2830446E+03  0.7818608E-02  0.1094038E+00
          1   -1    0    0  501    0  0.00000000000E+00  0.00000000000E+00  0.38291311201E+03  0.38291311201E+03  0.00000000000E+00 0. -1.
         -1   -1    0    0    0  501 -0.00000000000E+00 -0.00000000000E+00 -0.52305760967E+02  0.52305760967E+02  0.00000000000E+00 0. -1.
         25    1    1    2    0    0  0.16300586820E+02 -0.29684923326E+01  0.52793015030E+02  0.13214243646E+03  0.12000000000E+03 0.  0.
         25    1    1    2    0    0 -0.16300586820E+02  0.29684923326E+01  0.27781433601E+03  0.30307643651E+03  0.12000000000E+03 0.  0.
<mgrwt>
<rscale>  0 0.28304460E+03</rscale>
<asrwt>0</asrwt>
<pdfrwt beam="1">  1        1 0.58909708E-01 0.28304460E+03</pdfrwt>
<pdfrwt beam="2">  1       -1 0.80470404E-02 0.28304460E+03</pdfrwt>
<totfact> 0.54458594E+03</totfact>
</mgrwt>
</event>
<event>
 4    1  0.1774755E-004  0.2462955E+03  0.7818608E-02  0.1115669E+00
         -2   -1    0    0    0  501 -0.00000000000E+00  0.00000000000E+00  0.19729174482E+02  0.19729174482E+02  0.00000000000E+00 0. -1.
          2   -1    0    0  501    0  0.00000000000E+00 -0.00000000000E+00 -0.76867735254E+03  0.76867735254E+03  0.00000000000E+00 0. -1.
         25    1    1    2    0    0 -0.12670895270E+02  0.56393730961E+01 -0.45110022006E+03  0.46699439253E+03  0.12000000000E+03 0.  0.
         25    1    1    2    0    0  0.12670895270E+02 -0.56393730961E+01 -0.29784795800E+03  0.32141213449E+03  0.12000000000E+03 0.  0.
<mgrwt>
<rscale>  0 0.24629551E+03</rscale>
<asrwt>0</asrwt>
<pdfrwt beam="1">  1        2 0.11825803E+00 0.24629551E+03</pdfrwt>
<pdfrwt beam="2">  1       -2 0.30352582E-02 0.24629551E+03</pdfrwt>
<totfact> 0.15381613E+04</totfact>
</mgrwt>
</event>
<event>
 4    1  0.1774755E-004  0.3218893E+03  0.7818608E-02  0.1074783E+00
         -1   -1    0    0    0  501 -0.00000000000E+00  0.00000000000E+00  0.13239922756E+03  0.13239922756E+03  0.00000000000E+00 0. -1.
          1   -1    0    0  501    0  0.00000000000E+00 -0.00000000000E+00 -0.19564444393E+03  0.19564444393E+03  0.00000000000E+00 0. -1.
         25    1    1    2    0    0  0.36282286328E+02  0.76158388985E+02 -0.99120872136E+02  0.17703517110E+03  0.12000000000E+03 0.  0.
         25    1    1    2    0    0 -0.36282286328E+02 -0.76158388985E+02  0.35875655768E+02  0.15100850039E+03  0.12000000000E+03 0.  0.
<mgrwt>
<rscale>  0 0.32188926E+03</rscale>
<asrwt>0</asrwt>
<pdfrwt beam="1">  1        1 0.30099145E-01 0.32188926E+03</pdfrwt>
<pdfrwt beam="2">  1       -1 0.20369112E-01 0.32188926E+03</pdfrwt>
<totfact> 0.29538836E+03</totfact>
</mgrwt>
</event>
<event>
 4    1  0.1774755E-004  0.4012874E+03  0.7818608E-02  0.1043335E+00
         -2   -1    0    0    0  501 -0.00000000000E+00  0.00000000000E+00  0.30356888179E+03  0.30356888179E+03  0.00000000000E+00 0.  1.
          2   -1    0    0  501    0  0.00000000000E+00 -0.00000000000E+00 -0.13261532115E+03  0.13261532115E+03  0.00000000000E+00 0.  1.
         25    1    1    2    0    0 -0.40938076795E+02 -0.14630146555E+03  0.14276536048E+03  0.24054519971E+03  0.12000000000E+03 0.  0.
         25    1    1    2    0    0  0.40938076795E+02  0.14630146555E+03  0.28188200162E+02  0.19563900322E+03  0.12000000000E+03 0.  0.
<mgrwt>
<rscale>  0 0.40128735E+03</rscale>
<asrwt>0</asrwt>
<pdfrwt beam="1">  1        2 0.20402357E-01 0.40128735E+03</pdfrwt>
<pdfrwt beam="2">  1       -2 0.46702905E-01 0.40128735E+03</pdfrwt>
<totfact> 0.12029531E+03</totfact>
</mgrwt>
</event>
<event>
 4    1  0.1774755E-004  0.2465898E+03  0.7818608E-02  0.1115479E+00
         -1   -1    0    0    0  501 -0.00000000000E+00  0.00000000000E+00  0.58853657354E+03  0.58853657354E+03  0.00000000000E+00 0.  1.
          1   -1    0    0  501    0  0.00000000000E+00 -0.00000000000E+00 -0.25829540646E+02  0.25829540646E+02  0.00000000000E+00 0.  1.
         25    1    1    2    0    0 -0.20676802991E+02  0.60550664775E+01  0.23558704097E+03  0.26526486365E+03  0.12000000000E+03 0.  0.
         25    1    1    2    0    0  0.20676802991E+02 -0.60550664775E+01  0.32711999192E+03  0.34910125054E+03  0.12000000000E+03 0.  0.
<mgrwt>
<rscale>  0 0.24658978E+03</rscale>
<asrwt>0</asrwt>
<pdfrwt beam="1">  1        1 0.39737759E-02 0.24658978E+03</pdfrwt>
<pdfrwt beam="2">  1       -1 0.90544078E-01 0.24658978E+03</pdfrwt>
<totfact> 0.28605177E+03</totfact>
</mgrwt>
</event>
<event>
 4    1  0.1774755E-004  0.2678564E+03  0.7818608E-02  0.1102513E+00
          2   -1    0    0  501    0  0.00000000000E+00  0.00000000000E+00  0.54531002236E+03  0.54531002236E+03  0.00000000000E+00 0.  1.
         -2   -1    0    0    0  501 -0.00000000000E+00 -0.00000000000E+00 -0.32892769110E+02  0.32892769110E+02  0.00000000000E+00 0.  1.
         25    1    1    2    0    0 -0.52704233839E+02 -0.27106291391E+02  0.26684288985E+03  0.29852573617E+03  0.12000000000E+03 0.  0.
         25    1    1    2    0    0  0.52704233839E+02  0.27106291391E+02  0.24557436340E+03  0.27967705530E+03  0.12000000000E+03 0.  0.
<mgrwt>
<rscale>  0 0.26785635E+03</rscale>
<asrwt>0</asrwt>
<pdfrwt beam="1">  1        2 0.83893843E-01 0.26785635E+03</pdfrwt>
<pdfrwt beam="2">  1       -2 0.50604264E-02 0.26785635E+03</pdfrwt>
<totfact> 0.10766013E+04</totfact>
</mgrwt>
</event>
<event>
 4    1  0.1774755E-004  0.2647050E+03  0.7818608E-02  0.1104349E+00
         -2   -1    0    0    0  501 -0.00000000000E+00  0.00000000000E+00  0.20376588642E+02  0.20376588642E+02  0.00000000000E+00 0. -1.
          2   -1    0    0  501    0  0.00000000000E+00 -0.00000000000E+00 -0.85967224419E+03  0.85967224419E+03  0.00000000000E+00 0. -1.
         25    1    1    2    0    0  0.40368764386E+02 -0.13856787948E+02 -0.29998204301E+03  0.32590009795E+03  0.12000000000E+03 0.  0.
         25    1    1    2    0    0 -0.40368764386E+02  0.13856787948E+02 -0.53931361253E+03  0.55414873488E+03  0.12000000000E+03 0.  0.
<mgrwt>
<rscale>  0 0.26470503E+03</rscale>
<asrwt>0</asrwt>
<pdfrwt beam="1">  1        2 0.13225728E+00 0.26470503E+03</pdfrwt>
<pdfrwt beam="2">  1       -2 0.31348595E-02 0.26470503E+03</pdfrwt>
<totfact> 0.12744561E+04</totfact>
</mgrwt>
</event>
<event>
 4    1  0.1774755E-004  0.2523641E+03  0.7818608E-02  0.1111820E+00
          1   -1    0    0  501    0  0.00000000000E+00  0.00000000000E+00  0.82122566048E+02  0.82122566048E+02  0.00000000000E+00 0.  1.
         -1   -1    0    0    0  501 -0.00000000000E+00 -0.00000000000E+00 -0.19387981057E+03  0.19387981057E+03  0.00000000000E+00 0.  1.
         25    1    1    2    0    0 -0.67047038184E+01  0.34480846363E+02 -0.74439602989E+02  0.14551679048E+03  0.12000000000E+03 0.  0.
         25    1    1    2    0    0  0.67047038184E+01 -0.34480846363E+02 -0.37317641531E+02  0.13048558613E+03  0.12000000000E+03 0.  0.
<mgrwt>
<rscale>  0 0.25236408E+03</rscale>
<asrwt>0</asrwt>
<pdfrwt beam="1">  1        1 0.12634241E-01 0.25236408E+03</pdfrwt>
<pdfrwt beam="2">  1       -1 0.29827663E-01 0.25236408E+03</pdfrwt>
<totfact> 0.47815198E+03</totfact>
</mgrwt>
</event>
<event>
 4    1  0.1774755E-004  0.2897427E+03  0.7818608E-02  0.1090484E+00
          2   -1    0    0  501    0  0.00000000000E+00  0.00000000000E+00  0.37512420086E+03  0.37512420086E+03  0.00000000000E+00 0. -1.
         -2   -1    0    0    0  501 -0.00000000000E+00 -0.00000000000E+00 -0.55948673528E+02  0.55948673528E+02  0.00000000000E+00 0. -1.
         25    1    1    2    0    0 -0.46340375650E+02  0.62226453254E+02  0.19504997152E+03  0.24179341035E+03  0.12000000000E+03 0.  0.
         25    1    1    2    0    0  0.46340375650E+02 -0.62226453254E+02  0.12412555582E+03  0.18927946404E+03  0.12000000000E+03 0.  0.
<mgrwt>
<rscale>  0 0.28974265E+03</rscale>
<asrwt>0</asrwt>
<pdfrwt beam="1">  1        2 0.57711414E-01 0.28974265E+03</pdfrwt>
<pdfrwt beam="2">  1       -2 0.86074885E-02 0.28974265E+03</pdfrwt>
<totfact> 0.71873304E+03</totfact>
</mgrwt>
</event>
<event>
 4    1  0.1774755E-004  0.5797658E+03  0.7818608E-02  0.9948298E-01
          2   -1    0    0  501    0  0.00000000000E+00  0.00000000000E+00  0.54113549046E+03  0.54113549046E+03  0.00000000000E+00 0.  1.
         -2   -1    0    0    0  501 -0.00000000000E+00 -0.00000000000E+00 -0.15528845874E+03  0.15528845874E+03  0.00000000000E+00 0.  1.
         25    1    1    2    0    0 -0.14306791520E+03 -0.10846286339E+03  0.42522600164E+03  0.47691694619E+03  0.12000000000E+03 0.  0.
         25    1    1    2    0    0  0.14306791520E+03  0.10846286339E+03 -0.39378969921E+02  0.21950700300E+03  0.12000000000E+03 0.  0.
<mgrwt>
<rscale>  0 0.57976580E+03</rscale>
<asrwt>0</asrwt>
<pdfrwt beam="1">  1        2 0.83251613E-01 0.57976580E+03</pdfrwt>
<pdfrwt beam="2">  1       -2 0.23890532E-01 0.57976580E+03</pdfrwt>
<totfact> 0.87673865E+02</totfact>
</mgrwt>
</event>
<event>
 4    1  0.1774755E-004  0.2723901E+03  0.7818608E-02  0.1099919E+00
          2   -1    0    0  501    0  0.00000000000E+00  0.00000000000E+00  0.11953709791E+03  0.11953709791E+03  0.00000000000E+00 0.  1.
         -2   -1    0    0    0  501 -0.00000000000E+00 -0.00000000000E+00 -0.15517437882E+03  0.15517437882E+03  0.00000000000E+00 0.  1.
         25    1    1    2    0    0  0.18092680774E+02  0.52071217964E+02 -0.51424349482E+02  0.14171527990E+03  0.12000000000E+03 0.  0.
         25    1    1    2    0    0 -0.18092680774E+02 -0.52071217964E+02  0.15787068567E+02  0.13299619683E+03  0.12000000000E+03 0.  0.
<mgrwt>
<rscale>  0 0.27239012E+03</rscale>
<asrwt>0</asrwt>
<pdfrwt beam="1">  1        2 0.18390323E-01 0.27239012E+03</pdfrwt>
<pdfrwt beam="2">  1       -2 0.23872981E-01 0.27239012E+03</pdfrwt>
<totfact> 0.46906035E+03</totfact>
</mgrwt>
</event>
<event>
 4    1  0.1774755E-004  0.2716655E+03  0.7818608E-02  0.1100330E+00
          2   -1    0    0  501    0  0.00000000000E+00  0.00000000000E+00  0.20221703973E+04  0.20221703973E+04  0.00000000000E+00 0.  1.
         -2   -1    0    0    0  501 -0.00000000000E+00 -0.00000000000E+00 -0.91241258233E+01  0.91241258233E+01  0.00000000000E+00 0.  1.
         25    1    1    2    0    0  0.48570668163E+02 -0.17542778255E+02  0.72838793627E+03  0.74001070572E+03  0.12000000000E+03 0.  0.
         25    1    1    2    0    0 -0.48570668163E+02  0.17542778255E+02  0.12846583352E+04  0.12912838174E+04  0.12000000000E+03 0.  0.
<mgrwt>
<rscale>  0 0.27166551E+03</rscale>
<asrwt>0</asrwt>
<pdfrwt beam="1">  1        2 0.31110278E+00 0.27166551E+03</pdfrwt>
<pdfrwt beam="2">  1       -2 0.14037133E-02 0.27166551E+03</pdfrwt>
<totfact> 0.94013487E+03</totfact>
</mgrwt>
</event>
<event>
 4    1  0.1774755E-004  0.5269103E+03  0.7818608E-02  0.1006984E+00
         -1   -1    0    0    0  501 -0.00000000000E+00  0.00000000000E+00  0.50027428471E+02  0.50027428471E+02  0.00000000000E+00 0.  1.
          1   -1    0    0  501    0  0.00000000000E+00 -0.00000000000E+00 -0.13874113462E+04  0.13874113462E+04  0.00000000000E+00 0.  1.
         25    1    1    2    0    0  0.91835154618E+02  0.20211894728E+03 -0.87506792140E+03  0.91073027375E+03  0.12000000000E+03 0.  0.
         25    1    1    2    0    0 -0.91835154618E+02 -0.20211894728E+03 -0.46231599632E+03  0.52670850091E+03  0.12000000000E+03 0.  0.
<mgrwt>
<rscale>  0 0.52691032E+03</rscale>
<asrwt>0</asrwt>
<pdfrwt beam="1">  1        1 0.21344787E+00 0.52691032E+03</pdfrwt>
<pdfrwt beam="2">  1       -1 0.76965287E-02 0.52691032E+03</pdfrwt>
<totfact> 0.76600788E+02</totfact>
</mgrwt>
</event>
<event>
 4    1  0.1774755E-004  0.6393368E+03  0.7818608E-02  0.9826996E-01
          2   -1    0    0  501    0  0.00000000000E+00  0.00000000000E+00  0.70789332306E+03  0.70789332306E+03  0.00000000000E+00 0. -1.
         -2   -1    0    0    0  501 -0.00000000000E+00 -0.00000000000E+00 -0.14435492676E+03  0.14435492676E+03  0.00000000000E+00 0. -1.
         25    1    1    2    0    0 -0.66414321038E+02  0.23716148348E+03  0.50133918278E+03  0.57131200537E+03  0.12000000000E+03 0.  0.
         25    1    1    2    0    0  0.66414321038E+02 -0.23716148348E+03  0.62199213529E+02  0.28093624446E+03  0.12000000000E+03 0.  0.
<mgrwt>
<rscale>  0 0.63933681E+03</rscale>
<asrwt>0</asrwt>
<pdfrwt beam="1">  1        2 0.10890666E+00 0.63933681E+03</pdfrwt>
<pdfrwt beam="2">  1       -2 0.22208451E-01 0.63933681E+03</pdfrwt>
<totfact> 0.72018054E+02</totfact>
</mgrwt>
</event>
<event>
 4    1  0.1774755E-004  0.2757203E+03  0.7818608E-02  0.1098050E+00
         -1   -1    0    0    0  501 -0.00000000000E+00  0.00000000000E+00  0.21997115622E+03  0.21997115622E+03  0.00000000000E+00 0.  1.
          1   -1    0    0  501    0  0.00000000000E+00 -0.00000000000E+00 -0.86399615396E+02  0.86399615396E+02  0.00000000000E+00 0.  1.
         25    1    1    2    0    0  0.12517912397E+02 -0.48569808552E+02  0.15990834771E+02  0.13103980781E+03  0.12000000000E+03 0.  0.
         25    1    1    2    0    0 -0.12517912397E+02  0.48569808552E+02  0.11758070605E+03  0.17533096381E+03  0.12000000000E+03 0.  0.
<mgrwt>
<rscale>  0 0.27572032E+03</rscale>
<asrwt>0</asrwt>
<pdfrwt beam="1">  1        1 0.13292249E-01 0.27572032E+03</pdfrwt>
<pdfrwt beam="2">  1       -1 0.33841716E-01 0.27572032E+03</pdfrwt>
<totfact> 0.36117134E+03</totfact>
</mgrwt>
</event>
<event>
 4    1  0.1774755E-004  0.2694587E+03  0.7818608E-02  0.1101590E+00
          1   -1    0    0  501    0  0.00000000000E+00  0.00000000000E+00  0.10510739679E+04  0.10510739679E+04  0.00000000000E+00 0.  1.
         -1   -1    0    0    0  501 -0.00000000000E+00 -0.00000000000E+00 -0.17269958569E+02  0.17269958569E+02  0.00000000000E+00 0.  1.
         25    1    1    2    0    0  0.46105813036E+02 -0.37926061705E+02  0.57124574340E+03  0.58675875069E+03  0.12000000000E+03 0.  0.
         25    1    1    2    0    0 -0.46105813036E+02  0.37926061705E+02  0.46255826589E+03  0.48158517574E+03  0.12000000000E+03 0.  0.
<mgrwt>
<rscale>  0 0.26945875E+03</rscale>
<asrwt>0</asrwt>
<pdfrwt beam="1">  1        1 0.16170364E+00 0.26945875E+03</pdfrwt>
<pdfrwt beam="2">  1       -1 0.26569175E-02 0.26945875E+03</pdfrwt>
<totfact> 0.66054282E+03</totfact>
</mgrwt>
</event>
<event>
 4    1  0.1774755E-004  0.2874884E+03  0.7818608E-02  0.1091668E+00
          1   -1    0    0  501    0  0.00000000000E+00  0.00000000000E+00  0.10526960681E+03  0.10526960681E+03  0.00000000000E+00 0. -1.
         -1   -1    0    0    0  501 -0.00000000000E+00 -0.00000000000E+00 -0.19628071182E+03  0.19628071182E+03  0.00000000000E+00 0. -1.
         25    1    1    2    0    0  0.43656769001E+02 -0.65931352304E+02 -0.42266353442E+02  0.14979753446E+03  0.12000000000E+03 0.  0.
         25    1    1    2    0    0 -0.43656769001E+02  0.65931352304E+02 -0.48744751569E+02  0.15175278416E+03  0.12000000000E+03 0.  0.
<mgrwt>
<rscale>  0 0.28748839E+03</rscale>
<asrwt>0</asrwt>
<pdfrwt beam="1">  1        1 0.16195324E-01 0.28748839E+03</pdfrwt>
<pdfrwt beam="2">  1       -1 0.30197032E-01 0.28748839E+03</pdfrwt>
<totfact> 0.33911319E+03</totfact>
</mgrwt>
</event>
<event>
 4    1  0.1774755E-004  0.2813555E+03  0.7818608E-02  0.1094951E+00
          2   -1    0    0  501    0  0.00000000000E+00  0.00000000000E+00  0.88966579194E+03  0.88966579194E+03  0.00000000000E+00 0.  1.
         -2   -1    0    0    0  501 -0.00000000000E+00 -0.00000000000E+00 -0.22244563538E+02  0.22244563538E+02  0.00000000000E+00 0.  1.
         25    1    1    2    0    0 -0.57115651059E+02  0.44513587648E+02  0.39447146929E+03  0.41863038252E+03  0.12000000000E+03 0.  0.
         25    1    1    2    0    0  0.57115651059E+02 -0.44513587648E+02  0.47294975911E+03  0.49327997296E+03  0.12000000000E+03 0.  0.
<mgrwt>
<rscale>  0 0.28135549E+03</rscale>
<asrwt>0</asrwt>
<pdfrwt beam="1">  1        2 0.13687163E+00 0.28135549E+03</pdfrwt>
<pdfrwt beam="2">  1       -2 0.34222412E-02 0.28135549E+03</pdfrwt>
<totfact> 0.10707933E+04</totfact>
</mgrwt>
</event>
<event>
 4    1  0.1774755E-004  0.3102593E+03  0.7818608E-02  0.1080222E+00
         -3   -1    0    0    0  501 -0.00000000000E+00  0.00000000000E+00  0.14121209145E+03  0.14121209145E+03  0.00000000000E+00 0.  1.
          3   -1    0    0  501    0  0.00000000000E+00 -0.00000000000E+00 -0.17041885866E+03  0.17041885866E+03  0.00000000000E+00 0.  1.
         25    1    1    2    0    0  0.90778255026E+02 -0.37597746073E+02 -0.11284025203E+02  0.15550437717E+03  0.12000000000E+03 0.  0.
         25    1    1    2    0    0 -0.90778255026E+02  0.37597746073E+02 -0.17922742003E+02  0.15612657293E+03  0.12000000000E+03 0.  0.
<mgrwt>
<rscale>  0 0.31025927E+03</rscale>
<asrwt>0</asrwt>
<pdfrwt beam="1">  1        3 0.26218286E-01 0.31025927E+03</pdfrwt>
<pdfrwt beam="2">  1       -3 0.21724937E-01 0.31025927E+03</pdfrwt>
<totfact> 0.68547258E+02</totfact>
</mgrwt>
</event>
<event>
 4    1  0.1774755E-004  0.2770809E+03  0.7818608E-02  0.1097294E+00
          2   -1    0    0  501    0  0.00000000000E+00  0.00000000000E+00  0.96888686434E+02  0.96888686434E+02  0.00000000000E+00 0.  1.
         -2   -1    0    0    0  501 -0.00000000000E+00 -0.00000000000E+00 -0.19809807863E+03  0.19809807863E+03  0.00000000000E+00 0.  1.
         25    1    1    2    0    0  0.28721232377E+02 -0.60339502172E+02 -0.69876958792E+02  0.15410565882E+03  0.12000000000E+03 0.  0.
         25    1    1    2    0    0 -0.28721232377E+02  0.60339502172E+02 -0.31332433401E+02  0.14088110624E+03  0.12000000000E+03 0.  0.
<mgrwt>
<rscale>  0 0.27708095E+03</rscale>
<asrwt>0</asrwt>
<pdfrwt beam="1">  1        2 0.14905952E-01 0.27708095E+03</pdfrwt>
<pdfrwt beam="2">  1       -2 0.30476627E-01 0.27708095E+03</pdfrwt>
<totfact> 0.38812310E+03</totfact>
</mgrwt>
</event>
<event>
 4    1  0.1774755E-004  0.5556279E+03  0.7818608E-02  0.1000200E+00
         -1   -1    0    0    0  501 -0.00000000000E+00  0.00000000000E+00  0.50593983749E+03  0.50593983749E+03  0.00000000000E+00 0.  1.
          1   -1    0    0  501    0  0.00000000000E+00 -0.00000000000E+00 -0.15254892252E+03  0.15254892252E+03  0.00000000000E+00 0.  1.
         25    1    1    2    0    0  0.65294411952E+02  0.23482278704E+03  0.24554988016E+03  0.36619645710E+03  0.12000000000E+03 0.  0.
         25    1    1    2    0    0 -0.65294411952E+02 -0.23482278704E+03  0.10784103481E+03  0.29229230290E+03  0.12000000000E+03 0.  0.
<mgrwt>
<rscale>  0 0.55562785E+03</rscale>
<asrwt>0</asrwt>
<pdfrwt beam="1">  1        1 0.23469065E-01 0.55562785E+03</pdfrwt>
<pdfrwt beam="2">  1       -1 0.77836897E-01 0.55562785E+03</pdfrwt>
<totfact> 0.35615199E+02</totfact>
</mgrwt>
</event>
<event>
 4    1  0.1774755E-004  0.5998089E+03  0.7818608E-02  0.9905803E-01
         -2   -1    0    0    0  501 -0.00000000000E+00  0.00000000000E+00  0.28121039089E+03  0.28121039089E+03  0.00000000000E+00 0. -1.
          2   -1    0    0  501    0  0.00000000000E+00 -0.00000000000E+00 -0.31984128336E+03  0.31984128336E+03  0.00000000000E+00 0. -1.
         25    1    1    2    0    0  0.22165494694E+03  0.16249731142E+03 -0.16780265117E+02  0.30036289555E+03  0.12000000000E+03 0.  0.
         25    1    1    2    0    0 -0.22165494694E+03 -0.16249731142E+03 -0.21850627347E+02  0.30068877870E+03  0.12000000000E+03 0.  0.
<mgrwt>
<rscale>  0 0.59980894E+03</rscale>
<asrwt>0</asrwt>
<pdfrwt beam="1">  1        2 0.49206351E-01 0.59980894E+03</pdfrwt>
<pdfrwt beam="2">  1       -2 0.43263137E-01 0.59980894E+03</pdfrwt>
<totfact> 0.52197709E+02</totfact>
</mgrwt>
</event>
<event>
 4    1  0.1774755E-004  0.2457539E+03  0.7818608E-02  0.1116018E+00
         -1   -1    0    0    0  501 -0.00000000000E+00  0.00000000000E+00  0.62745060433E+02  0.62745060433E+02  0.00000000000E+00 0.  1.
          1   -1    0    0  501    0  0.00000000000E+00 -0.00000000000E+00 -0.24063638951E+03  0.24063638951E+03  0.00000000000E+00 0.  1.
         25    1    1    2    0    0 -0.18552141978E+02 -0.21496711448E+01 -0.65852338844E+02  0.13814967821E+03  0.12000000000E+03 0.  0.
         25    1    1    2    0    0  0.18552141978E+02  0.21496711448E+01 -0.11203899023E+03  0.16523177173E+03  0.12000000000E+03 0.  0.
<mgrwt>
<rscale>  0 0.24575390E+03</rscale>
<asrwt>0</asrwt>
<pdfrwt beam="1">  1        1 0.37020984E-01 0.24575390E+03</pdfrwt>
<pdfrwt beam="2">  1       -1 0.96530860E-02 0.24575390E+03</pdfrwt>
<totfact> 0.73586332E+03</totfact>
</mgrwt>
</event>
<event>
 4    1  0.1774755E-004  0.2787550E+03  0.7818608E-02  0.1096371E+00
         -1   -1    0    0    0  501 -0.00000000000E+00  0.00000000000E+00  0.20946230815E+02  0.20946230815E+02  0.00000000000E+00 0.  1.
          1   -1    0    0  501    0  0.00000000000E+00 -0.00000000000E+00 -0.92742663902E+03  0.92742663902E+03  0.00000000000E+00 0.  1.
         25    1    1    2    0    0  0.47040125178E+02 -0.52980359143E+02 -0.44463289924E+03  0.46595934041E+03  0.12000000000E+03 0.  0.
         25    1    1    2    0    0 -0.47040125178E+02  0.52980359143E+02 -0.46184750897E+03  0.48241352942E+03  0.12000000000E+03 0.  0.
<mgrwt>
<rscale>  0 0.27875504E+03</rscale>
<asrwt>0</asrwt>
<pdfrwt beam="1">  1        1 0.14268100E+00 0.27875504E+03</pdfrwt>
<pdfrwt beam="2">  1       -1 0.32224974E-02 0.27875504E+03</pdfrwt>
<totfact> 0.61615705E+03</totfact>
</mgrwt>
</event>
<event>
 4    1  0.1774755E-004  0.3169853E+03  0.7818608E-02  0.1077045E+00
          3   -1    0    0  501    0  0.00000000000E+00  0.00000000000E+00  0.81866865391E+02  0.81866865391E+02  0.00000000000E+00 0.  1.
         -3   -1    0    0    0  501 -0.00000000000E+00 -0.00000000000E+00 -0.30683871091E+03  0.30683871091E+03  0.00000000000E+00 0.  1.
         25    1    1    2    0    0  0.83947746998E+02  0.43840553380E+02 -0.16379428090E+03  0.22404862152E+03  0.12000000000E+03 0.  0.
         25    1    1    2    0    0 -0.83947746998E+02 -0.43840553380E+02 -0.61177564616E+02  0.16465695478E+03  0.12000000000E+03 0.  0.
<mgrwt>
<rscale>  0 0.31698532E+03</rscale>
<asrwt>0</asrwt>
<pdfrwt beam="1">  1        3 0.12594902E-01 0.31698532E+03</pdfrwt>
<pdfrwt beam="2">  1       -3 0.47205957E-01 0.31698532E+03</pdfrwt>
<totfact> 0.57738151E+02</totfact>
</mgrwt>
</event>
<event>
 4    1  0.1774755E-004  0.2776188E+03  0.7818608E-02  0.1096997E+00
          3   -1    0    0  501    0  0.00000000000E+00  0.00000000000E+00  0.40241976884E+03  0.40241976884E+03  0.00000000000E+00 0.  1.
         -3   -1    0    0    0  501 -0.00000000000E+00 -0.00000000000E+00 -0.47880479657E+02  0.47880479657E+02  0.00000000000E+00 0.  1.
         25    1    1    2    0    0 -0.62685053475E+00 -0.54495021819E+02  0.24793325341E+03  0.28078639299E+03  0.12000000000E+03 0.  0.
         25    1    1    2    0    0  0.62685053475E+00  0.54495021819E+02  0.10660603578E+03  0.16951385551E+03  0.12000000000E+03 0.  0.
<mgrwt>
<rscale>  0 0.27761881E+03</rscale>
<asrwt>0</asrwt>
<pdfrwt beam="1">  1        3 0.61910731E-01 0.27761881E+03</pdfrwt>
<pdfrwt beam="2">  1       -3 0.73662279E-02 0.27761881E+03</pdfrwt>
<totfact> 0.80145132E+02</totfact>
</mgrwt>
</event>
<event>
 4    1  0.1774755E-004  0.3359849E+03  0.7818608E-02  0.1068519E+00
          2   -1    0    0  501    0  0.00000000000E+00  0.00000000000E+00  0.97379135702E+03  0.97379135702E+03  0.00000000000E+00 0.  1.
         -2   -1    0    0    0  501 -0.00000000000E+00 -0.00000000000E+00 -0.28981011668E+02  0.28981011668E+02  0.00000000000E+00 0.  1.
         25    1    1    2    0    0  0.92151127778E+02 -0.69069957569E+02  0.40184224222E+03  0.43490191656E+03  0.12000000000E+03 0.  0.
         25    1    1    2    0    0 -0.92151127778E+02  0.69069957569E+02  0.54296810313E+03  0.56787045213E+03  0.12000000000E+03 0.  0.
<mgrwt>
<rscale>  0 0.33598487E+03</rscale>
<asrwt>0</asrwt>
<pdfrwt beam="1">  1        2 0.14981403E+00 0.33598487E+03</pdfrwt>
<pdfrwt beam="2">  1       -2 0.44586179E-02 0.33598487E+03</pdfrwt>
<totfact> 0.63783498E+03</totfact>
</mgrwt>
</event>
<event>
 4    1  0.1774755E-004  0.2689263E+03  0.7818608E-02  0.1101896E+00
         -1   -1    0    0    0  501 -0.00000000000E+00  0.00000000000E+00  0.11868221572E+02  0.11868221572E+02  0.00000000000E+00 0. -1.
          1   -1    0    0  501    0  0.00000000000E+00 -0.00000000000E+00 -0.15234247389E+04  0.15234247389E+04  0.00000000000E+00 0. -1.
         25    1    1    2    0    0  0.10460199672E+02 -0.30765452867E+02 -0.10482433716E+04  0.10555899275E+04  0.12000000000E+03 0.  0.
         25    1    1    2    0    0 -0.10460199672E+02  0.30765452867E+02 -0.46331314565E+03  0.47970303293E+03  0.12000000000E+03 0.  0.
<mgrwt>
<rscale>  0 0.26892633E+03</rscale>
<asrwt>0</asrwt>
<pdfrwt beam="1">  1        1 0.23437296E+00 0.26892633E+03</pdfrwt>
<pdfrwt beam="2">  1       -1 0.18258809E-02 0.26892633E+03</pdfrwt>
<totfact> 0.54081092E+03</totfact>
</mgrwt>
</event>
<event>
 4    1  0.1774755E-004  0.2840055E+03  0.7818608E-02  0.1093521E+00
          2   -1    0    0  501    0  0.00000000000E+00  0.00000000000E+00  0.68361050925E+02  0.68361050925E+02  0.00000000000E+00 0. -1.
         -2   -1    0    0    0  501 -0.00000000000E+00 -0.00000000000E+00 -0.29497475082E+03  0.29497475082E+03  0.00000000000E+00 0. -1.
         25    1    1    2    0    0 -0.50664525871E+02  0.54599086339E+01 -0.41299069440E+02  0.13675641821E+03  0.12000000000E+03 0.  0.
         25    1    1    2    0    0  0.50664525871E+02 -0.54599086339E+01 -0.18531463045E+03  0.22657938353E+03  0.12000000000E+03 0.  0.
<mgrwt>
<rscale>  0 0.28400552E+03</rscale>
<asrwt>0</asrwt>
<pdfrwt beam="1">  1        2 0.10517085E-01 0.28400552E+03</pdfrwt>
<pdfrwt beam="2">  1       -2 0.45380730E-01 0.28400552E+03</pdfrwt>
<totfact> 0.27963628E+03</totfact>
</mgrwt>
</event>
<event>
 4    1  0.1774755E-004  0.2866918E+03  0.7818608E-02  0.1092089E+00
          3   -1    0    0  501    0  0.00000000000E+00  0.00000000000E+00  0.37431511002E+02  0.37431511002E+02  0.00000000000E+00 0.  1.
         -3   -1    0    0    0  501 -0.00000000000E+00 -0.00000000000E+00 -0.54895046199E+03  0.54895046199E+03  0.00000000000E+00 0.  1.
         25    1    1    2    0    0  0.60041597040E+02  0.48666344370E+02 -0.28278883393E+03  0.31676952355E+03  0.12000000000E+03 0.  0.
         25    1    1    2    0    0 -0.60041597040E+02 -0.48666344370E+02 -0.22873011706E+03  0.26961244945E+03  0.12000000000E+03 0.  0.
<mgrwt>
<rscale>  0 0.28669179E+03</rscale>
<asrwt>0</asrwt>
<pdfrwt beam="1">  1        3 0.57586947E-02 0.28669179E+03</pdfrwt>
<pdfrwt beam="2">  1       -3 0.84453907E-01 0.28669179E+03</pdfrwt>
<totfact> 0.61332754E+02</totfact>
</mgrwt>
</event>
<event>
 4    1  0.1774755E-004  0.2834685E+03  0.7818608E-02  0.1093809E+00
          2   -1    0    0  501    0  0.00000000000E+00  0.00000000000E+00  0.24066931321E+03  0.24066931321E+03  0.00000000000E+00 0.  1.
         -2   -1    0    0    0  501 -0.00000000000E+00 -0.00000000000E+00 -0.83469689075E+02  0.83469689075E+02  0.00000000000E+00 0.  1.
         25    1    1    2    0    0 -0.29500736824E+02 -0.12935966502E+02  0.61718846090E+00  0.12424980332E+03  0.12000000000E+03 0.  0.
         25    1    1    2    0    0  0.29500736824E+02  0.12935966502E+02  0.15658243567E+03  0.19988919897E+03  0.12000000000E+03 0.  0.
<mgrwt>
<rscale>  0 0.28346847E+03</rscale>
<asrwt>0</asrwt>
<pdfrwt beam="1">  1        2 0.37026048E-01 0.28346847E+03</pdfrwt>
<pdfrwt beam="2">  1       -2 0.12841491E-01 0.28346847E+03</pdfrwt>
<totfact> 0.61183115E+03</totfact>
</mgrwt>
</event>
<event>
 4    1  0.1774755E-004  0.3673908E+03  0.7818608E-02  0.1055695E+00
         -2   -1    0    0    0  501 -0.00000000000E+00  0.00000000000E+00  0.13393216505E+03  0.13393216505E+03  0.00000000000E+00 0. -1.
          2   -1    0    0  501    0  0.00000000000E+00 -0.00000000000E+00 -0.25194839904E+03  0.25194839904E+03  0.00000000000E+00 0. -1.
         25    1    1    2    0    0  0.78668071298E+02  0.10223354733E+03 -0.11362141019E+03  0.20964300249E+03  0.12000000000E+03 0.  0.
         25    1    1    2    0    0 -0.78668071298E+02 -0.10223354733E+03 -0.43948237940E+01  0.17623756160E+03  0.12000000000E+03 0.  0.
<mgrwt>
<rscale>  0 0.36739077E+03</rscale>
<asrwt>0</asrwt>
<pdfrwt beam="1">  1        2 0.38761292E-01 0.36739077E+03</pdfrwt>
<pdfrwt beam="2">  1       -2 0.20604948E-01 0.36739077E+03</pdfrwt>
<totfact> 0.26534190E+03</totfact>
</mgrwt>
</event>
<event>
 4    1  0.1774755E-004  0.3414403E+03  0.7818608E-02  0.1066184E+00
          2   -1    0    0  501    0  0.00000000000E+00  0.00000000000E+00  0.19874828958E+03  0.19874828958E+03  0.00000000000E+00 0.  1.
         -2   -1    0    0    0  501 -0.00000000000E+00 -0.00000000000E+00 -0.14664465998E+03  0.14664465998E+03  0.00000000000E+00 0.  1.
         25    1    1    2    0    0  0.49573463133E+02  0.58035276422E+02 -0.69485950705E+02  0.15828429771E+03  0.12000000000E+03 0.  0.
         25    1    1    2    0    0 -0.49573463133E+02 -0.58035276422E+02  0.12158958031E+03  0.18710865185E+03  0.12000000000E+03 0.  0.
<mgrwt>
<rscale>  0 0.34144033E+03</rscale>
<asrwt>0</asrwt>
<pdfrwt beam="1">  1        2 0.30576660E-01 0.34144033E+03</pdfrwt>
<pdfrwt beam="2">  1       -2 0.22560717E-01 0.34144033E+03</pdfrwt>
<totfact> 0.29359083E+03</totfact>
</mgrwt>
</event>
<event>
 4    1  0.1774755E-004  0.2691637E+03  0.7818608E-02  0.1101759E+00
         -1   -1    0    0    0  501 -0.00000000000E+00  0.00000000000E+00  0.17939934445E+03  0.17939934445E+03  0.00000000000E+00 0.  1.
          1   -1    0    0  501    0  0.00000000000E+00 -0.00000000000E+00 -0.10096067797E+03  0.10096067797E+03  0.00000000000E+00 0.  1.
         25    1    1    2    0    0  0.59855530631E+02  0.80783062531E+01  0.47573941740E+02  0.14251744985E+03  0.12000000000E+03 0.  0.
         25    1    1    2    0    0 -0.59855530631E+02 -0.80783062531E+01  0.30864724736E+02  0.13784257257E+03  0.12000000000E+03 0.  0.
<mgrwt>
<rscale>  0 0.26916374E+03</rscale>
<asrwt>0</asrwt>
<pdfrwt beam="1">  1        1 0.15532412E-01 0.26916374E+03</pdfrwt>
<pdfrwt beam="2">  1       -1 0.27599899E-01 0.26916374E+03</pdfrwt>
<totfact> 0.41632225E+03</totfact>
</mgrwt>
</event>
<event>
 4    1  0.1774755E-004  0.2510053E+03  0.7818608E-02  0.1112671E+00
          2   -1    0    0  501    0  0.00000000000E+00  0.00000000000E+00  0.37746762320E+03  0.37746762320E+03  0.00000000000E+00 0.  1.
         -2   -1    0    0    0  501 -0.00000000000E+00 -0.00000000000E+00 -0.41727859479E+02  0.41727859479E+02  0.00000000000E+00 0.  1.
         25    1    1    2    0    0 -0.30997013764E+02  0.62634360225E+01  0.13658697615E+03  0.18454280682E+03  0.12000000000E+03 0.  0.
         25    1    1    2    0    0  0.30997013764E+02 -0.62634360225E+01  0.19915278757E+03  0.23465267587E+03  0.12000000000E+03 0.  0.
<mgrwt>
<rscale>  0 0.25100531E+03</rscale>
<asrwt>0</asrwt>
<pdfrwt beam="1">  1        2 0.58071940E-01 0.25100531E+03</pdfrwt>
<pdfrwt beam="2">  1       -2 0.64196709E-02 0.25100531E+03</pdfrwt>
<totfact> 0.11197636E+04</totfact>
</mgrwt>
</event>
<event>
 4    1  0.1774755E-004  0.2422338E+03  0.7818608E-02  0.1118314E+00
          2   -1    0    0  501    0  0.00000000000E+00  0.00000000000E+00  0.14140813791E+04  0.14140813791E+04  0.00000000000E+00 0.  1.
         -2   -1    0    0    0  501 -0.00000000000E+00 -0.00000000000E+00 -0.10373729529E+02  0.10373729529E+02  0.00000000000E+00 0.  1.
         25    1    1    2    0    0 -0.79642191029E+01  0.14182013789E+02  0.71465584366E+03  0.72484310935E+03  0.12000000000E+03 0.  0.
         25    1    1    2    0    0  0.79642191029E+01 -0.14182013789E+02  0.68905180595E+03  0.69961199931E+03  0.12000000000E+03 0.  0.
<mgrwt>
<rscale>  0 0.24223375E+03</rscale>
<asrwt>0</asrwt>
<pdfrwt beam="1">  1        2 0.21755083E+00 0.24223375E+03</pdfrwt>
<pdfrwt beam="2">  1       -2 0.15959595E-02 0.24223375E+03</pdfrwt>
<totfact> 0.16272088E+04</totfact>
</mgrwt>
</event>
<event>
 4    1  0.1774755E-004  0.2536685E+03  0.7818608E-02  0.1111008E+00
         -1   -1    0    0    0  501 -0.00000000000E+00  0.00000000000E+00  0.14062849485E+02  0.14062849485E+02  0.00000000000E+00 0.  1.
          1   -1    0    0  501    0  0.00000000000E+00 -0.00000000000E+00 -0.11439306264E+04  0.11439306264E+04  0.00000000000E+00 0.  1.
         25    1    1    2    0    0  0.31360973940E+02  0.23797488376E+02 -0.61838384776E+03  0.63114848832E+03  0.12000000000E+03 0.  0.
         25    1    1    2    0    0 -0.31360973940E+02 -0.23797488376E+02 -0.51148392921E+03  0.52684498761E+03  0.12000000000E+03 0.  0.
<mgrwt>
<rscale>  0 0.25366848E+03</rscale>
<asrwt>0</asrwt>
<pdfrwt beam="1">  1        1 0.17598935E+00 0.25366848E+03</pdfrwt>
<pdfrwt beam="2">  1       -1 0.21635151E-02 0.25366848E+03</pdfrwt>
<totfact> 0.76419580E+03</totfact>
</mgrwt>
</event>
<event>
 4    1  0.1774755E-004  0.3171381E+03  0.7818608E-02  0.1076974E+00
         -2   -1    0    0    0  501 -0.00000000000E+00  0.00000000000E+00  0.27619710108E+02  0.27619710108E+02  0.00000000000E+00 0. -1.
          2   -1    0    0  501    0  0.00000000000E+00 -0.00000000000E+00 -0.91036936112E+03  0.91036936112E+03  0.00000000000E+00 0. -1.
         25    1    1    2    0    0 -0.42173760253E+02 -0.66715619683E+01 -0.72072968330E+03  0.73189781540E+03  0.12000000000E+03 0.  0.
         25    1    1    2    0    0  0.42173760253E+02  0.66715619683E+01 -0.16201996772E+03  0.20609125583E+03  0.12000000000E+03 0.  0.
<mgrwt>
<rscale>  0 0.31713806E+03</rscale>
<asrwt>0</asrwt>
<pdfrwt beam="1">  1        2 0.14005682E+00 0.31713806E+03</pdfrwt>
<pdfrwt beam="2">  1       -2 0.42491862E-02 0.31713806E+03</pdfrwt>
<totfact> 0.75198385E+03</totfact>
</mgrwt>
</event>
<event>
 4    1  0.1774755E-004  0.2906319E+03  0.7818608E-02  0.1090020E+00
         -2   -1    0    0    0  501 -0.00000000000E+00  0.00000000000E+00  0.35850666485E+02  0.35850666485E+02  0.00000000000E+00 0. -1.
          2   -1    0    0  501    0  0.00000000000E+00 -0.00000000000E+00 -0.58901910019E+03  0.58901910019E+03  0.00000000000E+00 0. -1.
         25    1    1    2    0    0 -0.72130936262E+02  0.26685068435E+02 -0.21570499779E+03  0.25854131375E+03  0.12000000000E+03 0.  0.
         25    1    1    2    0    0  0.72130936262E+02 -0.26685068435E+02 -0.33746343592E+03  0.36632845293E+03  0.12000000000E+03 0.  0.
<mgrwt>
<rscale>  0 0.29063191E+03</rscale>
<asrwt>0</asrwt>
<pdfrwt beam="1">  1        2 0.90618316E-01 0.29063191E+03</pdfrwt>
<pdfrwt beam="2">  1       -2 0.55154876E-02 0.29063191E+03</pdfrwt>
<totfact> 0.86682230E+03</totfact>
</mgrwt>
</event>
<event>
 4    1  0.1774755E-004  0.2761559E+03  0.7818608E-02  0.1097807E+00
         -1   -1    0    0    0  501 -0.00000000000E+00  0.00000000000E+00  0.43677544482E+02  0.43677544482E+02  0.00000000000E+00 0.  1.
          1   -1    0    0  501    0  0.00000000000E+00 -0.00000000000E+00 -0.43650617271E+03  0.43650617271E+03  0.00000000000E+00 0.  1.
         25    1    1    2    0    0 -0.19800115439E+02  0.53175632219E+02 -0.26253099566E+03  0.29418058419E+03  0.12000000000E+03 0.  0.
         25    1    1    2    0    0  0.19800115439E+02 -0.53175632219E+02 -0.13029763257E+03  0.18600313300E+03  0.12000000000E+03 0.  0.
<mgrwt>
<rscale>  0 0.27615588E+03</rscale>
<asrwt>0</asrwt>
<pdfrwt beam="1">  1        1 0.67154794E-01 0.27615588E+03</pdfrwt>
<pdfrwt beam="2">  1       -1 0.67196224E-02 0.27615588E+03</pdfrwt>
<totfact> 0.60490684E+03</totfact>
</mgrwt>
</event>
<event>
 4    1  0.1774755E-004  0.2640822E+03  0.7818608E-02  0.1104715E+00
          1   -1    0    0  501    0  0.00000000000E+00  0.00000000000E+00  0.80388135660E+02  0.80388135660E+02  0.00000000000E+00 0. -1.
         -1   -1    0    0    0  501 -0.00000000000E+00 -0.00000000000E+00 -0.21688342983E+03  0.21688342983E+03  0.00000000000E+00 0. -1.
         25    1    1    2    0    0 -0.85787069258E+01  0.53169213320E+02 -0.55202639718E+02  0.14264603356E+03  0.12000000000E+03 0.  0.
         25    1    1    2    0    0  0.85787069258E+01 -0.53169213320E+02 -0.81292654449E+02  0.15462553193E+03  0.12000000000E+03 0.  0.
<mgrwt>
<rscale>  0 0.26408222E+03</rscale>
<asrwt>0</asrwt>
<pdfrwt beam="1">  1        1 0.12367405E-01 0.26408222E+03</pdfrwt>
<pdfrwt beam="2">  1       -1 0.33366682E-01 0.26408222E+03</pdfrwt>
<totfact> 0.40665728E+03</totfact>
</mgrwt>
</event>
<event>
 4    1  0.1774755E-004  0.3593204E+03  0.7818608E-02  0.1058853E+00
          2   -1    0    0  501    0  0.00000000000E+00  0.00000000000E+00  0.56433412725E+03  0.56433412725E+03  0.00000000000E+00 0. -1.
         -2   -1    0    0    0  501 -0.00000000000E+00 -0.00000000000E+00 -0.57196228165E+02  0.57196228165E+02  0.00000000000E+00 0. -1.
         25    1    1    2    0    0  0.66260036994E+02 -0.11311255711E+03  0.29910217813E+03  0.34791803063E+03  0.12000000000E+03 0.  0.
         25    1    1    2    0    0 -0.66260036994E+02  0.11311255711E+03  0.20803572096E+03  0.27361232478E+03  0.12000000000E+03 0.  0.
<mgrwt>
<rscale>  0 0.35932038E+03</rscale>
<asrwt>0</asrwt>
<pdfrwt beam="1">  1        2 0.86820631E-01 0.35932038E+03</pdfrwt>
<pdfrwt beam="2">  1       -2 0.87994201E-02 0.35932038E+03</pdfrwt>
<totfact> 0.44285526E+03</totfact>
</mgrwt>
</event>
<event>
 4    1  0.1774755E-004  0.3242221E+03  0.7818608E-02  0.1073722E+00
         -1   -1    0    0    0  501 -0.00000000000E+00  0.00000000000E+00  0.19527123435E+02  0.19527123435E+02  0.00000000000E+00 0.  1.
          1   -1    0    0  501    0  0.00000000000E+00 -0.00000000000E+00 -0.13458195869E+04  0.13458195869E+04  0.00000000000E+00 0.  1.
         25    1    1    2    0    0 -0.58861509400E+02  0.55481699618E+02 -0.35549928199E+03  0.38382630939E+03  0.12000000000E+03 0.  0.
         25    1    1    2    0    0  0.58861509400E+02 -0.55481699618E+02 -0.97079318147E+03  0.98152040095E+03  0.12000000000E+03 0.  0.
<mgrwt>
<rscale>  0 0.32422205E+03</rscale>
<asrwt>0</asrwt>
<pdfrwt beam="1">  1        1 0.20704917E+00 0.32422205E+03</pdfrwt>
<pdfrwt beam="2">  1       -1 0.30041728E-02 0.32422205E+03</pdfrwt>
<totfact> 0.34244807E+03</totfact>
</mgrwt>
</event>
<event>
 4    1  0.1774755E-004  0.2843086E+03  0.7818608E-02  0.1093359E+00
         -2   -1    0    0    0  501 -0.00000000000E+00  0.00000000000E+00  0.39426968155E+02  0.39426968155E+02  0.00000000000E+00 0.  1.
          2   -1    0    0  501    0  0.00000000000E+00 -0.00000000000E+00 -0.51253862534E+03  0.51253862534E+03  0.00000000000E+00 0.  1.
         25    1    1    2    0    0  0.21744169418E+02  0.99478137208E+01 -0.96072432395E+02  0.15556889203E+03  0.12000000000E+03 0.  0.
         25    1    1    2    0    0 -0.21744169418E+02 -0.99478137208E+01 -0.37703922479E+03  0.39639670146E+03  0.12000000000E+03 0.  0.
<mgrwt>
<rscale>  0 0.28430859E+03</rscale>
<asrwt>0</asrwt>
<pdfrwt beam="1">  1        2 0.78852097E-01 0.28430859E+03</pdfrwt>
<pdfrwt beam="2">  1       -2 0.60656873E-02 0.28430859E+03</pdfrwt>
<totfact> 0.87746863E+03</totfact>
</mgrwt>
</event>
<event>
 4    1  0.1774755E-004  0.2495461E+03  0.7818608E-02  0.1113592E+00
         -2   -1    0    0    0  501 -0.00000000000E+00  0.00000000000E+00  0.18212543488E+02  0.18212543488E+02  0.00000000000E+00 0.  1.
          2   -1    0    0  501    0  0.00000000000E+00 -0.00000000000E+00 -0.85481255667E+03  0.85481255667E+03  0.00000000000E+00 0.  1.
         25    1    1    2    0    0 -0.27271880061E+02  0.15630985767E+02 -0.37133366173E+03  0.39150577453E+03  0.12000000000E+03 0.  0.
         25    1    1    2    0    0  0.27271880061E+02 -0.15630985767E+02 -0.46526635145E+03  0.48151932562E+03  0.12000000000E+03 0.  0.
<mgrwt>
<rscale>  0 0.24954607E+03</rscale>
<asrwt>0</asrwt>
<pdfrwt beam="1">  1        2 0.13150959E+00 0.24954607E+03</pdfrwt>
<pdfrwt beam="2">  1       -2 0.28019305E-02 0.24954607E+03</pdfrwt>
<totfact> 0.15133988E+04</totfact>
</mgrwt>
</event>
<event>
 4    1  0.1774755E-004  0.2418615E+03  0.7818608E-02  0.1118559E+00
          2   -1    0    0  501    0  0.00000000000E+00  0.00000000000E+00  0.16172735663E+02  0.16172735663E+02  0.00000000000E+00 0. -1.
         -2   -1    0    0    0  501 -0.00000000000E+00 -0.00000000000E+00 -0.90425285652E+03  0.90425285652E+03  0.00000000000E+00 0. -1.
         25    1    1    2    0    0 -0.40746826628E+01  0.29780876846E+01 -0.39038658846E+03  0.40844480716E+03  0.12000000000E+03 0.  0.
         25    1    1    2    0    0  0.40746826628E+01 -0.29780876846E+01 -0.49769353240E+03  0.51198078503E+03  0.12000000000E+03 0.  0.
<mgrwt>
<rscale>  0 0.24186147E+03</rscale>
<asrwt>0</asrwt>
<pdfrwt beam="1">  1        2 0.24881128E-02 0.24186147E+03</pdfrwt>
<pdfrwt beam="2">  1       -2 0.13911585E+00 0.24186147E+03</pdfrwt>
<totfact> 0.15492973E+03</totfact>
</mgrwt>
</event>
<event>
 4    1  0.1774755E-004  0.2488792E+03  0.7818608E-02  0.1114015E+00
         -1   -1    0    0    0  501 -0.00000000000E+00  0.00000000000E+00  0.66660544057E+03  0.66660544057E+03  0.00000000000E+00 0.  1.
          1   -1    0    0  501    0  0.00000000000E+00 -0.00000000000E+00 -0.23229945813E+02  0.23229945813E+02  0.00000000000E+00 0.  1.
         25    1    1    2    0    0 -0.26247144349E+02  0.17917543148E+02  0.29764238457E+03  0.32249176738E+03  0.12000000000E+03 0.  0.
         25    1    1    2    0    0  0.26247144349E+02 -0.17917543148E+02  0.34573311018E+03  0.36734361900E+03  0.12000000000E+03 0.  0.
<mgrwt>
<rscale>  0 0.24887915E+03</rscale>
<asrwt>0</asrwt>
<pdfrwt beam="1">  1        1 0.35738383E-02 0.24887915E+03</pdfrwt>
<pdfrwt beam="2">  1       -1 0.10255467E+00 0.24887915E+03</pdfrwt>
<totfact> 0.25237636E+03</totfact>
</mgrwt>
</event>
<event>
 4    1  0.1774755E-004  0.2430669E+03  0.7818608E-02  0.1117766E+00
         -3   -1    0    0    0  501 -0.00000000000E+00  0.00000000000E+00  0.42573478510E+02  0.42573478510E+02  0.00000000000E+00 0. -1.
          3   -1    0    0  501    0  0.00000000000E+00 -0.00000000000E+00 -0.34693856326E+03  0.34693856326E+03  0.00000000000E+00 0. -1.
         25    1    1    2    0    0  0.16683106828E+01 -0.47304230209E+01 -0.18195699813E+03  0.21802180930E+03  0.12000000000E+03 0.  0.
         25    1    1    2    0    0 -0.16683106828E+01  0.47304230209E+01 -0.12240808662E+03  0.17149023247E+03  0.12000000000E+03 0.  0.
<mgrwt>
<rscale>  0 0.24306692E+03</rscale>
<asrwt>0</asrwt>
<pdfrwt beam="1">  1        3 0.53375165E-01 0.24306692E+03</pdfrwt>
<pdfrwt beam="2">  1       -3 0.65497657E-02 0.24306692E+03</pdfrwt>
<totfact> 0.12983156E+03</totfact>
</mgrwt>
</event>
<event>
 4    1  0.1774755E-004  0.2968105E+03  0.7818608E-02  0.1086846E+00
         -1   -1    0    0    0  501 -0.00000000000E+00  0.00000000000E+00  0.27441286451E+03  0.27441286451E+03  0.00000000000E+00 0. -1.
          1   -1    0    0  501    0  0.00000000000E+00 -0.00000000000E+00 -0.80259083031E+02  0.80259083031E+02  0.00000000000E+00 0. -1.
         25    1    1    2    0    0  0.46350790510E+02  0.73382082927E+02  0.10846333306E+03  0.18356911640E+03  0.12000000000E+03 0.  0.
         25    1    1    2    0    0 -0.46350790510E+02 -0.73382082927E+02  0.85690448416E+02  0.17110283114E+03  0.12000000000E+03 0.  0.
<mgrwt>
<rscale>  0 0.29681054E+03</rscale>
<asrwt>0</asrwt>
<pdfrwt beam="1">  1        1 0.12347551E-01 0.29681054E+03</pdfrwt>
<pdfrwt beam="2">  1       -1 0.42217363E-01 0.29681054E+03</pdfrwt>
<totfact> 0.27028145E+03</totfact>
</mgrwt>
</event>
<event>
 4    1  0.1774755E-004  0.5313754E+03  0.7818608E-02  0.1005899E+00
          2   -1    0    0  501    0  0.00000000000E+00  0.00000000000E+00  0.18110126507E+03  0.18110126507E+03  0.00000000000E+00 0.  1.
         -2   -1    0    0    0  501 -0.00000000000E+00 -0.00000000000E+00 -0.38978166256E+03  0.38978166256E+03  0.00000000000E+00 0.  1.
         25    1    1    2    0    0 -0.15471423135E+03 -0.15085486840E+03 -0.20903426928E+03  0.32371130724E+03  0.12000000000E+03 0.  0.
         25    1    1    2    0    0  0.15471423135E+03  0.15085486840E+03  0.35387179137E+00  0.24717162039E+03  0.12000000000E+03 0.  0.
<mgrwt>
<rscale>  0 0.53137539E+03</rscale>
<asrwt>0</asrwt>
<pdfrwt beam="1">  1        2 0.27861733E-01 0.53137539E+03</pdfrwt>
<pdfrwt beam="2">  1       -2 0.59966410E-01 0.53137539E+03</pdfrwt>
<totfact> 0.50612604E+02</totfact>
</mgrwt>
</event>
<event>
 4    1  0.1774755E-004  0.2515773E+03  0.7818608E-02  0.1112312E+00
         -2   -1    0    0    0  501 -0.00000000000E+00  0.00000000000E+00  0.60198366452E+03  0.60198366452E+03  0.00000000000E+00 0. -1.
          2   -1    0    0  501    0  0.00000000000E+00 -0.00000000000E+00 -0.26284398591E+02  0.26284398591E+02  0.00000000000E+00 0. -1.
         25    1    1    2    0    0  0.28937326002E+02  0.23653536448E+02  0.30056388409E+03  0.32578444874E+03  0.12000000000E+03 0.  0.
         25    1    1    2    0    0 -0.28937326002E+02 -0.23653536448E+02  0.27513538184E+03  0.30248361437E+03  0.12000000000E+03 0.  0.
<mgrwt>
<rscale>  0 0.25157725E+03</rscale>
<asrwt>0</asrwt>
<pdfrwt beam="1">  1        2 0.40437541E-02 0.25157725E+03</pdfrwt>
<pdfrwt beam="2">  1       -2 0.92612862E-01 0.25157725E+03</pdfrwt>
<totfact> 0.21274542E+03</totfact>
</mgrwt>
</event>
<event>
 4    1  0.1774755E-004  0.2830017E+03  0.7818608E-02  0.1094061E+00
          3   -1    0    0  501    0  0.00000000000E+00  0.00000000000E+00  0.56230511014E+02  0.56230511014E+02  0.00000000000E+00 0.  1.
         -3   -1    0    0    0  501 -0.00000000000E+00 -0.00000000000E+00 -0.35607887983E+03  0.35607887983E+03  0.00000000000E+00 0.  1.
         25    1    1    2    0    0 -0.50265811018E+01 -0.60101184229E+02 -0.85012489050E+02  0.15894823735E+03  0.12000000000E+03 0.  0.
         25    1    1    2    0    0  0.50265811018E+01  0.60101184229E+02 -0.21483587977E+03  0.25336115349E+03  0.12000000000E+03 0.  0.
<mgrwt>
<rscale>  0 0.28300175E+03</rscale>
<asrwt>0</asrwt>
<pdfrwt beam="1">  1        3 0.86508478E-02 0.28300175E+03</pdfrwt>
<pdfrwt beam="2">  1       -3 0.54781366E-01 0.28300175E+03</pdfrwt>
<totfact> 0.79373952E+02</totfact>
</mgrwt>
</event>
<event>
 4    1  0.1774755E-004  0.3709707E+03  0.7818608E-02  0.1054322E+00
         -2   -1    0    0    0  501 -0.00000000000E+00  0.00000000000E+00  0.27128878888E+03  0.27128878888E+03  0.00000000000E+00 0.  1.
          2   -1    0    0  501    0  0.00000000000E+00 -0.00000000000E+00 -0.12681989247E+03  0.12681989247E+03  0.00000000000E+00 0.  1.
         25    1    1    2    0    0  0.52993699372E+02 -0.63178435652E+02  0.19555365354E+03  0.24380541076E+03  0.12000000000E+03 0.  0.
         25    1    1    2    0    0 -0.52993699372E+02  0.63178435652E+02 -0.51084757122E+02  0.15430327059E+03  0.12000000000E+03 0.  0.
<mgrwt>
<rscale>  0 0.37097070E+03</rscale>
<asrwt>0</asrwt>
<pdfrwt beam="1">  1        2 0.19510753E-01 0.37097070E+03</pdfrwt>
<pdfrwt beam="2">  1       -2 0.41736737E-01 0.37097070E+03</pdfrwt>
<totfact> 0.15779341E+03</totfact>
</mgrwt>
</event>
<event>
 4    1  0.1774755E-004  0.2573749E+03  0.7818608E-02  0.1108731E+00
         -1   -1    0    0    0  501 -0.00000000000E+00  0.00000000000E+00  0.83566124423E+01  0.83566124423E+01  0.00000000000E+00 0.  1.
          1   -1    0    0  501    0  0.00000000000E+00 -0.00000000000E+00 -0.19817199026E+04  0.19817199026E+04  0.00000000000E+00 0.  1.
         25    1    1    2    0    0 -0.16422499627E+02  0.38354797128E+02 -0.11450836606E+04  0.11521099682E+04  0.12000000000E+03 0.  0.
         25    1    1    2    0    0  0.16422499627E+02 -0.38354797128E+02 -0.82827962958E+03  0.83796654691E+03  0.12000000000E+03 0.  0.
<mgrwt>
<rscale>  0 0.25737494E+03</rscale>
<asrwt>0</asrwt>
<pdfrwt beam="1">  1        1 0.30487980E+00 0.25737494E+03</pdfrwt>
<pdfrwt beam="2">  1       -1 0.12856335E-02 0.25737494E+03</pdfrwt>
<totfact> 0.45279151E+03</totfact>
</mgrwt>
</event>
<event>
 4    1  0.1774755E-004  0.2791287E+03  0.7818608E-02  0.1096166E+00
          2   -1    0    0  501    0  0.00000000000E+00  0.00000000000E+00  0.15193520222E+04  0.15193520222E+04  0.00000000000E+00 0.  1.
         -2   -1    0    0    0  501 -0.00000000000E+00 -0.00000000000E+00 -0.12820073212E+02  0.12820073212E+02  0.00000000000E+00 0.  1.
         25    1    1    2    0    0 -0.54251303582E+02  0.12812402812E+02  0.50958082619E+03  0.52647885050E+03  0.12000000000E+03 0.  0.
         25    1    1    2    0    0  0.54251303582E+02 -0.12812402812E+02  0.99695112276E+03  0.10056932449E+04  0.12000000000E+03 0.  0.
<mgrwt>
<rscale>  0 0.27912867E+03</rscale>
<asrwt>0</asrwt>
<pdfrwt beam="1">  1        2 0.23374632E+00 0.27912867E+03</pdfrwt>
<pdfrwt beam="2">  1       -2 0.19723202E-02 0.27912867E+03</pdfrwt>
<totfact> 0.10516396E+04</totfact>
</mgrwt>
</event>
<event>
 4    1  0.1774755E-004  0.3338751E+03  0.7818608E-02  0.1069435E+00
         -2   -1    0    0    0  501 -0.00000000000E+00  0.00000000000E+00  0.47252322691E+02  0.47252322691E+02  0.00000000000E+00 0.  1.
          2   -1    0    0  501    0  0.00000000000E+00 -0.00000000000E+00 -0.58977302276E+03  0.58977302276E+03  0.00000000000E+00 0.  1.
         25    1    1    2    0    0  0.95426453665E+02 -0.91017505550E+01 -0.39607014270E+03  0.42480655345E+03  0.12000000000E+03 0.  0.
         25    1    1    2    0    0 -0.95426453665E+02  0.91017505550E+01 -0.14645055738E+03  0.21221879200E+03  0.12000000000E+03 0.  0.
<mgrwt>
<rscale>  0 0.33387510E+03</rscale>
<asrwt>0</asrwt>
<pdfrwt beam="1">  1        2 0.90734306E-01 0.33387510E+03</pdfrwt>
<pdfrwt beam="2">  1       -2 0.72695885E-02 0.33387510E+03</pdfrwt>
<totfact> 0.56721990E+03</totfact>
</mgrwt>
</event>
<event>
 4    1  0.1774755E-004  0.2501923E+03  0.7818608E-02  0.1113183E+00
          1   -1    0    0  501    0  0.00000000000E+00  0.00000000000E+00  0.56577452467E+02  0.56577452467E+02  0.00000000000E+00 0. -1.
         -1   -1    0    0    0  501 -0.00000000000E+00 -0.00000000000E+00 -0.27659517133E+03  0.27659517133E+03  0.00000000000E+00 0. -1.
         25    1    1    2    0    0 -0.31196230252E+02  0.13159555855E+02 -0.96515496428E+02  0.15767567898E+03  0.12000000000E+03 0.  0.
         25    1    1    2    0    0  0.31196230252E+02 -0.13159555855E+02 -0.12350222243E+03  0.17549694481E+03  0.12000000000E+03 0.  0.
<mgrwt>
<rscale>  0 0.25019233E+03</rscale>
<asrwt>0</asrwt>
<pdfrwt beam="1">  1        1 0.87042236E-02 0.25019233E+03</pdfrwt>
<pdfrwt beam="2">  1       -1 0.42553103E-01 0.25019233E+03</pdfrwt>
<totfact> 0.42388769E+03</totfact>
</mgrwt>
</event>
<event>
 4    1  0.1774755E-004  0.2685745E+03  0.7818608E-02  0.1102098E+00
         -3   -1    0    0    0  501 -0.00000000000E+00  0.00000000000E+00  0.36778561033E+02  0.36778561033E+02  0.00000000000E+00 0.  1.
          3   -1    0    0  501    0  0.00000000000E+00 -0.00000000000E+00 -0.49031477847E+03  0.49031477847E+03  0.00000000000E+00 0.  1.
         25    1    1    2    0    0 -0.49810108149E+02 -0.27080505070E+02 -0.26692492831E+03  0.29809951020E+03  0.12000000000E+03 0.  0.
         25    1    1    2    0    0  0.49810108149E+02  0.27080505070E+02 -0.18661128913E+03  0.22899382930E+03  0.12000000000E+03 0.  0.
<mgrwt>
<rscale>  0 0.26857455E+03</rscale>
<asrwt>0</asrwt>
<pdfrwt beam="1">  1        3 0.75433038E-01 0.26857455E+03</pdfrwt>
<pdfrwt beam="2">  1       -3 0.56582405E-02 0.26857455E+03</pdfrwt>
<totfact> 0.80423558E+02</totfact>
</mgrwt>
</event>
<event>
 4    1  0.1774755E-004  0.2979376E+03  0.7818608E-02  0.1086276E+00
         -1   -1    0    0    0  501 -0.00000000000E+00  0.00000000000E+00  0.40616975009E+02  0.40616975009E+02  0.00000000000E+00 0. -1.
          1   -1    0    0  501    0  0.00000000000E+00 -0.00000000000E+00 -0.54636538642E+03  0.54636538642E+03  0.00000000000E+00 0. -1.
         25    1    1    2    0    0 -0.20843958465E+02  0.83738804582E+02 -0.21627754327E+03  0.26195922148E+03  0.12000000000E+03 0.  0.
         25    1    1    2    0    0  0.20843958465E+02 -0.83738804582E+02 -0.28947086814E+03  0.32502313994E+03  0.12000000000E+03 0.  0.
<mgrwt>
<rscale>  0 0.29793764E+03</rscale>
<asrwt>0</asrwt>
<pdfrwt beam="1">  1        1 0.84056213E-01 0.29793764E+03</pdfrwt>
<pdfrwt beam="2">  1       -1 0.62487654E-02 0.29793764E+03</pdfrwt>
<totfact> 0.50246099E+03</totfact>
</mgrwt>
</event>
<event>
 4    1  0.1774755E-004  0.2521514E+03  0.7818608E-02  0.1111953E+00
          1   -1    0    0  501    0  0.00000000000E+00  0.00000000000E+00  0.19673170307E+02  0.19673170307E+02  0.00000000000E+00 0.  1.
         -1   -1    0    0    0  501 -0.00000000000E+00 -0.00000000000E+00 -0.80795751399E+03  0.80795751399E+03  0.00000000000E+00 0.  1.
         25    1    1    2    0    0  0.31813536621E+01 -0.13312722460E+02 -0.51283793585E+03  0.52686819798E+03  0.12000000000E+03 0.  0.
         25    1    1    2    0    0 -0.31813536621E+01  0.13312722460E+02 -0.27544640783E+03  0.30076248631E+03  0.12000000000E+03 0.  0.
<mgrwt>
<rscale>  0 0.25215143E+03</rscale>
<asrwt>0</asrwt>
<pdfrwt beam="1">  1        1 0.30266408E-02 0.25215143E+03</pdfrwt>
<pdfrwt beam="2">  1       -1 0.12430119E+00 0.25215143E+03</pdfrwt>
<totfact> 0.20374191E+03</totfact>
</mgrwt>
</event>
<event>
 4    1  0.1774755E-004  0.3298169E+03  0.7818608E-02  0.1071218E+00
         -2   -1    0    0    0  501 -0.00000000000E+00  0.00000000000E+00  0.22025039891E+02  0.22025039891E+02  0.00000000000E+00 0.  1.
          2   -1    0    0  501    0  0.00000000000E+00 -0.00000000000E+00 -0.12347218514E+04  0.12347218514E+04  0.00000000000E+00 0.  1.
         25    1    1    2    0    0 -0.30480276764E+02  0.65597195430E+01 -0.19203057650E+03  0.22857781936E+03  0.12000000000E+03 0.  0.
         25    1    1    2    0    0  0.30480276764E+02 -0.65597195430E+01 -0.10206662350E+04  0.10281690719E+04  0.12000000000E+03 0.  0.
<mgrwt>
<rscale>  0 0.32981691E+03</rscale>
<asrwt>0</asrwt>
<pdfrwt beam="1">  1        2 0.18995723E+00 0.32981691E+03</pdfrwt>
<pdfrwt beam="2">  1       -2 0.33884672E-02 0.32981691E+03</pdfrwt>
<totfact> 0.67596651E+03</totfact>
</mgrwt>
</event>
<event>
 4    1  0.1774755E-004  0.2667903E+03  0.7818608E-02  0.1103131E+00
          2   -1    0    0  501    0  0.00000000000E+00  0.00000000000E+00  0.42236036522E+03  0.42236036522E+03  0.00000000000E+00 0. -1.
         -2   -1    0    0    0  501 -0.00000000000E+00 -0.00000000000E+00 -0.42130517884E+02  0.42130517884E+02  0.00000000000E+00 0. -1.
         25    1    1    2    0    0  0.50471030822E+02 -0.19374497847E+02  0.22792241941E+03  0.26319446306E+03  0.12000000000E+03 0.  0.
         25    1    1    2    0    0 -0.50471030822E+02  0.19374497847E+02  0.15230742793E+03  0.20129642004E+03  0.12000000000E+03 0.  0.
<mgrwt>
<rscale>  0 0.26679026E+03</rscale>
<asrwt>0</asrwt>
<pdfrwt beam="1">  1        2 0.64978515E-01 0.26679026E+03</pdfrwt>
<pdfrwt beam="2">  1       -2 0.64816184E-02 0.26679026E+03</pdfrwt>
<totfact> 0.97926966E+03</totfact>
</mgrwt>
</event>
<event>
 4    1  0.1774755E-004  0.2944205E+03  0.7818608E-02  0.1088064E+00
         -2   -1    0    0    0  501 -0.00000000000E+00  0.00000000000E+00  0.11193143948E+02  0.11193143948E+02  0.00000000000E+00 0. -1.
          2   -1    0    0  501    0  0.00000000000E+00 -0.00000000000E+00 -0.19360825305E+04  0.19360825305E+04  0.00000000000E+00 0. -1.
         25    1    1    2    0    0 -0.82889445733E+02 -0.85619282608E+00 -0.10946334689E+04  0.11043069431E+04  0.12000000000E+03 0.  0.
         25    1    1    2    0    0  0.82889445733E+02  0.85619282608E+00 -0.83025591760E+03  0.84296873132E+03  0.12000000000E+03 0.  0.
<mgrwt>
<rscale>  0 0.29442045E+03</rscale>
<asrwt>0</asrwt>
<pdfrwt beam="1">  1        2 0.29785901E+00 0.29442045E+03</pdfrwt>
<pdfrwt beam="2">  1       -2 0.17220212E-02 0.29442045E+03</pdfrwt>
<totfact> 0.77400947E+03</totfact>
</mgrwt>
</event>
<event>
 4    1  0.1774755E-004  0.2950382E+03  0.7818608E-02  0.1087748E+00
         -3   -1    0    0    0  501 -0.00000000000E+00  0.00000000000E+00  0.35386666903E+02  0.35386666903E+02  0.00000000000E+00 0.  1.
          3   -1    0    0  501    0  0.00000000000E+00 -0.00000000000E+00 -0.61497414763E+03  0.61497414763E+03  0.00000000000E+00 0.  1.
         25    1    1    2    0    0 -0.44086537863E+02 -0.73460742563E+02 -0.30008155115E+03  0.33434868156E+03  0.12000000000E+03 0.  0.
         25    1    1    2    0    0  0.44086537863E+02  0.73460742563E+02 -0.27950592958E+03  0.31601213297E+03  0.12000000000E+03 0.  0.
<mgrwt>
<rscale>  0 0.29503820E+03</rscale>
<asrwt>0</asrwt>
<pdfrwt beam="1">  1        3 0.94611406E-01 0.29503820E+03</pdfrwt>
<pdfrwt beam="2">  1       -3 0.54441027E-02 0.29503820E+03</pdfrwt>
<totfact> 0.52255410E+02</totfact>
</mgrwt>
</event>
<event>
 4    1  0.1774755E-004  0.2673304E+03  0.7818608E-02  0.1102817E+00
         -2   -1    0    0    0  501 -0.00000000000E+00  0.00000000000E+00  0.33235960253E+03  0.33235960253E+03  0.00000000000E+00 0.  1.
          2   -1    0    0  501    0  0.00000000000E+00 -0.00000000000E+00 -0.53756183920E+02  0.53756183920E+02  0.00000000000E+00 0.  1.
         25    1    1    2    0    0 -0.46339223239E+02 -0.36218297516E+02  0.13540059293E+03  0.19024302681E+03  0.12000000000E+03 0.  0.
         25    1    1    2    0    0  0.46339223239E+02  0.36218297516E+02  0.14320282569E+03  0.19587275964E+03  0.12000000000E+03 0.  0.
<mgrwt>
<rscale>  0 0.26733039E+03</rscale>
<asrwt>0</asrwt>
<pdfrwt beam="1">  1        2 0.82701824E-02 0.26733039E+03</pdfrwt>
<pdfrwt beam="2">  1       -2 0.51132245E-01 0.26733039E+03</pdfrwt>
<totfact> 0.29773989E+03</totfact>
</mgrwt>
</event>
<event>
 4    1  0.1774755E-004  0.2734398E+03  0.7818608E-02  0.1099327E+00
          2   -1    0    0  501    0  0.00000000000E+00  0.00000000000E+00  0.68885437824E+03  0.68885437824E+03  0.00000000000E+00 0.  1.
         -2   -1    0    0    0  501 -0.00000000000E+00 -0.00000000000E+00 -0.27135382625E+02  0.27135382625E+02  0.00000000000E+00 0.  1.
         25    1    1    2    0    0 -0.18856215267E+02 -0.11588200779E+02  0.16939434048E+03  0.20876849819E+03  0.12000000000E+03 0.  0.
         25    1    1    2    0    0  0.18856215267E+02  0.11588200779E+02  0.49232465514E+03  0.50722126268E+03  0.12000000000E+03 0.  0.
<mgrwt>
<rscale>  0 0.27343977E+03</rscale>
<asrwt>0</asrwt>
<pdfrwt beam="1">  1        2 0.10597758E+00 0.27343977E+03</pdfrwt>
<pdfrwt beam="2">  1       -2 0.41746748E-02 0.27343977E+03</pdfrwt>
<totfact> 0.10971277E+04</totfact>
</mgrwt>
</event>
<event>
 4    1  0.1774755E-004  0.3930101E+03  0.7818608E-02  0.1046227E+00
          2   -1    0    0  501    0  0.00000000000E+00  0.00000000000E+00  0.90695165659E+03  0.90695165659E+03  0.00000000000E+00 0.  1.
         -2   -1    0    0    0  501 -0.00000000000E+00 -0.00000000000E+00 -0.42575854634E+02  0.42575854634E+02  0.00000000000E+00 0.  1.
         25    1    1    2    0    0  0.60346550932E+01  0.14270318880E+03  0.58138925974E+03  0.61058503789E+03  0.12000000000E+03 0.  0.
         25    1    1    2    0    0 -0.60346550932E+01 -0.14270318880E+03  0.28298654222E+03  0.33894247334E+03  0.12000000000E+03 0.  0.
<mgrwt>
<rscale>  0 0.39301014E+03</rscale>
<asrwt>0</asrwt>
<pdfrwt beam="1">  1        2 0.13953101E+00 0.39301014E+03</pdfrwt>
<pdfrwt beam="2">  1       -2 0.65501322E-02 0.39301014E+03</pdfrwt>
<totfact> 0.39032650E+03</totfact>
</mgrwt>
</event>
<event>
 4    1  0.1774755E-004  0.3198539E+03  0.7818608E-02  0.1075717E+00
          2   -1    0    0  501    0  0.00000000000E+00  0.00000000000E+00  0.54202648143E+02  0.54202648143E+02  0.00000000000E+00 0. -1.
         -2   -1    0    0    0  501 -0.00000000000E+00 -0.00000000000E+00 -0.47187048501E+03  0.47187048501E+03  0.00000000000E+00 0. -1.
         25    1    1    2    0    0  0.53938334354E+01 -0.23745200827E+02 -0.37803894738E+03  0.39737434962E+03  0.12000000000E+03 0.  0.
         25    1    1    2    0    0 -0.53938334354E+01  0.23745200827E+02 -0.39628889493E+02  0.12869878354E+03  0.12000000000E+03 0.  0.
<mgrwt>
<rscale>  0 0.31985390E+03</rscale>
<asrwt>0</asrwt>
<pdfrwt beam="1">  1        2 0.83388693E-02 0.31985390E+03</pdfrwt>
<pdfrwt beam="2">  1       -2 0.72595456E-01 0.31985390E+03</pdfrwt>
<totfact> 0.14264353E+03</totfact>
</mgrwt>
</event>
<event>
 4    1  0.1774755E-004  0.2889456E+03  0.7818608E-02  0.1090901E+00
          2   -1    0    0  501    0  0.00000000000E+00  0.00000000000E+00  0.27808187197E+04  0.27808187197E+04  0.00000000000E+00 0.  1.
         -2   -1    0    0    0  501 -0.00000000000E+00 -0.00000000000E+00 -0.75058452435E+01  0.75058452435E+01  0.00000000000E+00 0.  1.
         25    1    1    2    0    0 -0.61834118071E+02  0.58659970923E+01  0.18800843833E+04  0.18849337273E+04  0.12000000000E+03 0.  0.
         25    1    1    2    0    0  0.61834118071E+02 -0.58659970923E+01  0.89322849118E+03  0.90339083764E+03  0.12000000000E+03 0.  0.
<mgrwt>
<rscale>  0 0.28894563E+03</rscale>
<asrwt>0</asrwt>
<pdfrwt beam="1">  1        2 0.42781744E+00 0.28894563E+03</pdfrwt>
<pdfrwt beam="2">  1       -2 0.11547476E-02 0.28894563E+03</pdfrwt>
<totfact> 0.48284476E+03</totfact>
</mgrwt>
</event>
<event>
 4    1  0.1774755E-004  0.2733949E+03  0.7818608E-02  0.1099352E+00
          2   -1    0    0  501    0  0.00000000000E+00  0.00000000000E+00  0.32581519262E+04  0.32581519262E+04  0.00000000000E+00 0.  1.
         -2   -1    0    0    0  501 -0.00000000000E+00 -0.00000000000E+00 -0.57352103107E+01  0.57352103107E+01  0.00000000000E+00 0.  1.
         25    1    1    2    0    0 -0.61612806745E+02 -0.21661598001E+02  0.16806867329E+04  0.16862304875E+04  0.12000000000E+03 0.  0.
         25    1    1    2    0    0  0.61612806745E+02  0.21661598001E+02  0.15717299830E+04  0.15776566490E+04  0.12000000000E+03 0.  0.
<mgrwt>
<rscale>  0 0.27339485E+03</rscale>
<asrwt>0</asrwt>
<pdfrwt beam="1">  1        2 0.50125266E+00 0.27339485E+03</pdfrwt>
<pdfrwt beam="2">  1       -2 0.88234265E-03 0.27339485E+03</pdfrwt>
<totfact> 0.37113262E+03</totfact>
</mgrwt>
</event>
<event>
 4    1  0.1774755E-004  0.4370735E+03  0.7818608E-02  0.1031649E+00
         -4   -1    0    0    0  501 -0.00000000000E+00  0.00000000000E+00  0.10155207710E+03  0.10155207710E+03  0.00000000000E+00 0. -1.
          4   -1    0    0  501    0  0.00000000000E+00 -0.00000000000E+00 -0.47028384093E+03  0.47028384093E+03  0.00000000000E+00 0. -1.
         25    1    1    2    0    0 -0.15330863573E+03 -0.98252905605E+02 -0.20292062832E+03  0.29788244770E+03  0.12000000000E+03 0.  0.
         25    1    1    2    0    0  0.15330863573E+03  0.98252905605E+02 -0.16581113551E+03  0.27395347033E+03  0.12000000000E+03 0.  0.
<mgrwt>
<rscale>  0 0.43707345E+03</rscale>
<asrwt>0</asrwt>
<pdfrwt beam="1">  1        4 0.72351361E-01 0.43707345E+03</pdfrwt>
<pdfrwt beam="2">  1       -4 0.15623396E-01 0.43707345E+03</pdfrwt>
<totfact> 0.12114586E+02</totfact>
</mgrwt>
</event>
<event>
 4    1  0.1774755E-004  0.2428135E+03  0.7818608E-02  0.1117933E+00
          2   -1    0    0  501    0  0.00000000000E+00  0.00000000000E+00  0.69468143718E+03  0.69468143718E+03  0.00000000000E+00 0.  1.
         -2   -1    0    0    0  501 -0.00000000000E+00 -0.00000000000E+00 -0.21217778040E+02  0.21217778040E+02  0.00000000000E+00 0.  1.
         25    1    1    2    0    0 -0.79509866032E+01 -0.77238790998E+01  0.38013571766E+03  0.39878069203E+03  0.12000000000E+03 0.  0.
         25    1    1    2    0    0  0.79509866032E+01  0.77238790998E+01  0.29332794149E+03  0.31711852319E+03  0.12000000000E+03 0.  0.
<mgrwt>
<rscale>  0 0.24281348E+03</rscale>
<asrwt>0</asrwt>
<pdfrwt beam="1">  1        2 0.10687405E+00 0.24281348E+03</pdfrwt>
<pdfrwt beam="2">  1       -2 0.32642741E-02 0.24281348E+03</pdfrwt>
<totfact> 0.15618928E+04</totfact>
</mgrwt>
</event>
<event>
 4    1  0.1774755E-004  0.2507167E+03  0.7818608E-02  0.1112853E+00
         -1   -1    0    0    0  501 -0.00000000000E+00  0.00000000000E+00  0.48564235306E+03  0.48564235306E+03  0.00000000000E+00 0. -1.
          1   -1    0    0  501    0  0.00000000000E+00 -0.00000000000E+00 -0.32358620953E+02  0.32358620953E+02  0.00000000000E+00 0. -1.
         25    1    1    2    0    0  0.26210030069E+02 -0.25727352425E+00  0.17487901835E+03  0.21370470965E+03  0.12000000000E+03 0.  0.
         25    1    1    2    0    0 -0.26210030069E+02  0.25727352425E+00  0.27840471375E+03  0.30429626436E+03  0.12000000000E+03 0.  0.
<mgrwt>
<rscale>  0 0.25071671E+03</rscale>
<asrwt>0</asrwt>
<pdfrwt beam="1">  1        1 0.49782497E-02 0.25071671E+03</pdfrwt>
<pdfrwt beam="2">  1       -1 0.74714203E-01 0.25071671E+03</pdfrwt>
<totfact> 0.31263096E+03</totfact>
</mgrwt>
</event>
<event>
 4    1  0.1774755E-004  0.3074816E+03  0.7818608E-02  0.1081559E+00
         -1   -1    0    0    0  501 -0.00000000000E+00  0.00000000000E+00  0.29340464166E+02  0.29340464166E+02  0.00000000000E+00 0.  1.
          1   -1    0    0  501    0  0.00000000000E+00 -0.00000000000E+00 -0.80558503195E+03  0.80558503195E+03  0.00000000000E+00 0.  1.
         25    1    1    2    0    0 -0.58536404210E+02 -0.11793111949E+02 -0.18364503659E+03  0.22735674076E+03  0.12000000000E+03 0.  0.
         25    1    1    2    0    0  0.58536404210E+02  0.11793111949E+02 -0.59259953120E+03  0.60756875535E+03  0.12000000000E+03 0.  0.
<mgrwt>
<rscale>  0 0.30748163E+03</rscale>
<asrwt>0</asrwt>
<pdfrwt beam="1">  1        1 0.12393617E+00 0.30748163E+03</pdfrwt>
<pdfrwt beam="2">  1       -1 0.45139171E-02 0.30748163E+03</pdfrwt>
<totfact> 0.46840142E+03</totfact>
</mgrwt>
</event>
<event>
 4    1  0.1774755E-004  0.2582142E+03  0.7818608E-02  0.1108221E+00
         -2   -1    0    0    0  501 -0.00000000000E+00  0.00000000000E+00  0.20597513127E+02  0.20597513127E+02  0.00000000000E+00 0. -1.
          2   -1    0    0  501    0  0.00000000000E+00 -0.00000000000E+00 -0.80925503736E+03  0.80925503736E+03  0.00000000000E+00 0. -1.
         25    1    1    2    0    0  0.21063628194E+02 -0.38368791445E+02 -0.45469380801E+03  0.47229471692E+03  0.12000000000E+03 0.  0.
         25    1    1    2    0    0 -0.21063628194E+02  0.38368791445E+02 -0.33396371622E+03  0.35755783356E+03  0.12000000000E+03 0.  0.
<mgrwt>
<rscale>  0 0.25821418E+03</rscale>
<asrwt>0</asrwt>
<pdfrwt beam="1">  1        2 0.12450078E+00 0.25821418E+03</pdfrwt>
<pdfrwt beam="2">  1       -2 0.31688482E-02 0.25821418E+03</pdfrwt>
<totfact> 0.13547440E+04</totfact>
</mgrwt>
</event>
<event>
 4    1  0.1774755E-004  0.3873709E+03  0.7818608E-02  0.1048243E+00
          1   -1    0    0  501    0  0.00000000000E+00  0.00000000000E+00  0.27692764526E+03  0.27692764526E+03  0.00000000000E+00 0.  1.
         -1   -1    0    0    0  501 -0.00000000000E+00 -0.00000000000E+00 -0.13546517616E+03  0.13546517616E+03  0.00000000000E+00 0.  1.
         25    1    1    2    0    0  0.10039844188E+03  0.10865326986E+03  0.10804783769E+03  0.21899706713E+03  0.12000000000E+03 0.  0.
         25    1    1    2    0    0 -0.10039844188E+03 -0.10865326986E+03  0.33414631412E+02  0.19339575428E+03  0.12000000000E+03 0.  0.
<mgrwt>
<rscale>  0 0.38737089E+03</rscale>
<asrwt>0</asrwt>
<pdfrwt beam="1">  1        1 0.42604253E-01 0.38737089E+03</pdfrwt>
<pdfrwt beam="2">  1       -1 0.20840796E-01 0.38737089E+03</pdfrwt>
<totfact> 0.18363978E+03</totfact>
</mgrwt>
</event>
<event>
 4    1  0.1774755E-004  0.3232904E+03  0.7818608E-02  0.1074145E+00
          2   -1    0    0  501    0  0.00000000000E+00  0.00000000000E+00  0.15840472850E+04  0.15840472850E+04  0.00000000000E+00 0. -1.
         -2   -1    0    0    0  501 -0.00000000000E+00 -0.00000000000E+00 -0.16495192372E+02  0.16495192372E+02  0.00000000000E+00 0. -1.
         25    1    1    2    0    0  0.24808434291E+02 -0.71872792460E+02  0.11655974036E+04  0.11742224934E+04  0.12000000000E+03 0.  0.
         25    1    1    2    0    0 -0.24808434291E+02  0.71872792460E+02  0.40195468900E+03  0.42631998395E+03  0.12000000000E+03 0.  0.
<mgrwt>
<rscale>  0 0.32329036E+03</rscale>
<asrwt>0</asrwt>
<pdfrwt beam="1">  1        2 0.24369946E+00 0.32329036E+03</pdfrwt>
<pdfrwt beam="2">  1       -2 0.25377232E-02 0.32329036E+03</pdfrwt>
<totfact> 0.67018916E+03</totfact>
</mgrwt>
</event>
<event>
 4    1  0.1774755E-004  0.4511262E+03  0.7818608E-02  0.1027387E+00
         -2   -1    0    0    0  501 -0.00000000000E+00  0.00000000000E+00  0.24063171130E+03  0.24063171130E+03  0.00000000000E+00 0.  1.
          2   -1    0    0  501    0  0.00000000000E+00 -0.00000000000E+00 -0.21143810385E+03  0.21143810385E+03  0.00000000000E+00 0.  1.
         25    1    1    2    0    0  0.39788318322E+02  0.32685382330E+02 -0.16970981032E+03  0.21413281909E+03  0.12000000000E+03 0.  0.
         25    1    1    2    0    0 -0.39788318322E+02 -0.32685382330E+02  0.19890341777E+03  0.23793699606E+03  0.12000000000E+03 0.  0.
<mgrwt>
<rscale>  0 0.45112620E+03</rscale>
<asrwt>0</asrwt>
<pdfrwt beam="1">  1        2 0.32528939E-01 0.45112620E+03</pdfrwt>
<pdfrwt beam="2">  1       -2 0.37020263E-01 0.45112620E+03</pdfrwt>
<totfact> 0.11157792E+03</totfact>
</mgrwt>
</event>
<event>
 4    1  0.1774755E-004  0.2501773E+03  0.7818608E-02  0.1113193E+00
         -2   -1    0    0    0  501 -0.00000000000E+00  0.00000000000E+00  0.35489523846E+02  0.35489523846E+02  0.00000000000E+00 0. -1.
          2   -1    0    0  501    0  0.00000000000E+00 -0.00000000000E+00 -0.44089546731E+03  0.44089546731E+03  0.00000000000E+00 0. -1.
         25    1    1    2    0    0  0.20424536384E+02  0.87880146914E+00 -0.25753689293E+03  0.28485642910E+03  0.12000000000E+03 0.  0.
         25    1    1    2    0    0 -0.20424536384E+02 -0.87880146914E+00 -0.14786905054E+03  0.19152856206E+03  0.12000000000E+03 0.  0.
<mgrwt>
<rscale>  0 0.25017730E+03</rscale>
<asrwt>0</asrwt>
<pdfrwt beam="1">  1        2 0.67830067E-01 0.25017730E+03</pdfrwt>
<pdfrwt beam="2">  1       -2 0.54599271E-02 0.25017730E+03</pdfrwt>
<totfact> 0.12116713E+04</totfact>
</mgrwt>
</event>
<event>
 4    1  0.1774755E-004  0.2867302E+03  0.7818608E-02  0.1092069E+00
          1   -1    0    0  501    0  0.00000000000E+00  0.00000000000E+00  0.52701374264E+03  0.52701374264E+03  0.00000000000E+00 0. -1.
         -1   -1    0    0    0  501 -0.00000000000E+00 -0.00000000000E+00 -0.39000031691E+02  0.39000031691E+02  0.00000000000E+00 0. -1.
         25    1    1    2    0    0 -0.49056990806E+02  0.36007464318E+02  0.34172482270E+03  0.36725873752E+03  0.12000000000E+03 0.  0.
         25    1    1    2    0    0  0.49056990806E+02 -0.36007464318E+02  0.14628888825E+03  0.19875503681E+03  0.12000000000E+03 0.  0.
<mgrwt>
<rscale>  0 0.28673021E+03</rscale>
<asrwt>0</asrwt>
<pdfrwt beam="1">  1        1 0.81079032E-01 0.28673021E+03</pdfrwt>
<pdfrwt beam="2">  1       -1 0.60000053E-02 0.28673021E+03</pdfrwt>
<totfact> 0.56047584E+03</totfact>
</mgrwt>
</event>
<event>
 4    1  0.1774755E-004  0.2690159E+03  0.7818608E-02  0.1101844E+00
          1   -1    0    0  501    0  0.00000000000E+00  0.00000000000E+00  0.83936446698E+03  0.83936446698E+03  0.00000000000E+00 0.  1.
         -1   -1    0    0    0  501 -0.00000000000E+00 -0.00000000000E+00 -0.21554859484E+02  0.21554859484E+02  0.00000000000E+00 0.  1.
         25    1    1    2    0    0  0.40557882087E+02 -0.36123254901E+02  0.49611112178E+03  0.51329920758E+03  0.12000000000E+03 0.  0.
         25    1    1    2    0    0 -0.40557882087E+02  0.36123254901E+02  0.32169848572E+03  0.34762011889E+03  0.12000000000E+03 0.  0.
<mgrwt>
<rscale>  0 0.26901586E+03</rscale>
<asrwt>0</asrwt>
<pdfrwt beam="1">  1        1 0.12913297E+00 0.26901586E+03</pdfrwt>
<pdfrwt beam="2">  1       -1 0.33161329E-02 0.26901586E+03</pdfrwt>
<totfact> 0.69308807E+03</totfact>
</mgrwt>
</event>
<event>
 4    1  0.1774755E-004  0.2616035E+03  0.7818608E-02  0.1106184E+00
         -2   -1    0    0    0  501 -0.00000000000E+00  0.00000000000E+00  0.52162479296E+02  0.52162479296E+02  0.00000000000E+00 0. -1.
          2   -1    0    0  501    0  0.00000000000E+00 -0.00000000000E+00 -0.32799631427E+03  0.32799631427E+03  0.00000000000E+00 0. -1.
         25    1    1    2    0    0 -0.12608197105E+02 -0.10708231115E+02 -0.66201476418E+02  0.13804444331E+03  0.12000000000E+03 0.  0.
         25    1    1    2    0    0  0.12608197105E+02  0.10708231115E+02 -0.20963235856E+03  0.24211435026E+03  0.12000000000E+03 0.  0.
<mgrwt>
<rscale>  0 0.26160352E+03</rscale>
<asrwt>0</asrwt>
<pdfrwt beam="1">  1        2 0.50460972E-01 0.26160352E+03</pdfrwt>
<pdfrwt beam="2">  1       -2 0.80249968E-02 0.26160352E+03</pdfrwt>
<totfact> 0.92367385E+03</totfact>
</mgrwt>
</event>
<event>
 4    1  0.1774755E-004  0.3928907E+03  0.7818608E-02  0.1046270E+00
          2   -1    0    0  501    0  0.00000000000E+00  0.00000000000E+00  0.11141052408E+04  0.11141052408E+04  0.00000000000E+00 0. -1.
         -2   -1    0    0    0  501 -0.00000000000E+00 -0.00000000000E+00 -0.34638349876E+02  0.34638349876E+02  0.00000000000E+00 0. -1.
         25    1    1    2    0    0  0.25642128242E+02 -0.11228658814E+03  0.84533920613E+03  0.86154754369E+03  0.12000000000E+03 0.  0.
         25    1    1    2    0    0 -0.25642128242E+02  0.11228658814E+03  0.23412768477E+03  0.28719604696E+03  0.12000000000E+03 0.  0.
<mgrwt>
<rscale>  0 0.39289066E+03</rscale>
<asrwt>0</asrwt>
<pdfrwt beam="1">  1        2 0.17140078E+00 0.39289066E+03</pdfrwt>
<pdfrwt beam="2">  1       -2 0.53289778E-02 0.39289066E+03</pdfrwt>
<totfact> 0.39959649E+03</totfact>
</mgrwt>
</event>
<event>
 4    1  0.1774755E-004  0.2869069E+03  0.7818608E-02  0.1091975E+00
         -2   -1    0    0    0  501 -0.00000000000E+00  0.00000000000E+00  0.22929428212E+03  0.22929428212E+03  0.00000000000E+00 0.  1.
          2   -1    0    0  501    0  0.00000000000E+00 -0.00000000000E+00 -0.89748826067E+02  0.89748826067E+02  0.00000000000E+00 0.  1.
         25    1    1    2    0    0  0.58063308368E+02 -0.43817560486E+02  0.10290176130E+03  0.17401177795E+03  0.12000000000E+03 0.  0.
         25    1    1    2    0    0 -0.58063308368E+02  0.43817560486E+02  0.36643694750E+02  0.14503133024E+03  0.12000000000E+03 0.  0.
<mgrwt>
<rscale>  0 0.28690690E+03</rscale>
<asrwt>0</asrwt>
<pdfrwt beam="1">  1        2 0.13807512E-01 0.28690690E+03</pdfrwt>
<pdfrwt beam="2">  1       -2 0.35276043E-01 0.28690690E+03</pdfrwt>
<totfact> 0.32501553E+03</totfact>
</mgrwt>
</event>
<event>
 4    1  0.1774755E-004  0.3109445E+03  0.7818608E-02  0.1079894E+00
         -2   -1    0    0    0  501 -0.00000000000E+00  0.00000000000E+00  0.21705704337E+02  0.21705704337E+02  0.00000000000E+00 0. -1.
          2   -1    0    0  501    0  0.00000000000E+00 -0.00000000000E+00 -0.11136066578E+04  0.11136066578E+04  0.00000000000E+00 0. -1.
         25    1    1    2    0    0  0.26803881815E+02  0.83575769113E+02 -0.71199901031E+03  0.72735544815E+03  0.12000000000E+03 0.  0.
         25    1    1    2    0    0 -0.26803881815E+02 -0.83575769113E+02 -0.37990194317E+03  0.40795691401E+03  0.12000000000E+03 0.  0.
<mgrwt>
<rscale>  0 0.31094448E+03</rscale>
<asrwt>0</asrwt>
<pdfrwt beam="1">  1        2 0.17132409E+00 0.31094448E+03</pdfrwt>
<pdfrwt beam="2">  1       -2 0.33393393E-02 0.31094448E+03</pdfrwt>
<totfact> 0.81070616E+03</totfact>
</mgrwt>
</event>
<event>
 4    1  0.1774755E-004  0.7072321E+03  0.7818608E-02  0.9704944E-01
         -2   -1    0    0    0  501 -0.00000000000E+00  0.00000000000E+00  0.32456225113E+02  0.32456225113E+02  0.00000000000E+00 0. -1.
          2   -1    0    0  501    0  0.00000000000E+00 -0.00000000000E+00 -0.38527065898E+04  0.38527065898E+04  0.00000000000E+00 0. -1.
         25    1    1    2    0    0 -0.99076954185E+02  0.25634308732E+03 -0.29395664564E+04  0.29548230020E+04  0.12000000000E+03 0.  0.
         25    1    1    2    0    0  0.99076954185E+02 -0.25634308732E+03 -0.88068390829E+03  0.93033981297E+03  0.12000000000E+03 0.  0.
<mgrwt>
<rscale>  0 0.70723210E+03</rscale>
<asrwt>0</asrwt>
<pdfrwt beam="1">  1        2 0.59272354E+00 0.70723210E+03</pdfrwt>
<pdfrwt beam="2">  1       -2 0.49932700E-02 0.70723210E+03</pdfrwt>
<totfact> 0.10191629E+02</totfact>
</mgrwt>
</event>
<event>
 4    1  0.1774755E-004  0.3467046E+03  0.7818608E-02  0.1063976E+00
          2   -1    0    0  501    0  0.00000000000E+00  0.00000000000E+00  0.24162678117E+04  0.24162678117E+04  0.00000000000E+00 0. -1.
         -2   -1    0    0    0  501 -0.00000000000E+00 -0.00000000000E+00 -0.12436960629E+02  0.12436960629E+02  0.00000000000E+00 0. -1.
         25    1    1    2    0    0 -0.84461130427E+02 -0.21912010824E+02  0.57390378450E+03  0.59277261461E+03  0.12000000000E+03 0.  0.
         25    1    1    2    0    0  0.84461130427E+02  0.21912010824E+02  0.18299270666E+04  0.18359321577E+04  0.12000000000E+03 0.  0.
<mgrwt>
<rscale>  0 0.34670464E+03</rscale>
<asrwt>0</asrwt>
<pdfrwt beam="1">  1        2 0.37173314E+00 0.34670464E+03</pdfrwt>
<pdfrwt beam="2">  1       -2 0.19133805E-02 0.34670464E+03</pdfrwt>
<totfact> 0.36635548E+03</totfact>
</mgrwt>
</event>
<event>
 4    1  0.1774755E-004  0.3690977E+03  0.7818608E-02  0.1055039E+00
         -2   -1    0    0    0  501 -0.00000000000E+00  0.00000000000E+00  0.13949151951E+03  0.13949151951E+03  0.00000000000E+00 0. -1.
          2   -1    0    0  501    0  0.00000000000E+00 -0.00000000000E+00 -0.24416022764E+03  0.24416022764E+03  0.00000000000E+00 0. -1.
         25    1    1    2    0    0 -0.13273893074E+03  0.12183450828E+02 -0.97525370270E+02  0.20415498538E+03  0.12000000000E+03 0.  0.
         25    1    1    2    0    0  0.13273893074E+03 -0.12183450828E+02 -0.71433378604E+01  0.17949676176E+03  0.12000000000E+03 0.  0.
<mgrwt>
<rscale>  0 0.36909772E+03</rscale>
<asrwt>0</asrwt>
<pdfrwt beam="1">  1        2 0.37563112E-01 0.36909772E+03</pdfrwt>
<pdfrwt beam="2">  1       -2 0.21460234E-01 0.36909772E+03</pdfrwt>
<totfact> 0.25591909E+03</totfact>
</mgrwt>
</event>
<event>
 4    1  0.1774755E-004  0.2844913E+03  0.7818608E-02  0.1093261E+00
          2   -1    0    0  501    0  0.00000000000E+00  0.00000000000E+00  0.79406197644E+02  0.79406197644E+02  0.00000000000E+00 0. -1.
         -2   -1    0    0    0  501 -0.00000000000E+00 -0.00000000000E+00 -0.25481409929E+03  0.25481409929E+03  0.00000000000E+00 0. -1.
         25    1    1    2    0    0  0.39175383680E+02  0.65558791635E+02 -0.86442539840E+02  0.16644812568E+03  0.12000000000E+03 0.  0.
         25    1    1    2    0    0 -0.39175383680E+02 -0.65558791635E+02 -0.88965361807E+02  0.16777217126E+03  0.12000000000E+03 0.  0.
<mgrwt>
<rscale>  0 0.28449126E+03</rscale>
<asrwt>0</asrwt>
<pdfrwt beam="1">  1        2 0.12216338E-01 0.28449126E+03</pdfrwt>
<pdfrwt beam="2">  1       -2 0.39202169E-01 0.28449126E+03</pdfrwt>
<totfact> 0.30872112E+03</totfact>
</mgrwt>
</event>
<event>
 4    1  0.1774755E-004  0.2530609E+03  0.7818608E-02  0.1111386E+00
         -2   -1    0    0    0  501 -0.00000000000E+00  0.00000000000E+00  0.21970332414E+02  0.21970332414E+02  0.00000000000E+00 0. -1.
          2   -1    0    0  501    0  0.00000000000E+00 -0.00000000000E+00 -0.72870813410E+03  0.72870813410E+03  0.00000000000E+00 0. -1.
         25    1    1    2    0    0 -0.17459864086E+02  0.20519631655E+02 -0.26516878198E+03  0.29230187320E+03  0.12000000000E+03 0.  0.
         25    1    1    2    0    0  0.17459864086E+02 -0.20519631655E+02 -0.44156901971E+03  0.45837659332E+03  0.12000000000E+03 0.  0.
<mgrwt>
<rscale>  0 0.25306094E+03</rscale>
<asrwt>0</asrwt>
<pdfrwt beam="1">  1        2 0.11210894E+00 0.25306094E+03</pdfrwt>
<pdfrwt beam="2">  1       -2 0.33800512E-02 0.25306094E+03</pdfrwt>
<totfact> 0.14017021E+04</totfact>
</mgrwt>
</event>
<event>
 4    1  0.1774755E-004  0.2621596E+03  0.7818608E-02  0.1105853E+00
          2   -1    0    0  501    0  0.00000000000E+00  0.00000000000E+00  0.19344992495E+03  0.19344992495E+03  0.00000000000E+00 0.  1.
         -2   -1    0    0    0  501 -0.00000000000E+00 -0.00000000000E+00 -0.88818373089E+02  0.88818373089E+02  0.00000000000E+00 0.  1.
         25    1    1    2    0    0  0.27206640706E+02  0.27630450182E+02  0.90810994396E+02  0.15540360285E+03  0.12000000000E+03 0.  0.
         25    1    1    2    0    0 -0.27206640706E+02 -0.27630450182E+02  0.13820557462E+02  0.12686469518E+03  0.12000000000E+03 0.  0.
<mgrwt>
<rscale>  0 0.26215955E+03</rscale>
<asrwt>0</asrwt>
<pdfrwt beam="1">  1        2 0.29761527E-01 0.26215955E+03</pdfrwt>
<pdfrwt beam="2">  1       -2 0.13664365E-01 0.26215955E+03</pdfrwt>
<totfact> 0.69940305E+03</totfact>
</mgrwt>
</event>
<event>
 4    1  0.1774755E-004  0.3230200E+03  0.7818608E-02  0.1074268E+00
         -1   -1    0    0    0  501 -0.00000000000E+00  0.00000000000E+00  0.17548493179E+03  0.17548493179E+03  0.00000000000E+00 0.  1.
          1   -1    0    0  501    0  0.00000000000E+00 -0.00000000000E+00 -0.14864802223E+03  0.14864802223E+03  0.00000000000E+00 0.  1.
         25    1    1    2    0    0 -0.42474539661E+02 -0.90585541164E+02  0.54494329648E+02  0.16546739483E+03  0.12000000000E+03 0.  0.
         25    1    1    2    0    0  0.42474539661E+02  0.90585541164E+02 -0.27657420088E+02  0.15866555919E+03  0.12000000000E+03 0.  0.
<mgrwt>
<rscale>  0 0.32302005E+03</rscale>
<asrwt>0</asrwt>
<pdfrwt beam="1">  1        1 0.22868927E-01 0.32302005E+03</pdfrwt>
<pdfrwt beam="2">  1       -1 0.26997682E-01 0.32302005E+03</pdfrwt>
<totfact> 0.26280955E+03</totfact>
</mgrwt>
</event>
<event>
 4    1  0.1774755E-004  0.2725872E+03  0.7818608E-02  0.1099808E+00
         -2   -1    0    0    0  501 -0.00000000000E+00  0.00000000000E+00  0.26365132695E+02  0.26365132695E+02  0.00000000000E+00 0.  1.
          2   -1    0    0  501    0  0.00000000000E+00 -0.00000000000E+00 -0.70456462579E+03  0.70456462579E+03  0.00000000000E+00 0.  1.
         25    1    1    2    0    0 -0.72660803946E+01  0.17576100304E+02 -0.17349477024E+03  0.21180687082E+03  0.12000000000E+03 0.  0.
         25    1    1    2    0    0  0.72660803946E+01 -0.17576100304E+02 -0.50470472285E+03  0.51912288766E+03  0.12000000000E+03 0.  0.
<mgrwt>
<rscale>  0 0.27258716E+03</rscale>
<asrwt>0</asrwt>
<pdfrwt beam="1">  1        2 0.10839455E+00 0.27258716E+03</pdfrwt>
<pdfrwt beam="2">  1       -2 0.40561745E-02 0.27258716E+03</pdfrwt>
<totfact> 0.11147398E+04</totfact>
</mgrwt>
</event>
<event>
 4    1  0.1774755E-004  0.8468005E+03  0.7818608E-02  0.9494641E-01
          1   -1    0    0  501    0  0.00000000000E+00  0.00000000000E+00  0.30347461511E+04  0.30347461511E+04  0.00000000000E+00 0.  1.
         -1   -1    0    0    0  501 -0.00000000000E+00 -0.00000000000E+00 -0.59071747257E+02  0.59071747257E+02  0.00000000000E+00 0.  1.
         25    1    1    2    0    0 -0.32904478621E+03  0.72077765936E+02  0.23161683902E+04  0.23436086891E+04  0.12000000000E+03 0.  0.
         25    1    1    2    0    0  0.32904478621E+03 -0.72077765936E+02  0.65950601360E+03  0.75020920926E+03  0.12000000000E+03 0.  0.
<mgrwt>
<rscale>  0 0.84680047E+03</rscale>
<asrwt>0</asrwt>
<pdfrwt beam="1">  1        1 0.46688390E+00 0.84680047E+03</pdfrwt>
<pdfrwt beam="2">  1       -1 0.90879635E-02 0.84680047E+03</pdfrwt>
<totfact> 0.43284312E+01</totfact>
</mgrwt>
</event>
<event>
 4    1  0.1774755E-004  0.2689187E+03  0.7818608E-02  0.1101900E+00
          1   -1    0    0  501    0  0.00000000000E+00  0.00000000000E+00  0.14818125497E+04  0.14818125497E+04  0.00000000000E+00 0.  1.
         -1   -1    0    0    0  501 -0.00000000000E+00 -0.00000000000E+00 -0.12200816607E+02  0.12200816607E+02  0.00000000000E+00 0.  1.
         25    1    1    2    0    0 -0.26254920669E+02  0.45306849936E+02  0.90489273238E+03  0.91431553013E+03  0.12000000000E+03 0.  0.
         25    1    1    2    0    0  0.26254920669E+02 -0.45306849936E+02  0.56471900075E+03  0.57969783622E+03  0.12000000000E+03 0.  0.
<mgrwt>
<rscale>  0 0.26891875E+03</rscale>
<asrwt>0</asrwt>
<pdfrwt beam="1">  1        1 0.22797102E+00 0.26891875E+03</pdfrwt>
<pdfrwt beam="2">  1       -1 0.18770499E-02 0.26891875E+03</pdfrwt>
<totfact> 0.55346119E+03</totfact>
</mgrwt>
</event>
<event>
 4    1  0.1774755E-004  0.4003579E+03  0.7818608E-02  0.1043656E+00
         -2   -1    0    0    0  501 -0.00000000000E+00  0.00000000000E+00  0.58859507712E+03  0.58859507712E+03  0.00000000000E+00 0.  1.
          2   -1    0    0  501    0  0.00000000000E+00 -0.00000000000E+00 -0.68080103622E+02  0.68080103622E+02  0.00000000000E+00 0.  1.
         25    1    1    2    0    0  0.65516354251E+01  0.13191164802E+03  0.40903918682E+03  0.44626972020E+03  0.12000000000E+03 0.  0.
         25    1    1    2    0    0 -0.65516354251E+01 -0.13191164802E+03  0.11147578667E+03  0.21040546054E+03  0.12000000000E+03 0.  0.
<mgrwt>
<rscale>  0 0.40035791E+03</rscale>
<asrwt>0</asrwt>
<pdfrwt beam="1">  1        2 0.10473863E-01 0.40035791E+03</pdfrwt>
<pdfrwt beam="2">  1       -2 0.90553085E-01 0.40035791E+03</pdfrwt>
<totfact> 0.65604438E+02</totfact>
</mgrwt>
</event>
<event>
 4    1  0.1774755E-004  0.3253013E+03  0.7818608E-02  0.1073235E+00
          3   -1    0    0  501    0  0.00000000000E+00  0.00000000000E+00  0.44003950809E+02  0.44003950809E+02  0.00000000000E+00 0. -1.
         -3   -1    0    0    0  501 -0.00000000000E+00 -0.00000000000E+00 -0.60120146801E+03  0.60120146801E+03  0.00000000000E+00 0. -1.
         25    1    1    2    0    0 -0.36997706864E+02  0.24960139395E+02 -0.47756736007E+03  0.49443141311E+03  0.12000000000E+03 0.  0.
         25    1    1    2    0    0  0.36997706864E+02 -0.24960139395E+02 -0.79630157135E+02  0.15077400571E+03  0.12000000000E+03 0.  0.
<mgrwt>
<rscale>  0 0.32530134E+03</rscale>
<asrwt>0</asrwt>
<pdfrwt beam="1">  1        3 0.67698384E-02 0.32530134E+03</pdfrwt>
<pdfrwt beam="2">  1       -3 0.92492536E-01 0.32530134E+03</pdfrwt>
<totfact> 0.38909812E+02</totfact>
</mgrwt>
</event>
<event>
 4    1  0.1774755E-004  0.2638680E+03  0.7818608E-02  0.1104841E+00
         -1   -1    0    0    0  501 -0.00000000000E+00  0.00000000000E+00  0.23952761419E+02  0.23952761419E+02  0.00000000000E+00 0. -1.
          1   -1    0    0  501    0  0.00000000000E+00 -0.00000000000E+00 -0.72670436328E+03  0.72670436328E+03  0.00000000000E+00 0. -1.
         25    1    1    2    0    0  0.12565906375E+02 -0.43601307732E+02 -0.43894825258E+03  0.45731230519E+03  0.12000000000E+03 0.  0.
         25    1    1    2    0    0 -0.12565906375E+02  0.43601307732E+02 -0.26380334929E+03  0.29334481951E+03  0.12000000000E+03 0.  0.
<mgrwt>
<rscale>  0 0.26386797E+03</rscale>
<asrwt>0</asrwt>
<pdfrwt beam="1">  1        1 0.11180066E+00 0.26386797E+03</pdfrwt>
<pdfrwt beam="2">  1       -1 0.36850407E-02 0.26386797E+03</pdfrwt>
<totfact> 0.73802805E+03</totfact>
</mgrwt>
</event>
<event>
 4    1  0.1774755E-004  0.2688785E+03  0.7818608E-02  0.1101923E+00
         -2   -1    0    0    0  501 -0.00000000000E+00  0.00000000000E+00  0.90501233134E+01  0.90501233134E+01  0.00000000000E+00 0.  1.
          2   -1    0    0  501    0  0.00000000000E+00 -0.00000000000E+00 -0.19970903868E+04  0.19970903868E+04  0.00000000000E+00 0.  1.
         25    1    1    2    0    0  0.55733947624E+02 -0.15470537957E+02 -0.85883055699E+03  0.86910041772E+03  0.12000000000E+03 0.  0.
         25    1    1    2    0    0 -0.55733947624E+02  0.15470537957E+02 -0.11292097065E+04  0.11370400924E+04  0.12000000000E+03 0.  0.
<mgrwt>
<rscale>  0 0.26887852E+03</rscale>
<asrwt>0</asrwt>
<pdfrwt beam="1">  1        2 0.30724499E+00 0.26887852E+03</pdfrwt>
<pdfrwt beam="2">  1       -2 0.13923252E-02 0.26887852E+03</pdfrwt>
<totfact> 0.98061333E+03</totfact>
</mgrwt>
</event>
<event>
 4    1  0.1774755E-004  0.3674325E+03  0.7818608E-02  0.1055679E+00
         -1   -1    0    0    0  501 -0.00000000000E+00  0.00000000000E+00  0.48826501052E+02  0.48826501052E+02  0.00000000000E+00 0.  1.
          1   -1    0    0  501    0  0.00000000000E+00 -0.00000000000E+00 -0.69125704127E+03  0.69125704127E+03  0.00000000000E+00 0.  1.
         25    1    1    2    0    0  0.49587638933E+02 -0.20940369499E+02 -0.62845355137E+02  0.14576340992E+03  0.12000000000E+03 0.  0.
         25    1    1    2    0    0 -0.49587638933E+02  0.20940369499E+02 -0.57958518508E+03  0.59432013240E+03  0.12000000000E+03 0.  0.
<mgrwt>
<rscale>  0 0.36743251E+03</rscale>
<asrwt>0</asrwt>
<pdfrwt beam="1">  1        1 0.10634723E+00 0.36743251E+03</pdfrwt>
<pdfrwt beam="2">  1       -1 0.75117695E-02 0.36743251E+03</pdfrwt>
<totfact> 0.27323138E+03</totfact>
</mgrwt>
</event>
<event>
 4    1  0.1774755E-004  0.4383362E+03  0.7818608E-02  0.1031259E+00
         -2   -1    0    0    0  501 -0.00000000000E+00  0.00000000000E+00  0.63018707632E+02  0.63018707632E+02  0.00000000000E+00 0. -1.
          2   -1    0    0  501    0  0.00000000000E+00 -0.00000000000E+00 -0.76222859901E+03  0.76222859901E+03  0.00000000000E+00 0. -1.
         25    1    1    2    0    0  0.47050944483E+02 -0.17279419429E+03 -0.27517267260E+03  0.34955918627E+03  0.12000000000E+03 0.  0.
         25    1    1    2    0    0 -0.47050944483E+02  0.17279419429E+03 -0.42403721877E+03  0.47568812037E+03  0.12000000000E+03 0.  0.
<mgrwt>
<rscale>  0 0.43833622E+03</rscale>
<asrwt>0</asrwt>
<pdfrwt beam="1">  1        2 0.11726593E+00 0.43833622E+03</pdfrwt>
<pdfrwt beam="2">  1       -2 0.96951861E-02 0.43833622E+03</pdfrwt>
<totfact> 0.26430956E+03</totfact>
</mgrwt>
</event>
<event>
 4    1  0.1774755E-004  0.2582065E+03  0.7818608E-02  0.1108226E+00
         -2   -1    0    0    0  501 -0.00000000000E+00  0.00000000000E+00  0.19382106094E+02  0.19382106094E+02  0.00000000000E+00 0.  1.
          2   -1    0    0  501    0  0.00000000000E+00 -0.00000000000E+00 -0.85995034889E+03  0.85995034889E+03  0.00000000000E+00 0.  1.
         25    1    1    2    0    0  0.87834681062E+01  0.42578767778E+02 -0.35411245197E+03  0.37641164889E+03  0.12000000000E+03 0.  0.
         25    1    1    2    0    0 -0.87834681062E+01 -0.42578767778E+02 -0.48645579083E+03  0.50292080610E+03  0.12000000000E+03 0.  0.
<mgrwt>
<rscale>  0 0.25820650E+03</rscale>
<asrwt>0</asrwt>
<pdfrwt beam="1">  1        2 0.13230005E+00 0.25820650E+03</pdfrwt>
<pdfrwt beam="2">  1       -2 0.29818626E-02 0.25820650E+03</pdfrwt>
<totfact> 0.13710524E+04</totfact>
</mgrwt>
</event>
<event>
 4    1  0.1774755E-004  0.2701596E+03  0.7818608E-02  0.1101188E+00
          2   -1    0    0  501    0  0.00000000000E+00  0.00000000000E+00  0.13279788065E+04  0.13279788065E+04  0.00000000000E+00 0.  1.
         -2   -1    0    0    0  501 -0.00000000000E+00 -0.00000000000E+00 -0.13740095685E+02  0.13740095685E+02  0.00000000000E+00 0.  1.
         25    1    1    2    0    0 -0.80785061069E+01  0.24761977579E+02  0.93665882859E+03  0.94467358329E+03  0.12000000000E+03 0.  0.
         25    1    1    2    0    0  0.80785061069E+01 -0.24761977579E+02  0.37757988224E+03  0.39704531891E+03  0.12000000000E+03 0.  0.
<mgrwt>
<rscale>  0 0.27015963E+03</rscale>
<asrwt>0</asrwt>
<pdfrwt beam="1">  1        2 0.20430433E+00 0.27015963E+03</pdfrwt>
<pdfrwt beam="2">  1       -2 0.21138619E-02 0.27015963E+03</pdfrwt>
<totfact> 0.12046017E+04</totfact>
</mgrwt>
</event>
<event>
 4    1  0.1774755E-004  0.2746473E+03  0.7818608E-02  0.1098649E+00
          2   -1    0    0  501    0  0.00000000000E+00  0.00000000000E+00  0.20470906836E+03  0.20470906836E+03  0.00000000000E+00 0.  1.
         -2   -1    0    0    0  501 -0.00000000000E+00 -0.00000000000E+00 -0.92119937096E+02  0.92119937096E+02  0.00000000000E+00 0.  1.
         25    1    1    2    0    0  0.22479907129E+02  0.59886139302E+01 -0.11342429680E+02  0.12275935986E+03  0.12000000000E+03 0.  0.
         25    1    1    2    0    0 -0.22479907129E+02 -0.59886139302E+01  0.12393156094E+03  0.17406964560E+03  0.12000000000E+03 0.  0.
<mgrwt>
<rscale>  0 0.27464731E+03</rscale>
<asrwt>0</asrwt>
<pdfrwt beam="1">  1        2 0.31493703E-01 0.27464731E+03</pdfrwt>
<pdfrwt beam="2">  1       -2 0.14172298E-01 0.27464731E+03</pdfrwt>
<totfact> 0.62033985E+03</totfact>
</mgrwt>
</event>
<event>
 4    1  0.1774755E-004  0.2925485E+03  0.7818608E-02  0.1089026E+00
         -4   -1    0    0    0  501 -0.00000000000E+00  0.00000000000E+00  0.11070002793E+03  0.11070002793E+03  0.00000000000E+00 0.  1.
          4   -1    0    0  501    0  0.00000000000E+00 -0.00000000000E+00 -0.19328044968E+03  0.19328044968E+03  0.00000000000E+00 0.  1.
         25    1    1    2    0    0 -0.54412619267E+02 -0.22827379746E+02  0.20308136813E+02  0.13525621177E+03  0.12000000000E+03 0.  0.
         25    1    1    2    0    0  0.54412619267E+02  0.22827379746E+02 -0.10288855856E+03  0.16872426584E+03  0.12000000000E+03 0.  0.
<mgrwt>
<rscale>  0 0.29254847E+03</rscale>
<asrwt>0</asrwt>
<pdfrwt beam="1">  1        4 0.29735454E-01 0.29254847E+03</pdfrwt>
<pdfrwt beam="2">  1       -4 0.17030774E-01 0.29254847E+03</pdfrwt>
<totfact> 0.61523468E+02</totfact>
</mgrwt>
</event>
<event>
 4    1  0.1774755E-004  0.3162724E+03  0.7818608E-02  0.1077378E+00
         -1   -1    0    0    0  501 -0.00000000000E+00  0.00000000000E+00  0.41462059563E+02  0.41462059563E+02  0.00000000000E+00 0. -1.
          1   -1    0    0  501    0  0.00000000000E+00 -0.00000000000E+00 -0.60313100242E+03  0.60313100242E+03  0.00000000000E+00 0. -1.
         25    1    1    2    0    0 -0.18704708472E+02 -0.39563768879E+02 -0.90822212874E+02  0.15672853052E+03  0.12000000000E+03 0.  0.
         25    1    1    2    0    0  0.18704708472E+02  0.39563768879E+02 -0.47084672998E+03  0.48786453147E+03  0.12000000000E+03 0.  0.
<mgrwt>
<rscale>  0 0.31627237E+03</rscale>
<asrwt>0</asrwt>
<pdfrwt beam="1">  1        1 0.92789386E-01 0.31627237E+03</pdfrwt>
<pdfrwt beam="2">  1       -1 0.63787783E-02 0.31627237E+03</pdfrwt>
<totfact> 0.42552024E+03</totfact>
</mgrwt>
</event>
<event>
 4    1  0.1774755E-004  0.2989910E+03  0.7818608E-02  0.1085746E+00
          1   -1    0    0  501    0  0.00000000000E+00  0.00000000000E+00  0.23325262149E+03  0.23325262149E+03  0.00000000000E+00 0.  1.
         -1   -1    0    0    0  501 -0.00000000000E+00 -0.00000000000E+00 -0.95814150018E+02  0.95814150018E+02  0.00000000000E+00 0.  1.
         25    1    1    2    0    0  0.49882295830E+02 -0.61395891441E+02  0.23458273815E+02  0.14562963137E+03  0.12000000000E+03 0.  0.
         25    1    1    2    0    0 -0.49882295830E+02  0.61395891441E+02  0.11398019765E+03  0.18343714013E+03  0.12000000000E+03 0.  0.
<mgrwt>
<rscale>  0 0.29899098E+03</rscale>
<asrwt>0</asrwt>
<pdfrwt beam="1">  1        1 0.35885019E-01 0.29899098E+03</pdfrwt>
<pdfrwt beam="2">  1       -1 0.14740638E-01 0.29899098E+03</pdfrwt>
<totfact> 0.39759298E+03</totfact>
</mgrwt>
</event>
<event>
 4    1  0.1774755E-004  0.6942924E+03  0.7818608E-02  0.9727043E-01
         -1   -1    0    0    0  501 -0.00000000000E+00  0.00000000000E+00  0.20804947246E+04  0.20804947246E+04  0.00000000000E+00 0.  1.
          1   -1    0    0  501    0  0.00000000000E+00 -0.00000000000E+00 -0.57923950137E+02  0.57923950137E+02  0.00000000000E+00 0.  1.
         25    1    1    2    0    0  0.11620164544E+03 -0.77661496056E+02  0.10503132831E+03  0.21205119735E+03  0.12000000000E+03 0.  0.
         25    1    1    2    0    0 -0.11620164544E+03  0.77661496056E+02  0.19175394462E+04  0.19263674774E+04  0.12000000000E+03 0.  0.
<mgrwt>
<rscale>  0 0.69429237E+03</rscale>
<asrwt>0</asrwt>
<pdfrwt beam="1">  1        1 0.89113786E-02 0.69429237E+03</pdfrwt>
<pdfrwt beam="2">  1       -1 0.32007605E+00 0.69429237E+03</pdfrwt>
<totfact> 0.20257582E+01</totfact>
</mgrwt>
</event>
<event>
 4    1  0.1774755E-004  0.2602017E+03  0.7818608E-02  0.1107022E+00
         -1   -1    0    0    0  501 -0.00000000000E+00  0.00000000000E+00  0.17541901053E+03  0.17541901053E+03  0.00000000000E+00 0. -1.
          1   -1    0    0  501    0  0.00000000000E+00 -0.00000000000E+00 -0.96490285106E+02  0.96490285106E+02  0.00000000000E+00 0. -1.
         25    1    1    2    0    0  0.28856948366E+02  0.37554688210E+02  0.57048616985E+02  0.14105893370E+03  0.12000000000E+03 0.  0.
         25    1    1    2    0    0 -0.28856948366E+02 -0.37554688210E+02  0.21880108443E+02  0.13085036194E+03  0.12000000000E+03 0.  0.
<mgrwt>
<rscale>  0 0.26020169E+03</rscale>
<asrwt>0</asrwt>
<pdfrwt beam="1">  1        1 0.14844659E-01 0.26020169E+03</pdfrwt>
<pdfrwt beam="2">  1       -1 0.26987540E-01 0.26020169E+03</pdfrwt>
<totfact> 0.45822825E+03</totfact>
</mgrwt>
</event>
<event>
 4    1  0.1774755E-004  0.3264401E+03  0.7818608E-02  0.1072723E+00
          1   -1    0    0  501    0  0.00000000000E+00  0.00000000000E+00  0.68056240350E+03  0.68056240350E+03  0.00000000000E+00 0. -1.
         -1   -1    0    0    0  501 -0.00000000000E+00 -0.00000000000E+00 -0.39145239335E+02  0.39145239335E+02  0.00000000000E+00 0. -1.
         25    1    1    2    0    0  0.22259910717E+02 -0.10311426774E+03  0.24716478180E+03  0.29431018535E+03  0.12000000000E+03 0.  0.
         25    1    1    2    0    0 -0.22259910717E+02  0.10311426774E+03  0.39425238236E+03  0.42539745748E+03  0.12000000000E+03 0.  0.
<mgrwt>
<rscale>  0 0.32644006E+03</rscale>
<asrwt>0</asrwt>
<pdfrwt beam="1">  1        1 0.10470190E+00 0.32644006E+03</pdfrwt>
<pdfrwt beam="2">  1       -1 0.60223450E-02 0.32644006E+03</pdfrwt>
<totfact> 0.39108234E+03</totfact>
</mgrwt>
</event>
<event>
 4    1  0.1774755E-004  0.4025187E+03  0.7818608E-02  0.1042911E+00
         -1   -1    0    0    0  501 -0.00000000000E+00  0.00000000000E+00  0.78821531299E+02  0.78821531299E+02  0.00000000000E+00 0.  1.
          1   -1    0    0  501    0  0.00000000000E+00 -0.00000000000E+00 -0.51388660474E+03  0.51388660474E+03  0.00000000000E+00 0.  1.
         25    1    1    2    0    0 -0.14783998460E+03  0.32742974033E+02 -0.30052405924E+03  0.35727226814E+03  0.12000000000E+03 0.  0.
         25    1    1    2    0    0  0.14783998460E+03 -0.32742974033E+02 -0.13454101420E+03  0.23543586790E+03  0.12000000000E+03 0.  0.
<mgrwt>
<rscale>  0 0.40251872E+03</rscale>
<asrwt>0</asrwt>
<pdfrwt beam="1">  1        1 0.79059479E-01 0.40251872E+03</pdfrwt>
<pdfrwt beam="2">  1       -1 0.12126389E-01 0.40251872E+03</pdfrwt>
<totfact> 0.19690189E+03</totfact>
</mgrwt>
</event>
<event>
 4    1  0.1774755E-004  0.5963925E+03  0.7818608E-02  0.9912919E-01
          1   -1    0    0  501    0  0.00000000000E+00  0.00000000000E+00  0.81069683940E+03  0.81069683940E+03  0.00000000000E+00 0. -1.
         -1   -1    0    0    0  501 -0.00000000000E+00 -0.00000000000E+00 -0.10968467245E+03  0.10968467245E+03  0.00000000000E+00 0. -1.
         25    1    1    2    0    0 -0.24173184115E+03 -0.32635861689E+02  0.53965082805E+03  0.60425358808E+03  0.12000000000E+03 0.  0.
         25    1    1    2    0    0  0.24173184115E+03  0.32635861689E+02  0.16136133890E+03  0.31612792377E+03  0.12000000000E+03 0.  0.
<mgrwt>
<rscale>  0 0.59639255E+03</rscale>
<asrwt>0</asrwt>
<pdfrwt beam="1">  1        1 0.12472259E+00 0.59639255E+03</pdfrwt>
<pdfrwt beam="2">  1       -1 0.16874565E-01 0.59639255E+03</pdfrwt>
<totfact> 0.59357674E+02</totfact>
</mgrwt>
</event>
<event>
 4    1  0.1774755E-004  0.2707076E+03  0.7818608E-02  0.1100875E+00
         -1   -1    0    0    0  501 -0.00000000000E+00  0.00000000000E+00  0.47373997356E+02  0.47373997356E+02  0.00000000000E+00 0.  1.
          1   -1    0    0  501    0  0.00000000000E+00 -0.00000000000E+00 -0.38672372567E+03  0.38672372567E+03  0.00000000000E+00 0.  1.
         25    1    1    2    0    0 -0.20949527814E+02  0.58680647807E+02 -0.15974470369E+03  0.20928609963E+03  0.12000000000E+03 0.  0.
         25    1    1    2    0    0  0.20949527814E+02 -0.58680647807E+02 -0.17960502463E+03  0.22481162340E+03  0.12000000000E+03 0.  0.
<mgrwt>
<rscale>  0 0.27070758E+03</rscale>
<asrwt>0</asrwt>
<pdfrwt beam="1">  1        1 0.59495959E-01 0.27070758E+03</pdfrwt>
<pdfrwt beam="2">  1       -1 0.72883071E-02 0.27070758E+03</pdfrwt>
<totfact> 0.62450861E+03</totfact>
</mgrwt>
</event>
<event>
 4    1  0.1774755E-004  0.2456682E+03  0.7818608E-02  0.1116073E+00
         -1   -1    0    0    0  501 -0.00000000000E+00  0.00000000000E+00  0.51265439221E+03  0.51265439221E+03  0.00000000000E+00 0.  1.
          1   -1    0    0  501    0  0.00000000000E+00 -0.00000000000E+00 -0.29431546660E+02  0.29431546660E+02  0.00000000000E+00 0.  1.
         25    1    1    2    0    0 -0.34218825765E+01 -0.10068550627E+02  0.18869371577E+03  0.22387139916E+03  0.12000000000E+03 0.  0.
         25    1    1    2    0    0  0.34218825765E+01  0.10068550627E+02  0.29452912978E+03  0.31821453971E+03  0.12000000000E+03 0.  0.
<mgrwt>
<rscale>  0 0.24566816E+03</rscale>
<asrwt>0</asrwt>
<pdfrwt beam="1">  1        1 0.45279306E-02 0.24566816E+03</pdfrwt>
<pdfrwt beam="2">  1       -1 0.78869900E-01 0.24566816E+03</pdfrwt>
<totfact> 0.31894376E+03</totfact>
</mgrwt>
</event>
<event>
 4    1  0.1774755E-004  0.2928461E+03  0.7818608E-02  0.1088872E+00
         -1   -1    0    0    0  501 -0.00000000000E+00  0.00000000000E+00  0.44429091597E+03  0.44429091597E+03  0.00000000000E+00 0. -1.
          1   -1    0    0  501    0  0.00000000000E+00 -0.00000000000E+00 -0.48256001200E+02  0.48256001200E+02  0.00000000000E+00 0. -1.
         25    1    1    2    0    0  0.55623972863E+02 -0.90738802925E+01  0.30255920756E+03  0.33033079744E+03  0.12000000000E+03 0.  0.
         25    1    1    2    0    0 -0.55623972863E+02  0.90738802925E+01  0.93475707212E+02  0.16221611973E+03  0.12000000000E+03 0.  0.
<mgrwt>
<rscale>  0 0.29284605E+03</rscale>
<asrwt>0</asrwt>
<pdfrwt beam="1">  1        1 0.74240005E-02 0.29284605E+03</pdfrwt>
<pdfrwt beam="2">  1       -1 0.68352446E-01 0.29284605E+03</pdfrwt>
<totfact> 0.21657654E+03</totfact>
</mgrwt>
</event>
<event>
 4    1  0.1774755E-004  0.2485583E+03  0.7818608E-02  0.1114219E+00
          1   -1    0    0  501    0  0.00000000000E+00  0.00000000000E+00  0.12044213800E+04  0.12044213800E+04  0.00000000000E+00 0. -1.
         -1   -1    0    0    0  501 -0.00000000000E+00 -0.00000000000E+00 -0.12823835096E+02  0.12823835096E+02  0.00000000000E+00 0. -1.
         25    1    1    2    0    0 -0.16190837551E+02  0.14482942348E+02  0.47853074661E+03  0.49382544922E+03  0.12000000000E+03 0.  0.
         25    1    1    2    0    0  0.16190837551E+02 -0.14482942348E+02  0.71306679828E+03  0.72341976586E+03  0.12000000000E+03 0.  0.
<mgrwt>
<rscale>  0 0.24855825E+03</rscale>
<asrwt>0</asrwt>
<pdfrwt beam="1">  1        1 0.18529551E+00 0.24855825E+03</pdfrwt>
<pdfrwt beam="2">  1       -1 0.19728987E-02 0.24855825E+03</pdfrwt>
<totfact> 0.79245727E+03</totfact>
</mgrwt>
</event>
<event>
 4    1  0.1774755E-004  0.2950768E+03  0.7818608E-02  0.1087728E+00
          4   -1    0    0  501    0  0.00000000000E+00  0.00000000000E+00  0.66939068752E+02  0.66939068752E+02  0.00000000000E+00 0.  1.
         -4   -1    0    0    0  501 -0.00000000000E+00 -0.00000000000E+00 -0.32518489988E+03  0.32518489988E+03  0.00000000000E+00 0.  1.
         25    1    1    2    0    0  0.91616046977E+01 -0.30013841565E+02 -0.23529107514E+03  0.26598243500E+03  0.12000000000E+03 0.  0.
         25    1    1    2    0    0 -0.91616046977E+01  0.30013841565E+02 -0.22954755991E+02  0.12614153364E+03  0.12000000000E+03 0.  0.
<mgrwt>
<rscale>  0 0.29507677E+03</rscale>
<asrwt>0</asrwt>
<pdfrwt beam="1">  1        4 0.10298318E-01 0.29507677E+03</pdfrwt>
<pdfrwt beam="2">  1       -4 0.50028446E-01 0.29507677E+03</pdfrwt>
<totfact> 0.52865415E+02</totfact>
</mgrwt>
</event>
<event>
 4    1  0.1774755E-004  0.2495354E+03  0.7818608E-02  0.1113599E+00
          2   -1    0    0  501    0  0.00000000000E+00  0.00000000000E+00  0.10741125914E+04  0.10741125914E+04  0.00000000000E+00 0.  1.
         -2   -1    0    0    0  501 -0.00000000000E+00 -0.00000000000E+00 -0.14492877921E+02  0.14492877921E+02  0.00000000000E+00 0.  1.
         25    1    1    2    0    0 -0.29912838505E+02 -0.13229334010E+02  0.48680198885E+03  0.50244001586E+03  0.12000000000E+03 0.  0.
         25    1    1    2    0    0  0.29912838505E+02  0.13229334010E+02  0.57281772461E+03  0.58616545344E+03  0.12000000000E+03 0.  0.
<mgrwt>
<rscale>  0 0.24953543E+03</rscale>
<asrwt>0</asrwt>
<pdfrwt beam="1">  1        2 0.16524803E+00 0.24953543E+03</pdfrwt>
<pdfrwt beam="2">  1       -2 0.22296744E-02 0.24953543E+03</pdfrwt>
<totfact> 0.15482328E+04</totfact>
</mgrwt>
</event>
<event>
 4    1  0.1774755E-004  0.2944946E+03  0.7818608E-02  0.1088026E+00
         -2   -1    0    0    0  501 -0.00000000000E+00  0.00000000000E+00  0.79618038122E+02  0.79618038122E+02  0.00000000000E+00 0.  1.
          2   -1    0    0  501    0  0.00000000000E+00 -0.00000000000E+00 -0.27232225512E+03  0.27232225512E+03  0.00000000000E+00 0.  1.
         25    1    1    2    0    0 -0.54550414589E+02 -0.15596621239E+01 -0.17475043728E+03  0.21889699771E+03  0.12000000000E+03 0.  0.
         25    1    1    2    0    0  0.54550414589E+02  0.15596621239E+01 -0.17953779712E+02  0.13304329552E+03  0.12000000000E+03 0.  0.
<mgrwt>
<rscale>  0 0.29449458E+03</rscale>
<asrwt>0</asrwt>
<pdfrwt beam="1">  1        2 0.41895732E-01 0.29449458E+03</pdfrwt>
<pdfrwt beam="2">  1       -2 0.12248929E-01 0.29449458E+03</pdfrwt>
<totfact> 0.57870815E+03</totfact>
</mgrwt>
</event>
<event>
 4    1  0.1774755E-004  0.2646936E+03  0.7818608E-02  0.1104356E+00
         -3   -1    0    0    0  501 -0.00000000000E+00  0.00000000000E+00  0.12274376221E+02  0.12274376221E+02  0.00000000000E+00 0.  1.
          3   -1    0    0  501    0  0.00000000000E+00 -0.00000000000E+00 -0.14270112375E+04  0.14270112375E+04  0.00000000000E+00 0.  1.
         25    1    1    2    0    0  0.16580439710E+02  0.40493938748E+02 -0.89580950734E+03  0.90486979367E+03  0.12000000000E+03 0.  0.
         25    1    1    2    0    0 -0.16580439710E+02 -0.40493938748E+02 -0.51892735398E+03  0.53441582009E+03  0.12000000000E+03 0.  0.
<mgrwt>
<rscale>  0 0.26469358E+03</rscale>
<asrwt>0</asrwt>
<pdfrwt beam="1">  1        3 0.21954008E+00 0.26469358E+03</pdfrwt>
<pdfrwt beam="2">  1       -3 0.18883665E-02 0.26469358E+03</pdfrwt>
<totfact> 0.32301241E+02</totfact>
</mgrwt>
</event>
<event>
 4    1  0.1774755E-004  0.3730776E+03  0.7818608E-02  0.1053522E+00
         -2   -1    0    0    0  501 -0.00000000000E+00  0.00000000000E+00  0.16278734102E+02  0.16278734102E+02  0.00000000000E+00 0. -1.
          2   -1    0    0  501    0  0.00000000000E+00 -0.00000000000E+00 -0.21375569594E+04  0.21375569594E+04  0.00000000000E+00 0. -1.
         25    1    1    2    0    0  0.13096092137E+03  0.42678078275E+02 -0.84274236511E+03  0.86231483534E+03  0.12000000000E+03 0.  0.
         25    1    1    2    0    0 -0.13096092137E+03 -0.42678078275E+02 -0.12785358602E+04  0.12915208582E+04  0.12000000000E+03 0.  0.
<mgrwt>
<rscale>  0 0.37307759E+03</rscale>
<asrwt>0</asrwt>
<pdfrwt beam="1">  1        2 0.32885480E+00 0.37307759E+03</pdfrwt>
<pdfrwt beam="2">  1       -2 0.25044215E-02 0.37307759E+03</pdfrwt>
<totfact> 0.34700527E+03</totfact>
</mgrwt>
</event>
<event>
 4    1  0.1774755E-004  0.3216514E+03  0.7818608E-02  0.1074892E+00
         -2   -1    0    0    0  501 -0.00000000000E+00  0.00000000000E+00  0.15417089732E+03  0.15417089732E+03  0.00000000000E+00 0.  1.
          2   -1    0    0  501    0  0.00000000000E+00 -0.00000000000E+00 -0.16776770936E+03  0.16776770936E+03  0.00000000000E+00 0.  1.
         25    1    1    2    0    0 -0.97105990342E+02 -0.37457912886E+02 -0.31965039400E+02  0.16203219539E+03  0.12000000000E+03 0.  0.
         25    1    1    2    0    0  0.97105990342E+02  0.37457912886E+02  0.18368227361E+02  0.15990641130E+03  0.12000000000E+03 0.  0.
<mgrwt>
<rscale>  0 0.32165135E+03</rscale>
<asrwt>0</asrwt>
<pdfrwt beam="1">  1        2 0.25810417E-01 0.32165135E+03</pdfrwt>
<pdfrwt beam="2">  1       -2 0.23718600E-01 0.32165135E+03</pdfrwt>
<totfact> 0.32421296E+03</totfact>
</mgrwt>
</event>
<event>
 4    1  0.1774755E-004  0.2575195E+03  0.7818608E-02  0.1108643E+00
         -2   -1    0    0    0  501 -0.00000000000E+00  0.00000000000E+00  0.37848914441E+02  0.37848914441E+02  0.00000000000E+00 0. -1.
          2   -1    0    0  501    0  0.00000000000E+00 -0.00000000000E+00 -0.43803306939E+03  0.43803306939E+03  0.00000000000E+00 0. -1.
         25    1    1    2    0    0  0.22512054214E+02 -0.14871622679E+01 -0.12457299714E+03  0.17443461770E+03  0.12000000000E+03 0.  0.
         25    1    1    2    0    0 -0.22512054214E+02  0.14871622679E+01 -0.27561115781E+03  0.30144736613E+03  0.12000000000E+03 0.  0.
<mgrwt>
<rscale>  0 0.25751952E+03</rscale>
<asrwt>0</asrwt>
<pdfrwt beam="1">  1        2 0.67389706E-01 0.25751952E+03</pdfrwt>
<pdfrwt beam="2">  1       -2 0.58229097E-02 0.25751952E+03</pdfrwt>
<totfact> 0.11076002E+04</totfact>
</mgrwt>
</event>
<event>
 4    1  0.1774755E-004  0.3376704E+03  0.7818608E-02  0.1067792E+00
          1   -1    0    0  501    0  0.00000000000E+00  0.00000000000E+00  0.17126468023E+02  0.17126468023E+02  0.00000000000E+00 0.  1.
         -1   -1    0    0    0  501 -0.00000000000E+00 -0.00000000000E+00 -0.16644022782E+04  0.16644022782E+04  0.00000000000E+00 0.  1.
         25    1    1    2    0    0  0.76886992851E+02  0.81227362658E+02 -0.62470543050E+03  0.64588417616E+03  0.12000000000E+03 0.  0.
         25    1    1    2    0    0 -0.76886992851E+02 -0.81227362658E+02 -0.10225703797E+04  0.10356445701E+04  0.12000000000E+03 0.  0.
<mgrwt>
<rscale>  0 0.33767045E+03</rscale>
<asrwt>0</asrwt>
<pdfrwt beam="1">  1        1 0.26348397E-02 0.33767045E+03</pdfrwt>
<pdfrwt beam="2">  1       -1 0.25606203E+00 0.33767045E+03</pdfrwt>
<totfact> 0.29674232E+02</totfact>
</mgrwt>
</event>
<event>
 4    1  0.1774755E-004  0.2583757E+03  0.7818608E-02  0.1108123E+00
          2   -1    0    0  501    0  0.00000000000E+00  0.00000000000E+00  0.67113965055E+03  0.67113965055E+03  0.00000000000E+00 0.  1.
         -2   -1    0    0    0  501 -0.00000000000E+00 -0.00000000000E+00 -0.24867402969E+02  0.24867402969E+02  0.00000000000E+00 0.  1.
         25    1    1    2    0    0  0.99706052124E+01  0.11469512245E+02  0.20091638038E+03  0.23451727993E+03  0.12000000000E+03 0.  0.
         25    1    1    2    0    0 -0.99706052124E+01 -0.11469512245E+02  0.44535586720E+03  0.46148977359E+03  0.12000000000E+03 0.  0.
<mgrwt>
<rscale>  0 0.25837570E+03</rscale>
<asrwt>0</asrwt>
<pdfrwt beam="1">  1        2 0.10325224E+00 0.25837570E+03</pdfrwt>
<pdfrwt beam="2">  1       -2 0.38257548E-02 0.25837570E+03</pdfrwt>
<totfact> 0.12877948E+04</totfact>
</mgrwt>
</event>
<event>
 4    1  0.1774755E-004  0.3160529E+03  0.7818608E-02  0.1077480E+00
          2   -1    0    0  501    0  0.00000000000E+00  0.00000000000E+00  0.13135589675E+03  0.13135589675E+03  0.00000000000E+00 0.  1.
         -2   -1    0    0    0  501 -0.00000000000E+00 -0.00000000000E+00 -0.19011225825E+03  0.19011225825E+03  0.00000000000E+00 0.  1.
         25    1    1    2    0    0  0.15941521203E+02  0.35470025124E+02  0.67437317169E+02  0.14303861901E+03  0.12000000000E+03 0.  0.
         25    1    1    2    0    0 -0.15941521203E+02 -0.35470025124E+02 -0.12619367867E+03  0.17842953600E+03  0.12000000000E+03 0.  0.
<mgrwt>
<rscale>  0 0.31605295E+03</rscale>
<asrwt>0</asrwt>
<pdfrwt beam="1">  1        2 0.20208599E-01 0.31605295E+03</pdfrwt>
<pdfrwt beam="2">  1       -2 0.29248040E-01 0.31605295E+03</pdfrwt>
<totfact> 0.29420156E+03</totfact>
</mgrwt>
</event>
<event>
 4    1  0.1774755E-004  0.2506929E+03  0.7818608E-02  0.1112868E+00
         -2   -1    0    0    0  501 -0.00000000000E+00  0.00000000000E+00  0.61333229142E+02  0.61333229142E+02  0.00000000000E+00 0.  1.
          2   -1    0    0  501    0  0.00000000000E+00 -0.00000000000E+00 -0.25616994463E+03  0.25616994463E+03  0.00000000000E+00 0.  1.
         25    1    1    2    0    0  0.19129745154E+02  0.30510900411E+02 -0.92534890786E+02  0.15575483365E+03  0.12000000000E+03 0.  0.
         25    1    1    2    0    0 -0.19129745154E+02 -0.30510900411E+02 -0.10230182470E+03  0.16174834012E+03  0.12000000000E+03 0.  0.
<mgrwt>
<rscale>  0 0.25069288E+03</rscale>
<asrwt>0</asrwt>
<pdfrwt beam="1">  1        2 0.39410760E-01 0.25069288E+03</pdfrwt>
<pdfrwt beam="2">  1       -2 0.94358817E-02 0.25069288E+03</pdfrwt>
<totfact> 0.93236829E+03</totfact>
</mgrwt>
</event>
<event>
 4    1  0.1774755E-004  0.9548217E+03  0.7818608E-02  0.9359532E-01
         -2   -1    0    0    0  501 -0.00000000000E+00  0.00000000000E+00  0.13531912583E+03  0.13531912583E+03  0.00000000000E+00 0.  1.
          2   -1    0    0  501    0  0.00000000000E+00 -0.00000000000E+00 -0.16843229298E+04  0.16843229298E+04  0.00000000000E+00 0.  1.
         25    1    1    2    0    0  0.16647342373E+03 -0.18635757284E+03 -0.15152407420E+04  0.15403886042E+04  0.12000000000E+03 0.  0.
         25    1    1    2    0    0 -0.16647342373E+03  0.18635757284E+03 -0.33763061947E+02  0.27925345140E+03  0.12000000000E+03 0.  0.
<mgrwt>
<rscale>  0 0.95482167E+03</rscale>
<asrwt>0</asrwt>
<pdfrwt beam="1">  1        2 0.25912662E+00 0.95482167E+03</pdfrwt>
<pdfrwt beam="2">  1       -2 0.20818326E-01 0.95482167E+03</pdfrwt>
<totfact> 0.19954210E+02</totfact>
</mgrwt>
</event>
<event>
 4    1  0.1774755E-004  0.2431240E+03  0.7818608E-02  0.1117729E+00
          2   -1    0    0  501    0  0.00000000000E+00  0.00000000000E+00  0.91166478945E+03  0.91166478945E+03  0.00000000000E+00 0.  1.
         -2   -1    0    0    0  501 -0.00000000000E+00 -0.00000000000E+00 -0.16209157428E+02  0.16209157428E+02  0.00000000000E+00 0.  1.
         25    1    1    2    0    0 -0.22528711728E+01  0.81288708497E+01  0.51450657187E+03  0.52838259478E+03  0.12000000000E+03 0.  0.
         25    1    1    2    0    0  0.22528711728E+01 -0.81288708497E+01  0.38094906015E+03  0.39949135209E+03  0.12000000000E+03 0.  0.
<mgrwt>
<rscale>  0 0.24312399E+03</rscale>
<asrwt>0</asrwt>
<pdfrwt beam="1">  1        2 0.14025608E+00 0.24312399E+03</pdfrwt>
<pdfrwt beam="2">  1       -2 0.24937172E-02 0.24312399E+03</pdfrwt>
<totfact> 0.16494141E+04</totfact>
</mgrwt>
</event>
<event>
 4    1  0.1774755E-004  0.2994825E+03  0.7818608E-02  0.1085500E+00
          2   -1    0    0  501    0  0.00000000000E+00  0.00000000000E+00  0.11061083785E+04  0.11061083785E+04  0.00000000000E+00 0. -1.
         -2   -1    0    0    0  501 -0.00000000000E+00 -0.00000000000E+00 -0.20271472944E+02  0.20271472944E+02  0.00000000000E+00 0. -1.
         25    1    1    2    0    0  0.31727569906E+02  0.64714842527E+02  0.34291501422E+03  0.37038541618E+03  0.12000000000E+03 0.  0.
         25    1    1    2    0    0 -0.31727569906E+02 -0.64714842527E+02  0.74292189133E+03  0.75599443527E+03  0.12000000000E+03 0.  0.
<mgrwt>
<rscale>  0 0.29948253E+03</rscale>
<asrwt>0</asrwt>
<pdfrwt beam="1">  1        2 0.17017047E+00 0.29948253E+03</pdfrwt>
<pdfrwt beam="2">  1       -2 0.31186890E-02 0.29948253E+03</pdfrwt>
<totfact> 0.90646807E+03</totfact>
</mgrwt>
</event>
<event>
 4    1  0.1774755E-004  0.3000530E+03  0.7818608E-02  0.1085214E+00
         -1   -1    0    0    0  501 -0.00000000000E+00  0.00000000000E+00  0.13253638549E+04  0.13253638549E+04  0.00000000000E+00 0.  1.
          1   -1    0    0  501    0  0.00000000000E+00 -0.00000000000E+00 -0.16982473037E+02  0.16982473037E+02  0.00000000000E+00 0.  1.
         25    1    1    2    0    0  0.85792797168E+02  0.21887238378E+02  0.58088473676E+03  0.59972204616E+03  0.12000000000E+03 0.  0.
         25    1    1    2    0    0 -0.85792797168E+02 -0.21887238378E+02  0.72749664511E+03  0.74262428178E+03  0.12000000000E+03 0.  0.
<mgrwt>
<rscale>  0 0.30005303E+03</rscale>
<asrwt>0</asrwt>
<pdfrwt beam="1">  1        1 0.26126892E-02 0.30005303E+03</pdfrwt>
<pdfrwt beam="2">  1       -1 0.20390205E+00 0.30005303E+03</pdfrwt>
<totfact> 0.65201466E+02</totfact>
</mgrwt>
</event>
<event>
 4    1  0.1774755E-004  0.5009785E+03  0.7818608E-02  0.1013524E+00
         -2   -1    0    0    0  501 -0.00000000000E+00  0.00000000000E+00  0.34362320945E+02  0.34362320945E+02  0.00000000000E+00 0.  1.
          2   -1    0    0  501    0  0.00000000000E+00 -0.00000000000E+00 -0.18259785054E+04  0.18259785054E+04  0.00000000000E+00 0.  1.
         25    1    1    2    0    0 -0.37843138984E+02  0.20876567507E+03 -0.11100836751E+04  0.11365302354E+04  0.12000000000E+03 0.  0.
         25    1    1    2    0    0  0.37843138984E+02 -0.20876567507E+03 -0.68153250937E+03  0.72381059095E+03  0.12000000000E+03 0.  0.
<mgrwt>
<rscale>  0 0.50097848E+03</rscale>
<asrwt>0</asrwt>
<pdfrwt beam="1">  1        2 0.28091979E+00 0.50097848E+03</pdfrwt>
<pdfrwt beam="2">  1       -2 0.52865106E-02 0.50097848E+03</pdfrwt>
<totfact> 0.16279125E+03</totfact>
</mgrwt>
</event>
<event>
 4    1  0.1774755E-004  0.5693705E+03  0.7818608E-02  0.9971072E-01
         -2   -1    0    0    0  501 -0.00000000000E+00  0.00000000000E+00  0.11347529880E+03  0.11347529880E+03  0.00000000000E+00 0. -1.
          2   -1    0    0  501    0  0.00000000000E+00 -0.00000000000E+00 -0.71421447762E+03  0.71421447762E+03  0.00000000000E+00 0. -1.
         25    1    1    2    0    0 -0.44699760619E+02  0.25186827410E+03 -0.35093647588E+03  0.45054645288E+03  0.12000000000E+03 0.  0.
         25    1    1    2    0    0  0.44699760619E+02 -0.25186827410E+03 -0.24980270293E+03  0.37714332354E+03  0.12000000000E+03 0.  0.
<mgrwt>
<rscale>  0 0.56937053E+03</rscale>
<asrwt>0</asrwt>
<pdfrwt beam="1">  1        2 0.10987915E+00 0.56937053E+03</pdfrwt>
<pdfrwt beam="2">  1       -2 0.17457739E-01 0.56937053E+03</pdfrwt>
<totfact> 0.10840367E+03</totfact>
</mgrwt>
</event>
<event>
 4    1  0.1774755E-004  0.4290282E+03  0.7818608E-02  0.1034167E+00
         -1   -1    0    0    0  501 -0.00000000000E+00  0.00000000000E+00  0.89657459747E+02  0.89657459747E+02  0.00000000000E+00 0. -1.
          1   -1    0    0  501    0  0.00000000000E+00 -0.00000000000E+00 -0.51324557882E+03  0.51324557882E+03  0.00000000000E+00 0. -1.
         25    1    1    2    0    0  0.13503478612E+03  0.74712058294E+02 -0.33590475954E+03  0.38864931828E+03  0.12000000000E+03 0.  0.
         25    1    1    2    0    0 -0.13503478612E+03 -0.74712058294E+02 -0.87683359532E+02  0.21425372029E+03  0.12000000000E+03 0.  0.
<mgrwt>
<rscale>  0 0.42902818E+03</rscale>
<asrwt>0</asrwt>
<pdfrwt beam="1">  1        1 0.78960858E-01 0.42902818E+03</pdfrwt>
<pdfrwt beam="2">  1       -1 0.13793455E-01 0.42902818E+03</pdfrwt>
<totfact> 0.16078180E+03</totfact>
</mgrwt>
</event>
<event>
 4    1  0.1774755E-004  0.2789751E+03  0.7818608E-02  0.1096250E+00
         -1   -1    0    0    0  501 -0.00000000000E+00  0.00000000000E+00  0.38159534849E+02  0.38159534849E+02  0.00000000000E+00 0. -1.
          1   -1    0    0  501    0  0.00000000000E+00 -0.00000000000E+00 -0.50987974343E+03  0.50987974343E+03  0.00000000000E+00 0. -1.
         25    1    1    2    0    0 -0.70744521524E+02  0.54922999949E+01 -0.22668343401E+03  0.26612089723E+03  0.12000000000E+03 0.  0.
         25    1    1    2    0    0  0.70744521524E+02 -0.54922999949E+01 -0.24503677457E+03  0.28191838106E+03  0.12000000000E+03 0.  0.
<mgrwt>
<rscale>  0 0.27897508E+03</rscale>
<asrwt>0</asrwt>
<pdfrwt beam="1">  1        1 0.78443032E-01 0.27897508E+03</pdfrwt>
<pdfrwt beam="2">  1       -1 0.58706981E-02 0.27897508E+03</pdfrwt>
<totfact> 0.60498835E+03</totfact>
</mgrwt>
</event>
<event>
 4    1  0.1774755E-004  0.2657304E+03  0.7818608E-02  0.1103748E+00
          1   -1    0    0  501    0  0.00000000000E+00  0.00000000000E+00  0.12878466738E+04  0.12878466738E+04  0.00000000000E+00 0. -1.
         -1   -1    0    0    0  501 -0.00000000000E+00 -0.00000000000E+00 -0.13707498329E+02  0.13707498329E+02  0.00000000000E+00 0. -1.
         25    1    1    2    0    0  0.71836964630E+01  0.35515546037E+02  0.42132299577E+03  0.43957482443E+03  0.12000000000E+03 0.  0.
         25    1    1    2    0    0 -0.71836964630E+01 -0.35515546037E+02  0.85281617972E+03  0.86197934772E+03  0.12000000000E+03 0.  0.
<mgrwt>
<rscale>  0 0.26573036E+03</rscale>
<asrwt>0</asrwt>
<pdfrwt beam="1">  1        1 0.19813016E+00 0.26573036E+03</pdfrwt>
<pdfrwt beam="2">  1       -1 0.21088469E-02 0.26573036E+03</pdfrwt>
<totfact> 0.63053986E+03</totfact>
</mgrwt>
</event>
<event>
 4    1  0.1774755E-004  0.3257118E+03  0.7818608E-02  0.1073050E+00
         -1   -1    0    0    0  501 -0.00000000000E+00  0.00000000000E+00  0.47222794660E+02  0.47222794660E+02  0.00000000000E+00 0.  1.
          1   -1    0    0  501    0  0.00000000000E+00 -0.00000000000E+00 -0.56163635956E+03  0.56163635956E+03  0.00000000000E+00 0.  1.
         25    1    1    2    0    0  0.53423637836E+02  0.95227018438E+02 -0.28362763010E+03  0.32675205076E+03  0.12000000000E+03 0.  0.
         25    1    1    2    0    0 -0.53423637836E+02 -0.95227018438E+02 -0.23078593480E+03  0.28210710346E+03  0.12000000000E+03 0.  0.
<mgrwt>
<rscale>  0 0.32571177E+03</rscale>
<asrwt>0</asrwt>
<pdfrwt beam="1">  1        1 0.86405592E-01 0.32571177E+03</pdfrwt>
<pdfrwt beam="2">  1       -1 0.72650455E-02 0.32571177E+03</pdfrwt>
<totfact> 0.38547238E+03</totfact>
</mgrwt>
</event>
<event>
 4    1  0.1774755E-004  0.2428063E+03  0.7818608E-02  0.1117937E+00
         -1   -1    0    0    0  501 -0.00000000000E+00  0.00000000000E+00  0.93355777257E+01  0.93355777257E+01  0.00000000000E+00 0.  1.
          1   -1    0    0  501    0  0.00000000000E+00 -0.00000000000E+00 -0.15787690758E+04  0.15787690758E+04  0.00000000000E+00 0.  1.
         25    1    1    2    0    0 -0.83203002649E+01  0.10731532696E+02 -0.70346328195E+03  0.71375414692E+03  0.12000000000E+03 0.  0.
         25    1    1    2    0    0  0.83203002649E+01 -0.10731532696E+02 -0.86597021609E+03  0.87435050657E+03  0.12000000000E+03 0.  0.
<mgrwt>
<rscale>  0 0.24280627E+03</rscale>
<asrwt>0</asrwt>
<pdfrwt beam="1">  1        1 0.24288773E+00 0.24280627E+03</pdfrwt>
<pdfrwt beam="2">  1       -1 0.14362417E-02 0.24280627E+03</pdfrwt>
<totfact> 0.70409225E+03</totfact>
</mgrwt>
</event>
<event>
 4    1  0.1774755E-004  0.2895612E+03  0.7818608E-02  0.1090578E+00
          1   -1    0    0  501    0  0.00000000000E+00  0.00000000000E+00  0.16730976075E+03  0.16730976075E+03  0.00000000000E+00 0. -1.
         -1   -1    0    0    0  501 -0.00000000000E+00 -0.00000000000E+00 -0.12528515110E+03  0.12528515110E+03  0.00000000000E+00 0. -1.
         25    1    1    2    0    0 -0.80239857328E+02  0.10300881448E+02  0.16860020654E+02  0.14570107467E+03  0.12000000000E+03 0.  0.
         25    1    1    2    0    0  0.80239857328E+02 -0.10300881448E+02  0.25164589001E+02  0.14689383718E+03  0.12000000000E+03 0.  0.
<mgrwt>
<rscale>  0 0.28956125E+03</rscale>
<asrwt>0</asrwt>
<pdfrwt beam="1">  1        1 0.25739963E-01 0.28956125E+03</pdfrwt>
<pdfrwt beam="2">  1       -1 0.19274639E-01 0.28956125E+03</pdfrwt>
<totfact> 0.39329735E+03</totfact>
</mgrwt>
</event>
<event>
 4    1  0.1774755E-004  0.2451954E+03  0.7818608E-02  0.1116379E+00
          2   -1    0    0  501    0  0.00000000000E+00  0.00000000000E+00  0.14412767977E+04  0.14412767977E+04  0.00000000000E+00 0. -1.
         -2   -1    0    0    0  501 -0.00000000000E+00 -0.00000000000E+00 -0.10428390768E+02  0.10428390768E+02  0.00000000000E+00 0. -1.
         25    1    1    2    0    0  0.22658123117E+02  0.84528993396E+01  0.75529744565E+03  0.76515297389E+03  0.12000000000E+03 0.  0.
         25    1    1    2    0    0 -0.22658123117E+02 -0.84528993396E+01  0.67555096131E+03  0.68655221461E+03  0.12000000000E+03 0.  0.
<mgrwt>
<rscale>  0 0.24519541E+03</rscale>
<asrwt>0</asrwt>
<pdfrwt beam="1">  1        2 0.22173473E+00 0.24519541E+03</pdfrwt>
<pdfrwt beam="2">  1       -2 0.16043690E-02 0.24519541E+03</pdfrwt>
<totfact> 0.15619001E+04</totfact>
</mgrwt>
</event>
<event>
 4    1  0.1774755E-004  0.3318183E+03  0.7818608E-02  0.1070335E+00
         -1   -1    0    0    0  501 -0.00000000000E+00  0.00000000000E+00  0.12931164177E+02  0.12931164177E+02  0.00000000000E+00 0. -1.
          1   -1    0    0  501    0  0.00000000000E+00 -0.00000000000E+00 -0.21286443564E+04  0.21286443564E+04  0.00000000000E+00 0. -1.
         25    1    1    2    0    0  0.52953488026E-01 -0.94822022335E+02 -0.64285343400E+03  0.66079630471E+03  0.12000000000E+03 0.  0.
         25    1    1    2    0    0 -0.52953488026E-01  0.94822022335E+02 -0.14728597582E+04  0.14807792159E+04  0.12000000000E+03 0.  0.
<mgrwt>
<rscale>  0 0.33181832E+03</rscale>
<asrwt>0</asrwt>
<pdfrwt beam="1">  1        1 0.32748361E+00 0.33181832E+03</pdfrwt>
<pdfrwt beam="2">  1       -1 0.19894107E-02 0.33181832E+03</pdfrwt>
<totfact> 0.19162979E+03</totfact>
</mgrwt>
</event>
<event>
 4    1  0.1774755E-004  0.3262222E+03  0.7818608E-02  0.1072821E+00
         -3   -1    0    0    0  501 -0.00000000000E+00  0.00000000000E+00  0.26290890888E+03  0.26290890888E+03  0.00000000000E+00 0. -1.
          3   -1    0    0  501    0  0.00000000000E+00 -0.00000000000E+00 -0.10119565014E+03  0.10119565014E+03  0.00000000000E+00 0. -1.
         25    1    1    2    0    0 -0.96354768289E+02 -0.50819522768E+02  0.10138763408E+03  0.19117091204E+03  0.12000000000E+03 0.  0.
         25    1    1    2    0    0  0.96354768289E+02  0.50819522768E+02  0.60325624665E+02  0.17293364698E+03  0.12000000000E+03 0.  0.
<mgrwt>
<rscale>  0 0.32622224E+03</rscale>
<asrwt>0</asrwt>
<pdfrwt beam="1">  1        3 0.15568562E-01 0.32622224E+03</pdfrwt>
<pdfrwt beam="2">  1       -3 0.40447524E-01 0.32622224E+03</pdfrwt>
<totfact> 0.54559667E+02</totfact>
</mgrwt>
</event>
<event>
 4    1  0.1774755E-004  0.3953554E+03  0.7818608E-02  0.1045400E+00
         -2   -1    0    0    0  501 -0.00000000000E+00  0.00000000000E+00  0.29169989282E+02  0.29169989282E+02  0.00000000000E+00 0. -1.
          2   -1    0    0  501    0  0.00000000000E+00 -0.00000000000E+00 -0.13396121980E+04  0.13396121980E+04  0.00000000000E+00 0. -1.
         25    1    1    2    0    0  0.11458824049E+03 -0.10165196466E+03 -0.77579596849E+03  0.79982683845E+03  0.12000000000E+03 0.  0.
         25    1    1    2    0    0 -0.11458824049E+03  0.10165196466E+03 -0.53464624025E+03  0.56895534885E+03  0.12000000000E+03 0.  0.
<mgrwt>
<rscale>  0 0.39535540E+03</rscale>
<asrwt>0</asrwt>
<pdfrwt beam="1">  1        2 0.20609417E+00 0.39535540E+03</pdfrwt>
<pdfrwt beam="2">  1       -2 0.44876910E-02 0.39535540E+03</pdfrwt>
<totfact> 0.38608844E+03</totfact>
</mgrwt>
</event>
<event>
 4    1  0.1774755E-004  0.2831822E+03  0.7818608E-02  0.1093963E+00
         -2   -1    0    0    0  501 -0.00000000000E+00  0.00000000000E+00  0.25240081236E+02  0.25240081236E+02  0.00000000000E+00 0.  1.
          2   -1    0    0  501    0  0.00000000000E+00 -0.00000000000E+00 -0.79429389945E+03  0.79429389945E+03  0.00000000000E+00 0.  1.
         25    1    1    2    0    0  0.30544252692E+02  0.21333203041E+02 -0.57341520520E+03  0.58702048898E+03  0.12000000000E+03 0.  0.
         25    1    1    2    0    0 -0.30544252692E+02 -0.21333203041E+02 -0.19563861301E+03  0.23251349171E+03  0.12000000000E+03 0.  0.
<mgrwt>
<rscale>  0 0.28318222E+03</rscale>
<asrwt>0</asrwt>
<pdfrwt beam="1">  1        2 0.12219907E+00 0.28318222E+03</pdfrwt>
<pdfrwt beam="2">  1       -2 0.38830893E-02 0.28318222E+03</pdfrwt>
<totfact> 0.10269945E+04</totfact>
</mgrwt>
</event>
<event>
 4    1  0.1774755E-004  0.2617617E+03  0.7818608E-02  0.1106089E+00
          2   -1    0    0  501    0  0.00000000000E+00  0.00000000000E+00  0.20871115771E+04  0.20871115771E+04  0.00000000000E+00 0. -1.
         -2   -1    0    0    0  501 -0.00000000000E+00 -0.00000000000E+00 -0.82074172035E+01  0.82074172035E+01  0.00000000000E+00 0. -1.
         25    1    1    2    0    0  0.15925398631E+02  0.66500316974E+01  0.64470242114E+03  0.65600232703E+03  0.12000000000E+03 0.  0.
         25    1    1    2    0    0 -0.15925398631E+02 -0.66500316974E+01  0.14342017387E+04  0.14393166672E+04  0.12000000000E+03 0.  0.
<mgrwt>
<rscale>  0 0.26176169E+03</rscale>
<asrwt>0</asrwt>
<pdfrwt beam="1">  1        2 0.32109367E+00 0.26176169E+03</pdfrwt>
<pdfrwt beam="2">  1       -2 0.12626812E-02 0.26176169E+03</pdfrwt>
<totfact> 0.10136237E+04</totfact>
</mgrwt>
</event>
<event>
 4    1  0.1774755E-004  0.2933198E+03  0.7818608E-02  0.1088628E+00
          1   -1    0    0  501    0  0.00000000000E+00  0.00000000000E+00  0.11207269679E+04  0.11207269679E+04  0.00000000000E+00 0.  1.
         -1   -1    0    0    0  501 -0.00000000000E+00 -0.00000000000E+00 -0.19192118152E+02  0.19192118152E+02  0.00000000000E+00 0.  1.
         25    1    1    2    0    0 -0.32170283318E+02  0.69987141040E+02  0.41749637019E+03  0.44117609427E+03  0.12000000000E+03 0.  0.
         25    1    1    2    0    0  0.32170283318E+02 -0.69987141040E+02  0.68403847960E+03  0.69874299181E+03  0.12000000000E+03 0.  0.
<mgrwt>
<rscale>  0 0.29331979E+03</rscale>
<asrwt>0</asrwt>
<pdfrwt beam="1">  1        1 0.17241948E+00 0.29331979E+03</pdfrwt>
<pdfrwt beam="2">  1       -1 0.29526344E-02 0.29331979E+03</pdfrwt>
<totfact> 0.50405746E+03</totfact>
</mgrwt>
</event>
<event>
 4    1  0.1774755E-004  0.2665685E+03  0.7818608E-02  0.1103260E+00
          1   -1    0    0  501    0  0.00000000000E+00  0.00000000000E+00  0.73062385023E+03  0.73062385023E+03  0.00000000000E+00 0.  1.
         -1   -1    0    0    0  501 -0.00000000000E+00 -0.00000000000E+00 -0.24314418817E+02  0.24314418817E+02  0.00000000000E+00 0.  1.
         25    1    1    2    0    0  0.40053939760E+01  0.55143566886E+02  0.30346531133E+03  0.33098043950E+03  0.12000000000E+03 0.  0.
         25    1    1    2    0    0 -0.40053939760E+01 -0.55143566886E+02  0.40284412009E+03  0.42395782955E+03  0.12000000000E+03 0.  0.
<mgrwt>
<rscale>  0 0.26656852E+03</rscale>
<asrwt>0</asrwt>
<pdfrwt beam="1">  1        1 0.11240365E+00 0.26656852E+03</pdfrwt>
<pdfrwt beam="2">  1       -1 0.37406804E-02 0.26656852E+03</pdfrwt>
<totfact> 0.71630532E+03</totfact>
</mgrwt>
</event>
<event>
 4    1  0.1774755E-004  0.2725045E+03  0.7818608E-02  0.1099855E+00
          1   -1    0    0  501    0  0.00000000000E+00  0.00000000000E+00  0.47357647868E+03  0.47357647868E+03  0.00000000000E+00 0. -1.
         -1   -1    0    0    0  501 -0.00000000000E+00 -0.00000000000E+00 -0.39201002007E+02  0.39201002007E+02  0.00000000000E+00 0. -1.
         25    1    1    2    0    0  0.21456133638E+02  0.49226683104E+02  0.28453760359E+03  0.31344103091E+03  0.12000000000E+03 0.  0.
         25    1    1    2    0    0 -0.21456133638E+02 -0.49226683104E+02  0.14983787308E+03  0.19933644977E+03  0.12000000000E+03 0.  0.
<mgrwt>
<rscale>  0 0.27250448E+03</rscale>
<asrwt>0</asrwt>
<pdfrwt beam="1">  1        1 0.72857916E-01 0.27250448E+03</pdfrwt>
<pdfrwt beam="2">  1       -1 0.60309237E-02 0.27250448E+03</pdfrwt>
<totfact> 0.64015323E+03</totfact>
</mgrwt>
</event>
<event>
 4    1  0.1774755E-004  0.2431922E+03  0.7818608E-02  0.1117684E+00
         -2   -1    0    0    0  501 -0.00000000000E+00  0.00000000000E+00  0.71394180120E+02  0.71394180120E+02  0.00000000000E+00 0.  1.
          2   -1    0    0  501    0  0.00000000000E+00 -0.00000000000E+00 -0.20709832806E+03  0.20709832806E+03  0.00000000000E+00 0.  1.
         25    1    1    2    0    0  0.12637863832E+02 -0.12184623114E+02 -0.57775065809E+02  0.13433591803E+03  0.12000000000E+03 0.  0.
         25    1    1    2    0    0 -0.12637863832E+02  0.12184623114E+02 -0.77929082126E+02  0.14415659015E+03  0.12000000000E+03 0.  0.
<mgrwt>
<rscale>  0 0.24319223E+03</rscale>
<asrwt>0</asrwt>
<pdfrwt beam="1">  1        2 0.31861281E-01 0.24319223E+03</pdfrwt>
<pdfrwt beam="2">  1       -2 0.10983720E-01 0.24319223E+03</pdfrwt>
<totfact> 0.92083820E+03</totfact>
</mgrwt>
</event>
<event>
 4    1  0.1774755E-004  0.3405092E+03  0.7818608E-02  0.1066579E+00
         -2   -1    0    0    0  501 -0.00000000000E+00  0.00000000000E+00  0.24276370815E+02  0.24276370815E+02  0.00000000000E+00 0. -1.
          2   -1    0    0  501    0  0.00000000000E+00 -0.00000000000E+00 -0.11940266593E+04  0.11940266593E+04  0.00000000000E+00 0. -1.
         25    1    1    2    0    0  0.47746462234E+02 -0.99624566476E+02 -0.41025911857E+03  0.44149442043E+03  0.12000000000E+03 0.  0.
         25    1    1    2    0    0 -0.47746462234E+02  0.99624566476E+02 -0.75949116993E+03  0.77680860970E+03  0.12000000000E+03 0.  0.
<mgrwt>
<rscale>  0 0.34050923E+03</rscale>
<asrwt>0</asrwt>
<pdfrwt beam="1">  1        2 0.18369640E+00 0.34050923E+03</pdfrwt>
<pdfrwt beam="2">  1       -2 0.37348265E-02 0.34050923E+03</pdfrwt>
<totfact> 0.61615895E+03</totfact>
</mgrwt>
</event>
<event>
 4    1  0.1774755E-004  0.2676548E+03  0.7818608E-02  0.1102629E+00
          2   -1    0    0  501    0  0.00000000000E+00  0.00000000000E+00  0.37283795040E+02  0.37283795040E+02  0.00000000000E+00 0.  1.
         -2   -1    0    0    0  501 -0.00000000000E+00 -0.00000000000E+00 -0.48036332970E+03  0.48036332970E+03  0.00000000000E+00 0.  1.
         25    1    1    2    0    0  0.52052771543E+02 -0.21241208339E+02 -0.25767461882E+03  0.28975315208E+03  0.12000000000E+03 0.  0.
         25    1    1    2    0    0 -0.52052771543E+02  0.21241208339E+02 -0.18540491585E+03  0.22789397266E+03  0.12000000000E+03 0.  0.
<mgrwt>
<rscale>  0 0.26765476E+03</rscale>
<asrwt>0</asrwt>
<pdfrwt beam="1">  1        2 0.57359688E-02 0.26765476E+03</pdfrwt>
<pdfrwt beam="2">  1       -2 0.73902047E-01 0.26765476E+03</pdfrwt>
<totfact> 0.22151240E+03</totfact>
</mgrwt>
</event>
