<event>
 9    1  0.8186049E-001  0.2753238E+03  0.7818608E-02  0.1098271E+00
         -3   -1    0    0    0  501 -0.00000000000E+00  0.00000000000E+00  0.44636407227E+03  0.44636407227E+03  0.00000000000E+00 0.  1.
          3   -1    0    0  501    0  0.00000000000E+00 -0.00000000000E+00 -0.42455910383E+02  0.42455910383E+02  0.00000000000E+00 0.  1.
         35    2    1    2    0    0 -0.14210854715E-13 -0.71054273576E-14  0.40390816188E+03  0.48881998265E+03  0.27532375888E+03 0.  0.
         25    2    3    3    0    0 -0.58905110804E+02 -0.24555638921E+02  0.19258428267E+03  0.23588933951E+03  0.12034235779E+03 0.  0.
         25    2    3    3    0    0  0.58905110804E+02  0.24555638921E+02  0.21132387921E+03  0.25293064314E+03  0.12346390903E+03 0.  0.
          5    1    4    4  502    0 -0.52559363723E+02 -0.29816880616E+02  0.21152899008E+02  0.64195546739E+02  0.47000000000E+01 0. -1.
         -5    1    4    4    0  502 -0.63457470808E+01  0.52612416954E+01  0.17143138367E+03  0.17169379277E+03  0.47000000000E+01 0. -1.
          5    1    5    5  503    0  0.69615516307E+02  0.12645802168E+02  0.41242621802E+02  0.82032190488E+02  0.47000000000E+01 0. -1.
         -5    1    5    5    0  503 -0.10710405502E+02  0.11909836753E+02  0.17008125741E+03  0.17089845265E+03  0.47000000000E+01 0. -1.
<mgrwt>
<rscale>  0 0.27532376E+03</rscale>
<asrwt>0</asrwt>
<pdfrwt beam="1">  1        3 0.65316788E-02 0.27532376E+03</pdfrwt>
<pdfrwt beam="2">  1       -3 0.68671393E-01 0.27532376E+03</pdfrwt>
<totfact> 0.78171519E+02</totfact>
</mgrwt>
</event>
<event>
 9    1  0.8186049E-001  0.2766508E+03  0.7818608E-02  0.1097532E+00
          2   -1    0    0  501    0  0.00000000000E+00  0.00000000000E+00  0.22930366793E+04  0.22930366793E+04  0.00000000000E+00 0.  1.
         -2   -1    0    0    0  501 -0.00000000000E+00 -0.00000000000E+00 -0.83443574558E+01  0.83443574558E+01  0.00000000000E+00 0.  1.
         35    2    1    2    0    0  0.00000000000E+00  0.35527136788E-14  0.22846923218E+04  0.23013810367E+04  0.27665081031E+03 0.  0.
         25    2    3    3    0    0 -0.29619703683E+02 -0.20973503045E+02  0.74626730475E+03  0.75748676832E+03  0.12471607505E+03 0.  0.
         25    2    3    3    0    0  0.29619703683E+02  0.20973503045E+02  0.15384250171E+04  0.15438942684E+04  0.12466260141E+03 0.  0.
          5    1    4    4  502    0  0.26053746480E+02 -0.94227966004E+01  0.59740956897E+03  0.59807012122E+03  0.47000000000E+01 0.  1.
         -5    1    4    4    0  502 -0.55673450164E+02 -0.11550706445E+02  0.14885773577E+03  0.15941664710E+03  0.47000000000E+01 0.  1.
          5    1    5    5  503    0 -0.34068492520E+01 -0.14120437073E+02  0.22468076611E+02  0.27164274913E+02  0.47000000000E+01 0.  1.
         -5    1    5    5    0  503  0.33026552935E+02  0.35093940118E+02  0.15159569404E+04  0.15167299935E+04  0.47000000000E+01 0.  1.
<mgrwt>
<rscale>  0 0.27665081E+03</rscale>
<asrwt>0</asrwt>
<pdfrwt beam="1">  1        2 0.35277437E+00 0.27665081E+03</pdfrwt>
<pdfrwt beam="2">  1       -2 0.12837491E-02 0.27665081E+03</pdfrwt>
<totfact> 0.76937458E+03</totfact>
</mgrwt>
</event>
<event>
 9    1  0.8186049E-001  0.2733481E+03  0.7818608E-02  0.1099379E+00
          1   -1    0    0  501    0  0.00000000000E+00  0.00000000000E+00  0.68173226408E+03  0.68173226408E+03  0.00000000000E+00 0. -1.
         -1   -1    0    0    0  501 -0.00000000000E+00 -0.00000000000E+00 -0.27400488725E+02  0.27400488725E+02  0.00000000000E+00 0. -1.
         35    2    1    2    0    0  0.00000000000E+00 -0.35527136788E-14  0.65433177536E+03  0.70913275281E+03  0.27334810931E+03 0.  0.
         25    2    3    3    0    0 -0.48798955943E+02  0.10885453752E+02  0.38964736935E+03  0.41221739859E+03  0.12489307447E+03 0.  0.
         25    2    3    3    0    0  0.48798955943E+02 -0.10885453752E+02  0.26468440601E+03  0.29691535422E+03  0.12490420963E+03 0.  0.
          5    1    4    4  502    0  0.22604701443E+02 -0.19890779805E+02  0.25217094693E+02  0.39555119939E+02  0.47000000000E+01 0.  1.
         -5    1    4    4    0  502 -0.71403657386E+02  0.30776233557E+02  0.36443027466E+03  0.37266227865E+03  0.47000000000E+01 0.  1.
          5    1    5    5  503    0  0.52718512543E+02  0.28366736888E+02  0.24561487227E+03  0.25284910284E+03  0.47000000000E+01 0.  1.
         -5    1    5    5    0  503 -0.39195565996E+01 -0.39252190640E+02  0.19069533738E+02  0.44066251383E+02  0.47000000000E+01 0.  1.
<mgrwt>
<rscale>  0 0.27334811E+03</rscale>
<asrwt>0</asrwt>
<pdfrwt beam="1">  1        1 0.10488187E+00 0.27334811E+03</pdfrwt>
<pdfrwt beam="2">  1       -1 0.42154603E-02 0.27334811E+03</pdfrwt>
<totfact> 0.66419704E+03</totfact>
</mgrwt>
</event>
<event>
 9    1  0.8186049E-001  0.2749203E+03  0.7818608E-02  0.1098496E+00
          2   -1    0    0  501    0  0.00000000000E+00  0.00000000000E+00  0.77840687960E+03  0.77840687960E+03  0.00000000000E+00 0. -1.
         -2   -1    0    0    0  501 -0.00000000000E+00 -0.00000000000E+00 -0.24274314907E+02  0.24274314907E+02  0.00000000000E+00 0. -1.
         35    2    1    2    0    0  0.00000000000E+00  0.00000000000E+00  0.75413256470E+03  0.80268119451E+03  0.27492030642E+03 0.  0.
         25    2    3    3    0    0  0.43590256197E+02  0.37928398364E+01  0.47930530627E+03  0.49661744311E+03  0.12239612786E+03 0.  0.
         25    2    3    3    0    0 -0.43590256197E+02 -0.37928398364E+01  0.27482725843E+03  0.30606375140E+03  0.12739898695E+03 0.  0.
          5    1    4    4  502    0 -0.74829318997E+01 -0.51663166720E+02  0.24070938343E+03  0.24634969928E+03  0.47000000000E+01 0. -1.
         -5    1    4    4    0  502  0.51073188097E+02  0.55456006556E+02  0.23859592284E+03  0.25026774383E+03  0.47000000000E+01 0. -1.
          5    1    5    5  503    0  0.85087354032E+01 -0.58329840541E+02  0.12047400640E+03  0.13420448984E+03  0.47000000000E+01 0. -1.
         -5    1    5    5    0  503 -0.52098991600E+02  0.54537000704E+02  0.15435325203E+03  0.17185926156E+03  0.47000000000E+01 0. -1.
<mgrwt>
<rscale>  0 0.27492031E+03</rscale>
<asrwt>0</asrwt>
<pdfrwt beam="1">  1        2 0.11975489E+00 0.27492031E+03</pdfrwt>
<pdfrwt beam="2">  1       -2 0.37345106E-02 0.27492031E+03</pdfrwt>
<totfact> 0.11160420E+04</totfact>
</mgrwt>
</event>
<event>
 9    1  0.8186049E-001  0.2748525E+03  0.7818608E-02  0.1098534E+00
          1   -1    0    0  501    0  0.00000000000E+00  0.00000000000E+00  0.26813194830E+03  0.26813194830E+03  0.00000000000E+00 0. -1.
         -1   -1    0    0    0  501 -0.00000000000E+00 -0.00000000000E+00 -0.70435388698E+02  0.70435388698E+02  0.00000000000E+00 0. -1.
         35    2    1    2    0    0  0.35527136788E-14  0.35527136788E-14  0.19769655961E+03  0.33856733700E+03  0.27485252774E+03 0.  0.
         25    2    3    3    0    0 -0.28736474951E+01 -0.25776953613E+02  0.16041580983E+03  0.20485968369E+03  0.12474593688E+03 0.  0.
         25    2    3    3    0    0  0.28736474951E+01  0.25776953613E+02  0.37280749773E+02  0.13370765332E+03  0.12575839162E+03 0.  0.
          5    1    4    4  502    0 -0.62582815329E+02 -0.13639096577E+02  0.63715684795E+02  0.90467741316E+02  0.47000000000E+01 0.  1.
         -5    1    4    4    0  502  0.59709167834E+02 -0.12137857036E+02  0.96700125038E+02  0.11439194237E+03  0.47000000000E+01 0.  1.
          5    1    5    5  503    0  0.22479714893E+02 -0.40150454182E+02  0.44755111495E+02  0.64362306964E+02  0.47000000000E+01 0. -1.
         -5    1    5    5    0  503 -0.19606067398E+02  0.65927407796E+02 -0.74743617221E+01  0.69345346352E+02  0.47000000000E+01 0. -1.
<mgrwt>
<rscale>  0 0.27485253E+03</rscale>
<asrwt>0</asrwt>
<pdfrwt beam="1">  1        1 0.41251068E-01 0.27485253E+03</pdfrwt>
<pdfrwt beam="2">  1       -1 0.10836214E-01 0.27485253E+03</pdfrwt>
<totfact> 0.53963966E+03</totfact>
</mgrwt>
</event>
<event>
 9    1  0.8186049E-001  0.2743896E+03  0.7818608E-02  0.1098793E+00
         -2   -1    0    0    0  501 -0.00000000000E+00  0.00000000000E+00  0.91722742286E+02  0.91722742286E+02  0.00000000000E+00 0.  1.
          2   -1    0    0  501    0  0.00000000000E+00 -0.00000000000E+00 -0.20520995070E+03  0.20520995070E+03  0.00000000000E+00 0.  1.
         35    2    1    2    0    0  0.00000000000E+00 -0.71054273576E-14 -0.11348720841E+03  0.29693269299E+03  0.27438964574E+03 0.  0.
         25    2    3    3    0    0  0.34311136564E+01  0.57456015283E+02 -0.54491777846E+02  0.14846831174E+03  0.12554090769E+03 0.  0.
         25    2    3    3    0    0 -0.34311136564E+01 -0.57456015283E+02 -0.58995430567E+02  0.14846438125E+03  0.12348378613E+03 0.  0.
          5    1    4    4  502    0 -0.75190648527E+01  0.92923275187E+02 -0.59534348526E+02  0.11071449798E+03  0.47000000000E+01 0. -1.
         -5    1    4    4    0  502  0.10950178509E+02 -0.35467259904E+02  0.50425706800E+01  0.37753813762E+02  0.47000000000E+01 0. -1.
          5    1    5    5  503    0  0.83313459421E+01 -0.19562646123E+02  0.37868826449E+02  0.43683480461E+02  0.47000000000E+01 0. -1.
         -5    1    5    5    0  503 -0.11762459599E+02 -0.37893369160E+02 -0.96864257017E+02  0.10478090079E+03  0.47000000000E+01 0. -1.
<mgrwt>
<rscale>  0 0.27438965E+03</rscale>
<asrwt>0</asrwt>
<pdfrwt beam="1">  1        2 0.31570762E-01 0.27438965E+03</pdfrwt>
<pdfrwt beam="2">  1       -2 0.14111191E-01 0.27438965E+03</pdfrwt>
<totfact> 0.62306782E+03</totfact>
</mgrwt>
</event>
<event>
 9    1  0.8186049E-001  0.2783614E+03  0.7818608E-02  0.1096587E+00
          2   -1    0    0  501    0  0.00000000000E+00  0.00000000000E+00  0.15614757099E+04  0.15614757099E+04  0.00000000000E+00 0.  1.
         -2   -1    0    0    0  501 -0.00000000000E+00 -0.00000000000E+00 -0.12405741089E+02  0.12405741089E+02  0.00000000000E+00 0.  1.
         35    2    1    2    0    0 -0.14210854715E-13  0.00000000000E+00  0.15490699688E+04  0.15738814510E+04  0.27836137213E+03 0.  0.
         25    2    3    3    0    0 -0.38039006583E+02 -0.41808831331E+02  0.89225856939E+03  0.90272814400E+03  0.12489116428E+03 0.  0.
         25    2    3    3    0    0  0.38039006583E+02  0.41808831331E+02  0.65681139941E+03  0.67115330698E+03  0.12589917664E+03 0.  0.
          5    1    4    4  502    0  0.22110656632E+02 -0.67734455876E+02  0.45872877967E+03  0.46425318625E+03  0.47000000000E+01 0.  1.
         -5    1    4    4    0  502 -0.60149663214E+02  0.25925624545E+02  0.43352978972E+03  0.43847495775E+03  0.47000000000E+01 0.  1.
          5    1    5    5  503    0  0.30081304124E+01 -0.43335144565E+02  0.15987050165E+03  0.16573367461E+03  0.47000000000E+01 0.  1.
         -5    1    5    5    0  503  0.35030876170E+02  0.85143975896E+02  0.49694089776E+03  0.50541963237E+03  0.47000000000E+01 0.  1.
<mgrwt>
<rscale>  0 0.27836137E+03</rscale>
<asrwt>0</asrwt>
<pdfrwt beam="1">  1        2 0.24022688E+00 0.27836137E+03</pdfrwt>
<pdfrwt beam="2">  1       -2 0.19085768E-02 0.27836137E+03</pdfrwt>
<totfact> 0.10480191E+04</totfact>
</mgrwt>
</event>
<event>
 9    1  0.8186049E-001  0.2805483E+03  0.7818608E-02  0.1095390E+00
          2   -1    0    0  501    0  0.00000000000E+00  0.00000000000E+00  0.56880871033E+03  0.56880871033E+03  0.00000000000E+00 0.  1.
         -2   -1    0    0    0  501 -0.00000000000E+00 -0.00000000000E+00 -0.34593077786E+02  0.34593077786E+02  0.00000000000E+00 0.  1.
         35    2    1    2    0    0  0.00000000000E+00  0.17763568394E-14  0.53421563254E+03  0.60340178811E+03  0.28054834850E+03 0.  0.
         25    2    3    3    0    0 -0.58931307162E+02 -0.60703587483E+01  0.21947851741E+03  0.25948341258E+03  0.12510425084E+03 0.  0.
         25    2    3    3    0    0  0.58931307162E+02  0.60703587483E+01  0.31473711513E+03  0.34391837554E+03  0.12534212849E+03 0.  0.
          5    1    4    4  502    0 -0.82682524633E+02  0.23030860656E+02  0.89454228730E+02  0.12406034604E+03  0.47000000000E+01 0. -1.
         -5    1    4    4    0  502  0.23751217471E+02 -0.29101219404E+02  0.13002428868E+03  0.13542306653E+03  0.47000000000E+01 0. -1.
          5    1    5    5  503    0 -0.90883305190E+01 -0.12760435060E+02  0.24166679979E+03  0.24221964944E+03  0.47000000000E+01 0.  1.
         -5    1    5    5    0  503  0.68019637681E+02  0.18830793808E+02  0.73070315334E+02  0.10169872609E+03  0.47000000000E+01 0.  1.
<mgrwt>
<rscale>  0 0.28054835E+03</rscale>
<asrwt>0</asrwt>
<pdfrwt beam="1">  1        2 0.87509026E-01 0.28054835E+03</pdfrwt>
<pdfrwt beam="2">  1       -2 0.53220124E-02 0.28054835E+03</pdfrwt>
<totfact> 0.95189763E+03</totfact>
</mgrwt>
</event>
<event>
 9    1  0.8186049E-001  0.2759746E+03  0.7818608E-02  0.1097908E+00
          1   -1    0    0  501    0  0.00000000000E+00  0.00000000000E+00  0.88627206261E+03  0.88627206261E+03  0.00000000000E+00 0.  1.
         -1   -1    0    0    0  501 -0.00000000000E+00 -0.00000000000E+00 -0.21483806898E+02  0.21483806898E+02  0.00000000000E+00 0.  1.
         35    2    1    2    0    0  0.17763568394E-14  0.00000000000E+00  0.86478825571E+03  0.90775586951E+03  0.27597462095E+03 0.  0.
         25    2    3    3    0    0 -0.13870509917E+02  0.49819726646E+02  0.36059633022E+03  0.38516112834E+03  0.12507991526E+03 0.  0.
         25    2    3    3    0    0  0.13870509917E+02 -0.49819726646E+02  0.50419192549E+03  0.52259474117E+03  0.12736314052E+03 0.  0.
          5    1    4    4  502    0  0.10795263571E+00  0.90961082411E+02  0.25956943618E+03  0.27508600903E+03  0.47000000000E+01 0. -1.
         -5    1    4    4    0  502 -0.13978462552E+02 -0.41141355765E+02  0.10102689404E+03  0.11007511930E+03  0.47000000000E+01 0. -1.
          5    1    5    5  503    0  0.11944000658E+02  0.60433277995E+01 -0.10712574064E+01  0.14227387499E+02  0.47000000000E+01 0. -1.
         -5    1    5    5    0  503  0.19265092588E+01 -0.55863054446E+02  0.50526318290E+03  0.50836735367E+03  0.47000000000E+01 0. -1.
<mgrwt>
<rscale>  0 0.27597462E+03</rscale>
<asrwt>0</asrwt>
<pdfrwt beam="1">  1        1 0.13634952E+00 0.27597462E+03</pdfrwt>
<pdfrwt beam="2">  1       -1 0.33052017E-02 0.27597462E+03</pdfrwt>
<totfact> 0.63906948E+03</totfact>
</mgrwt>
</event>
<event>
 9    1  0.8186049E-001  0.2898968E+03  0.7818608E-02  0.1090403E+00
          2   -1    0    0  501    0  0.00000000000E+00  0.00000000000E+00  0.48800026833E+03  0.48800026833E+03  0.00000000000E+00 0. -1.
         -2   -1    0    0    0  501 -0.00000000000E+00 -0.00000000000E+00 -0.43053345136E+02  0.43053345136E+02  0.00000000000E+00 0. -1.
         35    2    1    2    0    0  0.35527136788E-14  0.00000000000E+00  0.44494692319E+03  0.53105361346E+03  0.28989683668E+03 0.  0.
         25    2    3    3    0    0  0.30594592625E+02  0.66073098067E+02  0.21378731715E+03  0.25853415898E+03  0.12583008782E+03 0.  0.
         25    2    3    3    0    0 -0.30594592625E+02 -0.66073098067E+02  0.23115960604E+03  0.27251945448E+03  0.12462105046E+03 0.  0.
          5    1    4    4  502    0  0.46696314310E+01  0.52184409685E+02  0.11216988791E+02  0.53785954574E+02  0.47000000000E+01 0. -1.
         -5    1    4    4    0  502  0.25924961194E+02  0.13888688382E+02  0.20257032836E+03  0.20474820441E+03  0.47000000000E+01 0. -1.
          5    1    5    5  503    0 -0.52173531945E+02 -0.34414566891E+02  0.22483021370E+03  0.23340341652E+03  0.47000000000E+01 0.  1.
         -5    1    5    5    0  503  0.21578939320E+02 -0.31658531175E+02  0.63293923416E+01  0.39116037961E+02  0.47000000000E+01 0.  1.
<mgrwt>
<rscale>  0 0.28989684E+03</rscale>
<asrwt>0</asrwt>
<pdfrwt beam="1">  1        2 0.75076961E-01 0.28989684E+03</pdfrwt>
<pdfrwt beam="2">  1       -2 0.66235919E-02 0.28989684E+03</pdfrwt>
<totfact> 0.81003326E+03</totfact>
</mgrwt>
</event>
<event>
 9    1  0.8186049E-001  0.2604166E+03  0.7818608E-02  0.1106893E+00
         -1   -1    0    0    0  501 -0.00000000000E+00  0.00000000000E+00  0.18480602738E+02  0.18480602738E+02  0.00000000000E+00 0.  1.
          1   -1    0    0  501    0  0.00000000000E+00 -0.00000000000E+00 -0.91740489801E+03  0.91740489801E+03  0.00000000000E+00 0.  1.
         35    2    1    2    0    0  0.53290705182E-14 -0.71054273576E-14 -0.89892429528E+03  0.93588550075E+03  0.26041655455E+03 0.  0.
         25    2    3    3    0    0  0.66943404757E+01  0.34160980991E+02 -0.49514587690E+03  0.51192676361E+03  0.12525088852E+03 0.  0.
         25    2    3    3    0    0 -0.66943404757E+01 -0.34160980991E+02 -0.40377841838E+03  0.42395873714E+03  0.12446771804E+03 0.  0.
          5    1    4    4  502    0  0.79682789890E+01 -0.13778056984E+02 -0.23273357065E+01  0.16758126858E+02  0.47000000000E+01 0. -1.
         -5    1    4    4    0  502 -0.12739385133E+01  0.47939037975E+02 -0.49281854119E+03  0.49516863675E+03  0.47000000000E+01 0. -1.
          5    1    5    5  503    0 -0.41786250729E+02  0.32713901495E+02 -0.15280774284E+03  0.16182887991E+03  0.47000000000E+01 0. -1.
         -5    1    5    5    0  503  0.35091910253E+02 -0.66874882486E+02 -0.25097067553E+03  0.26212985723E+03  0.47000000000E+01 0. -1.
<mgrwt>
<rscale>  0 0.26041655E+03</rscale>
<asrwt>0</asrwt>
<pdfrwt beam="1">  1        1 0.14113921E+00 0.26041655E+03</pdfrwt>
<pdfrwt beam="2">  1       -1 0.28431698E-02 0.26041655E+03</pdfrwt>
<totfact> 0.75332640E+03</totfact>
</mgrwt>
</event>
<event>
 9    1  0.8186049E-001  0.2748280E+03  0.7818608E-02  0.1098548E+00
         -2   -1    0    0    0  501 -0.00000000000E+00  0.00000000000E+00  0.15586906499E+02  0.15586906499E+02  0.00000000000E+00 0.  1.
          2   -1    0    0  501    0  0.00000000000E+00 -0.00000000000E+00 -0.12114401495E+04  0.12114401495E+04  0.00000000000E+00 0.  1.
         35    2    1    2    0    0  0.14210854715E-13  0.00000000000E+00 -0.11958532430E+04  0.12270270560E+04  0.27482797776E+03 0.  0.
         25    2    3    3    0    0 -0.52863657330E+02  0.11859630814E+02 -0.68631709028E+03  0.69956189030E+03  0.12417919648E+03 0.  0.
         25    2    3    3    0    0  0.52863657330E+02 -0.11859630814E+02 -0.50953615273E+03  0.52746516571E+03  0.12512870570E+03 0.  0.
          5    1    4    4  502    0 -0.66137141301E+02  0.56941166968E+02 -0.48173256394E+03  0.48959653912E+03  0.47000000000E+01 0. -1.
         -5    1    4    4    0  502  0.13273483971E+02 -0.45081536154E+02 -0.20458452634E+03  0.20996535119E+03  0.47000000000E+01 0. -1.
          5    1    5    5  503    0  0.70959743585E+02 -0.54373506171E+02 -0.31610013434E+03  0.32853180716E+03  0.47000000000E+01 0.  1.
         -5    1    5    5    0  503 -0.18096086254E+02  0.42513875356E+02 -0.19343601838E+03  0.19893335855E+03  0.47000000000E+01 0.  1.
<mgrwt>
<rscale>  0 0.27482798E+03</rscale>
<asrwt>0</asrwt>
<pdfrwt beam="1">  1        2 0.18637540E+00 0.27482798E+03</pdfrwt>
<pdfrwt beam="2">  1       -2 0.23979857E-02 0.27482798E+03</pdfrwt>
<totfact> 0.11620878E+04</totfact>
</mgrwt>
</event>
<event>
 9    1  0.8186049E-001  0.2756511E+03  0.7818608E-02  0.1098088E+00
          2   -1    0    0  501    0  0.00000000000E+00  0.00000000000E+00  0.85502326869E+03  0.85502326869E+03  0.00000000000E+00 0. -1.
         -2   -1    0    0    0  501 -0.00000000000E+00 -0.00000000000E+00 -0.22216801951E+02  0.22216801951E+02  0.00000000000E+00 0. -1.
         35    2    1    2    0    0 -0.71054273576E-14  0.00000000000E+00  0.83280646674E+03  0.87724007064E+03  0.27565110284E+03 0.  0.
         25    2    3    3    0    0 -0.54834415952E+02 -0.15988785310E+01  0.33471614210E+03  0.36089875588E+03  0.12330306818E+03 0.  0.
         25    2    3    3    0    0  0.54834415952E+02  0.15988785310E+01  0.49809032463E+03  0.51634131476E+03  0.12451912405E+03 0.  0.
          5    1    4    4  502    0 -0.88258264425E+02 -0.24646472033E+02  0.26028787211E+03  0.27598702178E+03  0.47000000000E+01 0.  1.
         -5    1    4    4    0  502  0.33423848473E+02  0.23047593502E+02  0.74428269992E+02  0.84911734095E+02  0.47000000000E+01 0.  1.
          5    1    5    5  503    0  0.72944337348E+02 -0.13871168318E+02  0.15031766118E+03  0.16772231492E+03  0.47000000000E+01 0.  1.
         -5    1    5    5    0  503 -0.18109921396E+02  0.15470046849E+02  0.34777266345E+03  0.34861899984E+03  0.47000000000E+01 0.  1.
<mgrwt>
<rscale>  0 0.27565110E+03</rscale>
<asrwt>0</asrwt>
<pdfrwt beam="1">  1        2 0.13154202E+00 0.27565110E+03</pdfrwt>
<pdfrwt beam="2">  1       -2 0.34179702E-02 0.27565110E+03</pdfrwt>
<totfact> 0.11298015E+04</totfact>
</mgrwt>
</event>
<event>
 9    1  0.8186049E-001  0.2834244E+03  0.7818608E-02  0.1093833E+00
          1   -1    0    0  501    0  0.00000000000E+00  0.00000000000E+00  0.78537569170E+02  0.78537569170E+02  0.00000000000E+00 0.  1.
         -1   -1    0    0    0  501 -0.00000000000E+00 -0.00000000000E+00 -0.25570368014E+03  0.25570368014E+03  0.00000000000E+00 0.  1.
         35    2    1    2    0    0  0.00000000000E+00  0.00000000000E+00 -0.17716611097E+03  0.33424124931E+03  0.28342438474E+03 0.  0.
         25    2    3    3    0    0  0.50154705477E+02  0.41668786867E+02 -0.98179184978E+02  0.17261356269E+03  0.12611307378E+03 0.  0.
         25    2    3    3    0    0 -0.50154705477E+02 -0.41668786867E+02 -0.78986925995E+02  0.16162768663E+03  0.12503116542E+03 0.  0.
          5    1    4    4  502    0  0.36078361451E+02  0.48367637698E+02 -0.12633738808E+03  0.14008676657E+03  0.47000000000E+01 0. -1.
         -5    1    4    4    0  502  0.14076344027E+02 -0.66988508303E+01  0.28158203101E+02  0.32526796115E+02  0.47000000000E+01 0. -1.
          5    1    5    5  503    0 -0.57277481224E+02  0.31295416655E+02 -0.23366443205E+02  0.69485204375E+02  0.47000000000E+01 0.  1.
         -5    1    5    5    0  503  0.71227757470E+01 -0.72964203522E+02 -0.55620482791E+02  0.92142482254E+02  0.47000000000E+01 0.  1.
<mgrwt>
<rscale>  0 0.28342438E+03</rscale>
<asrwt>0</asrwt>
<pdfrwt beam="1">  1        1 0.12082703E-01 0.28342438E+03</pdfrwt>
<pdfrwt beam="2">  1       -1 0.39339028E-01 0.28342438E+03</pdfrwt>
<totfact> 0.31521881E+03</totfact>
</mgrwt>
</event>
<event>
 9    1  0.8186049E-001  0.2733911E+03  0.7818608E-02  0.1099354E+00
         -1   -1    0    0    0  501 -0.00000000000E+00  0.00000000000E+00  0.22850764820E+02  0.22850764820E+02  0.00000000000E+00 0. -1.
          1   -1    0    0  501    0  0.00000000000E+00 -0.00000000000E+00 -0.81772611278E+03  0.81772611278E+03  0.00000000000E+00 0. -1.
         35    2    1    2    0    0  0.00000000000E+00  0.00000000000E+00 -0.79487534796E+03  0.84057687760E+03  0.27339105392E+03 0.  0.
         25    2    3    3    0    0 -0.66815561393E+01  0.49823212226E+02 -0.45140717934E+03  0.47109925918E+03  0.12505628642E+03 0.  0.
         25    2    3    3    0    0  0.66815561393E+01 -0.49823212226E+02 -0.34346816862E+03  0.36947761842E+03  0.12655564780E+03 0.  0.
          5    1    4    4  502    0 -0.28016180240E+02  0.69161125973E+02 -0.14347407763E+03  0.16178710904E+03  0.47000000000E+01 0. -1.
         -5    1    4    4    0  502  0.21334624101E+02 -0.19337913748E+02 -0.30793310171E+03  0.30931215014E+03  0.47000000000E+01 0. -1.
          5    1    5    5  503    0  0.54922000996E+02 -0.57142918966E+02 -0.26778099726E+03  0.27930358372E+03  0.47000000000E+01 0. -1.
         -5    1    5    5    0  503 -0.48240444857E+02  0.73197067406E+01 -0.75687171360E+02  0.90174034707E+02  0.47000000000E+01 0. -1.
<mgrwt>
<rscale>  0 0.27339105E+03</rscale>
<asrwt>0</asrwt>
<pdfrwt beam="1">  1        1 0.12580402E+00 0.27339105E+03</pdfrwt>
<pdfrwt beam="2">  1       -1 0.35155021E-02 0.27339105E+03</pdfrwt>
<totfact> 0.66248601E+03</totfact>
</mgrwt>
</event>
<event>
 9    1  0.8186049E-001  0.2715193E+03  0.7818608E-02  0.1100413E+00
         -2   -1    0    0    0  501 -0.00000000000E+00  0.00000000000E+00  0.24792671594E+03  0.24792671594E+03  0.00000000000E+00 0.  1.
          2   -1    0    0  501    0  0.00000000000E+00 -0.00000000000E+00 -0.74339256932E+02  0.74339256932E+02  0.00000000000E+00 0.  1.
         35    2    1    2    0    0  0.00000000000E+00  0.00000000000E+00  0.17358745901E+03  0.32226597288E+03  0.27151933881E+03 0.  0.
         25    2    3    3    0    0 -0.31097108510E+01 -0.21661292178E+02  0.14443971201E+03  0.19236524623E+03  0.12515061195E+03 0.  0.
         25    2    3    3    0    0  0.31097108510E+01  0.21661292178E+02  0.29147747006E+02  0.12990072665E+03  0.12468249977E+03 0.  0.
          5    1    4    4  502    0 -0.14550019433E+02 -0.38095443934E+01 -0.20581491928E+02  0.25921101519E+02  0.47000000000E+01 0.  1.
         -5    1    4    4    0  502  0.11440308582E+02 -0.17851747784E+02  0.16502120394E+03  0.16644414471E+03  0.47000000000E+01 0.  1.
          5    1    5    5  503    0 -0.19640398731E+02 -0.46849946828E+02 -0.21857050100E+01  0.51063980323E+02  0.47000000000E+01 0.  1.
         -5    1    5    5    0  503  0.22750109582E+02  0.68511239005E+02  0.31333452016E+02  0.78836746326E+02  0.47000000000E+01 0.  1.
<mgrwt>
<rscale>  0 0.27151934E+03</rscale>
<asrwt>0</asrwt>
<pdfrwt beam="1">  1        2 0.11436809E-01 0.27151934E+03</pdfrwt>
<pdfrwt beam="2">  1       -2 0.38142571E-01 0.27151934E+03</pdfrwt>
<totfact> 0.35195431E+03</totfact>
</mgrwt>
</event>
<event>
 9    1  0.8186049E-001  0.2928636E+03  0.7818608E-02  0.1088863E+00
          2   -1    0    0  501    0  0.00000000000E+00  0.00000000000E+00  0.59867616747E+02  0.59867616747E+02  0.00000000000E+00 0. -1.
         -2   -1    0    0    0  501 -0.00000000000E+00 -0.00000000000E+00 -0.35816146617E+03  0.35816146617E+03  0.00000000000E+00 0. -1.
         35    2    1    2    0    0  0.00000000000E+00  0.00000000000E+00 -0.29829384943E+03  0.41802908292E+03  0.29286360915E+03 0.  0.
         25    2    3    3    0    0 -0.47344281713E+02  0.63923753670E+02 -0.20213672916E+03  0.25005946785E+03  0.12386586653E+03 0.  0.
         25    2    3    3    0    0  0.47344281713E+02 -0.63923753670E+02 -0.96157120267E+02  0.16796961507E+03  0.11242718761E+03 0.  0.
          5    1    4    4  502    0 -0.22194412186E+02  0.83107008432E+02 -0.20028647564E+03  0.21802781728E+03  0.47000000000E+01 0. -1.
         -5    1    4    4    0  502 -0.25149869527E+02 -0.19183254761E+02 -0.18502535217E+01  0.32031650575E+02  0.47000000000E+01 0. -1.
          5    1    5    5  503    0 -0.17372794574E+02 -0.22111936096E+01  0.16184647832E+02  0.24305065191E+02  0.47000000000E+01 0.  1.
         -5    1    5    5    0  503  0.64717076287E+02 -0.61712560061E+02 -0.11234176810E+03  0.14366454988E+03  0.47000000000E+01 0.  1.
<mgrwt>
<rscale>  0 0.29286361E+03</rscale>
<asrwt>0</asrwt>
<pdfrwt beam="1">  1        2 0.92104027E-02 0.29286361E+03</pdfrwt>
<pdfrwt beam="2">  1       -2 0.55101763E-01 0.29286361E+03</pdfrwt>
<totfact> 0.22405487E+03</totfact>
</mgrwt>
</event>
<event>
 9    1  0.8186049E-001  0.2742350E+03  0.7818608E-02  0.1098880E+00
         -2   -1    0    0    0  501 -0.00000000000E+00  0.00000000000E+00  0.16243892503E+03  0.16243892503E+03  0.00000000000E+00 0. -1.
          2   -1    0    0  501    0  0.00000000000E+00 -0.00000000000E+00 -0.11574321928E+03  0.11574321928E+03  0.00000000000E+00 0. -1.
         35    2    1    2    0    0  0.00000000000E+00  0.00000000000E+00  0.46695705756E+02  0.27818214431E+03  0.27423496582E+03 0.  0.
         25    2    3    3    0    0 -0.42233150350E+02 -0.52334534296E+02  0.32665272269E+02  0.14410790890E+03  0.12319710600E+03 0.  0.
         25    2    3    3    0    0  0.42233150350E+02  0.52334534296E+02  0.14030433486E+02  0.13407423540E+03  0.11513689707E+03 0.  0.
          5    1    4    4  502    0  0.97674131752E+01  0.34362806906E+02 -0.44620601678E+01  0.36307090761E+02  0.47000000000E+01 0.  1.
         -5    1    4    4    0  502 -0.52000563525E+02 -0.86697341201E+02  0.37127332437E+02  0.10780081814E+03  0.47000000000E+01 0.  1.
          5    1    5    5  503    0 -0.35959802765E+02  0.34986487005E+02  0.18595015074E+02  0.53712440584E+02  0.47000000000E+01 0. -1.
         -5    1    5    5    0  503  0.78192953115E+02  0.17348047290E+02 -0.45645815874E+01  0.80361794820E+02  0.47000000000E+01 0. -1.
<mgrwt>
<rscale>  0 0.27423497E+03</rscale>
<asrwt>0</asrwt>
<pdfrwt beam="1">  1        2 0.17806649E-01 0.27423497E+03</pdfrwt>
<pdfrwt beam="2">  1       -2 0.24990604E-01 0.27423497E+03</pdfrwt>
<totfact> 0.44939577E+03</totfact>
</mgrwt>
</event>
<event>
 9    1  0.8186049E-001  0.2745623E+03  0.7818608E-02  0.1098697E+00
         -2   -1    0    0    0  501 -0.00000000000E+00  0.00000000000E+00  0.19514386401E+03  0.19514386401E+03  0.00000000000E+00 0.  1.
          2   -1    0    0  501    0  0.00000000000E+00 -0.00000000000E+00 -0.96575461891E+02  0.96575461891E+02  0.00000000000E+00 0.  1.
         35    2    1    2    0    0  0.00000000000E+00 -0.71054273576E-14  0.98568402120E+02  0.29171932590E+03  0.27456226108E+03 0.  0.
         25    2    3    3    0    0  0.48080762968E+02 -0.16380524965E+02  0.21737494348E+02  0.13649426995E+03  0.12481220174E+03 0.  0.
         25    2    3    3    0    0 -0.48080762968E+02  0.16380524965E+02  0.76830907771E+02  0.15522505595E+03  0.12494698172E+03 0.  0.
          5    1    4    4  502    0 -0.13266835238E+02 -0.54809207326E+02 -0.97353447979E+01  0.57418856339E+02  0.47000000000E+01 0.  1.
         -5    1    4    4    0  502  0.61347598206E+02  0.38428682361E+02  0.31472839146E+02  0.79075413610E+02  0.47000000000E+01 0.  1.
          5    1    5    5  503    0  0.24550829427E+02  0.37813628423E+02  0.63764701465E+02  0.78234524815E+02  0.47000000000E+01 0. -1.
         -5    1    5    5    0  503 -0.72631592395E+02 -0.21433103458E+02  0.13066206306E+02  0.76990531138E+02  0.47000000000E+01 0. -1.
<mgrwt>
<rscale>  0 0.27456226E+03</rscale>
<asrwt>0</asrwt>
<pdfrwt beam="1">  1        2 0.14857763E-01 0.27456226E+03</pdfrwt>
<pdfrwt beam="2">  1       -2 0.30022133E-01 0.27456226E+03</pdfrwt>
<totfact> 0.40029353E+03</totfact>
</mgrwt>
</event>
<event>
 9    1  0.8186049E-001  0.2748865E+03  0.7818608E-02  0.1098515E+00
         -2   -1    0    0    0  501 -0.00000000000E+00  0.00000000000E+00  0.22397481141E+02  0.22397481141E+02  0.00000000000E+00 0. -1.
          2   -1    0    0  501    0  0.00000000000E+00 -0.00000000000E+00 -0.84342734106E+03  0.84342734106E+03  0.00000000000E+00 0. -1.
         35    2    1    2    0    0  0.00000000000E+00 -0.14210854715E-13 -0.82102985992E+03  0.86582482220E+03  0.27488650724E+03 0.  0.
         25    2    3    3    0    0 -0.99778026531E+01 -0.46233761616E+02 -0.44972530342E+03  0.47030871676E+03  0.12922973058E+03 0.  0.
         25    2    3    3    0    0  0.99778026531E+01  0.46233761616E+02 -0.37130455650E+03  0.39551610544E+03  0.12778418810E+03 0.  0.
          5    1    4    4  502    0 -0.45910006906E+02  0.13166236779E+02 -0.31540987815E+03  0.31904005981E+03  0.47000000000E+01 0. -1.
         -5    1    4    4    0  502  0.35932204253E+02 -0.59399998395E+02 -0.13431542527E+03  0.15126865695E+03  0.47000000000E+01 0. -1.
          5    1    5    5  503    0 -0.52049024993E+02  0.45806349561E+02 -0.24589222483E+03  0.25552377364E+03  0.47000000000E+01 0.  1.
         -5    1    5    5    0  503  0.62026827646E+02  0.42741205500E+00 -0.12541233167E+03  0.13999233180E+03  0.47000000000E+01 0.  1.
<mgrwt>
<rscale>  0 0.27488651E+03</rscale>
<asrwt>0</asrwt>
<pdfrwt beam="1">  1        2 0.12975804E+00 0.27488651E+03</pdfrwt>
<pdfrwt beam="2">  1       -2 0.34457666E-02 0.27488651E+03</pdfrwt>
<totfact> 0.11361546E+04</totfact>
</mgrwt>
</event>
<event>
 9    1  0.8186049E-001  0.2746262E+03  0.7818608E-02  0.1098661E+00
         -2   -1    0    0    0  501 -0.00000000000E+00  0.00000000000E+00  0.97500550446E+02  0.97500550446E+02  0.00000000000E+00 0.  1.
          2   -1    0    0  501    0  0.00000000000E+00 -0.00000000000E+00 -0.19338232257E+03  0.19338232257E+03  0.00000000000E+00 0.  1.
         35    2    1    2    0    0  0.00000000000E+00 -0.17763568394E-14 -0.95881772128E+02  0.29088287302E+03  0.27462616698E+03 0.  0.
         25    2    3    3    0    0  0.23453810384E+02 -0.28249648622E+01 -0.10351642803E+03  0.16291631228E+03  0.12356379846E+03 0.  0.
         25    2    3    3    0    0 -0.23453810384E+02  0.28249648622E+01  0.76346558972E+01  0.12796656074E+03  0.12553521836E+03 0.  0.
          5    1    4    4  502    0  0.22679383228E+02 -0.60361924390E+02 -0.73350010255E+02  0.97776430412E+02  0.47000000000E+01 0.  1.
         -5    1    4    4    0  502  0.77442715601E+00  0.57536959528E+02 -0.30166417770E+02  0.65139881871E+02  0.47000000000E+01 0.  1.
          5    1    5    5  503    0 -0.25050094074E+02  0.91919069220E+01 -0.56851180155E+02  0.62977337599E+02  0.47000000000E+01 0.  1.
         -5    1    5    5    0  503  0.15962836906E+01 -0.63669420599E+01  0.64485836052E+02  0.64989223139E+02  0.47000000000E+01 0.  1.
<mgrwt>
<rscale>  0 0.27462617E+03</rscale>
<asrwt>0</asrwt>
<pdfrwt beam="1">  1        2 0.29751126E-01 0.27462617E+03</pdfrwt>
<pdfrwt beam="2">  1       -2 0.15000085E-01 0.27462617E+03</pdfrwt>
<totfact> 0.60132555E+03</totfact>
</mgrwt>
</event>
<event>
 9    1  0.8186049E-001  0.2627532E+03  0.7818608E-02  0.1105500E+00
          1   -1    0    0  501    0  0.00000000000E+00  0.00000000000E+00  0.19423387000E+03  0.19423387000E+03  0.00000000000E+00 0. -1.
         -1   -1    0    0    0  501 -0.00000000000E+00 -0.00000000000E+00 -0.88860949482E+02  0.88860949482E+02  0.00000000000E+00 0. -1.
         35    2    1    2    0    0  0.71054273576E-14  0.00000000000E+00  0.10537292052E+03  0.28309481949E+03  0.26275316257E+03 0.  0.
         25    2    3    3    0    0  0.15593364100E+02  0.22649052455E+02  0.85235901245E+02  0.15408241403E+03  0.12537981843E+03 0.  0.
         25    2    3    3    0    0 -0.15593364100E+02 -0.22649052455E+02  0.20137019278E+02  0.12901240546E+03  0.12442897024E+03 0.  0.
          5    1    4    4  502    0  0.54571322992E+02  0.37896706246E+02  0.93040880398E+01  0.67252105481E+02  0.47000000000E+01 0.  1.
         -5    1    4    4    0  502 -0.38977958892E+02 -0.15247653791E+02  0.75931813205E+02  0.86830308545E+02  0.47000000000E+01 0.  1.
          5    1    5    5  503    0  0.25234617391E+01 -0.59362588249E+01 -0.52013945450E+02  0.52622690441E+02  0.47000000000E+01 0.  1.
         -5    1    5    5    0  503 -0.18116825839E+02 -0.16712793630E+02  0.72150964728E+02  0.76389715019E+02  0.47000000000E+01 0.  1.
<mgrwt>
<rscale>  0 0.26275316E+03</rscale>
<asrwt>0</asrwt>
<pdfrwt beam="1">  1        1 0.29882134E-01 0.26275316E+03</pdfrwt>
<pdfrwt beam="2">  1       -1 0.13670915E-01 0.26275316E+03</pdfrwt>
<totfact> 0.56186229E+03</totfact>
</mgrwt>
</event>
<event>
 9    1  0.8186049E-001  0.2988704E+03  0.7818608E-02  0.1085807E+00
         -1   -1    0    0    0  501 -0.00000000000E+00  0.00000000000E+00  0.14670407947E+03  0.14670407947E+03  0.00000000000E+00 0.  1.
          1   -1    0    0  501    0  0.00000000000E+00 -0.00000000000E+00 -0.15221711959E+03  0.15221711959E+03  0.00000000000E+00 0.  1.
         35    2    1    2    0    0 -0.71054273576E-14  0.00000000000E+00 -0.55130401206E+01  0.29892119905E+03  0.29887035589E+03 0.  0.
         25    2    3    3    0    0  0.35010422008E+02 -0.72661646685E+02 -0.20590199092E+02  0.14979448370E+03  0.12453508140E+03 0.  0.
         25    2    3    3    0    0 -0.35010422008E+02  0.72661646685E+02  0.15077158971E+02  0.14912671535E+03  0.12452313826E+03 0.  0.
          5    1    4    4  502    0  0.53733074391E+02 -0.13637132766E+02  0.35596053689E+02  0.66048343748E+02  0.47000000000E+01 0.  1.
         -5    1    4    4    0  502 -0.18722652383E+02 -0.59024513918E+02 -0.56186252780E+02  0.83746139953E+02  0.47000000000E+01 0.  1.
          5    1    5    5  503    0 -0.47203922981E+01 -0.25351636562E+02 -0.27467963746E+02  0.37967968239E+02  0.47000000000E+01 0.  1.
         -5    1    5    5    0  503 -0.30290029710E+02  0.98013283247E+02  0.42545122717E+02  0.11115874711E+03  0.47000000000E+01 0.  1.
<mgrwt>
<rscale>  0 0.29887036E+03</rscale>
<asrwt>0</asrwt>
<pdfrwt beam="1">  1        1 0.23418018E-01 0.29887036E+03</pdfrwt>
<pdfrwt beam="2">  1       -1 0.22569858E-01 0.29887036E+03</pdfrwt>
<totfact> 0.34306561E+03</totfact>
</mgrwt>
</event>
<event>
 9    1  0.8186049E-001  0.2759337E+03  0.7818608E-02  0.1097931E+00
         -1   -1    0    0    0  501 -0.00000000000E+00  0.00000000000E+00  0.42925848295E+02  0.42925848295E+02  0.00000000000E+00 0.  1.
          1   -1    0    0  501    0  0.00000000000E+00 -0.00000000000E+00 -0.44343574640E+03  0.44343574640E+03  0.00000000000E+00 0.  1.
         35    2    1    2    0    0  0.71054273576E-14  0.00000000000E+00 -0.40050989810E+03  0.48636159469E+03  0.27593372812E+03 0.  0.
         25    2    3    3    0    0 -0.38893893921E+02 -0.41435968639E+02 -0.22117254392E+03  0.26044873691E+03  0.12524606140E+03 0.  0.
         25    2    3    3    0    0  0.38893893921E+02  0.41435968639E+02 -0.17933735418E+03  0.22591285778E+03  0.12508020716E+03 0.  0.
          5    1    4    4  502    0  0.37558336402E+02  0.16440793530E+02 -0.74069941020E+02  0.84790179195E+02  0.47000000000E+01 0.  1.
         -5    1    4    4    0  502 -0.76452230323E+02 -0.57876762169E+02 -0.14710260290E+03  0.17565855772E+03  0.47000000000E+01 0.  1.
          5    1    5    5  503    0 -0.18943819757E+02 -0.28625441361E+02 -0.14336811684E+02  0.37495577997E+02  0.47000000000E+01 0.  1.
         -5    1    5    5    0  503  0.57837713678E+02  0.70061410000E+02 -0.16500054250E+03  0.18841727978E+03  0.47000000000E+01 0.  1.
<mgrwt>
<rscale>  0 0.27593373E+03</rscale>
<asrwt>0</asrwt>
<pdfrwt beam="1">  1        1 0.68220887E-01 0.27593373E+03</pdfrwt>
<pdfrwt beam="2">  1       -1 0.66039764E-02 0.27593373E+03</pdfrwt>
<totfact> 0.60843315E+03</totfact>
</mgrwt>
</event>
<event>
 9    1  0.8186049E-001  0.2597184E+03  0.7818608E-02  0.1107313E+00
         -2   -1    0    0    0  501 -0.00000000000E+00  0.00000000000E+00  0.44165564402E+01  0.44165564402E+01  0.00000000000E+00 0. -1.
          2   -1    0    0  501    0  0.00000000000E+00 -0.00000000000E+00 -0.38182251895E+04  0.38182251895E+04  0.00000000000E+00 0. -1.
         35    2    1    2    0    0  0.14210854715E-13  0.00000000000E+00 -0.38138086331E+04  0.38226417460E+04  0.25971836324E+03 0.  0.
         25    2    3    3    0    0  0.32002777069E+02 -0.25338395952E+01 -0.19496435929E+04  0.19539047896E+04  0.12491272671E+03 0.  0.
         25    2    3    3    0    0 -0.32002777069E+02  0.25338395952E+01 -0.18641650402E+04  0.18687369564E+04  0.12663300146E+03 0.  0.
          5    1    4    4  502    0  0.53820470775E+02  0.45991342842E+00 -0.18786253073E+04  0.18794020299E+04  0.47000000000E+01 0. -1.
         -5    1    4    4    0  502 -0.21817693706E+02 -0.29937530236E+01 -0.71018285582E+02  0.74502759699E+02  0.47000000000E+01 0. -1.
          5    1    5    5  503    0 -0.55614016193E+02  0.28769513861E+02 -0.16793236866E+04  0.16804971699E+04  0.47000000000E+01 0.  1.
         -5    1    5    5    0  503  0.23611239125E+02 -0.26235674266E+02 -0.18484135357E+03  0.18823978646E+03  0.47000000000E+01 0.  1.
<mgrwt>
<rscale>  0 0.25971836E+03</rscale>
<asrwt>0</asrwt>
<pdfrwt beam="1">  1        2 0.58742145E+00 0.25971836E+03</pdfrwt>
<pdfrwt beam="2">  1       -2 0.67946768E-03 0.25971836E+03</pdfrwt>
<totfact> 0.22861539E+03</totfact>
</mgrwt>
</event>
<event>
 9    1  0.8186049E-001  0.2752075E+03  0.7818608E-02  0.1098336E+00
         -1   -1    0    0    0  501 -0.00000000000E+00  0.00000000000E+00  0.19331066790E+02  0.19331066790E+02  0.00000000000E+00 0. -1.
          1   -1    0    0  501    0  0.00000000000E+00 -0.00000000000E+00 -0.97950046769E+03  0.97950046769E+03  0.00000000000E+00 0. -1.
         35    2    1    2    0    0  0.00000000000E+00 -0.35527136788E-14 -0.96016940090E+03  0.99883153448E+03  0.27520747782E+03 0.  0.
         25    2    3    3    0    0  0.49189305057E+02  0.22401829750E+02 -0.55220216364E+03  0.56873043869E+03  0.12492258664E+03 0.  0.
         25    2    3    3    0    0 -0.49189305057E+02 -0.22401829750E+02 -0.40796723726E+03  0.43010109579E+03  0.12501302419E+03 0.  0.
          5    1    4    4  502    0  0.42294239272E+01 -0.12093498526E+02 -0.46134198041E+03  0.46154377216E+03  0.47000000000E+01 0. -1.
         -5    1    4    4    0  502  0.44959881130E+02  0.34495328276E+02 -0.90860183230E+02  0.10718666653E+03  0.47000000000E+01 0. -1.
          5    1    5    5  503    0 -0.49895691092E+02 -0.64259464350E+02 -0.34390923556E+03  0.35343247029E+03  0.47000000000E+01 0. -1.
         -5    1    5    5    0  503  0.70638603527E+00  0.41857634600E+02 -0.64058001693E+02  0.76668625503E+02  0.47000000000E+01 0. -1.
<mgrwt>
<rscale>  0 0.27520748E+03</rscale>
<asrwt>0</asrwt>
<pdfrwt beam="1">  1        1 0.15069238E+00 0.27520748E+03</pdfrwt>
<pdfrwt beam="2">  1       -1 0.29740103E-02 0.27520748E+03</pdfrwt>
<totfact> 0.63273206E+03</totfact>
</mgrwt>
</event>
<event>
 9    1  0.8186049E-001  0.2751783E+03  0.7818608E-02  0.1098352E+00
         -2   -1    0    0    0  501 -0.00000000000E+00  0.00000000000E+00  0.41664370672E+02  0.41664370672E+02  0.00000000000E+00 0. -1.
          2   -1    0    0  501    0  0.00000000000E+00 -0.00000000000E+00 -0.45436356852E+03  0.45436356852E+03  0.00000000000E+00 0. -1.
         35    2    1    2    0    0  0.71054273576E-14  0.17763568394E-14 -0.41269919785E+03  0.49602793919E+03  0.27517828503E+03 0.  0.
         25    2    3    3    0    0  0.30732780489E+02 -0.36287367587E+01 -0.12384308447E+03  0.17942425570E+03  0.12608839137E+03 0.  0.
         25    2    3    3    0    0 -0.30732780489E+02  0.36287367587E+01 -0.28885611338E+03  0.31660368349E+03  0.12586646349E+03 0.  0.
          5    1    4    4  502    0  0.21061693636E+02 -0.20749821069E+02 -0.14622782364E+03  0.14926090051E+03  0.47000000000E+01 0.  1.
         -5    1    4    4    0  502  0.96710868535E+01  0.17121084310E+02  0.22384739175E+02  0.30163355198E+02  0.47000000000E+01 0.  1.
          5    1    5    5  503    0 -0.58486570699E+02 -0.13270017123E+02 -0.27407263232E+03  0.28059698875E+03  0.47000000000E+01 0.  1.
         -5    1    5    5    0  503  0.27753790210E+02  0.16898753882E+02 -0.14783481060E+02  0.36006694739E+02  0.47000000000E+01 0.  1.
<mgrwt>
<rscale>  0 0.27517829E+03</rscale>
<asrwt>0</asrwt>
<pdfrwt beam="1">  1        2 0.69902091E-01 0.27517829E+03</pdfrwt>
<pdfrwt beam="2">  1       -2 0.64099029E-02 0.27517829E+03</pdfrwt>
<totfact> 0.92062663E+03</totfact>
</mgrwt>
</event>
<event>
 9    1  0.8186049E-001  0.2782697E+03  0.7818608E-02  0.1096638E+00
          3   -1    0    0  501    0  0.00000000000E+00  0.00000000000E+00  0.22082614968E+03  0.22082614968E+03  0.00000000000E+00 0. -1.
         -3   -1    0    0    0  501 -0.00000000000E+00 -0.00000000000E+00 -0.87664018854E+02  0.87664018854E+02  0.00000000000E+00 0. -1.
         35    2    1    2    0    0  0.35527136788E-14  0.35527136788E-14  0.13316213082E+03  0.30849016853E+03  0.27826970909E+03 0.  0.
         25    2    3    3    0    0 -0.26785111712E+02 -0.27997396449E+02  0.11306749770E+03  0.17379350229E+03  0.12616903734E+03 0.  0.
         25    2    3    3    0    0  0.26785111712E+02  0.27997396449E+02  0.20094633122E+02  0.13469666624E+03  0.12742880836E+03 0.  0.
          5    1    4    4  502    0 -0.20269407287E+01 -0.22440932391E+02  0.13680674282E+03  0.13872951674E+03  0.47000000000E+01 0. -1.
         -5    1    4    4    0  502 -0.24758170983E+02 -0.55564640583E+01 -0.23739245119E+02  0.35063985542E+02  0.47000000000E+01 0. -1.
          5    1    5    5  503    0  0.35253154350E+02  0.19356539533E+02  0.71232873890E+02  0.81937005296E+02  0.47000000000E+01 0. -1.
         -5    1    5    5    0  503 -0.84680426388E+01  0.86408569165E+01 -0.51138240768E+02  0.52759660947E+02  0.47000000000E+01 0. -1.
<mgrwt>
<rscale>  0 0.27826971E+03</rscale>
<asrwt>0</asrwt>
<pdfrwt beam="1">  1        3 0.33973254E-01 0.27826971E+03</pdfrwt>
<pdfrwt beam="2">  1       -3 0.13486772E-01 0.27826971E+03</pdfrwt>
<totfact> 0.96395904E+02</totfact>
</mgrwt>
</event>
<event>
 9    1  0.8186049E-001  0.2815194E+03  0.7818608E-02  0.1094862E+00
          2   -1    0    0  501    0  0.00000000000E+00  0.00000000000E+00  0.43072295627E+03  0.43072295627E+03  0.00000000000E+00 0.  1.
         -2   -1    0    0    0  501 -0.00000000000E+00 -0.00000000000E+00 -0.46000071265E+02  0.46000071265E+02  0.00000000000E+00 0.  1.
         35    2    1    2    0    0  0.14432899320E-14  0.35527136788E-14  0.38472288501E+03  0.47672302754E+03  0.28151935411E+03 0.  0.
         25    2    3    3    0    0 -0.15354721502E+00 -0.89168271591E+01  0.29620980841E+03  0.32059169331E+03  0.12230801216E+03 0.  0.
         25    2    3    3    0    0  0.15354721502E+00  0.89168271591E+01  0.88513076594E+02  0.15613133423E+03  0.12830781510E+03 0.  0.
          5    1    4    4  502    0  0.34191162298E+00  0.61700717046E+01  0.30320434912E+03  0.30330373228E+03  0.47000000000E+01 0.  1.
         -5    1    4    4    0  502 -0.49545883801E+00 -0.15086898864E+02 -0.69945407118E+01  0.17287961029E+02  0.47000000000E+01 0.  1.
          5    1    5    5  503    0  0.52036281843E+02  0.41271344208E+02  0.54242657027E+02  0.85880465311E+02  0.47000000000E+01 0.  1.
         -5    1    5    5    0  503 -0.51882734628E+02 -0.32354517049E+02  0.34270419568E+02  0.70250868915E+02  0.47000000000E+01 0.  1.
<mgrwt>
<rscale>  0 0.28151935E+03</rscale>
<asrwt>0</asrwt>
<pdfrwt beam="1">  1        2 0.66265068E-01 0.28151935E+03</pdfrwt>
<pdfrwt beam="2">  1       -2 0.70769343E-02 0.28151935E+03</pdfrwt>
<totfact> 0.83853829E+03</totfact>
</mgrwt>
</event>
<event>
 9    1  0.8186049E-001  0.3054665E+03  0.7818608E-02  0.1082539E+00
          2   -1    0    0  501    0  0.00000000000E+00  0.00000000000E+00  0.33511837990E+02  0.33511837990E+02  0.00000000000E+00 0. -1.
         -2   -1    0    0    0  501 -0.00000000000E+00 -0.00000000000E+00 -0.69609552273E+03  0.69609552273E+03  0.00000000000E+00 0. -1.
         35    2    1    2    0    0  0.71054273576E-14  0.00000000000E+00 -0.66258368474E+03  0.72960736072E+03  0.30546646548E+03 0.  0.
         25    2    3    3    0    0 -0.41270294482E+02 -0.69383750575E+02 -0.41707539316E+03  0.44271204583E+03  0.12459827403E+03 0.  0.
         25    2    3    3    0    0  0.41270294482E+02  0.69383750575E+02 -0.24550829159E+03  0.28689531490E+03  0.12456828818E+03 0.  0.
          5    1    4    4  502    0  0.10675017069E+02  0.17360125167E+02 -0.98900471632E+01  0.23135102509E+02  0.47000000000E+01 0. -1.
         -5    1    4    4    0  502 -0.51945311551E+02 -0.86743875742E+02 -0.40718534599E+03  0.41957694332E+03  0.47000000000E+01 0. -1.
          5    1    5    5  503    0  0.61433179040E+02  0.89831957945E+02 -0.13964925062E+03  0.17710962525E+03  0.47000000000E+01 0.  1.
         -5    1    5    5    0  503 -0.20162884558E+02 -0.20448207370E+02 -0.10585904096E+03  0.10978568965E+03  0.47000000000E+01 0.  1.
<mgrwt>
<rscale>  0 0.30546647E+03</rscale>
<asrwt>0</asrwt>
<pdfrwt beam="1">  1        2 0.51556672E-02 0.30546647E+03</pdfrwt>
<pdfrwt beam="2">  1       -2 0.10709162E+00 0.30546647E+03</pdfrwt>
<totfact> 0.11044971E+03</totfact>
</mgrwt>
</event>
<event>
 9    1  0.8186049E-001  0.2759006E+03  0.7818608E-02  0.1097949E+00
          2   -1    0    0  501    0  0.00000000000E+00  0.00000000000E+00  0.60126051530E+03  0.60126051530E+03  0.00000000000E+00 0.  1.
         -2   -1    0    0    0  501 -0.00000000000E+00 -0.00000000000E+00 -0.31650637681E+02  0.31650637681E+02  0.00000000000E+00 0.  1.
         35    2    1    2    0    0  0.71054273576E-14  0.00000000000E+00  0.56960987761E+03  0.63291115298E+03  0.27590055253E+03 0.  0.
         25    2    3    3    0    0 -0.61195803936E+02  0.64027966192E+01  0.26791591748E+03  0.30195938999E+03  0.12495844164E+03 0.  0.
         25    2    3    3    0    0  0.61195803936E+02 -0.64027966192E+01  0.30169396013E+03  0.33095176299E+03  0.12134208512E+03 0.  0.
          5    1    4    4  502    0 -0.75353488773E+02  0.18589113114E+02  0.27145785421E+03  0.28237414898E+03  0.47000000000E+01 0. -1.
         -5    1    4    4    0  502  0.14157684837E+02 -0.12186316495E+02 -0.35419367301E+01  0.19585241010E+02  0.47000000000E+01 0. -1.
          5    1    5    5  503    0 -0.30957610965E+02  0.17050392085E+02  0.12803772386E+03  0.13290913542E+03  0.47000000000E+01 0. -1.
         -5    1    5    5    0  503  0.92153414901E+02 -0.23453188704E+02  0.17365623627E+03  0.19804262757E+03  0.47000000000E+01 0. -1.
<mgrwt>
<rscale>  0 0.27590055E+03</rscale>
<asrwt>0</asrwt>
<pdfrwt beam="1">  1        2 0.92501609E-01 0.27590055E+03</pdfrwt>
<pdfrwt beam="2">  1       -2 0.48693293E-02 0.27590055E+03</pdfrwt>
<totfact> 0.10214797E+04</totfact>
</mgrwt>
</event>
<event>
 9    1  0.8186049E-001  0.2743292E+03  0.7818608E-02  0.1098827E+00
         -2   -1    0    0    0  501 -0.00000000000E+00  0.00000000000E+00  0.43261105738E+02  0.43261105738E+02  0.00000000000E+00 0.  1.
          2   -1    0    0  501    0  0.00000000000E+00 -0.00000000000E+00 -0.43489713002E+03  0.43489713002E+03  0.00000000000E+00 0.  1.
         35    2    1    2    0    0  0.00000000000E+00  0.14210854715E-13 -0.39163602428E+03  0.47815823576E+03  0.27432922358E+03 0.  0.
         25    2    3    3    0    0 -0.40889972887E+02  0.46944651576E+02 -0.23037377091E+03  0.26558337981E+03  0.11656185959E+03 0.  0.
         25    2    3    3    0    0  0.40889972887E+02 -0.46944651576E+02 -0.16126225337E+03  0.21257485595E+03  0.12372051093E+03 0.  0.
          5    1    4    4  502    0 -0.27907654224E+02  0.13353969792E+02  0.10662428933E+01  0.31311220791E+02  0.47000000000E+01 0.  1.
         -5    1    4    4    0  502 -0.12982318663E+02  0.33590681784E+02 -0.23144001381E+03  0.23427215902E+03  0.47000000000E+01 0.  1.
          5    1    5    5  503    0 -0.11080733645E+02  0.30913627041E+02 -0.86624017347E+02  0.92759071666E+02  0.47000000000E+01 0.  1.
         -5    1    5    5    0  503  0.51970706532E+02 -0.77858278617E+02 -0.74638236019E+02  0.11981578428E+03  0.47000000000E+01 0.  1.
<mgrwt>
<rscale>  0 0.27432922E+03</rscale>
<asrwt>0</asrwt>
<pdfrwt beam="1">  1        2 0.66907247E-01 0.27432922E+03</pdfrwt>
<pdfrwt beam="2">  1       -2 0.66555551E-02 0.27432922E+03</pdfrwt>
<totfact> 0.91149250E+03</totfact>
</mgrwt>
</event>
<event>
 9    1  0.8186049E-001  0.2737975E+03  0.7818608E-02  0.1099126E+00
          2   -1    0    0  501    0  0.00000000000E+00  0.00000000000E+00  0.70309879222E+03  0.70309879222E+03  0.00000000000E+00 0. -1.
         -2   -1    0    0    0  501 -0.00000000000E+00 -0.00000000000E+00 -0.26655243396E+02  0.26655243396E+02  0.00000000000E+00 0. -1.
         35    2    1    2    0    0 -0.71054273576E-14 -0.71054273576E-14  0.67644354882E+03  0.72975403561E+03  0.27379751232E+03 0.  0.
         25    2    3    3    0    0  0.26903525691E+02  0.40742967386E+02  0.25410563242E+03  0.28757448829E+03  0.12548157156E+03 0.  0.
         25    2    3    3    0    0 -0.26903525691E+02 -0.40742967386E+02  0.42233791640E+03  0.44217954732E+03  0.12153043798E+03 0.  0.
          5    1    4    4  502    0 -0.11873774504E+02 -0.86963890696E+01 -0.84186606591E+01  0.17594816030E+02  0.47000000000E+01 0.  1.
         -5    1    4    4    0  502  0.38777300195E+02  0.49439356456E+02  0.26252429308E+03  0.26997967226E+03  0.47000000000E+01 0.  1.
          5    1    5    5  503    0 -0.72251810024E+02 -0.87809472402E+01  0.27988504306E+03  0.28923201140E+03  0.47000000000E+01 0. -1.
         -5    1    5    5    0  503  0.45348284333E+02 -0.31962020146E+02  0.14245287333E+03  0.15294753592E+03  0.47000000000E+01 0. -1.
<mgrwt>
<rscale>  0 0.27379751E+03</rscale>
<asrwt>0</asrwt>
<pdfrwt beam="1">  1        2 0.10816903E+00 0.27379751E+03</pdfrwt>
<pdfrwt beam="2">  1       -2 0.41008072E-02 0.27379751E+03</pdfrwt>
<totfact> 0.10994879E+04</totfact>
</mgrwt>
</event>
<event>
 9    1  0.8186049E-001  0.2713456E+03  0.7818608E-02  0.1100512E+00
          1   -1    0    0  501    0  0.00000000000E+00  0.00000000000E+00  0.57872342184E+03  0.57872342184E+03  0.00000000000E+00 0.  1.
         -1   -1    0    0    0  501 -0.00000000000E+00 -0.00000000000E+00 -0.31806394538E+02  0.31806394538E+02  0.00000000000E+00 0.  1.
         35    2    1    2    0    0 -0.71054273576E-14 -0.71054273576E-14  0.54691702731E+03  0.61052981638E+03  0.27134557659E+03 0.  0.
         25    2    3    3    0    0  0.17839789989E+02  0.43451167772E+02  0.21881587836E+03  0.25634898634E+03  0.12501260772E+03 0.  0.
         25    2    3    3    0    0 -0.17839789989E+02 -0.43451167772E+02  0.32810114895E+03  0.35418083004E+03  0.12484964693E+03 0.  0.
          5    1    4    4  502    0 -0.81507661233E+01 -0.11177254723E-01  0.20281471353E+03  0.20303283759E+03  0.47000000000E+01 0.  1.
         -5    1    4    4    0  502  0.25990556112E+02  0.43462345026E+02  0.16001164824E+02  0.53316148754E+02  0.47000000000E+01 0.  1.
          5    1    5    5  503    0 -0.76528135112E+01  0.32783673777E+02  0.27097546348E+02  0.43470700926E+02  0.47000000000E+01 0.  1.
         -5    1    5    5    0  503 -0.10186976478E+02 -0.76234841548E+02  0.30100360260E+03  0.31071012911E+03  0.47000000000E+01 0.  1.
<mgrwt>
<rscale>  0 0.27134558E+03</rscale>
<asrwt>0</asrwt>
<pdfrwt beam="1">  1        1 0.89034365E-01 0.27134558E+03</pdfrwt>
<pdfrwt beam="2">  1       -1 0.48932919E-02 0.27134558E+03</pdfrwt>
<totfact> 0.66943807E+03</totfact>
</mgrwt>
</event>
<event>
 9    1  0.8186049E-001  0.2756353E+03  0.7818608E-02  0.1098097E+00
          1   -1    0    0  501    0  0.00000000000E+00  0.00000000000E+00  0.34276276485E+04  0.34276276485E+04  0.00000000000E+00 0.  1.
         -1   -1    0    0    0  501 -0.00000000000E+00 -0.00000000000E+00 -0.55413564197E+01  0.55413564197E+01  0.00000000000E+00 0.  1.
         35    2    1    2    0    0  0.00000000000E+00  0.00000000000E+00  0.34220862921E+04  0.34331690050E+04  0.27563531323E+03 0.  0.
         25    2    3    3    0    0  0.60436311965E+00 -0.30447554967E+02  0.10753089963E+04  0.10828566510E+04  0.12394220492E+03 0.  0.
         25    2    3    3    0    0 -0.60436311965E+00  0.30447554967E+02  0.23467772958E+04  0.23503123540E+04  0.12520809197E+03 0.  0.
          5    1    4    4  502    0 -0.34042506502E+02  0.27638950269E+02  0.70599998992E+03  0.70737605246E+03  0.47000000000E+01 0.  1.
         -5    1    4    4    0  502  0.34646869621E+02 -0.58086505237E+02  0.36930900641E+03  0.37548059854E+03  0.47000000000E+01 0.  1.
          5    1    5    5  503    0  0.48365831609E+02 -0.19372272261E+02  0.65450793432E+03  0.65659520611E+03  0.47000000000E+01 0.  1.
         -5    1    5    5    0  503 -0.48970194729E+02  0.49819827228E+02  0.16922693615E+04  0.16937171479E+04  0.47000000000E+01 0.  1.
<mgrwt>
<rscale>  0 0.27563531E+03</rscale>
<asrwt>0</asrwt>
<pdfrwt beam="1">  1        1 0.52732564E+00 0.27563531E+03</pdfrwt>
<pdfrwt beam="2">  1       -1 0.85251911E-03 0.27563531E+03</pdfrwt>
<totfact> 0.84234143E+02</totfact>
</mgrwt>
</event>
<event>
 9    1  0.8186049E-001  0.2692340E+03  0.7818608E-02  0.1101719E+00
         -3   -1    0    0    0  501 -0.00000000000E+00  0.00000000000E+00  0.41447492049E+02  0.41447492049E+02  0.00000000000E+00 0. -1.
          3   -1    0    0  501    0  0.00000000000E+00 -0.00000000000E+00 -0.43722171108E+03  0.43722171108E+03  0.00000000000E+00 0. -1.
         35    2    1    2    0    0  0.00000000000E+00  0.00000000000E+00 -0.39577421903E+03  0.47866920312E+03  0.26923404980E+03 0.  0.
         25    2    3    3    0    0 -0.32074065526E+02 -0.47291600100E+01 -0.12892827834E+03  0.18199110802E+03  0.12428657132E+03 0.  0.
         25    2    3    3    0    0  0.32074065526E+02  0.47291600100E+01 -0.26684594069E+03  0.29667809511E+03  0.12553893985E+03 0.  0.
          5    1    4    4  502    0 -0.19289303886E+02  0.46282270451E+02 -0.92768042938E+01  0.51208152675E+02  0.47000000000E+01 0. -1.
         -5    1    4    4    0  502 -0.12784761640E+02 -0.51011430461E+02 -0.11965147404E+03  0.13078295534E+03  0.47000000000E+01 0. -1.
          5    1    5    5  503    0  0.33168577936E+02 -0.56008070293E+02 -0.10370807681E+03  0.12253372473E+03  0.47000000000E+01 0. -1.
         -5    1    5    5    0  503 -0.10945124099E+01  0.60737230303E+02 -0.16313786388E+03  0.17414437037E+03  0.47000000000E+01 0. -1.
<mgrwt>
<rscale>  0 0.26923405E+03</rscale>
<asrwt>0</asrwt>
<pdfrwt beam="1">  1        3 0.67264880E-01 0.26923405E+03</pdfrwt>
<pdfrwt beam="2">  1       -3 0.63765371E-02 0.26923405E+03</pdfrwt>
<totfact> 0.84823470E+02</totfact>
</mgrwt>
</event>
<event>
 9    1  0.8186049E-001  0.2748932E+03  0.7818608E-02  0.1098511E+00
         -2   -1    0    0    0  501 -0.00000000000E+00  0.00000000000E+00  0.17853134718E+02  0.17853134718E+02  0.00000000000E+00 0.  1.
          2   -1    0    0  501    0  0.00000000000E+00 -0.00000000000E+00 -0.10581655567E+04  0.10581655567E+04  0.00000000000E+00 0.  1.
         35    2    1    2    0    0 -0.71054273576E-14  0.00000000000E+00 -0.10403124220E+04  0.10760186914E+04  0.27489323191E+03 0.  0.
         25    2    3    3    0    0  0.37914691259E+02 -0.44312144797E+01 -0.69221710130E+03  0.70424756214E+03  0.12386667823E+03 0.  0.
         25    2    3    3    0    0 -0.37914691259E+02  0.44312144797E+01 -0.34809532066E+03  0.37177112926E+03  0.12484494706E+03 0.  0.
          5    1    4    4  502    0  0.26521765014E+02  0.14898149273E+02 -0.34914637678E+02  0.46545470192E+02  0.47000000000E+01 0. -1.
         -5    1    4    4    0  502  0.11392926245E+02 -0.19329363753E+02 -0.65730246362E+03  0.65770209195E+03  0.47000000000E+01 0. -1.
          5    1    5    5  503    0 -0.13727231779E+02  0.29199767365E+02 -0.13391614045E+02  0.35248952229E+02  0.47000000000E+01 0. -1.
         -5    1    5    5    0  503 -0.24187459479E+02 -0.24768552885E+02 -0.33470370662E+03  0.33652217703E+03  0.47000000000E+01 0. -1.
<mgrwt>
<rscale>  0 0.27489323E+03</rscale>
<asrwt>0</asrwt>
<pdfrwt beam="1">  1        2 0.16279467E+00 0.27489323E+03</pdfrwt>
<pdfrwt beam="2">  1       -2 0.27466366E-02 0.27489323E+03</pdfrwt>
<totfact> 0.11666155E+04</totfact>
</mgrwt>
</event>
<event>
 9    1  0.8186049E-001  0.2734939E+03  0.7818608E-02  0.1099296E+00
         -3   -1    0    0    0  501 -0.00000000000E+00  0.00000000000E+00  0.99028036042E+03  0.99028036042E+03  0.00000000000E+00 0. -1.
          3   -1    0    0  501    0  0.00000000000E+00 -0.00000000000E+00 -0.18883272512E+02  0.18883272512E+02  0.00000000000E+00 0. -1.
         35    2    1    2    0    0  0.71054273576E-14  0.71054273576E-14  0.97139708791E+03  0.10091636329E+04  0.27349394077E+03 0.  0.
         25    2    3    3    0    0 -0.15112869108E+02 -0.50296088138E+02  0.55947785909E+03  0.57556638842E+03  0.12451143471E+03 0.  0.
         25    2    3    3    0    0  0.15112869108E+02  0.50296088138E+02  0.41191922882E+03  0.43359724451E+03  0.12478390955E+03 0.  0.
          5    1    4    4  502    0 -0.48144189245E+02 -0.77088355811E+02  0.34086839195E+03  0.35280848656E+03  0.47000000000E+01 0.  1.
         -5    1    4    4    0  502  0.33031320137E+02  0.26792267673E+02  0.21860946714E+03  0.22275790186E+03  0.47000000000E+01 0.  1.
          5    1    5    5  503    0 -0.49590321499E+02 -0.45895953636E+01  0.16871921332E+03  0.17597876950E+03  0.47000000000E+01 0. -1.
         -5    1    5    5    0  503  0.64703190607E+02  0.54885683502E+02  0.24320001550E+03  0.25761847502E+03  0.47000000000E+01 0. -1.
<mgrwt>
<rscale>  0 0.27349394E+03</rscale>
<asrwt>0</asrwt>
<pdfrwt beam="1">  1        3 0.29051196E-02 0.27349394E+03</pdfrwt>
<pdfrwt beam="2">  1       -3 0.15235078E+00 0.27349394E+03</pdfrwt>
<totfact> 0.44622966E+02</totfact>
</mgrwt>
</event>
<event>
 9    1  0.8186049E-001  0.2760179E+03  0.7818608E-02  0.1097884E+00
          1   -1    0    0  501    0  0.00000000000E+00  0.00000000000E+00  0.19447353690E+03  0.19447353690E+03  0.00000000000E+00 0. -1.
         -1   -1    0    0    0  501 -0.00000000000E+00 -0.00000000000E+00 -0.97938614903E+02  0.97938614903E+02  0.00000000000E+00 0. -1.
         35    2    1    2    0    0 -0.71054273576E-14  0.00000000000E+00  0.96534921994E+02  0.29241215180E+03  0.27601788956E+03 0.  0.
         25    2    3    3    0    0  0.40517460378E+02  0.42677191685E+02  0.56437329675E+02  0.14880844354E+03  0.12448202039E+03 0.  0.
         25    2    3    3    0    0 -0.40517460378E+02 -0.42677191685E+02  0.40097592319E+02  0.14360370826E+03  0.12470445394E+03 0.  0.
          5    1    4    4  502    0  0.37019145732E+02  0.86118471272E+02  0.38665599981E+02  0.10150826009E+03  0.47000000000E+01 0.  1.
         -5    1    4    4    0  502  0.34983146457E+01 -0.43441279588E+02  0.17771729694E+02  0.47300183445E+02  0.47000000000E+01 0.  1.
          5    1    5    5  503    0 -0.10233196244E+02  0.31657810637E+02  0.52415593561E+02  0.62260900476E+02  0.47000000000E+01 0.  1.
         -5    1    5    5    0  503 -0.30284264134E+02 -0.74335002321E+02 -0.12318001242E+02  0.81342807788E+02  0.47000000000E+01 0.  1.
<mgrwt>
<rscale>  0 0.27601789E+03</rscale>
<asrwt>0</asrwt>
<pdfrwt beam="1">  1        1 0.29919006E-01 0.27601789E+03</pdfrwt>
<pdfrwt beam="2">  1       -1 0.15067479E-01 0.27601789E+03</pdfrwt>
<totfact> 0.48182912E+03</totfact>
</mgrwt>
</event>
<event>
 9    1  0.8186049E-001  0.2743953E+03  0.7818608E-02  0.1098790E+00
         -4   -1    0    0    0  501 -0.00000000000E+00  0.00000000000E+00  0.31609771600E+02  0.31609771600E+02  0.00000000000E+00 0.  1.
          4   -1    0    0  501    0  0.00000000000E+00 -0.00000000000E+00 -0.59548648669E+03  0.59548648669E+03  0.00000000000E+00 0.  1.
         35    2    1    2    0    0  0.14210854715E-13  0.00000000000E+00 -0.56387671509E+03  0.62709625829E+03  0.27439527573E+03 0.  0.
         25    2    3    3    0    0 -0.40922883588E+02  0.37089948893E+02 -0.31129770461E+03  0.33998177941E+03  0.12502400859E+03 0.  0.
         25    2    3    3    0    0  0.40922883588E+02 -0.37089948893E+02 -0.25257901048E+03  0.28711447888E+03  0.12485279628E+03 0.  0.
          5    1    4    4  502    0  0.38879772587E+02  0.31147366260E+02 -0.72524848223E+02  0.88112080620E+02  0.47000000000E+01 0.  1.
         -5    1    4    4    0  502 -0.79802656174E+02  0.59425826330E+01 -0.23877285639E+03  0.25186969879E+03  0.47000000000E+01 0.  1.
          5    1    5    5  503    0  0.76419162638E+02 -0.38678845348E+02 -0.10674055612E+03  0.13693640062E+03  0.47000000000E+01 0.  1.
         -5    1    5    5    0  503 -0.35496279050E+02  0.15888964545E+01 -0.14583845436E+03  0.15017807826E+03  0.47000000000E+01 0.  1.
<mgrwt>
<rscale>  0 0.27439528E+03</rscale>
<asrwt>0</asrwt>
<pdfrwt beam="1">  1        4 0.91613308E-01 0.27439528E+03</pdfrwt>
<pdfrwt beam="2">  1       -4 0.48630417E-02 0.27439528E+03</pdfrwt>
<totfact> 0.48903493E+02</totfact>
</mgrwt>
</event>
<event>
 9    1  0.8186049E-001  0.2770396E+03  0.7818608E-02  0.1097317E+00
          2   -1    0    0  501    0  0.00000000000E+00  0.00000000000E+00  0.64403107814E+03  0.64403107814E+03  0.00000000000E+00 0. -1.
         -2   -1    0    0    0  501 -0.00000000000E+00 -0.00000000000E+00 -0.29793185462E+02  0.29793185462E+02  0.00000000000E+00 0. -1.
         35    2    1    2    0    0  0.00000000000E+00  0.00000000000E+00  0.61423789268E+03  0.67382426360E+03  0.27703961705E+03 0.  0.
         25    2    3    3    0    0 -0.29959996351E+02 -0.28581817590E+02  0.39717209758E+03  0.41954631922E+03  0.12868145630E+03 0.  0.
         25    2    3    3    0    0  0.29959996351E+02  0.28581817590E+02  0.21706579509E+03  0.25427794438E+03  0.12579821906E+03 0.  0.
          5    1    4    4  502    0  0.22935330155E+02  0.40488847539E+02  0.11233749957E+03  0.12168475645E+03  0.47000000000E+01 0.  1.
         -5    1    4    4    0  502 -0.52895326506E+02 -0.69070665129E+02  0.28483459802E+03  0.29786156277E+03  0.47000000000E+01 0.  1.
          5    1    5    5  503    0  0.26152884861E+02  0.14741426520E+02  0.23144045608E+03  0.23342677171E+03  0.47000000000E+01 0.  1.
         -5    1    5    5    0  503  0.38071114903E+01  0.13840391070E+02 -0.14374660988E+02  0.20851172663E+02  0.47000000000E+01 0.  1.
<mgrwt>
<rscale>  0 0.27703962E+03</rscale>
<asrwt>0</asrwt>
<pdfrwt beam="1">  1        2 0.99081694E-01 0.27703962E+03</pdfrwt>
<pdfrwt beam="2">  1       -2 0.45835675E-02 0.27703962E+03</pdfrwt>
<totfact> 0.10330133E+04</totfact>
</mgrwt>
</event>
<event>
 9    1  0.8186049E-001  0.2760657E+03  0.7818608E-02  0.1097857E+00
          1   -1    0    0  501    0  0.00000000000E+00  0.00000000000E+00  0.40153952101E+03  0.40153952101E+03  0.00000000000E+00 0. -1.
         -1   -1    0    0    0  501 -0.00000000000E+00 -0.00000000000E+00 -0.47450030300E+02  0.47450030300E+02  0.00000000000E+00 0. -1.
         35    2    1    2    0    0  0.71054273576E-14  0.71054273576E-14  0.35408949071E+03  0.44898955131E+03  0.27606566203E+03 0.  0.
         25    2    3    3    0    0  0.36727357238E+01 -0.47519324774E+02  0.10849453904E+03  0.17207850002E+03  0.12477327420E+03 0.  0.
         25    2    3    3    0    0 -0.36727357238E+01  0.47519324774E+02  0.24559495167E+03  0.27691105128E+03  0.11870667556E+03 0.  0.
          5    1    4    4  502    0 -0.18153847300E+02  0.44675836433E+01 -0.22356146808E+02  0.29519633729E+02  0.47000000000E+01 0. -1.
         -5    1    4    4    0  502  0.21826583024E+02 -0.51986908417E+02  0.13085068584E+03  0.14255886629E+03  0.47000000000E+01 0. -1.
          5    1    5    5  503    0  0.51111941722E+02  0.67067489911E+01  0.60879646573E+02  0.79911403663E+02  0.47000000000E+01 0.  1.
         -5    1    5    5    0  503 -0.54784677446E+02  0.40812575783E+02  0.18471530510E+03  0.19699964762E+03  0.47000000000E+01 0.  1.
<mgrwt>
<rscale>  0 0.27606566E+03</rscale>
<asrwt>0</asrwt>
<pdfrwt beam="1">  1        1 0.61775309E-01 0.27606566E+03</pdfrwt>
<pdfrwt beam="2">  1       -1 0.73000049E-02 0.27606566E+03</pdfrwt>
<totfact> 0.59408399E+03</totfact>
</mgrwt>
</event>
<event>
 9    1  0.8186049E-001  0.2740447E+03  0.7818608E-02  0.1098987E+00
          2   -1    0    0  501    0  0.00000000000E+00  0.00000000000E+00  0.12777838787E+04  0.12777838787E+04  0.00000000000E+00 0. -1.
         -2   -1    0    0    0  501 -0.00000000000E+00 -0.00000000000E+00 -0.14693509913E+02  0.14693509913E+02  0.00000000000E+00 0. -1.
         35    2    1    2    0    0  0.71054273576E-14  0.00000000000E+00  0.12630903687E+04  0.12924773886E+04  0.27404474152E+03 0.  0.
         25    2    3    3    0    0  0.50835829272E+02  0.89107428964E+00  0.73791990963E+03  0.75010614024E+03  0.12469303529E+03 0.  0.
         25    2    3    3    0    0 -0.50835829272E+02 -0.89107428964E+00  0.52517045911E+03  0.54237124832E+03  0.12560845647E+03 0.  0.
          5    1    4    4  502    0 -0.45488036542E+01  0.38625313840E+02  0.83346599147E+02  0.92094256462E+02  0.47000000000E+01 0.  1.
         -5    1    4    4    0  502  0.55384632926E+02 -0.37734239551E+02  0.65457331048E+03  0.65801188378E+03  0.47000000000E+01 0.  1.
          5    1    5    5  503    0 -0.18864398038E+02 -0.50369567290E+02  0.40363133822E+03  0.40722635722E+03  0.47000000000E+01 0.  1.
         -5    1    5    5    0  503 -0.31971431234E+02  0.49478493001E+02  0.12153912089E+03  0.13514489111E+03  0.47000000000E+01 0.  1.
<mgrwt>
<rscale>  0 0.27404474E+03</rscale>
<asrwt>0</asrwt>
<pdfrwt beam="1">  1        2 0.19658205E+00 0.27404474E+03</pdfrwt>
<pdfrwt beam="2">  1       -2 0.22605410E-02 0.27404474E+03</pdfrwt>
<totfact> 0.11636568E+04</totfact>
</mgrwt>
</event>
<event>
 9    1  0.8186049E-001  0.2782477E+03  0.7818608E-02  0.1096650E+00
         -1   -1    0    0    0  501 -0.00000000000E+00  0.00000000000E+00  0.91456071910E+01  0.91456071910E+01  0.00000000000E+00 0. -1.
          1   -1    0    0  501    0  0.00000000000E+00 -0.00000000000E+00 -0.21163660455E+04  0.21163660455E+04  0.00000000000E+00 0. -1.
         35    2    1    2    0    0  0.00000000000E+00  0.35527136788E-14 -0.21072204383E+04  0.21255116526E+04  0.27824774949E+03 0.  0.
         25    2    3    3    0    0 -0.55562692084E+02  0.27905283243E+00 -0.83844267108E+03  0.84952480011E+03  0.12497592844E+03 0.  0.
         25    2    3    3    0    0  0.55562692084E+02 -0.27905283243E+00 -0.12687777672E+04  0.12759868525E+04  0.12352382251E+03 0.  0.
          5    1    4    4  502    0 -0.27244145052E+02  0.24308446419E+02 -0.61467969986E+02  0.71648763710E+02  0.47000000000E+01 0. -1.
         -5    1    4    4    0  502 -0.28318547032E+02 -0.24029393586E+02 -0.77697470110E+03  0.77787603640E+03  0.47000000000E+01 0. -1.
          5    1    5    5  503    0  0.50052064128E+02 -0.44627262898E+02 -0.10736258142E+04  0.10757282560E+04  0.47000000000E+01 0.  1.
         -5    1    5    5    0  503  0.55106279567E+01  0.44348210066E+02 -0.19515195294E+03  0.20025859655E+03  0.47000000000E+01 0.  1.
<mgrwt>
<rscale>  0 0.27824775E+03</rscale>
<asrwt>0</asrwt>
<pdfrwt beam="1">  1        1 0.32559478E+00 0.27824775E+03</pdfrwt>
<pdfrwt beam="2">  1       -1 0.14070165E-02 0.27824775E+03</pdfrwt>
<totfact> 0.32468689E+03</totfact>
</mgrwt>
</event>
<event>
 9    1  0.8186049E-001  0.2774642E+03  0.7818608E-02  0.1097082E+00
          1   -1    0    0  501    0  0.00000000000E+00  0.00000000000E+00  0.16462555354E+04  0.16462555354E+04  0.00000000000E+00 0. -1.
         -1   -1    0    0    0  501 -0.00000000000E+00 -0.00000000000E+00 -0.11691136765E+02  0.11691136765E+02  0.00000000000E+00 0. -1.
         35    2    1    2    0    0  0.00000000000E+00  0.71054273576E-14  0.16345643986E+04  0.16579466722E+04  0.27746422194E+03 0.  0.
         25    2    3    3    0    0  0.53257718242E+02  0.27587023240E+02  0.93293510743E+03  0.94314172031E+03  0.12470349442E+03 0.  0.
         25    2    3    3    0    0 -0.53257718242E+02 -0.27587023240E+02  0.70162929122E+03  0.71480495186E+03  0.12273967780E+03 0.  0.
          5    1    4    4  502    0  0.16781779458E+02 -0.48841942354E+02  0.28510877276E+03  0.28978658657E+03  0.47000000000E+01 0. -1.
         -5    1    4    4    0  502  0.36475938784E+02  0.76428965595E+02  0.64782633467E+03  0.65335513374E+03  0.47000000000E+01 0. -1.
          5    1    5    5  503    0 -0.37613100221E+01  0.77140406251E+01  0.56616439383E+03  0.56624894235E+03  0.47000000000E+01 0. -1.
         -5    1    5    5    0  503 -0.49496408219E+02 -0.35301063865E+02  0.13546489739E+03  0.14855600951E+03  0.47000000000E+01 0. -1.
<mgrwt>
<rscale>  0 0.27746422E+03</rscale>
<asrwt>0</asrwt>
<pdfrwt beam="1">  1        1 0.25326990E+00 0.27746422E+03</pdfrwt>
<pdfrwt beam="2">  1       -1 0.17986377E-02 0.27746422E+03</pdfrwt>
<totfact> 0.45909851E+03</totfact>
</mgrwt>
</event>
<event>
 9    1  0.8186049E-001  0.2837453E+03  0.7818608E-02  0.1093661E+00
         -1   -1    0    0    0  501 -0.00000000000E+00  0.00000000000E+00  0.10458129087E+02  0.10458129087E+02  0.00000000000E+00 0. -1.
          1   -1    0    0  501    0  0.00000000000E+00 -0.00000000000E+00 -0.19246128806E+04  0.19246128806E+04  0.00000000000E+00 0. -1.
         35    2    1    2    0    0  0.00000000000E+00 -0.35527136788E-14 -0.19141547515E+04  0.19350710097E+04  0.28374530797E+03 0.  0.
         25    2    3    3    0    0  0.42422688459E+02 -0.12450235043E+02 -0.12367850914E+04  0.12448266066E+04  0.13416864488E+03 0.  0.
         25    2    3    3    0    0 -0.42422688459E+02  0.12450235043E+02 -0.67736966009E+03  0.69024440309E+03  0.12511189689E+03 0.  0.
          5    1    4    4  502    0 -0.20462630828E+02 -0.56074381725E+02 -0.70553772558E+03  0.70807388581E+03  0.47000000000E+01 0. -1.
         -5    1    4    4    0  502  0.62885319287E+02  0.43624146683E+02 -0.53124736586E+03  0.53675272080E+03  0.47000000000E+01 0. -1.
          5    1    5    5  503    0 -0.26350960333E+02  0.15375875256E+02 -0.67157689011E+03  0.67228595105E+03  0.47000000000E+01 0. -1.
         -5    1    5    5    0  503 -0.16071728126E+02 -0.29256402131E+01 -0.57927699730E+01  0.17958452037E+02  0.47000000000E+01 0. -1.
<mgrwt>
<rscale>  0 0.28374531E+03</rscale>
<asrwt>0</asrwt>
<pdfrwt beam="1">  1        1 0.29609368E+00 0.28374531E+03</pdfrwt>
<pdfrwt beam="2">  1       -1 0.16089463E-02 0.28374531E+03</pdfrwt>
<totfact> 0.35584095E+03</totfact>
</mgrwt>
</event>
<event>
 9    1  0.8186049E-001  0.2801195E+03  0.7818608E-02  0.1095624E+00
         -1   -1    0    0    0  501 -0.00000000000E+00  0.00000000000E+00  0.14223899537E+03  0.14223899537E+03  0.00000000000E+00 0.  1.
          1   -1    0    0  501    0  0.00000000000E+00 -0.00000000000E+00 -0.13791387197E+03  0.13791387197E+03  0.00000000000E+00 0.  1.
         35    2    1    2    0    0  0.00000000000E+00  0.00000000000E+00  0.43251234070E+01  0.28015286734E+03  0.28011947877E+03 0.  0.
         25    2    3    3    0    0 -0.45780977263E+02  0.15286123719E+02  0.42658877829E+02  0.14079297336E+03  0.12519312295E+03 0.  0.
         25    2    3    3    0    0  0.45780977263E+02 -0.15286123719E+02 -0.38333754422E+02  0.13935989398E+03  0.12498855894E+03 0.  0.
          5    1    4    4  502    0 -0.76941072173E+02  0.12405019557E+02  0.65381061226E+02  0.10183607546E+03  0.47000000000E+01 0. -1.
         -5    1    4    4    0  502  0.31160094910E+02  0.28811041621E+01 -0.22722183397E+02  0.38956897905E+02  0.47000000000E+01 0. -1.
          5    1    5    5  503    0  0.49608039087E+02  0.25604994863E+02 -0.68274542003E+02  0.88318041134E+02  0.47000000000E+01 0. -1.
         -5    1    5    5    0  503 -0.38270618237E+01 -0.40891118582E+02  0.29940787581E+02  0.51041852847E+02  0.47000000000E+01 0. -1.
<mgrwt>
<rscale>  0 0.28011948E+03</rscale>
<asrwt>0</asrwt>
<pdfrwt beam="1">  1        1 0.21217519E-01 0.28011948E+03</pdfrwt>
<pdfrwt beam="2">  1       -1 0.21882922E-01 0.28011948E+03</pdfrwt>
<totfact> 0.40899471E+03</totfact>
</mgrwt>
</event>
<event>
 9    1  0.8186049E-001  0.2755941E+03  0.7818608E-02  0.1098120E+00
         -2   -1    0    0    0  501 -0.00000000000E+00  0.00000000000E+00  0.15642881275E+02  0.15642881275E+02  0.00000000000E+00 0.  1.
          2   -1    0    0  501    0  0.00000000000E+00 -0.00000000000E+00 -0.12138442128E+04  0.12138442128E+04  0.00000000000E+00 0.  1.
         35    2    1    2    0    0 -0.14210854715E-13 -0.35527136788E-14 -0.11982013315E+04  0.12294870941E+04  0.27559405586E+03 0.  0.
         25    2    3    3    0    0  0.46114188121E+02 -0.28618439355E+02 -0.50609332575E+03  0.52419500791E+03  0.12531727151E+03 0.  0.
         25    2    3    3    0    0 -0.46114188121E+02  0.28618439355E+02 -0.69210800577E+03  0.70529208615E+03  0.12441021551E+03 0.  0.
          5    1    4    4  502    0  0.37674205996E+02  0.24154637004E+02 -0.60585552292E+02  0.75468479730E+02  0.47000000000E+01 0. -1.
         -5    1    4    4    0  502  0.84399821247E+01 -0.52773076360E+02 -0.44550777345E+03  0.44872652818E+03  0.47000000000E+01 0. -1.
          5    1    5    5  503    0  0.21185876800E+01 -0.12347561727E+02 -0.35869528988E+01  0.13853047515E+02  0.47000000000E+01 0. -1.
         -5    1    5    5    0  503 -0.48232775801E+02  0.40966001082E+02 -0.68852105287E+03  0.69143903864E+03  0.47000000000E+01 0. -1.
<mgrwt>
<rscale>  0 0.27559406E+03</rscale>
<asrwt>0</asrwt>
<pdfrwt beam="1">  1        2 0.18674527E+00 0.27559406E+03</pdfrwt>
<pdfrwt beam="2">  1       -2 0.24065970E-02 0.27559406E+03</pdfrwt>
<totfact> 0.11524158E+04</totfact>
</mgrwt>
</event>
<event>
 9    1  0.8186049E-001  0.2735450E+03  0.7818608E-02  0.1099268E+00
          2   -1    0    0  501    0  0.00000000000E+00  0.00000000000E+00  0.26947628443E+02  0.26947628443E+02  0.00000000000E+00 0. -1.
         -2   -1    0    0    0  501 -0.00000000000E+00 -0.00000000000E+00 -0.69418774612E+03  0.69418774612E+03  0.00000000000E+00 0. -1.
         35    2    1    2    0    0  0.00000000000E+00  0.00000000000E+00 -0.66724011768E+03  0.72113537456E+03  0.27354497584E+03 0.  0.
         25    2    3    3    0    0 -0.23073914470E+02  0.35230794809E+02 -0.43020007715E+03  0.44973853805E+03  0.12417339405E+03 0.  0.
         25    2    3    3    0    0  0.23073914470E+02 -0.35230794809E+02 -0.23704004052E+03  0.27139683652E+03  0.12527828075E+03 0.  0.
          5    1    4    4  502    0 -0.77319083618E+01 -0.32917682119E+02 -0.36956960254E+02  0.50311659824E+02  0.47000000000E+01 0. -1.
         -5    1    4    4    0  502 -0.15342006108E+02  0.68148476928E+02 -0.39324311690E+03  0.39942687822E+03  0.47000000000E+01 0. -1.
          5    1    5    5  503    0  0.12723614802E+01 -0.67261886715E+02 -0.21756538607E+03  0.22777745175E+03  0.47000000000E+01 0. -1.
         -5    1    5    5    0  503  0.21801552990E+02  0.32031091906E+02 -0.19474654452E+02  0.43619384767E+02  0.47000000000E+01 0. -1.
<mgrwt>
<rscale>  0 0.27354498E+03</rscale>
<asrwt>0</asrwt>
<pdfrwt beam="1">  1        2 0.41457887E-02 0.27354498E+03</pdfrwt>
<pdfrwt beam="2">  1       -2 0.10679812E+00 0.27354498E+03</pdfrwt>
<totfact> 0.14824244E+03</totfact>
</mgrwt>
</event>
<event>
 9    1  0.8186049E-001  0.2802250E+03  0.7818608E-02  0.1095566E+00
          1   -1    0    0  501    0  0.00000000000E+00  0.00000000000E+00  0.30906684065E+02  0.30906684065E+02  0.00000000000E+00 0. -1.
         -1   -1    0    0    0  501 -0.00000000000E+00 -0.00000000000E+00 -0.63518674826E+03  0.63518674826E+03  0.00000000000E+00 0. -1.
         35    2    1    2    0    0  0.71054273576E-14  0.71054273576E-14 -0.60428006420E+03  0.66609343233E+03  0.28022502494E+03 0.  0.
         25    2    3    3    0    0 -0.47915972830E+02  0.38250342463E+02 -0.33247964359E+03  0.36043590909E+03  0.12494919771E+03 0.  0.
         25    2    3    3    0    0  0.47915972830E+02 -0.38250342463E+02 -0.27180042060E+03  0.30565752323E+03  0.12566631895E+03 0.  0.
          5    1    4    4  502    0 -0.26678242025E+02 -0.43571372630E+02 -0.16468539406E+03  0.17249220889E+03  0.47000000000E+01 0. -1.
         -5    1    4    4    0  502 -0.21237730804E+02  0.81821715093E+02 -0.16779424954E+03  0.18794370021E+03  0.47000000000E+01 0. -1.
          5    1    5    5  503    0  0.88373370529E+02 -0.43747101337E+02 -0.19316835192E+03  0.21693262474E+03  0.47000000000E+01 0. -1.
         -5    1    5    5    0  503 -0.40457397699E+02  0.54967588741E+01 -0.78632068683E+02  0.88724898490E+02  0.47000000000E+01 0. -1.
<mgrwt>
<rscale>  0 0.28022502E+03</rscale>
<asrwt>0</asrwt>
<pdfrwt beam="1">  1        1 0.47548744E-02 0.28022502E+03</pdfrwt>
<pdfrwt beam="2">  1       -1 0.97721039E-01 0.28022502E+03</pdfrwt>
<totfact> 0.18934772E+03</totfact>
</mgrwt>
</event>
<event>
 9    1  0.8186049E-001  0.2758197E+03  0.7818608E-02  0.1097994E+00
         -2   -1    0    0    0  501 -0.00000000000E+00  0.00000000000E+00  0.43015876292E+02  0.43015876292E+02  0.00000000000E+00 0.  1.
          2   -1    0    0  501    0  0.00000000000E+00 -0.00000000000E+00 -0.44214190001E+03  0.44214190001E+03  0.00000000000E+00 0.  1.
         35    2    1    2    0    0  0.00000000000E+00  0.00000000000E+00 -0.39912602372E+03  0.48515777630E+03  0.27581966046E+03 0.  0.
         25    2    3    3    0    0  0.30432786850E+02  0.59800936724E+01 -0.28713407428E+03  0.31473276433E+03  0.12509524490E+03 0.  0.
         25    2    3    3    0    0 -0.30432786850E+02 -0.59800936724E+01 -0.11199194944E+03  0.17042501197E+03  0.12466183029E+03 0.  0.
          5    1    4    4  502    0 -0.29777008831E+02 -0.13056557443E+02 -0.22002897712E+03  0.22246794088E+03  0.47000000000E+01 0. -1.
         -5    1    4    4    0  502  0.60209795682E+02  0.19036651115E+02 -0.67105097159E+02  0.92264823451E+02  0.47000000000E+01 0. -1.
          5    1    5    5  503    0 -0.49416658162E+02 -0.37572988330E+01  0.65941751627E+01  0.50216496737E+02  0.47000000000E+01 0.  1.
         -5    1    5    5    0  503  0.18983871312E+02 -0.22227948394E+01 -0.11858612460E+03  0.12020851524E+03  0.47000000000E+01 0.  1.
<mgrwt>
<rscale>  0 0.27581966E+03</rscale>
<asrwt>0</asrwt>
<pdfrwt beam="1">  1        2 0.68021831E-01 0.27581966E+03</pdfrwt>
<pdfrwt beam="2">  1       -2 0.66178271E-02 0.27581966E+03</pdfrwt>
<totfact> 0.90319143E+03</totfact>
</mgrwt>
</event>
<event>
 9    1  0.8186049E-001  0.2614454E+03  0.7818608E-02  0.1106278E+00
          2   -1    0    0  501    0  0.00000000000E+00  0.00000000000E+00  0.10134112936E+04  0.10134112936E+04  0.00000000000E+00 0.  1.
         -2   -1    0    0    0  501 -0.00000000000E+00 -0.00000000000E+00 -0.16862282884E+02  0.16862282884E+02  0.00000000000E+00 0.  1.
         35    2    1    2    0    0  0.71054273576E-14 -0.71054273576E-14  0.99654901067E+03  0.10302735764E+04  0.26144542765E+03 0.  0.
         25    2    3    3    0    0  0.40413034347E+02 -0.87919454165E+01  0.50818182145E+03  0.52489336459E+03  0.12471475010E+03 0.  0.
         25    2    3    3    0    0 -0.40413034347E+02  0.87919454165E+01  0.48836718922E+03  0.50538021185E+03  0.12327260592E+03 0.  0.
          5    1    4    4  502    0 -0.40236990552E+02 -0.26863559142E+02  0.18939006772E+03  0.19552839684E+03  0.47000000000E+01 0.  1.
         -5    1    4    4    0  502  0.80650024899E+02  0.18071613726E+02  0.31879175372E+03  0.32936496775E+03  0.47000000000E+01 0.  1.
          5    1    5    5  503    0 -0.49357224359E+02 -0.47138535535E+02  0.19752875658E+03  0.20904037123E+03  0.47000000000E+01 0. -1.
         -5    1    5    5    0  503  0.89441900124E+01  0.55930480951E+02  0.29083843265E+03  0.29633984062E+03  0.47000000000E+01 0. -1.
<mgrwt>
<rscale>  0 0.26144543E+03</rscale>
<asrwt>0</asrwt>
<pdfrwt beam="1">  1        2 0.15590938E+00 0.26144543E+03</pdfrwt>
<pdfrwt beam="2">  1       -2 0.25941982E-02 0.26144543E+03</pdfrwt>
<totfact> 0.13486685E+04</totfact>
</mgrwt>
</event>
<event>
 9    1  0.8186049E-001  0.2741568E+03  0.7818608E-02  0.1098924E+00
         -2   -1    0    0    0  501 -0.00000000000E+00  0.00000000000E+00  0.10705554129E+02  0.10705554129E+02  0.00000000000E+00 0.  1.
          2   -1    0    0  501    0  0.00000000000E+00 -0.00000000000E+00 -0.17552091936E+04  0.17552091936E+04  0.00000000000E+00 0.  1.
         35    2    1    2    0    0 -0.35527136788E-14  0.14210854715E-13 -0.17445036394E+04  0.17659147477E+04  0.27415679476E+03 0.  0.
         25    2    3    3    0    0  0.80087231986E+01  0.48511156885E+02 -0.84440139377E+03  0.85497687731E+03  0.12471677892E+03 0.  0.
         25    2    3    3    0    0 -0.80087231986E+01 -0.48511156885E+02 -0.90010224566E+03  0.91093787037E+03  0.13117270697E+03 0.  0.
          5    1    4    4  502    0 -0.50913889077E+02  0.37068269202E+02 -0.59803973065E+03  0.60136502236E+03  0.47000000000E+01 0. -1.
         -5    1    4    4    0  502  0.58922612275E+02  0.11442887683E+02 -0.24636166311E+03  0.25361185494E+03  0.47000000000E+01 0. -1.
          5    1    5    5  503    0  0.10125872942E+02 -0.89611526980E+02 -0.48055555850E+03  0.48896676152E+03  0.47000000000E+01 0. -1.
         -5    1    5    5    0  503 -0.18134596140E+02  0.41100370095E+02 -0.41954668716E+03  0.42197110885E+03  0.47000000000E+01 0. -1.
<mgrwt>
<rscale>  0 0.27415679E+03</rscale>
<asrwt>0</asrwt>
<pdfrwt beam="1">  1        2 0.27003238E+00 0.27415679E+03</pdfrwt>
<pdfrwt beam="2">  1       -2 0.16470071E-02 0.27415679E+03</pdfrwt>
<totfact> 0.10277241E+04</totfact>
</mgrwt>
</event>
<event>
 9    1  0.8186049E-001  0.2753475E+03  0.7818608E-02  0.1098257E+00
          2   -1    0    0  501    0  0.00000000000E+00  0.00000000000E+00  0.68255464653E+03  0.68255464653E+03  0.00000000000E+00 0. -1.
         -2   -1    0    0    0  501 -0.00000000000E+00 -0.00000000000E+00 -0.27769302537E+02  0.27769302537E+02  0.00000000000E+00 0. -1.
         35    2    1    2    0    0  0.00000000000E+00 -0.10658141036E-13  0.65478534400E+03  0.71032394907E+03  0.27534753660E+03 0.  0.
         25    2    3    3    0    0  0.49464608379E+02  0.23366518739E+02  0.38299785868E+03  0.40630413350E+03  0.12410861156E+03 0.  0.
         25    2    3    3    0    0 -0.49464608379E+02 -0.23366518739E+02  0.27178748531E+03  0.30401981557E+03  0.12476726096E+03 0.  0.
          5    1    4    4  502    0  0.12621885570E+02  0.66922374802E+02  0.12913675876E+03  0.14606953381E+03  0.47000000000E+01 0. -1.
         -5    1    4    4    0  502  0.36842722809E+02 -0.43555856063E+02  0.25386109992E+03  0.26023459968E+03  0.47000000000E+01 0. -1.
          5    1    5    5  503    0 -0.54470315245E+02  0.15953801400E+02  0.41931807969E+02  0.70724151049E+02  0.47000000000E+01 0.  1.
         -5    1    5    5    0  503  0.50057068661E+01 -0.39320320140E+02  0.22985567734E+03  0.23329566452E+03  0.47000000000E+01 0.  1.
<mgrwt>
<rscale>  0 0.27534754E+03</rscale>
<asrwt>0</asrwt>
<pdfrwt beam="1">  1        2 0.10500839E+00 0.27534754E+03</pdfrwt>
<pdfrwt beam="2">  1       -2 0.42722009E-02 0.27534754E+03</pdfrwt>
<totfact> 0.10716633E+04</totfact>
</mgrwt>
</event>
<event>
 9    1  0.8186049E-001  0.2721466E+03  0.7818608E-02  0.1100057E+00
          1   -1    0    0  501    0  0.00000000000E+00  0.00000000000E+00  0.29805615549E+03  0.29805615549E+03  0.00000000000E+00 0. -1.
         -1   -1    0    0    0  501 -0.00000000000E+00 -0.00000000000E+00 -0.62122317739E+02  0.62122317739E+02  0.00000000000E+00 0. -1.
         35    2    1    2    0    0 -0.35527136788E-14 -0.71054273576E-14  0.23593383775E+03  0.36017847323E+03  0.27214657224E+03 0.  0.
         25    2    3    3    0    0 -0.13226835530E+01 -0.88773682547E+01  0.44495761981E+02  0.13099761066E+03  0.12288182944E+03 0.  0.
         25    2    3    3    0    0  0.13226835530E+01  0.88773682547E+01  0.19143807577E+03  0.22918086257E+03  0.12567726029E+03 0.  0.
          5    1    4    4  502    0 -0.42651502014E+02 -0.42857870170E+02  0.47749585983E+02  0.77188474665E+02  0.47000000000E+01 0.  1.
         -5    1    4    4    0  502  0.41328818461E+02  0.33980501916E+02 -0.32538240017E+01  0.53809135994E+02  0.47000000000E+01 0.  1.
          5    1    5    5  503    0 -0.29253140747E+02 -0.43710535224E+02  0.41039711802E+02  0.66878285548E+02  0.47000000000E+01 0.  1.
         -5    1    5    5    0  503  0.30575824300E+02  0.52587903478E+02  0.15039836397E+03  0.16230257702E+03  0.47000000000E+01 0.  1.
<mgrwt>
<rscale>  0 0.27214657E+03</rscale>
<asrwt>0</asrwt>
<pdfrwt beam="1">  1        1 0.45854792E-01 0.27214657E+03</pdfrwt>
<pdfrwt beam="2">  1       -1 0.95572798E-02 0.27214657E+03</pdfrwt>
<totfact> 0.57364018E+03</totfact>
</mgrwt>
</event>
<event>
 9    1  0.8186049E-001  0.2766514E+03  0.7818608E-02  0.1097532E+00
         -2   -1    0    0    0  501 -0.00000000000E+00  0.00000000000E+00  0.35579267719E+03  0.35579267719E+03  0.00000000000E+00 0. -1.
          2   -1    0    0  501    0  0.00000000000E+00 -0.00000000000E+00 -0.53778510677E+02  0.53778510677E+02  0.00000000000E+00 0. -1.
         35    2    1    2    0    0  0.00000000000E+00  0.00000000000E+00  0.30201416651E+03  0.40957118787E+03  0.27665140729E+03 0.  0.
         25    2    3    3    0    0  0.36059009844E+02 -0.26271943358E+02  0.90893763463E+02  0.16041968577E+03  0.12442801994E+03 0.  0.
         25    2    3    3    0    0 -0.36059009844E+02  0.26271943358E+02  0.21112040305E+03  0.24915150210E+03  0.12455592807E+03 0.  0.
          5    1    4    4  502    0  0.79202759657E+02 -0.18149435158E+02  0.33520137719E+02  0.88023682987E+02  0.47000000000E+01 0.  1.
         -5    1    4    4    0  502 -0.43143749813E+02 -0.81225082002E+01  0.57373625744E+02  0.72396002779E+02  0.47000000000E+01 0.  1.
          5    1    5    5  503    0  0.31806180134E+02  0.48780571039E+02  0.72533730353E+02  0.93136508655E+02  0.47000000000E+01 0. -1.
         -5    1    5    5    0  503 -0.67865189978E+02 -0.22508627680E+02  0.13858667270E+03  0.15601499345E+03  0.47000000000E+01 0. -1.
<mgrwt>
<rscale>  0 0.27665141E+03</rscale>
<asrwt>0</asrwt>
<pdfrwt beam="1">  1        2 0.82736173E-02 0.27665141E+03</pdfrwt>
<pdfrwt beam="2">  1       -2 0.54737333E-01 0.27665141E+03</pdfrwt>
<totfact> 0.25962895E+03</totfact>
</mgrwt>
</event>
<event>
 9    1  0.8186049E-001  0.2892404E+03  0.7818608E-02  0.1090746E+00
         -1   -1    0    0    0  501 -0.00000000000E+00  0.00000000000E+00  0.50864779771E+02  0.50864779771E+02  0.00000000000E+00 0. -1.
          1   -1    0    0  501    0  0.00000000000E+00 -0.00000000000E+00 -0.41118825360E+03  0.41118825360E+03  0.00000000000E+00 0. -1.
         35    2    1    2    0    0  0.00000000000E+00  0.14210854715E-13 -0.36032347383E+03  0.46205303337E+03  0.28924038420E+03 0.  0.
         25    2    3    3    0    0 -0.55759733965E+02  0.42127613383E+02 -0.15023817402E+03  0.20758706899E+03  0.12504798494E+03 0.  0.
         25    2    3    3    0    0  0.55759733965E+02 -0.42127613383E+02 -0.21008529980E+03  0.25446596437E+03  0.12543209355E+03 0.  0.
          5    1    4    4  502    0  0.19399310632E+02 -0.11807548273E+02 -0.99105654238E+02  0.10178296592E+03  0.47000000000E+01 0.  1.
         -5    1    4    4    0  502 -0.75159044596E+02  0.53935161656E+02 -0.51132519786E+02  0.10580410307E+03  0.47000000000E+01 0.  1.
          5    1    5    5  503    0  0.38895954715E+01 -0.33343894644E+02 -0.19720889606E+03  0.20010093191E+03  0.47000000000E+01 0. -1.
         -5    1    5    5    0  503  0.51870138493E+02 -0.87837187387E+01 -0.12876403738E+02  0.54365032470E+02  0.47000000000E+01 0. -1.
<mgrwt>
<rscale>  0 0.28924038E+03</rscale>
<asrwt>0</asrwt>
<pdfrwt beam="1">  1        1 0.63259732E-01 0.28924038E+03</pdfrwt>
<pdfrwt beam="2">  1       -1 0.78253507E-02 0.28924038E+03</pdfrwt>
<totfact> 0.51897975E+03</totfact>
</mgrwt>
</event>
<event>
 9    1  0.8186049E-001  0.2700041E+03  0.7818608E-02  0.1101277E+00
         -1   -1    0    0    0  501 -0.00000000000E+00  0.00000000000E+00  0.18583379899E+02  0.18583379899E+02  0.00000000000E+00 0. -1.
          1   -1    0    0  501    0  0.00000000000E+00 -0.00000000000E+00 -0.98074460171E+03  0.98074460171E+03  0.00000000000E+00 0. -1.
         35    2    1    2    0    0  0.00000000000E+00  0.71054273576E-14 -0.96216122181E+03  0.99932798161E+03  0.27000407047E+03 0.  0.
         25    2    3    3    0    0 -0.18250758931E+02  0.44387133406E+02 -0.50717484519E+03  0.52507799347E+03  0.12718988884E+03 0.  0.
         25    2    3    3    0    0  0.18250758931E+02 -0.44387133406E+02 -0.45498637662E+03  0.47424998814E+03  0.12488851237E+03 0.  0.
          5    1    4    4  502    0 -0.16489807929E+00  0.71216341823E+02 -0.47075734481E+03  0.47613691542E+03  0.47000000000E+01 0.  1.
         -5    1    4    4    0  502 -0.18085860852E+02 -0.26829208418E+02 -0.36417500380E+02  0.48941078053E+02  0.47000000000E+01 0.  1.
          5    1    5    5  503    0 -0.35169369224E+02 -0.10600157922E+02 -0.34749906544E+03  0.34946664842E+03  0.47000000000E+01 0. -1.
         -5    1    5    5    0  503  0.53420128155E+02 -0.33786975484E+02 -0.10748731119E+03  0.12478333971E+03  0.47000000000E+01 0. -1.
<mgrwt>
<rscale>  0 0.27000407E+03</rscale>
<asrwt>0</asrwt>
<pdfrwt beam="1">  1        1 0.15088381E+00 0.27000407E+03</pdfrwt>
<pdfrwt beam="2">  1       -1 0.28589811E-02 0.27000407E+03</pdfrwt>
<totfact> 0.66888473E+03</totfact>
</mgrwt>
</event>
<event>
 9    1  0.8186049E-001  0.2694083E+03  0.7818608E-02  0.1101619E+00
          3   -1    0    0  501    0  0.00000000000E+00  0.00000000000E+00  0.65223511672E+03  0.65223511672E+03  0.00000000000E+00 0. -1.
         -3   -1    0    0    0  501 -0.00000000000E+00 -0.00000000000E+00 -0.27820039306E+02  0.27820039306E+02  0.00000000000E+00 0. -1.
         35    2    1    2    0    0  0.00000000000E+00  0.00000000000E+00  0.62441507741E+03  0.68005515603E+03  0.26940828929E+03 0.  0.
         25    2    3    3    0    0 -0.42980628294E+02 -0.20275493945E+02  0.36885571999E+03  0.39153915382E+03  0.12243339716E+03 0.  0.
         25    2    3    3    0    0  0.42980628294E+02  0.20275493945E+02  0.25555935742E+03  0.28851600221E+03  0.12518972921E+03 0.  0.
          5    1    4    4  502    0 -0.46399436453E+02  0.17674345880E+01  0.36553499269E+03  0.36850230991E+03  0.47000000000E+01 0. -1.
         -5    1    4    4    0  502  0.34188081590E+01 -0.22042928533E+02  0.33207273010E+01  0.23036843911E+02  0.47000000000E+01 0. -1.
          5    1    5    5  503    0  0.78853812314E+02  0.32519031032E+02  0.22126907106E+03  0.23718664150E+03  0.47000000000E+01 0.  1.
         -5    1    5    5    0  503 -0.35873184020E+02 -0.12243537086E+02  0.34290286359E+02  0.51329360708E+02  0.47000000000E+01 0.  1.
<mgrwt>
<rscale>  0 0.26940829E+03</rscale>
<asrwt>0</asrwt>
<pdfrwt beam="1">  1        3 0.10034385E+00 0.26940829E+03</pdfrwt>
<pdfrwt beam="2">  1       -3 0.42800065E-02 0.26940829E+03</pdfrwt>
<totfact> 0.66500773E+02</totfact>
</mgrwt>
</event>
<event>
 9    1  0.8186049E-001  0.2756843E+03  0.7818608E-02  0.1098070E+00
         -1   -1    0    0    0  501 -0.00000000000E+00  0.00000000000E+00  0.85703871982E+01  0.85703871982E+01  0.00000000000E+00 0.  1.
          1   -1    0    0  501    0  0.00000000000E+00 -0.00000000000E+00 -0.22169899029E+04  0.22169899029E+04  0.00000000000E+00 0.  1.
         35    2    1    2    0    0 -0.35527136788E-14  0.00000000000E+00 -0.22084195157E+04  0.22255602901E+04  0.27568432587E+03 0.  0.
         25    2    3    3    0    0 -0.19583377730E+02 -0.13397134841E+02 -0.15246948930E+04  0.15300856231E+04  0.12611306579E+03 0.  0.
         25    2    3    3    0    0  0.19583377730E+02  0.13397134841E+02 -0.68372462270E+03  0.69547466700E+03  0.12507062344E+03 0.  0.
          5    1    4    4  502    0  0.15834929651E+02 -0.50484647140E+02 -0.32717323670E+03  0.33145717884E+03  0.47000000000E+01 0.  1.
         -5    1    4    4    0  502 -0.35418307381E+02  0.37087512299E+02 -0.11975216563E+04  0.11986284443E+04  0.47000000000E+01 0.  1.
          5    1    5    5  503    0  0.42518352972E+01  0.56771590261E+02 -0.16336857198E+03  0.17306782449E+03  0.47000000000E+01 0. -1.
         -5    1    5    5    0  503  0.15331542433E+02 -0.43374455420E+02 -0.52035605072E+03  0.52240684251E+03  0.47000000000E+01 0. -1.
<mgrwt>
<rscale>  0 0.27568433E+03</rscale>
<asrwt>0</asrwt>
<pdfrwt beam="1">  1        1 0.34107563E+00 0.27568433E+03</pdfrwt>
<pdfrwt beam="2">  1       -1 0.13185201E-02 0.27568433E+03</pdfrwt>
<totfact> 0.30680937E+03</totfact>
</mgrwt>
</event>
<event>
 9    1  0.8186049E-001  0.2794983E+03  0.7818608E-02  0.1095963E+00
         -2   -1    0    0    0  501 -0.00000000000E+00  0.00000000000E+00  0.31728153833E+02  0.31728153833E+02  0.00000000000E+00 0.  1.
          2   -1    0    0  501    0  0.00000000000E+00 -0.00000000000E+00 -0.61553609277E+03  0.61553609277E+03  0.00000000000E+00 0.  1.
         35    2    1    2    0    0  0.00000000000E+00  0.00000000000E+00 -0.58380793894E+03  0.64726424660E+03  0.27949829224E+03 0.  0.
         25    2    3    3    0    0  0.55707757211E+02  0.19251012020E+02 -0.34008999136E+03  0.36712221328E+03  0.12507422428E+03 0.  0.
         25    2    3    3    0    0 -0.55707757211E+02 -0.19251012020E+02 -0.24371794758E+03  0.28014203333E+03  0.12492864038E+03 0.  0.
          5    1    4    4  502    0  0.95150403823E+02  0.80119905153E+01 -0.21237473095E+03  0.23290106846E+03  0.47000000000E+01 0.  1.
         -5    1    4    4    0  502 -0.39442646612E+02  0.11239021504E+02 -0.12771526041E+03  0.13422114482E+03  0.47000000000E+01 0.  1.
          5    1    5    5  503    0  0.27226548879E+02 -0.22604185429E+02 -0.18787488751E+02  0.40339730990E+02  0.47000000000E+01 0.  1.
         -5    1    5    5    0  503 -0.82934306091E+02  0.33531734092E+01 -0.22493045882E+03  0.23980230234E+03  0.47000000000E+01 0.  1.
<mgrwt>
<rscale>  0 0.27949829E+03</rscale>
<asrwt>0</asrwt>
<pdfrwt beam="1">  1        2 0.94697860E-01 0.27949829E+03</pdfrwt>
<pdfrwt beam="2">  1       -2 0.48812545E-02 0.27949829E+03</pdfrwt>
<totfact> 0.99070033E+03</totfact>
</mgrwt>
</event>
<event>
 9    1  0.8186049E-001  0.2756454E+03  0.7818608E-02  0.1098091E+00
         -2   -1    0    0    0  501 -0.00000000000E+00  0.00000000000E+00  0.18617772181E+03  0.18617772181E+03  0.00000000000E+00 0. -1.
          2   -1    0    0  501    0  0.00000000000E+00 -0.00000000000E+00 -0.10202665720E+03  0.10202665720E+03  0.00000000000E+00 0. -1.
         35    2    1    2    0    0  0.00000000000E+00  0.71054273576E-14  0.84151064609E+02  0.28820437901E+03  0.27564535622E+03 0.  0.
         25    2    3    3    0    0  0.37635806735E+02 -0.18123462887E+02 -0.12476258807E+00  0.13368918541E+03  0.12699554667E+03 0.  0.
         25    2    3    3    0    0 -0.37635806735E+02  0.18123462887E+02  0.84275827197E+02  0.15451519360E+03  0.12258717774E+03 0.  0.
          5    1    4    4  502    0 -0.81781979169E+01  0.50315743385E+02 -0.59986716758E+00  0.51195769299E+02  0.47000000000E+01 0. -1.
         -5    1    4    4    0  502  0.45814004652E+02 -0.68439206271E+02  0.47510457952E+00  0.82493416111E+02  0.47000000000E+01 0. -1.
          5    1    5    5  503    0 -0.64365420779E+02 -0.15495870016E+02  0.79992067881E+01  0.66851377614E+02  0.47000000000E+01 0. -1.
         -5    1    5    5    0  503  0.26729614044E+02  0.33619332903E+02  0.76276620409E+02  0.87663815984E+02  0.47000000000E+01 0. -1.
<mgrwt>
<rscale>  0 0.27564536E+03</rscale>
<asrwt>0</asrwt>
<pdfrwt beam="1">  1        2 0.15696409E-01 0.27564536E+03</pdfrwt>
<pdfrwt beam="2">  1       -2 0.28642727E-01 0.27564536E+03</pdfrwt>
<totfact> 0.40849627E+03</totfact>
</mgrwt>
</event>
<event>
 9    1  0.8186049E-001  0.2754875E+03  0.7818608E-02  0.1098179E+00
         -2   -1    0    0    0  501 -0.00000000000E+00  0.00000000000E+00  0.69762706454E+02  0.69762706454E+02  0.00000000000E+00 0. -1.
          2   -1    0    0  501    0  0.00000000000E+00 -0.00000000000E+00 -0.27196975572E+03  0.27196975572E+03  0.00000000000E+00 0. -1.
         35    2    1    2    0    0 -0.35527136788E-14  0.00000000000E+00 -0.20220704926E+03  0.34173246217E+03  0.27548754043E+03 0.  0.
         25    2    3    3    0    0 -0.18436281632E+02 -0.38334277788E+02 -0.14560749889E+03  0.19739726429E+03  0.12631200608E+03 0.  0.
         25    2    3    3    0    0  0.18436281632E+02  0.38334277788E+02 -0.56599550373E+02  0.14433519788E+03  0.12577649587E+03 0.  0.
          5    1    4    4  502    0  0.82909762859E+00 -0.81824363209E+02 -0.11275644984E+03  0.13939878335E+03  0.47000000000E+01 0.  1.
         -5    1    4    4    0  502 -0.19265379261E+02  0.43490085420E+02 -0.32851049051E+02  0.57998480943E+02  0.47000000000E+01 0.  1.
          5    1    5    5  503    0  0.12989233835E+02 -0.41547404519E+02 -0.45876616804E+02  0.63416567136E+02  0.47000000000E+01 0.  1.
         -5    1    5    5    0  503  0.54470477971E+01  0.79881682307E+02 -0.10722933568E+02  0.80918630749E+02  0.47000000000E+01 0.  1.
<mgrwt>
<rscale>  0 0.27548754E+03</rscale>
<asrwt>0</asrwt>
<pdfrwt beam="1">  1        2 0.41841501E-01 0.27548754E+03</pdfrwt>
<pdfrwt beam="2">  1       -2 0.10732724E-01 0.27548754E+03</pdfrwt>
<totfact> 0.71524779E+03</totfact>
</mgrwt>
</event>
<event>
 9    1  0.8186049E-001  0.2722029E+03  0.7818608E-02  0.1100025E+00
          2   -1    0    0  501    0  0.00000000000E+00  0.00000000000E+00  0.94422419353E+03  0.94422419353E+03  0.00000000000E+00 0. -1.
         -2   -1    0    0    0  501 -0.00000000000E+00 -0.00000000000E+00 -0.19617805745E+02  0.19617805745E+02  0.00000000000E+00 0. -1.
         35    2    1    2    0    0  0.00000000000E+00  0.00000000000E+00  0.92460638779E+03  0.96384199927E+03  0.27220291555E+03 0.  0.
         25    2    3    3    0    0 -0.77958749352E+01  0.39697367492E+02  0.58397032148E+03  0.59875577216E+03  0.12589869608E+03 0.  0.
         25    2    3    3    0    0  0.77958749352E+01 -0.39697367492E+02  0.34063606630E+03  0.36508622711E+03  0.12497346482E+03 0.  0.
          5    1    4    4  502    0 -0.19209008438E+02  0.58991345713E+02  0.56661005876E+03  0.57001580115E+03  0.47000000000E+01 0.  1.
         -5    1    4    4    0  502  0.11413133503E+02 -0.19293978221E+02  0.17360262723E+02  0.28739971012E+02  0.47000000000E+01 0.  1.
          5    1    5    5  503    0 -0.49900936786E+02 -0.51751969439E+02  0.17743381981E+03  0.19150253326E+03  0.47000000000E+01 0. -1.
         -5    1    5    5    0  503  0.57696811722E+02  0.12054601947E+02  0.16320224649E+03  0.17358369385E+03  0.47000000000E+01 0. -1.
<mgrwt>
<rscale>  0 0.27220292E+03</rscale>
<asrwt>0</asrwt>
<pdfrwt beam="1">  1        2 0.14526522E+00 0.27220292E+03</pdfrwt>
<pdfrwt beam="2">  1       -2 0.30181247E-02 0.27220292E+03</pdfrwt>
<totfact> 0.11905620E+04</totfact>
</mgrwt>
</event>
<event>
 9    1  0.8186049E-001  0.2742192E+03  0.7818608E-02  0.1098889E+00
          2   -1    0    0  501    0  0.00000000000E+00  0.00000000000E+00  0.20992263727E+04  0.20992263727E+04  0.00000000000E+00 0. -1.
         -2   -1    0    0    0  501 -0.00000000000E+00 -0.00000000000E+00 -0.89552208774E+01  0.89552208774E+01  0.00000000000E+00 0. -1.
         35    2    1    2    0    0 -0.71054273576E-14  0.00000000000E+00  0.20902711518E+04  0.21081815936E+04  0.27421915206E+03 0.  0.
         25    2    3    3    0    0 -0.41588701061E+02 -0.12804020923E+02  0.79436225909E+03  0.80543176046E+03  0.12575913118E+03 0.  0.
         25    2    3    3    0    0  0.41588701061E+02  0.12804020923E+02  0.12959088927E+04  0.13027498331E+04  0.12603057735E+03 0.  0.
          5    1    4    4  502    0  0.43655496595E+01  0.86854685866E+01  0.14615838135E+01  0.10895944917E+02  0.47000000000E+01 0. -1.
         -5    1    4    4    0  502 -0.45954250721E+02 -0.21489489509E+02  0.79290067528E+03  0.79453581554E+03  0.47000000000E+01 0. -1.
          5    1    5    5  503    0  0.74276232183E+02 -0.28629499513E+02  0.83816916915E+03  0.84195383070E+03  0.47000000000E+01 0.  1.
         -5    1    5    5    0  503 -0.32687531122E+02  0.41433520436E+02  0.45773972357E+03  0.46079600241E+03  0.47000000000E+01 0.  1.
<mgrwt>
<rscale>  0 0.27421915E+03</rscale>
<asrwt>0</asrwt>
<pdfrwt beam="1">  1        2 0.32295751E+00 0.27421915E+03</pdfrwt>
<pdfrwt beam="2">  1       -2 0.13777280E-02 0.27421915E+03</pdfrwt>
<totfact> 0.87991878E+03</totfact>
</mgrwt>
</event>
<event>
 9    1  0.8186049E-001  0.2733125E+03  0.7818608E-02  0.1099399E+00
         -2   -1    0    0    0  501 -0.00000000000E+00  0.00000000000E+00  0.33907683312E+03  0.33907683312E+03  0.00000000000E+00 0. -1.
          2   -1    0    0  501    0  0.00000000000E+00 -0.00000000000E+00 -0.55075814326E+02  0.55075814326E+02  0.00000000000E+00 0. -1.
         35    2    1    2    0    0  0.00000000000E+00  0.14210854715E-13  0.28400101879E+03  0.39415264745E+03  0.27331251492E+03 0.  0.
         25    2    3    3    0    0 -0.60162180224E+00 -0.48468597246E+02  0.10706457848E+03  0.17139311762E+03  0.12475259490E+03 0.  0.
         25    2    3    3    0    0  0.60162180224E+00  0.48468597246E+02  0.17693644032E+03  0.22275952983E+03  0.12635559880E+03 0.  0.
          5    1    4    4  502    0 -0.20148540106E+02 -0.78625790991E+02  0.30775479826E+02  0.86932150761E+02  0.47000000000E+01 0.  1.
         -5    1    4    4    0  502  0.19546918303E+02  0.30157193745E+02  0.76289098652E+02  0.84460966860E+02  0.47000000000E+01 0.  1.
          5    1    5    5  503    0  0.50588016580E+02 -0.11830636005E+02  0.10042911053E+03  0.11316893395E+03  0.47000000000E+01 0. -1.
         -5    1    5    5    0  503 -0.49986394777E+02  0.60299233251E+02  0.76507329787E+02  0.10959059588E+03  0.47000000000E+01 0. -1.
<mgrwt>
<rscale>  0 0.27331251E+03</rscale>
<asrwt>0</asrwt>
<pdfrwt beam="1">  1        2 0.84732024E-02 0.27331251E+03</pdfrwt>
<pdfrwt beam="2">  1       -2 0.52165665E-01 0.27331251E+03</pdfrwt>
<totfact> 0.27756355E+03</totfact>
</mgrwt>
</event>
<event>
 9    1  0.8186049E-001  0.2751316E+03  0.7818608E-02  0.1098378E+00
         -2   -1    0    0    0  501 -0.00000000000E+00  0.00000000000E+00  0.67287327201E+02  0.67287327201E+02  0.00000000000E+00 0. -1.
          2   -1    0    0  501    0  0.00000000000E+00 -0.00000000000E+00 -0.28124695821E+03  0.28124695821E+03  0.00000000000E+00 0. -1.
         35    2    1    2    0    0  0.71054273576E-14  0.00000000000E+00 -0.21395963101E+03  0.34853428541E+03  0.27513164922E+03 0.  0.
         25    2    3    3    0    0 -0.14698420358E+02  0.19884635250E+02 -0.43030308559E+02  0.13466788101E+03  0.12518941026E+03 0.  0.
         25    2    3    3    0    0  0.14698420358E+02 -0.19884635250E+02 -0.17092932245E+03  0.21386640440E+03  0.12613708170E+03 0.  0.
          5    1    4    4  502    0 -0.68154761098E+02  0.59818843210E+01 -0.78813113530E+01  0.69029410174E+02  0.47000000000E+01 0.  1.
         -5    1    4    4    0  502  0.53456340740E+02  0.13902750929E+02 -0.35148997206E+02  0.65638470833E+02  0.47000000000E+01 0.  1.
          5    1    5    5  503    0 -0.34385681708E+02 -0.28194031148E+02 -0.15510014441E+03  0.16141692382E+03  0.47000000000E+01 0. -1.
         -5    1    5    5    0  503  0.49084102066E+02  0.83093958982E+01 -0.15829178032E+02  0.52449480579E+02  0.47000000000E+01 0. -1.
<mgrwt>
<rscale>  0 0.27513165E+03</rscale>
<asrwt>0</asrwt>
<pdfrwt beam="1">  1        2 0.43268763E-01 0.27513165E+03</pdfrwt>
<pdfrwt beam="2">  1       -2 0.10351896E-01 0.27513165E+03</pdfrwt>
<totfact> 0.73081683E+03</totfact>
</mgrwt>
</event>
<event>
 9    1  0.8186049E-001  0.2756867E+03  0.7818608E-02  0.1098068E+00
         -1   -1    0    0    0  501 -0.00000000000E+00  0.00000000000E+00  0.18871726493E+02  0.18871726493E+02  0.00000000000E+00 0. -1.
          1   -1    0    0  501    0  0.00000000000E+00 -0.00000000000E+00 -0.10068386956E+04  0.10068386956E+04  0.00000000000E+00 0. -1.
         35    2    1    2    0    0  0.00000000000E+00  0.14210854715E-13 -0.98796696913E+03  0.10257104221E+04  0.27568666624E+03 0.  0.
         25    2    3    3    0    0 -0.16850765429E+01 -0.36046851203E+02 -0.33353228700E+03  0.35837587796E+03  0.12604470819E+03 0.  0.
         25    2    3    3    0    0  0.16850765429E+01  0.36046851203E+02 -0.65443468212E+03  0.66733454416E+03  0.12549273163E+03 0.  0.
          5    1    4    4  502    0 -0.24295974815E+02  0.43741092445E+01 -0.29988484144E+03  0.30093593230E+03  0.47000000000E+01 0. -1.
         -5    1    4    4    0  502  0.22610898272E+02 -0.40420960448E+02 -0.33647445565E+02  0.57439945658E+02  0.47000000000E+01 0. -1.
          5    1    5    5  503    0 -0.17053489505E+02  0.80246678860E+02 -0.39583658993E+03  0.40427595390E+03  0.47000000000E+01 0.  1.
         -5    1    5    5    0  503  0.18738566048E+02 -0.44199827656E+02 -0.25859809219E+03  0.26305859026E+03  0.47000000000E+01 0.  1.
<mgrwt>
<rscale>  0 0.27568667E+03</rscale>
<asrwt>0</asrwt>
<pdfrwt beam="1">  1        1 0.15489828E+00 0.27568667E+03</pdfrwt>
<pdfrwt beam="2">  1       -1 0.29033423E-02 0.27568667E+03</pdfrwt>
<totfact> 0.62533600E+03</totfact>
</mgrwt>
</event>
<event>
 9    1  0.8186049E-001  0.2768388E+03  0.7818608E-02  0.1097428E+00
         -2   -1    0    0    0  501 -0.00000000000E+00  0.00000000000E+00  0.14329770937E+02  0.14329770937E+02  0.00000000000E+00 0. -1.
          2   -1    0    0  501    0  0.00000000000E+00 -0.00000000000E+00 -0.13370719888E+04  0.13370719888E+04  0.00000000000E+00 0. -1.
         35    2    1    2    0    0  0.00000000000E+00  0.71054273576E-14 -0.13227422178E+04  0.13514017597E+04  0.27683883633E+03 0.  0.
         25    2    3    3    0    0  0.44892860542E+02 -0.39573208538E+02 -0.69942190154E+03  0.71293377290E+03  0.12450767219E+03 0.  0.
         25    2    3    3    0    0 -0.44892860542E+02  0.39573208538E+02 -0.62332031630E+03  0.63846798681E+03  0.12462642459E+03 0.  0.
          5    1    4    4  502    0 -0.34472278887E+02  0.17624171950E+02 -0.15936899374E+03  0.16407167828E+03  0.47000000000E+01 0.  1.
         -5    1    4    4    0  502  0.79365139429E+02 -0.57197380489E+02 -0.54005290780E+03  0.54886209462E+03  0.47000000000E+01 0.  1.
          5    1    5    5  503    0  0.36809117086E+02 -0.14068445491E+02 -0.15180962157E+03  0.15691106863E+03  0.47000000000E+01 0. -1.
         -5    1    5    5    0  503 -0.81701977627E+02  0.53641654029E+02 -0.47151069473E+03  0.48155691818E+03  0.47000000000E+01 0. -1.
<mgrwt>
<rscale>  0 0.27683884E+03</rscale>
<asrwt>0</asrwt>
<pdfrwt beam="1">  1        2 0.20570333E+00 0.27683884E+03</pdfrwt>
<pdfrwt beam="2">  1       -2 0.22045807E-02 0.27683884E+03</pdfrwt>
<totfact> 0.11199841E+04</totfact>
</mgrwt>
</event>
<event>
 9    1  0.8186049E-001  0.2739255E+03  0.7818608E-02  0.1099054E+00
         -4   -1    0    0    0  501 -0.00000000000E+00  0.00000000000E+00  0.69399017116E+02  0.69399017116E+02  0.00000000000E+00 0. -1.
          4   -1    0    0  501    0  0.00000000000E+00 -0.00000000000E+00 -0.27030339662E+03  0.27030339662E+03  0.00000000000E+00 0. -1.
         35    2    1    2    0    0 -0.35527136788E-14  0.00000000000E+00 -0.20090437951E+03  0.33970241374E+03  0.27392546467E+03 0.  0.
         25    2    3    3    0    0 -0.17347932819E+02 -0.50425794196E+02 -0.78647221361E+02  0.15708176891E+03  0.12508231370E+03 0.  0.
         25    2    3    3    0    0  0.17347932819E+02  0.50425794196E+02 -0.12225715815E+03  0.18262064484E+03  0.12473882999E+03 0.  0.
          5    1    4    4  502    0 -0.78034292299E+01 -0.77856915703E+02 -0.58996595450E+01  0.78609724673E+02  0.47000000000E+01 0. -1.
         -5    1    4    4    0  502 -0.95445035887E+01  0.27431121506E+02 -0.72747561816E+02  0.78472044232E+02  0.47000000000E+01 0. -1.
          5    1    5    5  503    0  0.28194717167E+02 -0.95268499843E+01  0.14048834207E+02  0.33243987265E+02  0.47000000000E+01 0.  1.
         -5    1    5    5    0  503 -0.10846784348E+02  0.59952644181E+02 -0.13630599236E+03  0.14937665757E+03  0.47000000000E+01 0.  1.
<mgrwt>
<rscale>  0 0.27392546E+03</rscale>
<asrwt>0</asrwt>
<pdfrwt beam="1">  1        4 0.41585138E-01 0.27392546E+03</pdfrwt>
<pdfrwt beam="2">  1       -4 0.10676772E-01 0.27392546E+03</pdfrwt>
<totfact> 0.71621529E+02</totfact>
</mgrwt>
</event>
<event>
 9    1  0.8186049E-001  0.2857610E+03  0.7818608E-02  0.1092583E+00
          1   -1    0    0  501    0  0.00000000000E+00  0.00000000000E+00  0.89409041644E+03  0.89409041644E+03  0.00000000000E+00 0. -1.
         -1   -1    0    0    0  501 -0.00000000000E+00 -0.00000000000E+00 -0.22833085563E+02  0.22833085563E+02  0.00000000000E+00 0. -1.
         35    2    1    2    0    0  0.00000000000E+00  0.71054273576E-14  0.87125733087E+03  0.91692350200E+03  0.28576103989E+03 0.  0.
         25    2    3    3    0    0 -0.33177811756E+02  0.34430403619E+02  0.26352499321E+03  0.29574252517E+03  0.12542726682E+03 0.  0.
         25    2    3    3    0    0  0.33177811756E+02 -0.34430403619E+02  0.60773233766E+03  0.62118097683E+03  0.11933562689E+03 0.  0.
          5    1    4    4  502    0  0.30359435617E+02 -0.14502219198E+01  0.10711257505E+02  0.32567153881E+02  0.47000000000E+01 0. -1.
         -5    1    4    4    0  502 -0.63537247373E+02  0.35880625539E+02  0.25281373571E+03  0.26317537129E+03  0.47000000000E+01 0. -1.
          5    1    5    5  503    0  0.39463204041E+02  0.14568110735E+02  0.50824571807E+03  0.51000526886E+03  0.47000000000E+01 0.  1.
         -5    1    5    5    0  503 -0.62853922851E+01 -0.48998514354E+02  0.99486619588E+02  0.11117570797E+03  0.47000000000E+01 0.  1.
<mgrwt>
<rscale>  0 0.28576104E+03</rscale>
<asrwt>0</asrwt>
<pdfrwt beam="1">  1        1 0.13755234E+00 0.28576104E+03</pdfrwt>
<pdfrwt beam="2">  1       -1 0.35127831E-02 0.28576104E+03</pdfrwt>
<totfact> 0.57610813E+03</totfact>
</mgrwt>
</event>
<event>
 9    1  0.8186049E-001  0.2761992E+03  0.7818608E-02  0.1097783E+00
          1   -1    0    0  501    0  0.00000000000E+00  0.00000000000E+00  0.10379611810E+03  0.10379611810E+03  0.00000000000E+00 0.  1.
         -1   -1    0    0    0  501 -0.00000000000E+00 -0.00000000000E+00 -0.18374003558E+03  0.18374003558E+03  0.00000000000E+00 0.  1.
         35    2    1    2    0    0 -0.71054273576E-14  0.00000000000E+00 -0.79943917481E+02  0.28753615368E+03  0.27619922109E+03 0.  0.
         25    2    3    3    0    0  0.17949922857E+02  0.26823101693E+02  0.78431257839E+01  0.13164898330E+03  0.12739019455E+03 0.  0.
         25    2    3    3    0    0 -0.17949922857E+02 -0.26823101693E+02 -0.87787043265E+02  0.15588717038E+03  0.12470992908E+03 0.  0.
          5    1    4    4  502    0  0.29463799300E+00 -0.40834314119E+02  0.37416061770E+02  0.55583987798E+02  0.47000000000E+01 0. -1.
         -5    1    4    4    0  502  0.17655284864E+02  0.67657415812E+02 -0.29572935986E+02  0.76064995502E+02  0.47000000000E+01 0. -1.
          5    1    5    5  503    0  0.36258107896E+02 -0.47523473908E+02 -0.13419788476E+02  0.61443565027E+02  0.47000000000E+01 0. -1.
         -5    1    5    5    0  503 -0.54208030753E+02  0.20700372215E+02 -0.74367254788E+02  0.94443605357E+02  0.47000000000E+01 0. -1.
<mgrwt>
<rscale>  0 0.27619922E+03</rscale>
<asrwt>0</asrwt>
<pdfrwt beam="1">  1        1 0.15968634E-01 0.27619922E+03</pdfrwt>
<pdfrwt beam="2">  1       -1 0.28267698E-01 0.27619922E+03</pdfrwt>
<totfact> 0.38595312E+03</totfact>
</mgrwt>
</event>
<event>
 9    1  0.8186049E-001  0.2758188E+03  0.7818608E-02  0.1097995E+00
          1   -1    0    0  501    0  0.00000000000E+00  0.00000000000E+00  0.38513349981E+03  0.38513349981E+03  0.00000000000E+00 0.  1.
         -1   -1    0    0    0  501 -0.00000000000E+00 -0.00000000000E+00 -0.49382881617E+02  0.49382881617E+02  0.00000000000E+00 0.  1.
         35    2    1    2    0    0  0.00000000000E+00  0.00000000000E+00  0.33575061819E+03  0.43451638142E+03  0.27581879579E+03 0.  0.
         25    2    3    3    0    0 -0.11285758158E+02  0.54095797905E+02  0.17916022831E+03  0.22691859622E+03  0.12782776777E+03 0.  0.
         25    2    3    3    0    0  0.11285758158E+02 -0.54095797905E+02  0.15659038988E+03  0.20759778520E+03  0.12458959239E+03 0.  0.
          5    1    4    4  502    0  0.52138060351E+02  0.51687946653E+02  0.11521999712E+03  0.13670317810E+03  0.47000000000E+01 0.  1.
         -5    1    4    4    0  502 -0.63423818509E+02  0.24078512516E+01  0.63940231195E+02  0.90215418124E+02  0.47000000000E+01 0.  1.
          5    1    5    5  503    0 -0.42965633033E+02  0.12136901727E+02  0.27568756744E+02  0.52682789921E+02  0.47000000000E+01 0.  1.
         -5    1    5    5    0  503  0.54251391191E+02 -0.66232699632E+02  0.12902163313E+03  0.15491499528E+03  0.47000000000E+01 0.  1.
<mgrwt>
<rscale>  0 0.27581880E+03</rscale>
<asrwt>0</asrwt>
<pdfrwt beam="1">  1        1 0.59251306E-01 0.27581880E+03</pdfrwt>
<pdfrwt beam="2">  1       -1 0.75973666E-02 0.27581880E+03</pdfrwt>
<totfact> 0.58970619E+03</totfact>
</mgrwt>
</event>
<event>
 9    1  0.8186049E-001  0.2725356E+03  0.7818608E-02  0.1099837E+00
          1   -1    0    0  501    0  0.00000000000E+00  0.00000000000E+00  0.15005071930E+04  0.15005071930E+04  0.00000000000E+00 0.  1.
         -1   -1    0    0    0  501 -0.00000000000E+00 -0.00000000000E+00 -0.12375093992E+02  0.12375093992E+02  0.00000000000E+00 0.  1.
         35    2    1    2    0    0 -0.14210854715E-13  0.00000000000E+00  0.14881320990E+04  0.15128822870E+04  0.27253563106E+03 0.  0.
         25    2    3    3    0    0 -0.43106425758E+02  0.20807731898E+02  0.88658104523E+03  0.89661969110E+03  0.12493916545E+03 0.  0.
         25    2    3    3    0    0  0.43106425758E+02 -0.20807731898E+02  0.60155105377E+03  0.61626259588E+03  0.12499916457E+03 0.  0.
          5    1    4    4  502    0 -0.74097606166E+02  0.51078759385E+02  0.58127286053E+03  0.58821741158E+03  0.47000000000E+01 0. -1.
         -5    1    4    4    0  502  0.30991180408E+02 -0.30271027487E+02  0.30530818470E+03  0.30840227952E+03  0.47000000000E+01 0. -1.
          5    1    5    5  503    0  0.38804408363E+02 -0.62740684958E+02  0.51041763359E+03  0.51574259697E+03  0.47000000000E+01 0. -1.
         -5    1    5    5    0  503  0.43020173945E+01  0.41932953061E+02  0.91133420181E+02  0.10051999891E+03  0.47000000000E+01 0. -1.
<mgrwt>
<rscale>  0 0.27253563E+03</rscale>
<asrwt>0</asrwt>
<pdfrwt beam="1">  1        1 0.23084712E+00 0.27253563E+03</pdfrwt>
<pdfrwt beam="2">  1       -1 0.19038618E-02 0.27253563E+03</pdfrwt>
<totfact> 0.52692799E+03</totfact>
</mgrwt>
</event>
<event>
 9    1  0.8186049E-001  0.2767480E+03  0.7818608E-02  0.1097478E+00
          2   -1    0    0  501    0  0.00000000000E+00  0.00000000000E+00  0.86691411888E+03  0.86691411888E+03  0.00000000000E+00 0. -1.
         -2   -1    0    0    0  501 -0.00000000000E+00 -0.00000000000E+00 -0.22086812716E+02  0.22086812716E+02  0.00000000000E+00 0. -1.
         35    2    1    2    0    0  0.71054273576E-14  0.00000000000E+00  0.84482730616E+03  0.88900093159E+03  0.27674804270E+03 0.  0.
         25    2    3    3    0    0  0.40365369132E+02 -0.33154416846E+02  0.33642816380E+03  0.36268831257E+03  0.12502129539E+03 0.  0.
         25    2    3    3    0    0 -0.40365369132E+02  0.33154416846E+02  0.50839914237E+03  0.52631261902E+03  0.12572472549E+03 0.  0.
          5    1    4    4  502    0  0.75495783955E+02 -0.92847111276E+01  0.28886488417E+03  0.29874877500E+03  0.47000000000E+01 0.  1.
         -5    1    4    4    0  502 -0.35130414823E+02 -0.23869705718E+02  0.47563279628E+02  0.63939537578E+02  0.47000000000E+01 0.  1.
          5    1    5    5  503    0 -0.77291237491E+02  0.12044410606E+02  0.19744803434E+03  0.21243074044E+03  0.47000000000E+01 0. -1.
         -5    1    5    5    0  503  0.36925868359E+02  0.21110006239E+02  0.31095110803E+03  0.31388187858E+03  0.47000000000E+01 0. -1.
<mgrwt>
<rscale>  0 0.27674804E+03</rscale>
<asrwt>0</asrwt>
<pdfrwt beam="1">  1        2 0.13337138E+00 0.27674804E+03</pdfrwt>
<pdfrwt beam="2">  1       -2 0.33979718E-02 0.27674804E+03</pdfrwt>
<totfact> 0.11194322E+04</totfact>
</mgrwt>
</event>
<event>
 9    1  0.8186049E-001  0.2766804E+03  0.7818608E-02  0.1097516E+00
         -2   -1    0    0    0  501 -0.00000000000E+00  0.00000000000E+00  0.20073893144E+03  0.20073893144E+03  0.00000000000E+00 0. -1.
          2   -1    0    0  501    0  0.00000000000E+00 -0.00000000000E+00 -0.95337823186E+02  0.95337823186E+02  0.00000000000E+00 0. -1.
         35    2    1    2    0    0  0.71054273576E-14  0.00000000000E+00  0.10540110825E+03  0.29607675463E+03  0.27668041313E+03 0.  0.
         25    2    3    3    0    0  0.29081081333E+02  0.41216499038E+02  0.40008080507E+02  0.14050071129E+03  0.12488112060E+03 0.  0.
         25    2    3    3    0    0 -0.29081081333E+02 -0.41216499038E+02  0.65393027748E+02  0.15557604333E+03  0.13184516714E+03 0.  0.
          5    1    4    4  502    0  0.27100853875E+02  0.23865719728E+02  0.84749738540E+02  0.92242273614E+02  0.47000000000E+01 0.  1.
         -5    1    4    4    0  502  0.19802274582E+01  0.17350779310E+02 -0.44741658034E+02  0.48258437678E+02  0.47000000000E+01 0.  1.
          5    1    5    5  503    0 -0.38965577274E+02  0.40585834496E+02  0.13382148481E+02  0.58023254580E+02  0.47000000000E+01 0. -1.
         -5    1    5    5    0  503  0.98844959402E+01 -0.81802333535E+02  0.52010879267E+02  0.97552788755E+02  0.47000000000E+01 0. -1.
<mgrwt>
<rscale>  0 0.27668041E+03</rscale>
<asrwt>0</asrwt>
<pdfrwt beam="1">  1        2 0.14667357E-01 0.27668041E+03</pdfrwt>
<pdfrwt beam="2">  1       -2 0.30882912E-01 0.27668041E+03</pdfrwt>
<totfact> 0.38617764E+03</totfact>
</mgrwt>
</event>
<event>
 9    1  0.8186049E-001  0.2772870E+03  0.7818608E-02  0.1097180E+00
         -1   -1    0    0    0  501 -0.00000000000E+00  0.00000000000E+00  0.80390534541E+01  0.80390534541E+01  0.00000000000E+00 0. -1.
          1   -1    0    0  501    0  0.00000000000E+00 -0.00000000000E+00 -0.23910801652E+04  0.23910801652E+04  0.00000000000E+00 0. -1.
         35    2    1    2    0    0  0.00000000000E+00 -0.71054273576E-14 -0.23830411117E+04  0.23991192186E+04  0.27728700843E+03 0.  0.
         25    2    3    3    0    0 -0.16796884883E+00 -0.18889014814E+02 -0.69438375842E+03  0.70574980617E+03  0.12472835227E+03 0.  0.
         25    2    3    3    0    0  0.16796884883E+00  0.18889014814E+02 -0.16886573533E+04  0.16933694125E+04  0.12481781561E+03 0.  0.
          5    1    4    4  502    0  0.55653569814E+02  0.12629744989E+02 -0.23419792749E+03  0.24109663940E+03  0.47000000000E+01 0.  1.
         -5    1    4    4    0  502 -0.55821538663E+02 -0.31518759803E+02 -0.46018583093E+03  0.46465316677E+03  0.47000000000E+01 0.  1.
          5    1    5    5  503    0 -0.22382080503E+02 -0.82554972126E+01 -0.66241351696E+02  0.70562861595E+02  0.47000000000E+01 0. -1.
         -5    1    5    5    0  503  0.22550049352E+02  0.27144512027E+02 -0.16224160016E+04  0.16228065509E+04  0.47000000000E+01 0. -1.
<mgrwt>
<rscale>  0 0.27728701E+03</rscale>
<asrwt>0</asrwt>
<pdfrwt beam="1">  1        1 0.36785864E+00 0.27728701E+03</pdfrwt>
<pdfrwt beam="2">  1       -1 0.12367770E-02 0.27728701E+03</pdfrwt>
<totfact> 0.25875381E+03</totfact>
</mgrwt>
</event>
<event>
 9    1  0.8186049E-001  0.2755031E+03  0.7818608E-02  0.1098171E+00
          2   -1    0    0  501    0  0.00000000000E+00  0.00000000000E+00  0.96294703444E+03  0.96294703444E+03  0.00000000000E+00 0.  1.
         -2   -1    0    0    0  501 -0.00000000000E+00 -0.00000000000E+00 -0.19705643772E+02  0.19705643772E+02  0.00000000000E+00 0.  1.
         35    2    1    2    0    0  0.00000000000E+00  0.00000000000E+00  0.94324139067E+03  0.98265267822E+03  0.27550311238E+03 0.  0.
         25    2    3    3    0    0  0.44423608745E+02 -0.18576964012E+02  0.59211176117E+03  0.60693506874E+03  0.12431926378E+03 0.  0.
         25    2    3    3    0    0 -0.44423608745E+02  0.18576964012E+02  0.35112962950E+03  0.37571760947E+03  0.12471224779E+03 0.  0.
          5    1    4    4  502    0  0.57864048568E+02  0.40396917333E+02  0.26685099651E+03  0.27606467247E+03  0.47000000000E+01 0. -1.
         -5    1    4    4    0  502 -0.13440439823E+02 -0.58973881344E+02  0.32526076466E+03  0.33087039628E+03  0.47000000000E+01 0. -1.
          5    1    5    5  503    0 -0.64333693659E+02  0.43217575475E+02  0.32568987226E+03  0.33481721262E+03  0.47000000000E+01 0.  1.
         -5    1    5    5    0  503  0.19910084914E+02 -0.24640611463E+02  0.25439757236E+02  0.40900396854E+02  0.47000000000E+01 0.  1.
<mgrwt>
<rscale>  0 0.27550311E+03</rscale>
<asrwt>0</asrwt>
<pdfrwt beam="1">  1        2 0.14814566E+00 0.27550311E+03</pdfrwt>
<pdfrwt beam="2">  1       -2 0.30316383E-02 0.27550311E+03</pdfrwt>
<totfact> 0.11515941E+04</totfact>
</mgrwt>
</event>
<event>
 9    1  0.8186049E-001  0.2720851E+03  0.7818608E-02  0.1100092E+00
          2   -1    0    0  501    0  0.00000000000E+00  0.00000000000E+00  0.91954742011E+03  0.91954742011E+03  0.00000000000E+00 0.  1.
         -2   -1    0    0    0  501 -0.00000000000E+00 -0.00000000000E+00 -0.20126825459E+02  0.20126825459E+02  0.00000000000E+00 0.  1.
         35    2    1    2    0    0  0.00000000000E+00  0.14210854715E-13  0.89942059465E+03  0.93967424557E+03  0.27208506336E+03 0.  0.
         25    2    3    3    0    0  0.89620708901E+01  0.49458843941E+02  0.40081418876E+03  0.42237143738E+03  0.12336580256E+03 0.  0.
         25    2    3    3    0    0 -0.89620708901E+01 -0.49458843941E+02  0.49860640589E+03  0.51730280819E+03  0.12832517839E+03 0.  0.
          5    1    4    4  502    0  0.35553731998E+02 -0.50238365375E+01  0.31568482278E+03  0.31775510087E+03  0.47000000000E+01 0. -1.
         -5    1    4    4    0  502 -0.26591661108E+02  0.54482680478E+02  0.85129365980E+02  0.10461633651E+03  0.47000000000E+01 0. -1.
          5    1    5    5  503    0  0.35139521608E+01  0.37493373121E+02  0.68665062827E+02  0.78454329012E+02  0.47000000000E+01 0.  1.
         -5    1    5    5    0  503 -0.12476023051E+02 -0.86952217061E+02  0.42994134306E+03  0.43884847918E+03  0.47000000000E+01 0.  1.
<mgrwt>
<rscale>  0 0.27208506E+03</rscale>
<asrwt>0</asrwt>
<pdfrwt beam="1">  1        2 0.14146880E+00 0.27208506E+03</pdfrwt>
<pdfrwt beam="2">  1       -2 0.30964354E-02 0.27208506E+03</pdfrwt>
<totfact> 0.11880320E+04</totfact>
</mgrwt>
</event>
<event>
 9    1  0.8186049E-001  0.2732740E+03  0.7818608E-02  0.1099420E+00
         -1   -1    0    0    0  501 -0.00000000000E+00  0.00000000000E+00  0.24449013349E+03  0.24449013349E+03  0.00000000000E+00 0.  1.
          1   -1    0    0  501    0  0.00000000000E+00 -0.00000000000E+00 -0.76361676318E+02  0.76361676318E+02  0.00000000000E+00 0.  1.
         35    2    1    2    0    0 -0.53290705182E-14 -0.71054273576E-14  0.16812845717E+03  0.32085180981E+03  0.27327404880E+03 0.  0.
         25    2    3    3    0    0 -0.55431850541E+01  0.46367916821E+02  0.59279895789E+02  0.14596143140E+03  0.12493967664E+03 0.  0.
         25    2    3    3    0    0  0.55431850541E+01 -0.46367916821E+02  0.10884856139E+03  0.17489037841E+03  0.12867759920E+03 0.  0.
          5    1    4    4  502    0  0.44365919985E+02 -0.17930562932E+02  0.57431046627E+01  0.48424303757E+02  0.47000000000E+01 0. -1.
         -5    1    4    4    0  502 -0.49909105039E+02  0.64298479753E+02  0.53536791126E+02  0.97537127641E+02  0.47000000000E+01 0. -1.
          5    1    5    5  503    0  0.10045750174E+02 -0.77294062733E+02  0.20025778162E+02  0.80612722453E+02  0.47000000000E+01 0.  1.
         -5    1    5    5    0  503 -0.45025651202E+01  0.30926145912E+02  0.88822783224E+02  0.94277655960E+02  0.47000000000E+01 0.  1.
<mgrwt>
<rscale>  0 0.27327405E+03</rscale>
<asrwt>0</asrwt>
<pdfrwt beam="1">  1        1 0.11747950E-01 0.27327405E+03</pdfrwt>
<pdfrwt beam="2">  1       -1 0.37613866E-01 0.27327405E+03</pdfrwt>
<totfact> 0.35382133E+03</totfact>
</mgrwt>
</event>
<event>
 9    1  0.8186049E-001  0.2716191E+03  0.7818608E-02  0.1100357E+00
         -1   -1    0    0    0  501 -0.00000000000E+00  0.00000000000E+00  0.57083657722E+02  0.57083657722E+02  0.00000000000E+00 0. -1.
          1   -1    0    0  501    0  0.00000000000E+00 -0.00000000000E+00 -0.32310879550E+03  0.32310879550E+03  0.00000000000E+00 0. -1.
         35    2    1    2    0    0  0.71054273576E-14  0.71054273576E-14 -0.26602513777E+03  0.38019245322E+03  0.27161908541E+03 0.  0.
         25    2    3    3    0    0 -0.32178595406E+02 -0.44321391479E+02 -0.11888983073E+03  0.18038665398E+03  0.12411569336E+03 0.  0.
         25    2    3    3    0    0  0.32178595406E+02  0.44321391479E+02 -0.14713530705E+03  0.19980579924E+03  0.12358685644E+03 0.  0.
          5    1    4    4  502    0  0.14692331051E+02 -0.90727590031E+01 -0.12021298257E+03  0.12153777489E+03  0.47000000000E+01 0. -1.
         -5    1    4    4    0  502 -0.46870926457E+02 -0.35248632475E+02  0.13231518459E+01  0.58848879082E+02  0.47000000000E+01 0. -1.
          5    1    5    5  503    0  0.47344584139E+02  0.71279091769E+01 -0.15166502244E+03  0.15911217982E+03  0.47000000000E+01 0.  1.
         -5    1    5    5    0  503 -0.15165988733E+02  0.37193482302E+02  0.45297153900E+01  0.40693619420E+02  0.47000000000E+01 0.  1.
<mgrwt>
<rscale>  0 0.27161909E+03</rscale>
<asrwt>0</asrwt>
<pdfrwt beam="1">  1        1 0.49709046E-01 0.27161909E+03</pdfrwt>
<pdfrwt beam="2">  1       -1 0.87821011E-02 0.27161909E+03</pdfrwt>
<totfact> 0.59016340E+03</totfact>
</mgrwt>
</event>
<event>
 9    1  0.8186049E-001  0.2762626E+03  0.7818608E-02  0.1097748E+00
          2   -1    0    0  501    0  0.00000000000E+00  0.00000000000E+00  0.58906653613E+02  0.58906653613E+02  0.00000000000E+00 0.  1.
         -2   -1    0    0    0  501 -0.00000000000E+00 -0.00000000000E+00 -0.32390652854E+03  0.32390652854E+03  0.00000000000E+00 0.  1.
         35    2    1    2    0    0  0.00000000000E+00  0.00000000000E+00 -0.26499987493E+03  0.38281318215E+03  0.27626255396E+03 0.  0.
         25    2    3    3    0    0 -0.37004736340E+02  0.39248273068E+02 -0.95339990602E+02  0.16543499411E+03  0.12397276321E+03 0.  0.
         25    2    3    3    0    0  0.37004736340E+02 -0.39248273068E+02 -0.16965988433E+03  0.21737818805E+03  0.12473581217E+03 0.  0.
          5    1    4    4  502    0 -0.81103951765E+02  0.40531805416E+02 -0.65985376249E+02  0.11223563659E+03  0.47000000000E+01 0.  1.
         -5    1    4    4    0  502  0.44099215425E+02 -0.12835323476E+01 -0.29354614353E+02  0.53199357517E+02  0.47000000000E+01 0.  1.
          5    1    5    5  503    0  0.97421649499E+01 -0.63600233803E+02 -0.26830647054E+02  0.69870402454E+02  0.47000000000E+01 0.  1.
         -5    1    5    5    0  503  0.27262571390E+02  0.24351960735E+02 -0.14282923727E+03  0.14750778559E+03  0.47000000000E+01 0.  1.
<mgrwt>
<rscale>  0 0.27626255E+03</rscale>
<asrwt>0</asrwt>
<pdfrwt beam="1">  1        2 0.90625620E-02 0.27626255E+03</pdfrwt>
<pdfrwt beam="2">  1       -2 0.49831774E-01 0.27626255E+03</pdfrwt>
<totfact> 0.27959455E+03</totfact>
</mgrwt>
</event>
<event>
 9    1  0.8186049E-001  0.2763931E+03  0.7818608E-02  0.1097675E+00
          2   -1    0    0  501    0  0.00000000000E+00  0.00000000000E+00  0.10020313408E+02  0.10020313408E+02  0.00000000000E+00 0. -1.
         -2   -1    0    0    0  501 -0.00000000000E+00 -0.00000000000E+00 -0.19059564217E+04  0.19059564217E+04  0.00000000000E+00 0. -1.
         35    2    1    2    0    0  0.00000000000E+00  0.00000000000E+00 -0.18959361083E+04  0.19159767351E+04  0.27639305843E+03 0.  0.
         25    2    3    3    0    0 -0.84395188662E+01  0.29851466371E+02 -0.13012107693E+04  0.13077245722E+04  0.12661656775E+03 0.  0.
         25    2    3    3    0    0  0.84395188662E+01 -0.29851466371E+02 -0.59472533906E+03  0.60825216292E+03  0.12373410705E+03 0.  0.
          5    1    4    4  502    0 -0.59879030275E+02 -0.11265848930E+02 -0.48215950801E+03  0.48601676800E+03  0.47000000000E+01 0. -1.
         -5    1    4    4    0  502  0.51439511409E+02  0.41117315302E+02 -0.81905126125E+03  0.82170780421E+03  0.47000000000E+01 0. -1.
          5    1    5    5  503    0 -0.51886509117E+02 -0.37944316903E+02 -0.25070427320E+03  0.25885653094E+03  0.47000000000E+01 0. -1.
         -5    1    5    5    0  503  0.60326027983E+02  0.80928505319E+01 -0.34402106587E+03  0.34939563197E+03  0.47000000000E+01 0. -1.
<mgrwt>
<rscale>  0 0.27639306E+03</rscale>
<asrwt>0</asrwt>
<pdfrwt beam="1">  1        2 0.15415844E-02 0.27639306E+03</pdfrwt>
<pdfrwt beam="2">  1       -2 0.29322450E+00 0.27639306E+03</pdfrwt>
<totfact> 0.31541531E+02</totfact>
</mgrwt>
</event>
<event>
 9    1  0.8186049E-001  0.2606457E+03  0.7818608E-02  0.1106756E+00
         -1   -1    0    0    0  501 -0.00000000000E+00  0.00000000000E+00  0.23733700098E+02  0.23733700098E+02  0.00000000000E+00 0.  1.
          1   -1    0    0  501    0  0.00000000000E+00 -0.00000000000E+00 -0.71560893072E+03  0.71560893072E+03  0.00000000000E+00 0.  1.
         35    2    1    2    0    0  0.00000000000E+00 -0.11102230246E-15 -0.69187523062E+03  0.73934263082E+03  0.26064571932E+03 0.  0.
         25    2    3    3    0    0 -0.12140043061E+02 -0.33801100999E+00 -0.36122152376E+03  0.38618806787E+03  0.13606152887E+03 0.  0.
         25    2    3    3    0    0  0.12140043061E+02  0.33801100999E+00 -0.33065370686E+03  0.35315456295E+03  0.12344543967E+03 0.  0.
          5    1    4    4  502    0 -0.59634463832E+02 -0.10953002968E+01 -0.74642909204E+02  0.95661501419E+02  0.47000000000E+01 0.  1.
         -5    1    4    4    0  502  0.47494420772E+02  0.75728928682E+00 -0.28657861456E+03  0.29052656645E+03  0.47000000000E+01 0.  1.
          5    1    5    5  503    0  0.27231147723E+02 -0.14666557285E+02 -0.32986636422E+03  0.33134657317E+03  0.47000000000E+01 0. -1.
         -5    1    5    5    0  503 -0.15091104662E+02  0.15004568295E+02 -0.78734263832E+00  0.21807989776E+02  0.47000000000E+01 0. -1.
<mgrwt>
<rscale>  0 0.26064572E+03</rscale>
<asrwt>0</asrwt>
<pdfrwt beam="1">  1        1 0.11009369E+00 0.26064572E+03</pdfrwt>
<pdfrwt beam="2">  1       -1 0.36513382E-02 0.26064572E+03</pdfrwt>
<totfact> 0.76500661E+03</totfact>
</mgrwt>
</event>
<event>
 9    1  0.8186049E-001  0.2760569E+03  0.7818608E-02  0.1097862E+00
         -4   -1    0    0    0  501 -0.00000000000E+00  0.00000000000E+00  0.26578052878E+04  0.26578052878E+04  0.00000000000E+00 0. -1.
          4   -1    0    0  501    0  0.00000000000E+00 -0.00000000000E+00 -0.71682672202E+01  0.71682672202E+01  0.00000000000E+00 0. -1.
         35    2    1    2    0    0 -0.35527136788E-14  0.17763568394E-14  0.26506370206E+04  0.26649735551E+04  0.27605693994E+03 0.  0.
         25    2    3    3    0    0 -0.71880314181E+01 -0.89790246608E+00  0.18818003807E+04  0.18859444588E+04  0.12474516031E+03 0.  0.
         25    2    3    3    0    0  0.71880314181E+01  0.89790246608E+00  0.76883663993E+03  0.77902909622E+03  0.12539569308E+03 0.  0.
          5    1    4    4  502    0 -0.33108806074E+02 -0.14248970680E+02  0.16790591996E+03  0.17179555921E+03  0.47000000000E+01 0.  1.
         -5    1    4    4    0  502  0.25920774656E+02  0.13351068214E+02  0.17138944607E+04  0.17141488996E+04  0.47000000000E+01 0.  1.
          5    1    5    5  503    0  0.12101543563E+02 -0.37487306315E+02  0.68942208287E+03  0.69056255606E+03  0.47000000000E+01 0.  1.
         -5    1    5    5    0  503 -0.49135121445E+01  0.38385208781E+02  0.79414557061E+02  0.88466540160E+02  0.47000000000E+01 0.  1.
<mgrwt>
<rscale>  0 0.27605694E+03</rscale>
<asrwt>0</asrwt>
<pdfrwt beam="1">  1        4 0.11028125E-02 0.27605694E+03</pdfrwt>
<pdfrwt beam="2">  1       -4 0.40889233E+00 0.27605694E+03</pdfrwt>
<totfact> 0.35438106E+01</totfact>
</mgrwt>
</event>
<event>
 9    1  0.8186049E-001  0.2818759E+03  0.7818608E-02  0.1094669E+00
         -2   -1    0    0    0  501 -0.00000000000E+00  0.00000000000E+00  0.10343274135E+02  0.10343274135E+02  0.00000000000E+00 0. -1.
          2   -1    0    0  501    0  0.00000000000E+00 -0.00000000000E+00 -0.19204275065E+04  0.19204275065E+04  0.00000000000E+00 0. -1.
         35    2    1    2    0    0  0.17763568394E-14 -0.35527136788E-14 -0.19100842324E+04  0.19307707806E+04  0.28187591707E+03 0.  0.
         25    2    3    3    0    0 -0.14498292036E+02  0.20538409018E+02 -0.54196328346E+03  0.55672411913E+03  0.12484197006E+03 0.  0.
         25    2    3    3    0    0  0.14498292036E+02 -0.20538409018E+02 -0.13681209489E+04  0.13740466615E+04  0.12496907791E+03 0.  0.
          5    1    4    4  502    0 -0.16644431781E+02  0.39916762178E+02 -0.53297378658E+03  0.53474623158E+03  0.47000000000E+01 0. -1.
         -5    1    4    4    0  502  0.21461397450E+01 -0.19378353160E+02 -0.89894968819E+01  0.21977887551E+02  0.47000000000E+01 0. -1.
          5    1    5    5  503    0 -0.44068580231E+02 -0.24387069891E+02 -0.99712015135E+03  0.99840245151E+03  0.47000000000E+01 0. -1.
         -5    1    5    5    0  503  0.58566872267E+02  0.38486608736E+01 -0.37100079754E+03  0.37564420999E+03  0.47000000000E+01 0. -1.
<mgrwt>
<rscale>  0 0.28187592E+03</rscale>
<asrwt>0</asrwt>
<pdfrwt beam="1">  1        2 0.29545061E+00 0.28187592E+03</pdfrwt>
<pdfrwt beam="2">  1       -2 0.15912718E-02 0.28187592E+03</pdfrwt>
<totfact> 0.88543516E+03</totfact>
</mgrwt>
</event>
<event>
 9    1  0.8186049E-001  0.2967071E+03  0.7818608E-02  0.1086898E+00
          2   -1    0    0  501    0  0.00000000000E+00  0.00000000000E+00  0.23445417994E+04  0.23445417994E+04  0.00000000000E+00 0. -1.
         -2   -1    0    0    0  501 -0.00000000000E+00 -0.00000000000E+00 -0.93872427506E+01  0.93872427506E+01  0.00000000000E+00 0. -1.
         35    2    1    2    0    0  0.00000000000E+00  0.00000000000E+00  0.23351545567E+04  0.23539290422E+04  0.29670714862E+03 0.  0.
         25    2    3    3    0    0 -0.55371245942E+02 -0.39366531215E+02  0.84039786075E+03  0.85238069767E+03  0.12517424157E+03 0.  0.
         25    2    3    3    0    0  0.55371245942E+02  0.39366531215E+02  0.14947566959E+04  0.15015483445E+04  0.12543584901E+03 0.  0.
          5    1    4    4  502    0 -0.93849390625E+02 -0.12068094940E+02  0.53470923351E+03  0.54303720079E+03  0.47000000000E+01 0.  1.
         -5    1    4    4    0  502  0.38478144684E+02 -0.27298436275E+02  0.30568862724E+03  0.30934349688E+03  0.47000000000E+01 0.  1.
          5    1    5    5  503    0 -0.34920930011E+02 -0.13624252073E+02  0.41807101417E+03  0.41977440904E+03  0.47000000000E+01 0.  1.
         -5    1    5    5    0  503  0.90292175953E+02  0.52990783288E+02  0.10766856818E+04  0.10817739355E+04  0.47000000000E+01 0.  1.
<mgrwt>
<rscale>  0 0.29670715E+03</rscale>
<asrwt>0</asrwt>
<pdfrwt beam="1">  1        2 0.36069827E+00 0.29670715E+03</pdfrwt>
<pdfrwt beam="2">  1       -2 0.14441931E-02 0.29670715E+03</pdfrwt>
<totfact> 0.60757835E+03</totfact>
</mgrwt>
</event>
<event>
 9    1  0.8186049E-001  0.2769010E+03  0.7818608E-02  0.1097394E+00
          2   -1    0    0  501    0  0.00000000000E+00  0.00000000000E+00  0.76476368342E+03  0.76476368342E+03  0.00000000000E+00 0.  1.
         -2   -1    0    0    0  501 -0.00000000000E+00 -0.00000000000E+00 -0.25064665048E+02  0.25064665048E+02  0.00000000000E+00 0.  1.
         35    2    1    2    0    0 -0.71054273576E-14  0.35527136788E-14  0.73969901838E+03  0.78982834847E+03  0.27690103334E+03 0.  0.
         25    2    3    3    0    0 -0.25643938266E+02  0.21234826798E+02  0.51619380287E+03  0.53172474401E+03  0.12315287990E+03 0.  0.
         25    2    3    3    0    0  0.25643938266E+02 -0.21234826798E+02  0.22350521550E+03  0.25810360446E+03  0.12471711928E+03 0.  0.
          5    1    4    4  502    0  0.39817660808E+02 -0.14762606520E+02  0.98358183315E+02  0.10723713391E+03  0.47000000000E+01 0. -1.
         -5    1    4    4    0  502 -0.65461599074E+02  0.35997433318E+02  0.41783561956E+03  0.42448761010E+03  0.47000000000E+01 0. -1.
          5    1    5    5  503    0 -0.27645240490E+02 -0.30403189639E+02  0.17227887024E+02  0.44805171055E+02  0.47000000000E+01 0. -1.
         -5    1    5    5    0  503  0.53289178756E+02  0.91683628404E+01  0.20627732848E+03  0.21329843341E+03  0.47000000000E+01 0. -1.
<mgrwt>
<rscale>  0 0.27690103E+03</rscale>
<asrwt>0</asrwt>
<pdfrwt beam="1">  1        2 0.11765593E+00 0.27690103E+03</pdfrwt>
<pdfrwt beam="2">  1       -2 0.38561029E-02 0.27690103E+03</pdfrwt>
<totfact> 0.10877870E+04</totfact>
</mgrwt>
</event>
<event>
 9    1  0.8186049E-001  0.2758650E+03  0.7818608E-02  0.1097969E+00
          2   -1    0    0  501    0  0.00000000000E+00  0.00000000000E+00  0.67953689543E+02  0.67953689543E+02  0.00000000000E+00 0. -1.
         -2   -1    0    0    0  501 -0.00000000000E+00 -0.00000000000E+00 -0.27997569232E+03  0.27997569232E+03  0.00000000000E+00 0. -1.
         35    2    1    2    0    0 -0.14210854715E-13  0.00000000000E+00 -0.21202200277E+03  0.34792938186E+03  0.27586504871E+03 0.  0.
         25    2    3    3    0    0  0.43882382808E+02  0.23038104700E+02 -0.14477233279E+03  0.19779973710E+03  0.12533670599E+03 0.  0.
         25    2    3    3    0    0 -0.43882382808E+02 -0.23038104700E+02 -0.67249669989E+02  0.15012964476E+03  0.12473962615E+03 0.  0.
          5    1    4    4  502    0 -0.29556285771E+02 -0.27554535633E+02 -0.71592147623E+02  0.82342893220E+02  0.47000000000E+01 0.  1.
         -5    1    4    4    0  502  0.73438668579E+02  0.50592640333E+02 -0.73180185162E+02  0.11545684388E+03  0.47000000000E+01 0.  1.
          5    1    5    5  503    0  0.83199387091E+01  0.10944221260E+02 -0.84168461159E+02  0.85413214510E+02  0.47000000000E+01 0. -1.
         -5    1    5    5    0  503 -0.52202321517E+02 -0.33982325960E+02  0.16918791170E+02  0.64716430249E+02  0.47000000000E+01 0. -1.
<mgrwt>
<rscale>  0 0.27586505E+03</rscale>
<asrwt>0</asrwt>
<pdfrwt beam="1">  1        2 0.10454414E-01 0.27586505E+03</pdfrwt>
<pdfrwt beam="2">  1       -2 0.43073184E-01 0.27586505E+03</pdfrwt>
<totfact> 0.31159241E+03</totfact>
</mgrwt>
</event>
<event>
 9    1  0.8186049E-001  0.2699073E+03  0.7818608E-02  0.1101333E+00
          2   -1    0    0  501    0  0.00000000000E+00  0.00000000000E+00  0.19383749767E+03  0.19383749767E+03  0.00000000000E+00 0.  1.
         -2   -1    0    0    0  501 -0.00000000000E+00 -0.00000000000E+00 -0.93957481453E+02  0.93957481453E+02  0.00000000000E+00 0.  1.
         35    2    1    2    0    0  0.00000000000E+00  0.71054273576E-14  0.99880016215E+02  0.28779497912E+03  0.26990726624E+03 0.  0.
         25    2    3    3    0    0  0.19074187942E+02  0.45880786284E+02  0.66033226710E+02  0.14996021623E+03  0.12513515983E+03 0.  0.
         25    2    3    3    0    0 -0.19074187942E+02 -0.45880786284E+02  0.33846789505E+02  0.13783476289E+03  0.12403203419E+03 0.  0.
          5    1    4    4  502    0 -0.11467373810E+02  0.64560050132E+02 -0.93260108061E+01  0.66397027138E+02  0.47000000000E+01 0.  1.
         -5    1    4    4    0  502  0.30541561751E+02 -0.18679263848E+02  0.75359237516E+02  0.83563189092E+02  0.47000000000E+01 0.  1.
          5    1    5    5  503    0 -0.21079059989E+02 -0.88066884589E+02  0.17771573491E+02  0.92401416415E+02  0.47000000000E+01 0.  1.
         -5    1    5    5    0  503  0.20048720473E+01  0.42186098305E+02  0.16075216014E+02  0.45433346476E+02  0.47000000000E+01 0.  1.
<mgrwt>
<rscale>  0 0.26990727E+03</rscale>
<asrwt>0</asrwt>
<pdfrwt beam="1">  1        2 0.29821153E-01 0.26990727E+03</pdfrwt>
<pdfrwt beam="2">  1       -2 0.14454997E-01 0.26990727E+03</pdfrwt>
<totfact> 0.63710381E+03</totfact>
</mgrwt>
</event>
<event>
 9    1  0.8186049E-001  0.2723966E+03  0.7818608E-02  0.1099916E+00
          1   -1    0    0  501    0  0.00000000000E+00  0.00000000000E+00  0.23318209592E+03  0.23318209592E+03  0.00000000000E+00 0. -1.
         -1   -1    0    0    0  501 -0.00000000000E+00 -0.00000000000E+00 -0.79551452581E+02  0.79551452581E+02  0.00000000000E+00 0. -1.
         35    2    1    2    0    0  0.00000000000E+00 -0.71054273576E-14  0.15363064334E+03  0.31273354850E+03  0.27239658182E+03 0.  0.
         25    2    3    3    0    0 -0.37602863044E+02 -0.39439126488E+02  0.76790484296E+02  0.15610578157E+03  0.12451030701E+03 0.  0.
         25    2    3    3    0    0  0.37602863044E+02  0.39439126488E+02  0.76840159045E+02  0.15662776694E+03  0.12513363787E+03 0.  0.
          5    1    4    4  502    0 -0.36603072680E+02  0.40430916386E+02  0.41304102901E+02  0.68575234932E+02  0.47000000000E+01 0.  1.
         -5    1    4    4    0  502 -0.99979036327E+00 -0.79870042874E+02  0.35486381396E+02  0.87530546634E+02  0.47000000000E+01 0.  1.
          5    1    5    5  503    0  0.64852419458E+02  0.69055884068E+01  0.90632526809E+02  0.11175807969E+03  0.47000000000E+01 0. -1.
         -5    1    5    5    0  503 -0.27249556414E+02  0.32533538081E+02 -0.13792367765E+02  0.44869687244E+02  0.47000000000E+01 0. -1.
<mgrwt>
<rscale>  0 0.27239658E+03</rscale>
<asrwt>0</asrwt>
<pdfrwt beam="1">  1        1 0.35874168E-01 0.27239658E+03</pdfrwt>
<pdfrwt beam="2">  1       -1 0.12238685E-01 0.27239658E+03</pdfrwt>
<totfact> 0.53180288E+03</totfact>
</mgrwt>
</event>
<event>
 9    1  0.8186049E-001  0.2747647E+03  0.7818608E-02  0.1098583E+00
          2   -1    0    0  501    0  0.00000000000E+00  0.00000000000E+00  0.93279531765E+03  0.93279531765E+03  0.00000000000E+00 0. -1.
         -2   -1    0    0    0  501 -0.00000000000E+00 -0.00000000000E+00 -0.20233715432E+02  0.20233715432E+02  0.00000000000E+00 0. -1.
         35    2    1    2    0    0 -0.71054273576E-14  0.71054273576E-14  0.91256160222E+03  0.95302903308E+03  0.27476473583E+03 0.  0.
         25    2    3    3    0    0  0.39182171828E+02  0.20043673758E+02  0.59044957657E+03  0.60524755720E+03  0.12552653735E+03 0.  0.
         25    2    3    3    0    0 -0.39182171828E+02 -0.20043673758E+02  0.32211202564E+03  0.34778147587E+03  0.12352654149E+03 0.  0.
          5    1    4    4  502    0 -0.38942075214E+01  0.58470952774E+02  0.44212833172E+03  0.44601969561E+03  0.47000000000E+01 0. -1.
         -5    1    4    4    0  502  0.43076379349E+02 -0.38427279016E+02  0.14832124486E+03  0.15922786159E+03  0.47000000000E+01 0. -1.
          5    1    5    5  503    0  0.29176742804E+02  0.10655635705E+01  0.16483766032E+02  0.33855904788E+02  0.47000000000E+01 0.  1.
         -5    1    5    5    0  503 -0.68358914632E+02 -0.21109237329E+02  0.30562825961E+03  0.31392557109E+03  0.47000000000E+01 0.  1.
<mgrwt>
<rscale>  0 0.27476474E+03</rscale>
<asrwt>0</asrwt>
<pdfrwt beam="1">  1        2 0.14350694E+00 0.27476474E+03</pdfrwt>
<pdfrwt beam="2">  1       -2 0.31128800E-02 0.27476474E+03</pdfrwt>
<totfact> 0.11564183E+04</totfact>
</mgrwt>
</event>
<event>
 9    1  0.8186049E-001  0.2789489E+03  0.7818608E-02  0.1096264E+00
          3   -1    0    0  501    0  0.00000000000E+00  0.00000000000E+00  0.27250940028E+03  0.27250940028E+03  0.00000000000E+00 0.  1.
         -3   -1    0    0    0  501 -0.00000000000E+00 -0.00000000000E+00 -0.71385155214E+02  0.71385155214E+02  0.00000000000E+00 0.  1.
         35    2    1    2    0    0  0.71054273576E-14  0.00000000000E+00  0.20112424507E+03  0.34389455549E+03  0.27894892605E+03 0.  0.
         25    2    3    3    0    0 -0.25562464036E+02  0.19950575890E+02  0.16714419621E+03  0.21125270998E+03  0.12505622776E+03 0.  0.
         25    2    3    3    0    0  0.25562464036E+02 -0.19950575890E+02  0.33980048860E+02  0.13264184552E+03  0.12404737166E+03 0.  0.
          5    1    4    4  502    0  0.17354866538E+02 -0.45830045928E+02  0.50280354378E+02  0.70368945840E+02  0.47000000000E+01 0.  1.
         -5    1    4    4    0  502 -0.42917330574E+02  0.65780621817E+02  0.11686384183E+03  0.14088376414E+03  0.47000000000E+01 0.  1.
          5    1    5    5  503    0 -0.16046630807E+01 -0.35326811384E+02  0.73714731150E+02  0.81893285040E+02  0.47000000000E+01 0.  1.
         -5    1    5    5    0  503  0.27167127117E+02  0.15376235495E+02 -0.39734682290E+02  0.50748560477E+02  0.47000000000E+01 0.  1.
<mgrwt>
<rscale>  0 0.27894893E+03</rscale>
<asrwt>0</asrwt>
<pdfrwt beam="1">  1        3 0.41924523E-01 0.27894893E+03</pdfrwt>
<pdfrwt beam="2">  1       -3 0.10982332E-01 0.27894893E+03</pdfrwt>
<totfact> 0.91045027E+02</totfact>
</mgrwt>
</event>
<event>
 9    1  0.8186049E-001  0.2734655E+03  0.7818608E-02  0.1099312E+00
         -2   -1    0    0    0  501 -0.00000000000E+00  0.00000000000E+00  0.30601931428E+03  0.30601931428E+03  0.00000000000E+00 0. -1.
          2   -1    0    0  501    0  0.00000000000E+00 -0.00000000000E+00 -0.61093682970E+02  0.61093682970E+02  0.00000000000E+00 0. -1.
         35    2    1    2    0    0 -0.35527136788E-14  0.00000000000E+00  0.24492563131E+03  0.36711299725E+03  0.27346551497E+03 0.  0.
         25    2    3    3    0    0  0.19599012628E+02 -0.14862586752E+02  0.56124451832E+02  0.13927424613E+03  0.12506935580E+03 0.  0.
         25    2    3    3    0    0 -0.19599012628E+02  0.14862586752E+02  0.18880117947E+03  0.22783875112E+03  0.12513829693E+03 0.  0.
          5    1    4    4  502    0  0.50922342166E+02  0.17295820159E+02  0.73252741764E+02  0.90996068610E+02  0.47000000000E+01 0.  1.
         -5    1    4    4    0  502 -0.31323329538E+02 -0.32158406911E+02 -0.17128289931E+02  0.48278177517E+02  0.47000000000E+01 0.  1.
          5    1    5    5  503    0  0.25983798620E+02  0.45775450433E+02  0.15327787287E+03  0.16213187831E+03  0.47000000000E+01 0. -1.
         -5    1    5    5    0  503 -0.45582811248E+02 -0.30912863681E+02  0.35523306606E+02  0.65706872810E+02  0.47000000000E+01 0. -1.
<mgrwt>
<rscale>  0 0.27346551E+03</rscale>
<asrwt>0</asrwt>
<pdfrwt beam="1">  1        2 0.93990283E-02 0.27346551E+03</pdfrwt>
<pdfrwt beam="2">  1       -2 0.47079894E-01 0.27346551E+03</pdfrwt>
<totfact> 0.29885787E+03</totfact>
</mgrwt>
</event>
<event>
 9    1  0.8186049E-001  0.2750802E+03  0.7818608E-02  0.1098407E+00
         -1   -1    0    0    0  501 -0.00000000000E+00  0.00000000000E+00  0.27997926205E+02  0.27997926205E+02  0.00000000000E+00 0. -1.
          1   -1    0    0  501    0  0.00000000000E+00 -0.00000000000E+00 -0.67566727811E+03  0.67566727811E+03  0.00000000000E+00 0. -1.
         35    2    1    2    0    0  0.00000000000E+00  0.00000000000E+00 -0.64766935191E+03  0.70366520432E+03  0.27508022533E+03 0.  0.
         25    2    3    3    0    0  0.12258594485E+02 -0.53692538402E+02 -0.37798170094E+03  0.40116763860E+03  0.12260565318E+03 0.  0.
         25    2    3    3    0    0 -0.12258594485E+02  0.53692538402E+02 -0.26968765096E+03  0.30249756572E+03  0.12545989943E+03 0.  0.
          5    1    4    4  502    0 -0.60516298048E+01 -0.27837432103E+02 -0.82181762037E+01  0.30019548123E+02  0.47000000000E+01 0.  1.
         -5    1    4    4    0  502  0.18310224290E+02 -0.25855106299E+02 -0.36976352474E+03  0.37114809048E+03  0.47000000000E+01 0.  1.
          5    1    5    5  503    0  0.19090866168E+01 -0.34903243247E+02 -0.14235438741E+03  0.14665859202E+03  0.47000000000E+01 0. -1.
         -5    1    5    5    0  503 -0.14167681102E+02  0.88595781649E+02 -0.12733326356E+03  0.15583897369E+03  0.47000000000E+01 0. -1.
<mgrwt>
<rscale>  0 0.27508023E+03</rscale>
<asrwt>0</asrwt>
<pdfrwt beam="1">  1        1 0.10394881E+00 0.27508023E+03</pdfrwt>
<pdfrwt beam="2">  1       -1 0.43073731E-02 0.27508023E+03</pdfrwt>
<totfact> 0.65165510E+03</totfact>
</mgrwt>
</event>
<event>
 9    1  0.8186049E-001  0.2739208E+03  0.7818608E-02  0.1099056E+00
         -1   -1    0    0    0  501 -0.00000000000E+00  0.00000000000E+00  0.43466650541E+02  0.43466650541E+02  0.00000000000E+00 0.  1.
          1   -1    0    0  501    0  0.00000000000E+00 -0.00000000000E+00 -0.43155285553E+03  0.43155285553E+03  0.00000000000E+00 0.  1.
         35    2    1    2    0    0  0.35527136788E-14  0.00000000000E+00 -0.38808620499E+03  0.47501950607E+03  0.27392084376E+03 0.  0.
         25    2    3    3    0    0 -0.14462079982E+02  0.52777110964E+02 -0.17902095008E+03  0.22510723971E+03  0.12502077269E+03 0.  0.
         25    2    3    3    0    0  0.14462079982E+02 -0.52777110964E+02 -0.20906525491E+03  0.24991226636E+03  0.12551209052E+03 0.  0.
          5    1    4    4  502    0 -0.12830901562E+02 -0.99797717184E+01  0.14074100421E+02  0.22009047710E+02  0.47000000000E+01 0.  1.
         -5    1    4    4    0  502 -0.16311784206E+01  0.62756882683E+02 -0.19309505050E+03  0.20309819200E+03  0.47000000000E+01 0.  1.
          5    1    5    5  503    0  0.56133242069E+02  0.43848172298E+01 -0.13985207324E+03  0.15083388173E+03  0.47000000000E+01 0. -1.
         -5    1    5    5    0  503 -0.41671162087E+02 -0.57161928194E+02 -0.69213181670E+02  0.99078384632E+02  0.47000000000E+01 0. -1.
<mgrwt>
<rscale>  0 0.27392084E+03</rscale>
<asrwt>0</asrwt>
<pdfrwt beam="1">  1        1 0.66392748E-01 0.27392084E+03</pdfrwt>
<pdfrwt beam="2">  1       -1 0.66871769E-02 0.27392084E+03</pdfrwt>
<totfact> 0.61828537E+03</totfact>
</mgrwt>
</event>
<event>
 9    1  0.8186049E-001  0.2765434E+03  0.7818608E-02  0.1097592E+00
          1   -1    0    0  501    0  0.00000000000E+00  0.00000000000E+00  0.14609012508E+04  0.14609012508E+04  0.00000000000E+00 0. -1.
         -1   -1    0    0    0  501 -0.00000000000E+00 -0.00000000000E+00 -0.13087166267E+02  0.13087166267E+02  0.00000000000E+00 0. -1.
         35    2    1    2    0    0  0.00000000000E+00  0.14210854715E-13  0.14478140846E+04  0.14739884171E+04  0.27654336057E+03 0.  0.
         25    2    3    3    0    0  0.12859727988E+01 -0.52658733830E+02  0.74311008445E+03  0.75547645911E+03  0.12552882808E+03 0.  0.
         25    2    3    3    0    0 -0.12859727988E+01  0.52658733830E+02  0.70470400012E+03  0.71851195799E+03  0.12991193180E+03 0.  0.
          5    1    4    4  502    0 -0.36328383172E+02 -0.71153765036E+01  0.59183481887E+03  0.59301005289E+03  0.47000000000E+01 0. -1.
         -5    1    4    4    0  502  0.37614355970E+02 -0.45543357327E+02  0.15127526558E+03  0.16246640621E+03  0.47000000000E+01 0. -1.
          5    1    5    5  503    0 -0.62031804891E+02  0.18972315766E+02  0.24146649896E+03  0.25007209701E+03  0.47000000000E+01 0. -1.
         -5    1    5    5    0  503  0.60745832092E+02  0.33686418064E+02  0.46323750116E+03  0.46843986098E+03  0.47000000000E+01 0. -1.
<mgrwt>
<rscale>  0 0.27654336E+03</rscale>
<asrwt>0</asrwt>
<pdfrwt beam="1">  1        1 0.22475391E+00 0.27654336E+03</pdfrwt>
<pdfrwt beam="2">  1       -1 0.20134113E-02 0.27654336E+03</pdfrwt>
<totfact> 0.51595377E+03</totfact>
</mgrwt>
</event>
<event>
 9    1  0.8186049E-001  0.2905748E+03  0.7818608E-02  0.1090049E+00
         -1   -1    0    0    0  501 -0.00000000000E+00  0.00000000000E+00  0.13013794490E+02  0.13013794490E+02  0.00000000000E+00 0. -1.
          1   -1    0    0  501    0  0.00000000000E+00 -0.00000000000E+00 -0.16220045133E+04  0.16220045133E+04  0.00000000000E+00 0. -1.
         35    2    1    2    0    0  0.00000000000E+00  0.00000000000E+00 -0.16089907188E+04  0.16350183078E+04  0.29057483304E+03 0.  0.
         25    2    3    3    0    0 -0.12815360477E+02  0.83915258252E+01 -0.44367165135E+03  0.46290194359E+03  0.13114504944E+03 0.  0.
         25    2    3    3    0    0  0.12815360477E+02 -0.83915258252E+01 -0.11653190675E+04  0.11721163642E+04  0.12511431208E+03 0.  0.
          5    1    4    4  502    0  0.32236626356E+02  0.11164380586E+01 -0.23381206650E+02  0.40115051255E+02  0.47000000000E+01 0.  1.
         -5    1    4    4    0  502 -0.45051986833E+02  0.72750877666E+01 -0.42029044470E+03  0.42278689233E+03  0.47000000000E+01 0.  1.
          5    1    5    5  503    0  0.67431887112E+02  0.70002486838E+01 -0.55433138891E+03  0.55848137087E+03  0.47000000000E+01 0.  1.
         -5    1    5    5    0  503 -0.54616526635E+02 -0.15391774509E+02 -0.61098767859E+03  0.61363499337E+03  0.47000000000E+01 0.  1.
<mgrwt>
<rscale>  0 0.29057483E+03</rscale>
<asrwt>0</asrwt>
<pdfrwt beam="1">  1        1 0.24953929E+00 0.29057483E+03</pdfrwt>
<pdfrwt beam="2">  1       -1 0.20021212E-02 0.29057483E+03</pdfrwt>
<totfact> 0.40720091E+03</totfact>
</mgrwt>
</event>
<event>
 9    1  0.8186049E-001  0.2777483E+03  0.7818608E-02  0.1096925E+00
         -1   -1    0    0    0  501 -0.00000000000E+00  0.00000000000E+00  0.56033776804E+03  0.56033776804E+03  0.00000000000E+00 0. -1.
          1   -1    0    0  501    0  0.00000000000E+00 -0.00000000000E+00 -0.34418569616E+02  0.34418569616E+02  0.00000000000E+00 0. -1.
         35    2    1    2    0    0  0.71054273576E-14 -0.17763568394E-14  0.52591919843E+03  0.59475633766E+03  0.27774826356E+03 0.  0.
         25    2    3    3    0    0  0.49098331375E+02 -0.70173008351E+01  0.18781010003E+03  0.23115293338E+03  0.12529627402E+03 0.  0.
         25    2    3    3    0    0 -0.49098331375E+02  0.70173008351E+01  0.33810909839E+03  0.36360340428E+03  0.12421668378E+03 0.  0.
          5    1    4    4  502    0  0.75650374580E+02 -0.11335860395E+02  0.51977811479E+02  0.92602720215E+02  0.47000000000E+01 0. -1.
         -5    1    4    4    0  502 -0.26552043205E+02  0.43185595598E+01  0.13583228855E+03  0.13855021317E+03  0.47000000000E+01 0. -1.
          5    1    5    5  503    0  0.35964523610E+02 -0.16868683070E+02  0.15730768692E+03  0.16231388662E+03  0.47000000000E+01 0.  1.
         -5    1    5    5    0  503 -0.85062854985E+02  0.23885983905E+02  0.18080141148E+03  0.20128951765E+03  0.47000000000E+01 0.  1.
<mgrwt>
<rscale>  0 0.27774826E+03</rscale>
<asrwt>0</asrwt>
<pdfrwt beam="1">  1        1 0.52951650E-02 0.27774826E+03</pdfrwt>
<pdfrwt beam="2">  1       -1 0.86205804E-01 0.27774826E+03</pdfrwt>
<totfact> 0.21390825E+03</totfact>
</mgrwt>
</event>
<event>
 9    1  0.8186049E-001  0.2753291E+03  0.7818608E-02  0.1098268E+00
         -4   -1    0    0    0  501 -0.00000000000E+00  0.00000000000E+00  0.22191523907E+02  0.22191523907E+02  0.00000000000E+00 0.  1.
          4   -1    0    0  501    0  0.00000000000E+00 -0.00000000000E+00 -0.85399847983E+03  0.85399847983E+03  0.00000000000E+00 0.  1.
         35    2    1    2    0    0 -0.71054273576E-14  0.00000000000E+00 -0.83180695592E+03  0.87619000374E+03  0.27532909531E+03 0.  0.
         25    2    3    3    0    0  0.51729561141E+02  0.12146114564E+02 -0.41541138855E+03  0.43796826665E+03  0.12816436814E+03 0.  0.
         25    2    3    3    0    0 -0.51729561141E+02 -0.12146114564E+02 -0.41639556738E+03  0.43822173709E+03  0.12581552659E+03 0.  0.
          5    1    4    4  502    0  0.37931069516E+02  0.14612943816E+01 -0.21965613270E+02  0.44107590982E+02  0.47000000000E+01 0.  1.
         -5    1    4    4    0  502  0.13798491626E+02  0.10684820182E+02 -0.39344577528E+03  0.39386067567E+03  0.47000000000E+01 0.  1.
          5    1    5    5  503    0  0.27494016784E+02 -0.33365183189E+02 -0.71580036315E+02  0.83755286442E+02  0.47000000000E+01 0.  1.
         -5    1    5    5    0  503 -0.79223577925E+02  0.21219068625E+02 -0.34481553106E+03  0.35446645065E+03  0.47000000000E+01 0.  1.
<mgrwt>
<rscale>  0 0.27532910E+03</rscale>
<asrwt>0</asrwt>
<pdfrwt beam="1">  1        4 0.13138440E+00 0.27532910E+03</pdfrwt>
<pdfrwt beam="2">  1       -4 0.34140802E-02 0.27532910E+03</pdfrwt>
<totfact> 0.36438126E+02</totfact>
</mgrwt>
</event>
<event>
 9    1  0.8186049E-001  0.2768028E+03  0.7818608E-02  0.1097448E+00
         -1   -1    0    0    0  501 -0.00000000000E+00  0.00000000000E+00  0.10472121806E+02  0.10472121806E+02  0.00000000000E+00 0. -1.
          1   -1    0    0  501    0  0.00000000000E+00 -0.00000000000E+00 -0.18291374408E+04  0.18291374408E+04  0.00000000000E+00 0. -1.
         35    2    1    2    0    0  0.00000000000E+00 -0.17763568394E-14 -0.18186653190E+04  0.18396095626E+04  0.27680281849E+03 0.  0.
         25    2    3    3    0    0  0.29858561208E+02 -0.79190321274E-01 -0.12465629316E+04  0.12531931373E+04  0.12522921783E+03 0.  0.
         25    2    3    3    0    0 -0.29858561208E+02  0.79190321274E-01 -0.57210238736E+03  0.58641642527E+03  0.12526588623E+03 0.  0.
          5    1    4    4  502    0 -0.35763833089E+02  0.16044165172E+02 -0.84773933411E+03  0.84865807932E+03  0.47000000000E+01 0.  1.
         -5    1    4    4    0  502  0.65622394297E+02 -0.16123355493E+02 -0.39882359751E+03  0.40453505800E+03  0.47000000000E+01 0.  1.
          5    1    5    5  503    0 -0.63556948342E+02  0.11303314048E+02 -0.51467709685E+03  0.51873100410E+03  0.47000000000E+01 0.  1.
         -5    1    5    5    0  503  0.33698387134E+02 -0.11224123727E+02 -0.57425290512E+02  0.67685421173E+02  0.47000000000E+01 0.  1.
<mgrwt>
<rscale>  0 0.27680282E+03</rscale>
<asrwt>0</asrwt>
<pdfrwt beam="1">  1        1 0.28140575E+00 0.27680282E+03</pdfrwt>
<pdfrwt beam="2">  1       -1 0.16110957E-02 0.27680282E+03</pdfrwt>
<totfact> 0.40968729E+03</totfact>
</mgrwt>
</event>
<event>
 9    1  0.8186049E-001  0.2694810E+03  0.7818608E-02  0.1101577E+00
          2   -1    0    0  501    0  0.00000000000E+00  0.00000000000E+00  0.18459410966E+03  0.18459410966E+03  0.00000000000E+00 0.  1.
         -2   -1    0    0    0  501 -0.00000000000E+00 -0.00000000000E+00 -0.98350944223E+02  0.98350944223E+02  0.00000000000E+00 0.  1.
         35    2    1    2    0    0  0.00000000000E+00  0.71054273576E-14  0.86243165440E+02  0.28294505389E+03  0.26948101962E+03 0.  0.
         25    2    3    3    0    0  0.16938682425E+02  0.32735569217E+02 -0.20326294553E-01  0.12663556153E+03  0.12115291402E+03 0.  0.
         25    2    3    3    0    0 -0.16938682425E+02 -0.32735569217E+02  0.86263491735E+02  0.15630949236E+03  0.12503091994E+03 0.  0.
          5    1    4    4  502    0  0.21746168978E+02 -0.35309245547E+02  0.30565984463E+02  0.51730146844E+02  0.47000000000E+01 0. -1.
         -5    1    4    4    0  502 -0.48074865534E+01  0.68044814764E+02 -0.30586310757E+02  0.74905414684E+02  0.47000000000E+01 0. -1.
          5    1    5    5  503    0 -0.13164259160E+02 -0.33930172764E+02  0.11821119828E+03  0.12377613559E+03  0.47000000000E+01 0.  1.
         -5    1    5    5    0  503 -0.37744232652E+01  0.11946035468E+01 -0.31947706548E+02  0.32533356764E+02  0.47000000000E+01 0.  1.
<mgrwt>
<rscale>  0 0.26948102E+03</rscale>
<asrwt>0</asrwt>
<pdfrwt beam="1">  1        2 0.28399094E-01 0.26948102E+03</pdfrwt>
<pdfrwt beam="2">  1       -2 0.15130914E-01 0.26948102E+03</pdfrwt>
<totfact> 0.62343926E+03</totfact>
</mgrwt>
</event>
<event>
 9    1  0.8186049E-001  0.2741919E+03  0.7818608E-02  0.1098904E+00
          2   -1    0    0  501    0  0.00000000000E+00  0.00000000000E+00  0.52238273030E+03  0.52238273030E+03  0.00000000000E+00 0. -1.
         -2   -1    0    0    0  501 -0.00000000000E+00 -0.00000000000E+00 -0.35979951687E+02  0.35979951687E+02  0.00000000000E+00 0. -1.
         35    2    1    2    0    0  0.00000000000E+00  0.00000000000E+00  0.48640277861E+03  0.55836268198E+03  0.27419194298E+03 0.  0.
         25    2    3    3    0    0  0.43181857405E+02 -0.21819976106E+02  0.30253642892E+03  0.33098223608E+03  0.12522046802E+03 0.  0.
         25    2    3    3    0    0 -0.43181857405E+02  0.21819976106E+02  0.18386634969E+03  0.22738044590E+03  0.12471667276E+03 0.  0.
          5    1    4    4  502    0  0.64739306710E+02 -0.48251855722E+02  0.11672555486E+03  0.14200832571E+03  0.47000000000E+01 0. -1.
         -5    1    4    4    0  502 -0.21557449305E+02  0.26431879616E+02  0.18581087406E+03  0.18897391037E+03  0.47000000000E+01 0. -1.
          5    1    5    5  503    0 -0.23325824623E+02  0.73014537467E+02  0.87947232912E+02  0.11675625274E+03  0.47000000000E+01 0. -1.
         -5    1    5    5    0  503 -0.19856032782E+02 -0.51194561362E+02  0.95919116777E+02  0.11062419317E+03  0.47000000000E+01 0. -1.
<mgrwt>
<rscale>  0 0.27419194E+03</rscale>
<asrwt>0</asrwt>
<pdfrwt beam="1">  1        2 0.80366568E-01 0.27419194E+03</pdfrwt>
<pdfrwt beam="2">  1       -2 0.55353776E-02 0.27419194E+03</pdfrwt>
<totfact> 0.98675931E+03</totfact>
</mgrwt>
</event>
<event>
 9    1  0.8186049E-001  0.2872523E+03  0.7818608E-02  0.1091793E+00
         -1   -1    0    0    0  501 -0.00000000000E+00  0.00000000000E+00  0.87200278587E+02  0.87200278587E+02  0.00000000000E+00 0. -1.
          1   -1    0    0  501    0  0.00000000000E+00 -0.00000000000E+00 -0.23656424844E+03  0.23656424844E+03  0.00000000000E+00 0. -1.
         35    2    1    2    0    0  0.71054273576E-14 -0.35527136788E-14 -0.14936396985E+03  0.32376452703E+03  0.28725228192E+03 0.  0.
         25    2    3    3    0    0  0.54492956815E+02 -0.22610230437E+02 -0.11587078050E+03  0.18121336059E+03  0.12622020211E+03 0.  0.
         25    2    3    3    0    0 -0.54492956815E+02  0.22610230437E+02 -0.33493189352E+02  0.14255116644E+03  0.12537278994E+03 0.  0.
          5    1    4    4  502    0  0.61042673044E+02  0.27928349355E+02 -0.11099970551E+03  0.12980456561E+03  0.47000000000E+01 0.  1.
         -5    1    4    4    0  502 -0.65497162294E+01 -0.50538579791E+02 -0.48710749948E+01  0.51408794983E+02  0.47000000000E+01 0.  1.
          5    1    5    5  503    0 -0.65172425218E+02  0.57966085385E+02 -0.51281399693E+02  0.10128861742E+03  0.47000000000E+01 0. -1.
         -5    1    5    5    0  503  0.10679468403E+02 -0.35355854948E+02  0.17788210341E+02  0.41262549020E+02  0.47000000000E+01 0. -1.
<mgrwt>
<rscale>  0 0.28725228E+03</rscale>
<asrwt>0</asrwt>
<pdfrwt beam="1">  1        1 0.36394500E-01 0.28725228E+03</pdfrwt>
<pdfrwt beam="2">  1       -1 0.13415428E-01 0.28725228E+03</pdfrwt>
<totfact> 0.45290263E+03</totfact>
</mgrwt>
</event>
<event>
 9    1  0.8186049E-001  0.2748893E+03  0.7818608E-02  0.1098513E+00
         -1   -1    0    0    0  501 -0.00000000000E+00  0.00000000000E+00  0.16645965687E+03  0.16645965687E+03  0.00000000000E+00 0. -1.
          1   -1    0    0  501    0  0.00000000000E+00 -0.00000000000E+00 -0.11348713833E+03  0.11348713833E+03  0.00000000000E+00 0. -1.
         35    2    1    2    0    0 -0.35527136788E-14  0.71054273576E-14  0.52972518548E+02  0.27994679520E+03  0.27488928757E+03 0.  0.
         25    2    3    3    0    0  0.26807753365E+01  0.77030784353E+01  0.78305102543E+02  0.15288789774E+03  0.13105913252E+03 0.  0.
         25    2    3    3    0    0 -0.26807753365E+01 -0.77030784353E+01 -0.25332583996E+02  0.12705889746E+03  0.12424049114E+03 0.  0.
          5    1    4    4  502    0 -0.26180815343E+01 -0.58844003187E+02  0.58372326985E+02  0.83059554656E+02  0.47000000000E+01 0.  1.
         -5    1    4    4    0  502  0.52988568707E+01  0.66547081622E+02  0.19932775558E+02  0.69828343085E+02  0.47000000000E+01 0.  1.
          5    1    5    5  503    0  0.36100032186E+02  0.31082892016E+02  0.23631834530E+02  0.53384568025E+02  0.47000000000E+01 0. -1.
         -5    1    5    5    0  503 -0.38780807523E+02 -0.38785970452E+02 -0.48964418525E+02  0.73674329434E+02  0.47000000000E+01 0. -1.
<mgrwt>
<rscale>  0 0.27488929E+03</rscale>
<asrwt>0</asrwt>
<pdfrwt beam="1">  1        1 0.17459560E-01 0.27488929E+03</pdfrwt>
<pdfrwt beam="2">  1       -1 0.25609178E-01 0.27488929E+03</pdfrwt>
<totfact> 0.40543138E+03</totfact>
</mgrwt>
</event>
<event>
 9    1  0.8186049E-001  0.2733266E+03  0.7818608E-02  0.1099391E+00
         -1   -1    0    0    0  501 -0.00000000000E+00  0.00000000000E+00  0.73866401988E+02  0.73866401988E+02  0.00000000000E+00 0.  1.
          1   -1    0    0  501    0  0.00000000000E+00 -0.00000000000E+00 -0.25284648617E+03  0.25284648617E+03  0.00000000000E+00 0.  1.
         35    2    1    2    0    0  0.35527136788E-14  0.71054273576E-14 -0.17898008418E+03  0.32671288816E+03  0.27332661918E+03 0.  0.
         25    2    3    3    0    0  0.24978375855E+02  0.46456923408E+02 -0.11297251023E+03  0.17625261104E+03  0.12457941178E+03 0.  0.
         25    2    3    3    0    0 -0.24978375855E+02 -0.46456923408E+02 -0.66007573947E+02  0.15046027711E+03  0.12449550264E+03 0.  0.
          5    1    4    4  502    0 -0.18527622748E+02  0.72502379680E+02 -0.34101250229E+02  0.82370219929E+02  0.47000000000E+01 0.  1.
         -5    1    4    4    0  502  0.43505998603E+02 -0.26045456272E+02 -0.78871260004E+02  0.93882391115E+02  0.47000000000E+01 0.  1.
          5    1    5    5  503    0 -0.28663213271E+01  0.34572099378E+02 -0.55589626359E+02  0.65694310349E+02  0.47000000000E+01 0.  1.
         -5    1    5    5    0  503 -0.22112054528E+02 -0.81029022787E+02 -0.10417947587E+02  0.84765966762E+02  0.47000000000E+01 0.  1.
<mgrwt>
<rscale>  0 0.27332662E+03</rscale>
<asrwt>0</asrwt>
<pdfrwt beam="1">  1        1 0.38899460E-01 0.27332662E+03</pdfrwt>
<pdfrwt beam="2">  1       -1 0.11364062E-01 0.27332662E+03</pdfrwt>
<totfact> 0.53937666E+03</totfact>
</mgrwt>
</event>
<event>
 9    1  0.8186049E-001  0.2741482E+03  0.7818608E-02  0.1098929E+00
          2   -1    0    0  501    0  0.00000000000E+00  0.00000000000E+00  0.12459292966E+04  0.12459292966E+04  0.00000000000E+00 0.  1.
         -2   -1    0    0    0  501 -0.00000000000E+00 -0.00000000000E+00 -0.15080552983E+02  0.15080552983E+02  0.00000000000E+00 0.  1.
         35    2    1    2    0    0  0.00000000000E+00 -0.35527136788E-14  0.12308487436E+04  0.12610098496E+04  0.27414815534E+03 0.  0.
         25    2    3    3    0    0 -0.13128805268E+02 -0.38439608078E+01  0.86291153890E+03  0.87214284379E+03  0.12581603407E+03 0.  0.
         25    2    3    3    0    0  0.13128805268E+02  0.38439608078E+01  0.36793720468E+03  0.38886700577E+03  0.12511043131E+03 0.  0.
          5    1    4    4  502    0  0.49718502901E+02  0.26582188619E+02  0.38465591095E+03  0.38879403559E+03  0.47000000000E+01 0. -1.
         -5    1    4    4    0  502 -0.62847308169E+02 -0.30426149427E+02  0.47825562795E+03  0.48334880819E+03  0.47000000000E+01 0. -1.
          5    1    5    5  503    0  0.45759979499E+02  0.50250253351E+02  0.17836364544E+03  0.19093125386E+03  0.47000000000E+01 0. -1.
         -5    1    5    5    0  503 -0.32631174231E+02 -0.46406292543E+02  0.18957355925E+03  0.19793575191E+03  0.47000000000E+01 0. -1.
<mgrwt>
<rscale>  0 0.27414816E+03</rscale>
<asrwt>0</asrwt>
<pdfrwt beam="1">  1        2 0.19168135E+00 0.27414816E+03</pdfrwt>
<pdfrwt beam="2">  1       -2 0.23200861E-02 0.27414816E+03</pdfrwt>
<totfact> 0.11667002E+04</totfact>
</mgrwt>
</event>
<event>
 9    1  0.8186049E-001  0.2770499E+03  0.7818608E-02  0.1097311E+00
          3   -1    0    0  501    0  0.00000000000E+00  0.00000000000E+00  0.65231990731E+02  0.65231990731E+02  0.00000000000E+00 0. -1.
         -3   -1    0    0    0  501 -0.00000000000E+00 -0.00000000000E+00 -0.29416788592E+03  0.29416788592E+03  0.00000000000E+00 0. -1.
         35    2    1    2    0    0  0.00000000000E+00  0.71054273576E-14 -0.22893589519E+03  0.35939987665E+03  0.27704986416E+03 0.  0.
         25    2    3    3    0    0  0.49541213262E+01 -0.41599024983E+02 -0.56491258169E+02  0.14230805980E+03  0.12371458862E+03 0.  0.
         25    2    3    3    0    0 -0.49541213262E+01  0.41599024983E+02 -0.17244463702E+03  0.21709181685E+03  0.12504671890E+03 0.  0.
          5    1    4    4  502    0 -0.34017094513E+02  0.18688065898E+02  0.14059363929E+02  0.41547108686E+02  0.47000000000E+01 0. -1.
         -5    1    4    4    0  502  0.38971215839E+02 -0.60287090881E+02 -0.70550622098E+02  0.10076095111E+03  0.47000000000E+01 0. -1.
          5    1    5    5  503    0 -0.27397400840E+02  0.24042137464E+02  0.51970333114E+01  0.37117935043E+02  0.47000000000E+01 0. -1.
         -5    1    5    5    0  503  0.22443279514E+02  0.17556887519E+02 -0.17764167033E+03  0.17997388180E+03  0.47000000000E+01 0. -1.
<mgrwt>
<rscale>  0 0.27704986E+03</rscale>
<asrwt>0</asrwt>
<pdfrwt beam="1">  1        3 0.10035691E-01 0.27704986E+03</pdfrwt>
<pdfrwt beam="2">  1       -3 0.45256597E-01 0.27704986E+03</pdfrwt>
<totfact> 0.90962476E+02</totfact>
</mgrwt>
</event>
<event>
 9    1  0.8186049E-001  0.2732359E+03  0.7818608E-02  0.1099442E+00
          1   -1    0    0  501    0  0.00000000000E+00  0.00000000000E+00  0.25872925293E+03  0.25872925293E+03  0.00000000000E+00 0. -1.
         -1   -1    0    0    0  501 -0.00000000000E+00 -0.00000000000E+00 -0.72138960608E+02  0.72138960608E+02  0.00000000000E+00 0. -1.
         35    2    1    2    0    0  0.00000000000E+00  0.00000000000E+00  0.18659029232E+03  0.33086821354E+03  0.27323586430E+03 0.  0.
         25    2    3    3    0    0  0.58183607807E+02 -0.35670343560E+02  0.89094829735E+02  0.16802816308E+03  0.12505146650E+03 0.  0.
         25    2    3    3    0    0 -0.58183607807E+02  0.35670343560E+02  0.97495462586E+02  0.16284005046E+03  0.11114769985E+03 0.  0.
          5    1    4    4  502    0  0.69509257860E+02 -0.64416575695E+02  0.27225430867E+02  0.98713455205E+02  0.47000000000E+01 0. -1.
         -5    1    4    4    0  502 -0.11325650053E+02  0.28746232135E+02  0.61869398867E+02  0.69314707871E+02  0.47000000000E+01 0. -1.
          5    1    5    5  503    0 -0.77024445511E+02 -0.12194478490E+02  0.50647727540E+02  0.93106137375E+02  0.47000000000E+01 0.  1.
         -5    1    5    5    0  503  0.18840837704E+02  0.47864822051E+02  0.46847735046E+02  0.69733913086E+02  0.47000000000E+01 0.  1.
<mgrwt>
<rscale>  0 0.27323586E+03</rscale>
<asrwt>0</asrwt>
<pdfrwt beam="1">  1        1 0.39804500E-01 0.27323586E+03</pdfrwt>
<pdfrwt beam="2">  1       -1 0.11098302E-01 0.27323586E+03</pdfrwt>
<totfact> 0.54367612E+03</totfact>
</mgrwt>
</event>
<event>
 9    1  0.8186049E-001  0.2759049E+03  0.7818608E-02  0.1097947E+00
          1   -1    0    0  501    0  0.00000000000E+00  0.00000000000E+00  0.58507762083E+02  0.58507762083E+02  0.00000000000E+00 0.  1.
         -1   -1    0    0    0  501 -0.00000000000E+00 -0.00000000000E+00 -0.32527097287E+03  0.32527097287E+03  0.00000000000E+00 0.  1.
         35    2    1    2    0    0  0.14210854715E-13  0.00000000000E+00 -0.26676321078E+03  0.38377873495E+03  0.27590488718E+03 0.  0.
         25    2    3    3    0    0 -0.34901067632E+02 -0.32749332456E+01 -0.66070561085E+02  0.14452240152E+03  0.12366323540E+03 0.  0.
         25    2    3    3    0    0  0.34901067632E+02  0.32749332456E+01 -0.20069264970E+03  0.23925633342E+03  0.12544817149E+03 0.  0.
          5    1    4    4  502    0 -0.33060972786E+02  0.52808685255E+02 -0.69338142874E+01  0.62864560290E+02  0.47000000000E+01 0. -1.
         -5    1    4    4    0  502 -0.18400948463E+01 -0.56083618501E+02 -0.59136746797E+02  0.81657841233E+02  0.47000000000E+01 0. -1.
          5    1    5    5  503    0 -0.14239257528E+02  0.31758848024E+02 -0.50508055103E+01  0.35482129573E+02  0.47000000000E+01 0. -1.
         -5    1    5    5    0  503  0.49140325160E+02 -0.28483914778E+02 -0.19564184419E+03  0.20377420385E+03  0.47000000000E+01 0. -1.
<mgrwt>
<rscale>  0 0.27590489E+03</rscale>
<asrwt>0</asrwt>
<pdfrwt beam="1">  1        1 0.90011939E-02 0.27590489E+03</pdfrwt>
<pdfrwt beam="2">  1       -1 0.50041690E-01 0.27590489E+03</pdfrwt>
<totfact> 0.30252873E+03</totfact>
</mgrwt>
</event>
<event>
 9    1  0.8186049E-001  0.2770484E+03  0.7818608E-02  0.1097312E+00
         -1   -1    0    0    0  501 -0.00000000000E+00  0.00000000000E+00  0.26486072185E+02  0.26486072185E+02  0.00000000000E+00 0. -1.
          1   -1    0    0  501    0  0.00000000000E+00 -0.00000000000E+00 -0.72449212359E+03  0.72449212359E+03  0.00000000000E+00 0. -1.
         35    2    1    2    0    0  0.35527136788E-14  0.00000000000E+00 -0.69800605141E+03  0.75097819578E+03  0.27704837616E+03 0.  0.
         25    2    3    3    0    0  0.88338967052E+01  0.40511626020E+02 -0.45221497109E+03  0.47113908601E+03  0.12551664717E+03 0.  0.
         25    2    3    3    0    0 -0.88338967052E+01 -0.40511626020E+02 -0.24579108032E+03  0.27983910977E+03  0.12719057598E+03 0.  0.
          5    1    4    4  502    0  0.28973005852E+02 -0.32722231720E+02 -0.80550255579E+02  0.91763899169E+02  0.47000000000E+01 0. -1.
         -5    1    4    4    0  502 -0.20139109147E+02  0.73233857740E+02 -0.37166471551E+03  0.37937518684E+03  0.47000000000E+01 0. -1.
          5    1    5    5  503    0 -0.29199231870E+02  0.72751046925E+01 -0.19904173128E+01  0.30521698039E+02  0.47000000000E+01 0.  1.
         -5    1    5    5    0  503  0.20365335165E+02 -0.47786730713E+02 -0.24380066301E+03  0.24931741173E+03  0.47000000000E+01 0.  1.
<mgrwt>
<rscale>  0 0.27704838E+03</rscale>
<asrwt>0</asrwt>
<pdfrwt beam="1">  1        1 0.11146034E+00 0.27704838E+03</pdfrwt>
<pdfrwt beam="2">  1       -1 0.40747800E-02 0.27704838E+03</pdfrwt>
<totfact> 0.63941037E+03</totfact>
</mgrwt>
</event>
<event>
 9    1  0.8186049E-001  0.2739021E+03  0.7818608E-02  0.1099067E+00
          2   -1    0    0  501    0  0.00000000000E+00  0.00000000000E+00  0.13932755613E+04  0.13932755613E+04  0.00000000000E+00 0.  1.
         -2   -1    0    0    0  501 -0.00000000000E+00 -0.00000000000E+00 -0.13461506851E+02  0.13461506851E+02  0.00000000000E+00 0.  1.
         35    2    1    2    0    0 -0.71054273576E-14  0.17763568394E-14  0.13798140545E+04  0.14067370682E+04  0.27390208845E+03 0.  0.
         25    2    3    3    0    0 -0.16354014032E+02  0.53487709831E+01  0.96050826880E+03  0.96882805179E+03  0.12552129853E+03 0.  0.
         25    2    3    3    0    0  0.16354014032E+02 -0.53487709831E+01  0.41930578566E+03  0.43790901637E+03  0.12510356351E+03 0.  0.
          5    1    4    4  502    0 -0.64026672947E+02 -0.49035425132E+01  0.74709637761E+03  0.74986568598E+03  0.47000000000E+01 0. -1.
         -5    1    4    4    0  502  0.47672658915E+02  0.10252313496E+02  0.21341189119E+03  0.21896236581E+03  0.47000000000E+01 0. -1.
          5    1    5    5  503    0 -0.29104236032E+02 -0.31644728015E+02  0.55797280872E+02  0.70596543250E+02  0.47000000000E+01 0. -1.
         -5    1    5    5    0  503  0.45458250064E+02  0.26295957032E+02  0.36350850479E+03  0.36731247312E+03  0.47000000000E+01 0. -1.
<mgrwt>
<rscale>  0 0.27390209E+03</rscale>
<asrwt>0</asrwt>
<pdfrwt beam="1">  1        2 0.21434997E+00 0.27390209E+03</pdfrwt>
<pdfrwt beam="2">  1       -2 0.20710022E-02 0.27390209E+03</pdfrwt>
<totfact> 0.11439130E+04</totfact>
</mgrwt>
</event>
<event>
 9    1  0.8186049E-001  0.2753372E+03  0.7818608E-02  0.1098263E+00
          2   -1    0    0  501    0  0.00000000000E+00  0.00000000000E+00  0.78380930047E+02  0.78380930047E+02  0.00000000000E+00 0. -1.
         -2   -1    0    0    0  501 -0.00000000000E+00 -0.00000000000E+00 -0.24180178701E+03  0.24180178701E+03  0.00000000000E+00 0. -1.
         35    2    1    2    0    0 -0.71054273576E-14  0.00000000000E+00 -0.16342085696E+03  0.32018271706E+03  0.27533724015E+03 0.  0.
         25    2    3    3    0    0  0.45654724027E+02  0.32810570876E+02 -0.93894916539E+02  0.16614624652E+03  0.12500972960E+03 0.  0.
         25    2    3    3    0    0 -0.45654724027E+02 -0.32810570876E+02 -0.69525940425E+02  0.15403647053E+03  0.12542922496E+03 0.  0.
          5    1    4    4  502    0 -0.17188820526E+02  0.63420431093E+02 -0.56187133713E+02  0.86583431591E+02  0.47000000000E+01 0.  1.
         -5    1    4    4    0  502  0.62843544553E+02 -0.30609860217E+02 -0.37707782826E+02  0.79562814934E+02  0.47000000000E+01 0.  1.
          5    1    5    5  503    0 -0.43897788305E+02  0.26401819905E+02 -0.78586085316E+02  0.93925154872E+02  0.47000000000E+01 0. -1.
         -5    1    5    5    0  503 -0.17569357217E+01 -0.59212390781E+02  0.90601448909E+01  0.60111315662E+02  0.47000000000E+01 0. -1.
<mgrwt>
<rscale>  0 0.27533724E+03</rscale>
<asrwt>0</asrwt>
<pdfrwt beam="1">  1        2 0.12058605E-01 0.27533724E+03</pdfrwt>
<pdfrwt beam="2">  1       -2 0.37200275E-01 0.27533724E+03</pdfrwt>
<totfact> 0.34605136E+03</totfact>
</mgrwt>
</event>
<event>
 9    1  0.8186049E-001  0.2679536E+03  0.7818608E-02  0.1102457E+00
         -1   -1    0    0    0  501 -0.00000000000E+00  0.00000000000E+00  0.11901471107E+02  0.11901471107E+02  0.00000000000E+00 0.  1.
          1   -1    0    0  501    0  0.00000000000E+00 -0.00000000000E+00 -0.15081987011E+04  0.15081987011E+04  0.00000000000E+00 0.  1.
         35    2    1    2    0    0  0.35527136788E-14  0.71054273576E-14 -0.14962972300E+04  0.15201001722E+04  0.26795360244E+03 0.  0.
         25    2    3    3    0    0  0.28900051754E+02  0.39312144707E+02 -0.80222954148E+03  0.81314282515E+03  0.12348424657E+03 0.  0.
         25    2    3    3    0    0 -0.28900051754E+02 -0.39312144707E+02 -0.69406768855E+03  0.70695734710E+03  0.12521212646E+03 0.  0.
          5    1    4    4  502    0  0.11923682334E+02 -0.12503407255E+02 -0.66725344542E+03  0.66749364028E+03  0.47000000000E+01 0.  1.
         -5    1    4    4    0  502  0.16976369420E+02  0.51815551963E+02 -0.13497609607E+03  0.14564918487E+03  0.47000000000E+01 0.  1.
          5    1    5    5  503    0 -0.20886448630E+02 -0.69653986264E+02 -0.21847147096E+03  0.23030370202E+03  0.47000000000E+01 0. -1.
         -5    1    5    5    0  503 -0.80136031245E+01  0.30341841556E+02 -0.47559621759E+03  0.47665364508E+03  0.47000000000E+01 0. -1.
<mgrwt>
<rscale>  0 0.26795360E+03</rscale>
<asrwt>0</asrwt>
<pdfrwt beam="1">  1        1 0.23203029E+00 0.26795360E+03</pdfrwt>
<pdfrwt beam="2">  1       -1 0.18309978E-02 0.26795360E+03</pdfrwt>
<totfact> 0.55122114E+03</totfact>
</mgrwt>
</event>
<event>
 9    1  0.8186049E-001  0.2753971E+03  0.7818608E-02  0.1098230E+00
         -2   -1    0    0    0  501 -0.00000000000E+00  0.00000000000E+00  0.83384532011E+01  0.83384532011E+01  0.00000000000E+00 0. -1.
          2   -1    0    0  501    0  0.00000000000E+00 -0.00000000000E+00 -0.22739102663E+04  0.22739102663E+04  0.00000000000E+00 0. -1.
         35    2    1    2    0    0  0.71054273576E-14  0.71054273576E-14 -0.22655718131E+04  0.22822487195E+04  0.27539712663E+03 0.  0.
         25    2    3    3    0    0 -0.31906579179E+02 -0.12773608804E+02 -0.74595730407E+03  0.75713730522E+03  0.12499361815E+03 0.  0.
         25    2    3    3    0    0  0.31906579179E+02  0.12773608804E+02 -0.15196145090E+04  0.15251114142E+04  0.12472118926E+03 0.  0.
          5    1    4    4  502    0  0.12849778222E+02  0.50056792593E+02 -0.33125846933E+03  0.33529846821E+03  0.47000000000E+01 0. -1.
         -5    1    4    4    0  502 -0.44756357401E+02 -0.62830401398E+02 -0.41469883475E+03  0.42183883701E+03  0.47000000000E+01 0. -1.
          5    1    5    5  503    0  0.60501264971E+02 -0.34176544884E+02 -0.64259349722E+03  0.64635666002E+03  0.47000000000E+01 0. -1.
         -5    1    5    5    0  503 -0.28594685792E+02  0.46950153688E+02 -0.87702101177E+03  0.87875475422E+03  0.47000000000E+01 0. -1.
<mgrwt>
<rscale>  0 0.27539713E+03</rscale>
<asrwt>0</asrwt>
<pdfrwt beam="1">  1        2 0.34983195E+00 0.27539713E+03</pdfrwt>
<pdfrwt beam="2">  1       -2 0.12828404E-02 0.27539713E+03</pdfrwt>
<totfact> 0.78855084E+03</totfact>
</mgrwt>
</event>
<event>
 9    1  0.8186049E-001  0.2813982E+03  0.7818608E-02  0.1094928E+00
          2   -1    0    0  501    0  0.00000000000E+00  0.00000000000E+00  0.13599757819E+03  0.13599757819E+03  0.00000000000E+00 0. -1.
         -2   -1    0    0    0  501 -0.00000000000E+00 -0.00000000000E+00 -0.14556313722E+03  0.14556313722E+03  0.00000000000E+00 0. -1.
         35    2    1    2    0    0  0.00000000000E+00  0.00000000000E+00 -0.95655590296E+01  0.28156071542E+03  0.28139818149E+03 0.  0.
         25    2    3    3    0    0 -0.19029451086E+01  0.38253613833E+02  0.38743378981E+02  0.13635860646E+03  0.12500263985E+03 0.  0.
         25    2    3    3    0    0  0.19029451086E+01 -0.38253613833E+02 -0.48308938011E+02  0.14520210896E+03  0.13146459137E+03 0.  0.
          5    1    4    4  502    0  0.34283591628E+02  0.20909724499E+02  0.72960173673E+02  0.83413776895E+02  0.47000000000E+01 0. -1.
         -5    1    4    4    0  502 -0.36186536736E+02  0.17343889334E+02 -0.34216794692E+02  0.52944829561E+02  0.47000000000E+01 0. -1.
          5    1    5    5  503    0 -0.55840084124E+02  0.13673775997E+02 -0.10224183421E+02  0.58580808049E+02  0.47000000000E+01 0. -1.
         -5    1    5    5    0  503  0.57743029233E+02 -0.51927389830E+02 -0.38084754589E+02  0.86621300912E+02  0.47000000000E+01 0. -1.
<mgrwt>
<rscale>  0 0.28139818E+03</rscale>
<asrwt>0</asrwt>
<pdfrwt beam="1">  1        2 0.20922704E-01 0.28139818E+03</pdfrwt>
<pdfrwt beam="2">  1       -2 0.22394329E-01 0.28139818E+03</pdfrwt>
<totfact> 0.45272977E+03</totfact>
</mgrwt>
</event>
<event>
 9    1  0.8186049E-001  0.2759624E+03  0.7818608E-02  0.1097915E+00
         -1   -1    0    0    0  501 -0.00000000000E+00  0.00000000000E+00  0.23033586236E+02  0.23033586236E+02  0.00000000000E+00 0. -1.
          1   -1    0    0  501    0  0.00000000000E+00 -0.00000000000E+00 -0.82656748870E+03  0.82656748870E+03  0.00000000000E+00 0. -1.
         35    2    1    2    0    0  0.35527136788E-14 -0.71054273576E-14 -0.80353390246E+03  0.84960107494E+03  0.27596241433E+03 0.  0.
         25    2    3    3    0    0  0.31908748110E+02 -0.29267089374E+02 -0.53182211136E+03  0.54740704998E+03  0.12224970145E+03 0.  0.
         25    2    3    3    0    0 -0.31908748110E+02  0.29267089374E+02 -0.27171179110E+03  0.30219402496E+03  0.12497680013E+03 0.  0.
          5    1    4    4  502    0  0.90990357596E+01  0.44458343946E+02 -0.28883024785E+03  0.29241124957E+03  0.47000000000E+01 0.  1.
         -5    1    4    4    0  502  0.22809712350E+02 -0.73725433321E+02 -0.24299186351E+03  0.25499580042E+03  0.47000000000E+01 0.  1.
          5    1    5    5  503    0  0.62410923338E+01  0.10820845956E+02  0.10374141279E+02  0.16904281943E+02  0.47000000000E+01 0.  1.
         -5    1    5    5    0  503 -0.38149840444E+02  0.18446243419E+02 -0.28208593238E+03  0.28528974301E+03  0.47000000000E+01 0.  1.
<mgrwt>
<rscale>  0 0.27596241E+03</rscale>
<asrwt>0</asrwt>
<pdfrwt beam="1">  1        1 0.12716421E+00 0.27596241E+03</pdfrwt>
<pdfrwt beam="2">  1       -1 0.35436291E-02 0.27596241E+03</pdfrwt>
<totfact> 0.64397597E+03</totfact>
</mgrwt>
</event>
<event>
 9    1  0.8186049E-001  0.2744435E+03  0.7818608E-02  0.1098763E+00
         -2   -1    0    0    0  501 -0.00000000000E+00  0.00000000000E+00  0.21523838873E+02  0.21523838873E+02  0.00000000000E+00 0. -1.
          2   -1    0    0  501    0  0.00000000000E+00 -0.00000000000E+00 -0.87483503896E+03  0.87483503896E+03  0.00000000000E+00 0. -1.
         35    2    1    2    0    0  0.35527136788E-14  0.00000000000E+00 -0.85331120009E+03  0.89635887783E+03  0.27444349815E+03 0.  0.
         25    2    3    3    0    0  0.29879574040E+02  0.90300090832E+01 -0.57613086879E+03  0.59045639335E+03  0.12544976869E+03 0.  0.
         25    2    3    3    0    0 -0.29879574040E+02 -0.90300090832E+01 -0.27718033129E+03  0.30590248448E+03  0.12559085933E+03 0.  0.
          5    1    4    4  502    0  0.13839923806E-01 -0.34213129102E+02 -0.47620435820E+03  0.47745493941E+03  0.47000000000E+01 0.  1.
         -5    1    4    4    0  502  0.29865734116E+02  0.43243138186E+02 -0.99926510593E+02  0.11300145395E+03  0.47000000000E+01 0.  1.
          5    1    5    5  503    0  0.32274837274E+02 -0.41269841946E+02 -0.16862884027E+03  0.17664269231E+03  0.47000000000E+01 0.  1.
         -5    1    5    5    0  503 -0.62154411314E+02  0.32239832863E+02 -0.10855149102E+03  0.12925979217E+03  0.47000000000E+01 0.  1.
<mgrwt>
<rscale>  0 0.27444350E+03</rscale>
<asrwt>0</asrwt>
<pdfrwt beam="1">  1        2 0.13459004E+00 0.27444350E+03</pdfrwt>
<pdfrwt beam="2">  1       -2 0.33113590E-02 0.27444350E+03</pdfrwt>
<totfact> 0.11492630E+04</totfact>
</mgrwt>
</event>
<event>
 9    1  0.8186049E-001  0.2756439E+03  0.7818608E-02  0.1098092E+00
         -2   -1    0    0    0  501 -0.00000000000E+00  0.00000000000E+00  0.17900338688E+03  0.17900338688E+03  0.00000000000E+00 0.  1.
          2   -1    0    0  501    0  0.00000000000E+00 -0.00000000000E+00 -0.10611469968E+03  0.10611469968E+03  0.00000000000E+00 0.  1.
         35    2    1    2    0    0  0.00000000000E+00  0.71054273576E-14  0.72888687193E+02  0.28511808656E+03  0.27564390536E+03 0.  0.
         25    2    3    3    0    0  0.27801950084E+02 -0.34523939248E+02  0.28888548466E+01  0.13582384073E+03  0.12835466263E+03 0.  0.
         25    2    3    3    0    0 -0.27801950084E+02  0.34523939248E+02  0.69999832347E+02  0.14929424583E+03  0.12419317413E+03 0.  0.
          5    1    4    4  502    0  0.17219523335E+02 -0.70017234145E+02  0.40496893360E+02  0.82831234647E+02  0.47000000000E+01 0.  1.
         -5    1    4    4    0  502  0.10582426749E+02  0.35493294897E+02 -0.37608038513E+02  0.52992606082E+02  0.47000000000E+01 0.  1.
          5    1    5    5  503    0 -0.51034521409E+02 -0.32207501316E+02  0.38883018159E+02  0.71943204110E+02  0.47000000000E+01 0.  1.
         -5    1    5    5    0  503  0.23232571325E+02  0.66731440564E+02  0.31116814188E+02  0.77351041721E+02  0.47000000000E+01 0.  1.
<mgrwt>
<rscale>  0 0.27564391E+03</rscale>
<asrwt>0</asrwt>
<pdfrwt beam="1">  1        2 0.16325338E-01 0.27564391E+03</pdfrwt>
<pdfrwt beam="2">  1       -2 0.27538983E-01 0.27564391E+03</pdfrwt>
<totfact> 0.41858854E+03</totfact>
</mgrwt>
</event>
<event>
 9    1  0.8186049E-001  0.2774889E+03  0.7818608E-02  0.1097068E+00
          2   -1    0    0  501    0  0.00000000000E+00  0.00000000000E+00  0.54405198778E+03  0.54405198778E+03  0.00000000000E+00 0.  1.
         -2   -1    0    0    0  501 -0.00000000000E+00 -0.00000000000E+00 -0.35382688849E+02  0.35382688849E+02  0.00000000000E+00 0.  1.
         35    2    1    2    0    0 -0.35527136788E-14  0.00000000000E+00  0.50866929893E+03  0.57943467663E+03  0.27748889853E+03 0.  0.
         25    2    3    3    0    0 -0.20185822319E+01 -0.52141370259E+02  0.31515808841E+03  0.34311970988E+03  0.12523464956E+03 0.  0.
         25    2    3    3    0    0  0.20185822319E+01  0.52141370259E+02  0.19351121052E+03  0.23631496676E+03  0.12520134882E+03 0.  0.
          5    1    4    4  502    0  0.19838394675E+02 -0.17782716122E+02  0.29709556216E+03  0.29832473909E+03  0.47000000000E+01 0. -1.
         -5    1    4    4    0  502 -0.21856976907E+02 -0.34358654136E+02  0.18062526249E+02  0.44794970790E+02  0.47000000000E+01 0. -1.
          5    1    5    5  503    0 -0.26646612607E+02  0.33850361697E+02  0.19709357240E+03  0.20180152436E+03  0.47000000000E+01 0. -1.
         -5    1    5    5    0  503  0.28665194839E+02  0.18291008561E+02 -0.35823618807E+01  0.34513442396E+02  0.47000000000E+01 0. -1.
<mgrwt>
<rscale>  0 0.27748890E+03</rscale>
<asrwt>0</asrwt>
<pdfrwt beam="1">  1        2 0.83700300E-01 0.27748890E+03</pdfrwt>
<pdfrwt beam="2">  1       -2 0.54434910E-02 0.27748890E+03</pdfrwt>
<totfact> 0.96722466E+03</totfact>
</mgrwt>
</event>
<event>
 9    1  0.8186049E-001  0.2768137E+03  0.7818608E-02  0.1097442E+00
         -1   -1    0    0    0  501 -0.00000000000E+00  0.00000000000E+00  0.10323796911E+03  0.10323796911E+03  0.00000000000E+00 0. -1.
          1   -1    0    0  501    0  0.00000000000E+00 -0.00000000000E+00 -0.18555629167E+03  0.18555629167E+03  0.00000000000E+00 0. -1.
         35    2    1    2    0    0  0.00000000000E+00  0.00000000000E+00 -0.82318322564E+02  0.28879426078E+03  0.27681368974E+03 0.  0.
         25    2    3    3    0    0 -0.93911047734E+01  0.21516657603E+00 -0.10222654196E+03  0.16208628488E+03  0.12543308463E+03 0.  0.
         25    2    3    3    0    0  0.93911047734E+01 -0.21516657603E+00  0.19908219395E+02  0.12670797589E+03  0.12478114766E+03 0.  0.
          5    1    4    4  502    0  0.40415646436E+02 -0.29330717556E+02 -0.71536327303E+01  0.50665372104E+02  0.47000000000E+01 0.  1.
         -5    1    4    4    0  502 -0.49806751210E+02  0.29545884132E+02 -0.95072909228E+02  0.11142091278E+03  0.47000000000E+01 0.  1.
          5    1    5    5  503    0  0.34829927724E+02 -0.21764182894E+02 -0.40295718280E+02  0.57729008601E+02  0.47000000000E+01 0. -1.
         -5    1    5    5    0  503 -0.25438822950E+02  0.21549016318E+02  0.60203937675E+02  0.68978967294E+02  0.47000000000E+01 0. -1.
<mgrwt>
<rscale>  0 0.27681369E+03</rscale>
<asrwt>0</asrwt>
<pdfrwt beam="1">  1        1 0.28547121E-01 0.27681369E+03</pdfrwt>
<pdfrwt beam="2">  1       -1 0.15882765E-01 0.27681369E+03</pdfrwt>
<totfact> 0.47019809E+03</totfact>
</mgrwt>
</event>
<event>
 8    1  0.8186049E-001  0.3514035E+03  0.7818608E-02  0.1062040E+00
         -2   -1    0    0    0  501 -0.00000000000E+00  0.00000000000E+00  0.17440261077E+02  0.17440261077E+02  0.00000000000E+00 0. -1.
          2   -1    0    0  501    0  0.00000000000E+00 -0.00000000000E+00 -0.17701060659E+04  0.17701060659E+04  0.00000000000E+00 0. -1.
         25    2    1    2    0    0 -0.42360881143E+02 -0.99453406031E+02 -0.11790381814E+04  0.11904525363E+04  0.12393862907E+03 0.  0.
         25    2    1    2    0    0  0.42360881143E+02  0.99453406031E+02 -0.57362762341E+03  0.59709379066E+03  0.12564601179E+03 0.  0.
          5    1    3    3  502    0 -0.48078954786E+02 -0.11127890232E+03 -0.64958975548E+03  0.66082033899E+03  0.47000000000E+01 0. -1.
         -5    1    3    3    0  502  0.57180736430E+01  0.11825496284E+02 -0.52944842590E+03  0.52963219730E+03  0.47000000000E+01 0. -1.
          5    1    4    4  503    0 -0.31679536310E+02  0.29711840641E+01 -0.23634993510E+03  0.23852841084E+03  0.47000000000E+01 0. -1.
         -5    1    4    4    0  503  0.74040417453E+02  0.96482221967E+02 -0.33727768831E+03  0.35856537982E+03  0.47000000000E+01 0. -1.
<mgrwt>
<rscale>  0 0.35140354E+03</rscale>
<asrwt>0</asrwt>
<pdfrwt beam="1">  1        2 0.27232408E+00 0.35140354E+03</pdfrwt>
<pdfrwt beam="2">  1       -2 0.26831164E-02 0.35140354E+03</pdfrwt>
<totfact> 0.49119776E+03</totfact>
</mgrwt>
</event>
<event>
 9    1  0.8186049E-001  0.2803456E+03  0.7818608E-02  0.1095500E+00
          2   -1    0    0  501    0  0.00000000000E+00  0.00000000000E+00  0.37629789677E+02  0.37629789677E+02  0.00000000000E+00 0. -1.
         -2   -1    0    0    0  501 -0.00000000000E+00 -0.00000000000E+00 -0.52215053925E+03  0.52215053925E+03  0.00000000000E+00 0. -1.
         35    2    1    2    0    0 -0.14210854715E-13 -0.17763568394E-14 -0.48452074957E+03  0.55978032892E+03  0.28034560793E+03 0.  0.
         25    2    3    3    0    0  0.51211050154E+02  0.12085220684E+02 -0.31448216043E+03  0.34245611253E+03  0.12493412489E+03 0.  0.
         25    2    3    3    0    0 -0.51211050154E+02 -0.12085220684E+02 -0.17003858914E+03  0.21732421639E+03  0.12469189636E+03 0.  0.
          5    1    4    4  502    0 -0.34928701046E+02  0.29256203552E+02 -0.13540919975E+03  0.14294642696E+03  0.47000000000E+01 0.  1.
         -5    1    4    4    0  502  0.86139751200E+02 -0.17170982868E+02 -0.17907296068E+03  0.19950968557E+03  0.47000000000E+01 0.  1.
          5    1    5    5  503    0 -0.85724400584E+02 -0.92303874879E+01 -0.15854536550E+03  0.18053419573E+03  0.47000000000E+01 0. -1.
         -5    1    5    5    0  503  0.34513350429E+02 -0.28548331961E+01 -0.11493223639E+02  0.36790020659E+02  0.47000000000E+01 0. -1.
<mgrwt>
<rscale>  0 0.28034561E+03</rscale>
<asrwt>0</asrwt>
<pdfrwt beam="1">  1        2 0.57891984E-02 0.28034561E+03</pdfrwt>
<pdfrwt beam="2">  1       -2 0.80330852E-01 0.28034561E+03</pdfrwt>
<totfact> 0.18258779E+03</totfact>
</mgrwt>
</event>
<event>
 9    1  0.8186049E-001  0.2809903E+03  0.7818608E-02  0.1095149E+00
         -2   -1    0    0    0  501 -0.00000000000E+00  0.00000000000E+00  0.13406319923E+02  0.13406319923E+02  0.00000000000E+00 0.  1.
          2   -1    0    0  501    0  0.00000000000E+00 -0.00000000000E+00 -0.14723565867E+04  0.14723565867E+04  0.00000000000E+00 0.  1.
         35    2    1    2    0    0  0.00000000000E+00 -0.35527136788E-14 -0.14589502668E+04  0.14857629066E+04  0.28099027344E+03 0.  0.
         25    2    3    3    0    0  0.18434663481E+01  0.29259188366E+02 -0.42884675786E+03  0.44767009022E+03  0.12505786453E+03 0.  0.
         25    2    3    3    0    0 -0.18434663481E+01 -0.29259188366E+02 -0.10301035089E+04  0.10380928164E+04  0.12515573460E+03 0.  0.
          5    1    4    4  502    0  0.45007719964E+02  0.59396947224E+01 -0.59193833994E+02  0.74746068878E+02  0.47000000000E+01 0. -1.
         -5    1    4    4    0  502 -0.43164253616E+02  0.23319493644E+02 -0.36965292386E+03  0.37292402134E+03  0.47000000000E+01 0. -1.
          5    1    5    5  503    0 -0.27832072282E+02  0.39540015689E+02 -0.57635713489E+03  0.57840096303E+03  0.47000000000E+01 0.  1.
         -5    1    5    5    0  503  0.25988605934E+02 -0.68799204056E+02 -0.45374637405E+03  0.45969185340E+03  0.47000000000E+01 0.  1.
<mgrwt>
<rscale>  0 0.28099027E+03</rscale>
<asrwt>0</asrwt>
<pdfrwt beam="1">  1        2 0.22651637E+00 0.28099027E+03</pdfrwt>
<pdfrwt beam="2">  1       -2 0.20625110E-02 0.28099027E+03</pdfrwt>
<totfact> 0.10435656E+04</totfact>
</mgrwt>
</event>
<event>
 9    1  0.8186049E-001  0.2731517E+03  0.7818608E-02  0.1099489E+00
         -2   -1    0    0    0  501 -0.00000000000E+00  0.00000000000E+00  0.31779725261E+03  0.31779725261E+03  0.00000000000E+00 0. -1.
          2   -1    0    0  501    0  0.00000000000E+00 -0.00000000000E+00 -0.58694537132E+02  0.58694537132E+02  0.00000000000E+00 0. -1.
         35    2    1    2    0    0  0.00000000000E+00  0.00000000000E+00  0.25910271548E+03  0.37649178974E+03  0.27315169883E+03 0.  0.
         25    2    3    3    0    0 -0.20470263929E+01  0.15437697331E+02  0.75999310836E+02  0.14680887233E+03  0.12463722129E+03 0.  0.
         25    2    3    3    0    0  0.20470263929E+01 -0.15437697331E+02  0.18310340464E+03  0.22968291741E+03  0.13778560499E+03 0.  0.
          5    1    4    4  502    0 -0.60964562142E+02  0.23001042516E+02  0.32045369347E+02  0.72764836911E+02  0.47000000000E+01 0. -1.
         -5    1    4    4    0  502  0.58917535749E+02 -0.75633451849E+01  0.43953941489E+02  0.74044035422E+02  0.47000000000E+01 0. -1.
          5    1    5    5  503    0  0.37018823784E+02  0.41793229458E+02  0.32546157200E+02  0.64795136325E+02  0.47000000000E+01 0.  1.
         -5    1    5    5    0  503 -0.34971797391E+02 -0.57230926788E+02  0.15055724744E+03  0.16488778109E+03  0.47000000000E+01 0.  1.
<mgrwt>
<rscale>  0 0.27315170E+03</rscale>
<asrwt>0</asrwt>
<pdfrwt beam="1">  1        2 0.90299290E-02 0.27315170E+03</pdfrwt>
<pdfrwt beam="2">  1       -2 0.48891884E-01 0.27315170E+03</pdfrwt>
<totfact> 0.29161066E+03</totfact>
</mgrwt>
</event>
<event>
 9    1  0.8186049E-001  0.2763492E+03  0.7818608E-02  0.1097700E+00
          2   -1    0    0  501    0  0.00000000000E+00  0.00000000000E+00  0.87354149576E+03  0.87354149576E+03  0.00000000000E+00 0.  1.
         -2   -1    0    0    0  501 -0.00000000000E+00 -0.00000000000E+00 -0.21856115463E+02  0.21856115463E+02  0.00000000000E+00 0.  1.
         35    2    1    2    0    0  0.00000000000E+00  0.00000000000E+00  0.85168538030E+03  0.89539761123E+03  0.27634922684E+03 0.  0.
         25    2    3    3    0    0 -0.26729092417E+02  0.46002401144E+02  0.51146928015E+03  0.52921491295E+03  0.12504772792E+03 0.  0.
         25    2    3    3    0    0  0.26729092417E+02 -0.46002401144E+02  0.34021610016E+03  0.36618269828E+03  0.12454761509E+03 0.  0.
          5    1    4    4  502    0  0.33881500612E+02 -0.17907171082E+02  0.80097083322E+02  0.88917127802E+02  0.47000000000E+01 0.  1.
         -5    1    4    4    0  502 -0.60610593029E+02  0.63909572226E+02  0.43137219682E+03  0.44029778514E+03  0.47000000000E+01 0.  1.
          5    1    5    5  503    0 -0.15412561793E+02 -0.69056828244E+02  0.28089279852E+03  0.28970544843E+03  0.47000000000E+01 0. -1.
         -5    1    5    5    0  503  0.42141654210E+02  0.23054427100E+02  0.59323301633E+02  0.76477249854E+02  0.47000000000E+01 0. -1.
<mgrwt>
<rscale>  0 0.27634923E+03</rscale>
<asrwt>0</asrwt>
<pdfrwt beam="1">  1        2 0.13439097E+00 0.27634923E+03</pdfrwt>
<pdfrwt beam="2">  1       -2 0.33624800E-02 0.27634923E+03</pdfrwt>
<totfact> 0.11257213E+04</totfact>
</mgrwt>
</event>
<event>
 9    1  0.8186049E-001  0.2709843E+03  0.7818608E-02  0.1100718E+00
         -2   -1    0    0    0  501 -0.00000000000E+00  0.00000000000E+00  0.18251180464E+03  0.18251180464E+03  0.00000000000E+00 0. -1.
          2   -1    0    0  501    0  0.00000000000E+00 -0.00000000000E+00 -0.10058593773E+03  0.10058593773E+03  0.00000000000E+00 0. -1.
         35    2    1    2    0    0  0.00000000000E+00  0.00000000000E+00  0.81925866903E+02  0.28309774237E+03  0.27098428749E+03 0.  0.
         25    2    3    3    0    0 -0.36340733360E+02 -0.18771504939E+02  0.41718030582E+02  0.13815650595E+03  0.12519507882E+03 0.  0.
         25    2    3    3    0    0  0.36340733360E+02  0.18771504939E+02  0.40207836321E+02  0.14494123642E+03  0.13311000569E+03 0.  0.
          5    1    4    4  502    0 -0.62451579392E+02  0.33842274443E+02  0.12102748645E+02  0.72208488648E+02  0.47000000000E+01 0.  1.
         -5    1    4    4    0  502  0.26110846032E+02 -0.52613779382E+02  0.29615281938E+02  0.65948017299E+02  0.47000000000E+01 0.  1.
          5    1    5    5  503    0 -0.25633573230E+02 -0.36870750318E+02 -0.11760499365E+02  0.46657600140E+02  0.47000000000E+01 0. -1.
         -5    1    5    5    0  503  0.61974306590E+02  0.55642255257E+02  0.51968335686E+02  0.98283636285E+02  0.47000000000E+01 0. -1.
<mgrwt>
<rscale>  0 0.27098429E+03</rscale>
<asrwt>0</asrwt>
<pdfrwt beam="1">  1        2 0.15474760E-01 0.27098429E+03</pdfrwt>
<pdfrwt beam="2">  1       -2 0.28078739E-01 0.27098429E+03</pdfrwt>
<totfact> 0.43030111E+03</totfact>
</mgrwt>
</event>
<event>
 9    1  0.8186049E-001  0.2760441E+03  0.7818608E-02  0.1097869E+00
         -2   -1    0    0    0  501 -0.00000000000E+00  0.00000000000E+00  0.22854600841E+02  0.22854600841E+02  0.00000000000E+00 0.  1.
          2   -1    0    0  501    0  0.00000000000E+00 -0.00000000000E+00 -0.83353378317E+03  0.83353378317E+03  0.00000000000E+00 0.  1.
         35    2    1    2    0    0  0.00000000000E+00  0.00000000000E+00 -0.81067918233E+03  0.85638838402E+03  0.27604406824E+03 0.  0.
         25    2    3    3    0    0  0.47027807403E+01 -0.56341249466E+02 -0.46618840435E+03  0.48589963360E+03  0.12478130088E+03 0.  0.
         25    2    3    3    0    0 -0.47027807403E+01  0.56341249466E+02 -0.34449077798E+03  0.37048875041E+03  0.12406274835E+03 0.  0.
          5    1    4    4  502    0 -0.27921296669E+02 -0.58913500685E+02 -0.10836556718E+03  0.12655269859E+03  0.47000000000E+01 0. -1.
         -5    1    4    4    0  502  0.32624077409E+02  0.25722512189E+01 -0.35782283717E+03  0.35934693502E+03  0.47000000000E+01 0. -1.
          5    1    5    5  503    0  0.53030397545E+02  0.47947752325E+02 -0.24287400411E+03  0.25322140883E+03  0.47000000000E+01 0.  1.
         -5    1    5    5    0  503 -0.57733178285E+02  0.83934971403E+01 -0.10161677387E+03  0.11726734158E+03  0.47000000000E+01 0.  1.
<mgrwt>
<rscale>  0 0.27604407E+03</rscale>
<asrwt>0</asrwt>
<pdfrwt beam="1">  1        2 0.12823599E+00 0.27604407E+03</pdfrwt>
<pdfrwt beam="2">  1       -2 0.35160919E-02 0.27604407E+03</pdfrwt>
<totfact> 0.11194941E+04</totfact>
</mgrwt>
</event>
<event>
 9    1  0.8186049E-001  0.2788507E+03  0.7818608E-02  0.1096318E+00
          1   -1    0    0  501    0  0.00000000000E+00  0.00000000000E+00  0.48936738841E+03  0.48936738841E+03  0.00000000000E+00 0.  1.
         -1   -1    0    0    0  501 -0.00000000000E+00 -0.00000000000E+00 -0.39723584085E+02  0.39723584085E+02  0.00000000000E+00 0.  1.
         35    2    1    2    0    0 -0.71054273576E-14 -0.17763568394E-14  0.44964380433E+03  0.52909097250E+03  0.27885068838E+03 0.  0.
         25    2    3    3    0    0  0.29276451992E+01  0.11780910451E+02  0.11190580696E+03  0.16850342700E+03  0.12539192287E+03 0.  0.
         25    2    3    3    0    0 -0.29276451992E+01 -0.11780910451E+02  0.33773799737E+03  0.36058754550E+03  0.12573409301E+03 0.  0.
          5    1    4    4  502    0  0.38504910780E+02 -0.40471658120E+02  0.26139163204E+02  0.61854095403E+02  0.47000000000E+01 0.  1.
         -5    1    4    4    0  502 -0.35577265581E+02  0.52252568571E+02  0.85766643758E+02  0.10664933160E+03  0.47000000000E+01 0.  1.
          5    1    5    5  503    0 -0.52181858720E+02 -0.23193544666E+02  0.26953818926E+03  0.27556090499E+03  0.47000000000E+01 0. -1.
         -5    1    5    5    0  503  0.49254213521E+02  0.11412634215E+02  0.68199808111E+02  0.85026640506E+02  0.47000000000E+01 0. -1.
<mgrwt>
<rscale>  0 0.27885069E+03</rscale>
<asrwt>0</asrwt>
<pdfrwt beam="1">  1        1 0.75287286E-01 0.27885069E+03</pdfrwt>
<pdfrwt beam="2">  1       -1 0.61113210E-02 0.27885069E+03</pdfrwt>
<totfact> 0.60134336E+03</totfact>
</mgrwt>
</event>
<event>
 9    1  0.8186049E-001  0.2740703E+03  0.7818608E-02  0.1098972E+00
          2   -1    0    0  501    0  0.00000000000E+00  0.00000000000E+00  0.13522201763E+04  0.13522201763E+04  0.00000000000E+00 0.  1.
         -2   -1    0    0    0  501 -0.00000000000E+00 -0.00000000000E+00 -0.13887258990E+02  0.13887258990E+02  0.00000000000E+00 0.  1.
         35    2    1    2    0    0  0.35527136788E-14 -0.71054273576E-14  0.13383329173E+04  0.13661074353E+04  0.27407029609E+03 0.  0.
         25    2    3    3    0    0 -0.93096589114E+01 -0.24130574381E+02  0.42315904970E+03  0.44211568073E+03  0.12543420361E+03 0.  0.
         25    2    3    3    0    0  0.93096589114E+01  0.24130574381E+02  0.91517386759E+03  0.92399175455E+03  0.12469402620E+03 0.  0.
          5    1    4    4  502    0 -0.27681519880E+02 -0.17177562225E+02  0.20134388784E+02  0.38585214766E+02  0.47000000000E+01 0. -1.
         -5    1    4    4    0  502  0.18371860968E+02 -0.69530121556E+01  0.40302466092E+03  0.40353046597E+03  0.47000000000E+01 0. -1.
          5    1    5    5  503    0  0.35134886814E+02  0.67360171679E+02  0.59474891298E+03  0.59960004377E+03  0.47000000000E+01 0.  1.
         -5    1    5    5    0  503 -0.25825227902E+02 -0.43229597298E+02  0.32042495462E+03  0.32439171078E+03  0.47000000000E+01 0.  1.
<mgrwt>
<rscale>  0 0.27407030E+03</rscale>
<asrwt>0</asrwt>
<pdfrwt beam="1">  1        2 0.20803377E+00 0.27407030E+03</pdfrwt>
<pdfrwt beam="2">  1       -2 0.21365025E-02 0.27407030E+03</pdfrwt>
<totfact> 0.11504821E+04</totfact>
</mgrwt>
</event>
<event>
 9    1  0.8186049E-001  0.2721526E+03  0.7818608E-02  0.1100054E+00
          2   -1    0    0  501    0  0.00000000000E+00  0.00000000000E+00  0.18823453137E+03  0.18823453137E+03  0.00000000000E+00 0. -1.
         -2   -1    0    0    0  501 -0.00000000000E+00 -0.00000000000E+00 -0.98370669314E+02  0.98370669314E+02  0.00000000000E+00 0. -1.
         35    2    1    2    0    0  0.00000000000E+00 -0.71054273576E-14  0.89863862054E+02  0.28660520068E+03  0.27215258102E+03 0.  0.
         25    2    3    3    0    0 -0.17301404638E+02 -0.44451763901E+02  0.16784458390E+02  0.13494678001E+03  0.12511441754E+03 0.  0.
         25    2    3    3    0    0  0.17301404638E+02  0.44451763901E+02  0.73079403664E+02  0.15165842067E+03  0.12403378332E+03 0.  0.
          5    1    4    4  502    0 -0.26887786637E+02 -0.76099461720E+02  0.43835855796E+02  0.91966044808E+02  0.47000000000E+01 0. -1.
         -5    1    4    4    0  502  0.95863819990E+01  0.31647697819E+02 -0.27051397407E+02  0.42980735205E+02  0.47000000000E+01 0. -1.
          5    1    5    5  503    0  0.96238519831E+01 -0.17158434252E+02 -0.27033292075E+02  0.33762690553E+02  0.47000000000E+01 0. -1.
         -5    1    5    5    0  503  0.76775526551E+01  0.61610198153E+02  0.10011269574E+03  0.11789573012E+03  0.47000000000E+01 0. -1.
<mgrwt>
<rscale>  0 0.27215258E+03</rscale>
<asrwt>0</asrwt>
<pdfrwt beam="1">  1        2 0.28959159E-01 0.27215258E+03</pdfrwt>
<pdfrwt beam="2">  1       -2 0.15133949E-01 0.27215258E+03</pdfrwt>
<totfact> 0.61019645E+03</totfact>
</mgrwt>
</event>
<event>
 9    1  0.8186049E-001  0.2773983E+03  0.7818608E-02  0.1097118E+00
         -2   -1    0    0    0  501 -0.00000000000E+00  0.00000000000E+00  0.33488235128E+02  0.33488235128E+02  0.00000000000E+00 0.  1.
          2   -1    0    0  501    0  0.00000000000E+00 -0.00000000000E+00 -0.57445409399E+03  0.57445409399E+03  0.00000000000E+00 0.  1.
         35    2    1    2    0    0  0.35527136788E-14  0.00000000000E+00 -0.54096585886E+03  0.60794232912E+03  0.27739829682E+03 0.  0.
         25    2    3    3    0    0  0.25342113676E+02  0.46459674123E+02 -0.33385507443E+03  0.36034289490E+03  0.12484817636E+03 0.  0.
         25    2    3    3    0    0 -0.25342113676E+02 -0.46459674123E+02 -0.20711078443E+03  0.24759943421E+03  0.12493950036E+03 0.  0.
          5    1    4    4  502    0 -0.27745435882E+02  0.65025293668E+02 -0.24534505784E+03  0.25537107400E+03  0.47000000000E+01 0. -1.
         -5    1    4    4    0  502  0.53087549558E+02 -0.18565619544E+02 -0.88510016585E+02  0.10497182090E+03  0.47000000000E+01 0. -1.
          5    1    5    5  503    0 -0.57076550688E+02 -0.54119620380E+02 -0.19841741914E+03  0.21349058098E+03  0.47000000000E+01 0. -1.
         -5    1    5    5    0  503  0.31734437012E+02  0.76599462565E+01 -0.86933652956E+01  0.34108853239E+02  0.47000000000E+01 0. -1.
<mgrwt>
<rscale>  0 0.27739830E+03</rscale>
<asrwt>0</asrwt>
<pdfrwt beam="1">  1        2 0.88377551E-01 0.27739830E+03</pdfrwt>
<pdfrwt beam="2">  1       -2 0.51520363E-02 0.27739830E+03</pdfrwt>
<totfact> 0.98846181E+03</totfact>
</mgrwt>
</event>
<event>
 9    1  0.8186049E-001  0.2809497E+03  0.7818608E-02  0.1095171E+00
         -2   -1    0    0    0  501 -0.00000000000E+00  0.00000000000E+00  0.68650161291E+02  0.68650161291E+02  0.00000000000E+00 0. -1.
          2   -1    0    0  501    0  0.00000000000E+00 -0.00000000000E+00 -0.28744558016E+03  0.28744558016E+03  0.00000000000E+00 0. -1.
         35    2    1    2    0    0 -0.71054273576E-14 -0.17763568394E-14 -0.21879541887E+03  0.35609574145E+03  0.28094971394E+03 0.  0.
         25    2    3    3    0    0  0.39132215579E+02  0.52149055512E+01 -0.17447834662E+03  0.21777304386E+03  0.12419291307E+03 0.  0.
         25    2    3    3    0    0 -0.39132215579E+02 -0.52149055512E+01 -0.44317072251E+02  0.13832269759E+03  0.12494254776E+03 0.  0.
          5    1    4    4  502    0  0.15027448462E+02 -0.21763041805E+02 -0.17900682745E+03  0.18101101753E+03  0.47000000000E+01 0.  1.
         -5    1    4    4    0  502  0.24104767118E+02  0.26977947357E+02  0.45284808233E+01  0.36762026331E+02  0.47000000000E+01 0.  1.
          5    1    5    5  503    0 -0.62286857240E+02 -0.14852962003E+02 -0.74795093036E+02  0.98573115033E+02  0.47000000000E+01 0.  1.
         -5    1    5    5    0  503  0.23154641661E+02  0.96380564522E+01  0.30478020785E+02  0.39749582559E+02  0.47000000000E+01 0.  1.
<mgrwt>
<rscale>  0 0.28094971E+03</rscale>
<asrwt>0</asrwt>
<pdfrwt beam="1">  1        2 0.44222397E-01 0.28094971E+03</pdfrwt>
<pdfrwt beam="2">  1       -2 0.10561563E-01 0.28094971E+03</pdfrwt>
<totfact> 0.69193635E+03</totfact>
</mgrwt>
</event>
<event>
 9    1  0.8186049E-001  0.2739981E+03  0.7818608E-02  0.1099013E+00
          1   -1    0    0  501    0  0.00000000000E+00  0.00000000000E+00  0.50068387619E+03  0.50068387619E+03  0.00000000000E+00 0.  1.
         -1   -1    0    0    0  501 -0.00000000000E+00 -0.00000000000E+00 -0.37486204896E+02  0.37486204896E+02  0.00000000000E+00 0.  1.
         35    2    1    2    0    0  0.00000000000E+00  0.71054273576E-14  0.46319767130E+03  0.53817008109E+03  0.27399809029E+03 0.  0.
         25    2    3    3    0    0 -0.30914927409E+02  0.37210058579E+02  0.28653974425E+03  0.31629169074E+03  0.12488029230E+03 0.  0.
         25    2    3    3    0    0  0.30914927409E+02 -0.37210058579E+02  0.17665792705E+03  0.22187839035E+03  0.12522649766E+03 0.  0.
          5    1    4    4  502    0  0.43028620537E+02  0.26649809734E+02  0.17293155154E+03  0.18024729141E+03  0.47000000000E+01 0.  1.
         -5    1    4    4    0  502 -0.73943547947E+02  0.10560248845E+02  0.11360819271E+03  0.13604439933E+03  0.47000000000E+01 0.  1.
          5    1    5    5  503    0  0.10222929398E+02  0.32706149394E+02  0.13152697835E+03  0.13599866369E+03  0.47000000000E+01 0.  1.
         -5    1    5    5    0  503  0.20691998012E+02 -0.69916207973E+02  0.45130948704E+02  0.85879726653E+02  0.47000000000E+01 0.  1.
<mgrwt>
<rscale>  0 0.27399809E+03</rscale>
<asrwt>0</asrwt>
<pdfrwt beam="1">  1        1 0.77028284E-01 0.27399809E+03</pdfrwt>
<pdfrwt beam="2">  1       -1 0.57671088E-02 0.27399809E+03</pdfrwt>
<totfact> 0.63633530E+03</totfact>
</mgrwt>
</event>
<event>
 9    1  0.8186049E-001  0.2666371E+03  0.7818608E-02  0.1103220E+00
          2   -1    0    0  501    0  0.00000000000E+00  0.00000000000E+00  0.95850087675E+02  0.95850087675E+02  0.00000000000E+00 0. -1.
         -2   -1    0    0    0  501 -0.00000000000E+00 -0.00000000000E+00 -0.18543374222E+03  0.18543374222E+03  0.00000000000E+00 0. -1.
         35    2    1    2    0    0  0.00000000000E+00  0.00000000000E+00 -0.89583654545E+02  0.28128382989E+03  0.26663713507E+03 0.  0.
         25    2    3    3    0    0  0.27639418941E+00  0.25092148848E+02 -0.20504993871E+01  0.12711032163E+03  0.12459188171E+03 0.  0.
         25    2    3    3    0    0 -0.27639418941E+00 -0.25092148848E+02 -0.87533155158E+02  0.15417350827E+03  0.12440950555E+03 0.  0.
          5    1    4    4  502    0 -0.15211818952E+02  0.73405297401E+02  0.67068667928E+01  0.75410935443E+02  0.47000000000E+01 0.  1.
         -5    1    4    4    0  502  0.15488213141E+02 -0.48313148552E+02 -0.87573661799E+01  0.51699386184E+02  0.47000000000E+01 0.  1.
          5    1    5    5  503    0  0.46207137803E+01 -0.70667730840E+02 -0.22470141067E+02  0.74446466790E+02  0.47000000000E+01 0. -1.
         -5    1    5    5    0  503 -0.48971079698E+01  0.45575581992E+02 -0.65063014090E+02  0.79727041478E+02  0.47000000000E+01 0. -1.
<mgrwt>
<rscale>  0 0.26663714E+03</rscale>
<asrwt>0</asrwt>
<pdfrwt beam="1">  1        2 0.14746167E-01 0.26663714E+03</pdfrwt>
<pdfrwt beam="2">  1       -2 0.28528268E-01 0.26663714E+03</pdfrwt>
<totfact> 0.44250847E+03</totfact>
</mgrwt>
</event>
<event>
 9    1  0.8186049E-001  0.2803660E+03  0.7818608E-02  0.1095489E+00
         -2   -1    0    0    0  501 -0.00000000000E+00  0.00000000000E+00  0.44536280792E+02  0.44536280792E+02  0.00000000000E+00 0. -1.
          2   -1    0    0  501    0  0.00000000000E+00 -0.00000000000E+00 -0.44124175077E+03  0.44124175077E+03  0.00000000000E+00 0. -1.
         35    2    1    2    0    0  0.71054273576E-14 -0.14210854715E-13 -0.39670546998E+03  0.48577803156E+03  0.28036595021E+03 0.  0.
         25    2    3    3    0    0  0.11193922978E+02  0.55923108015E+02 -0.24070639576E+03  0.27702781540E+03  0.12470823400E+03 0.  0.
         25    2    3    3    0    0 -0.11193922978E+02 -0.55923108015E+02 -0.15599907422E+03  0.20875021616E+03  0.12644462688E+03 0.  0.
          5    1    4    4  502    0 -0.41525457371E+02  0.95317383256E+01 -0.23885174023E+02  0.49069432272E+02  0.47000000000E+01 0.  1.
         -5    1    4    4    0  502  0.52719380348E+02  0.46391369689E+02 -0.21682122173E+03  0.22795838313E+03  0.47000000000E+01 0.  1.
          5    1    5    5  503    0 -0.47573361727E+02 -0.80954692311E+02 -0.11210540631E+03  0.14630994182E+03  0.47000000000E+01 0.  1.
         -5    1    5    5    0  503  0.36379438749E+02  0.25031584296E+02 -0.43893667917E+02  0.62440274337E+02  0.47000000000E+01 0.  1.
<mgrwt>
<rscale>  0 0.28036595E+03</rscale>
<asrwt>0</asrwt>
<pdfrwt beam="1">  1        2 0.67883347E-01 0.28036595E+03</pdfrwt>
<pdfrwt beam="2">  1       -2 0.68517355E-02 0.28036595E+03</pdfrwt>
<totfact> 0.85844083E+03</totfact>
</mgrwt>
</event>
<event>
 9    1  0.8186049E-001  0.2739531E+03  0.7818608E-02  0.1099038E+00
          3   -1    0    0  501    0  0.00000000000E+00  0.00000000000E+00  0.24091061299E+03  0.24091061299E+03  0.00000000000E+00 0. -1.
         -3   -1    0    0    0  501 -0.00000000000E+00 -0.00000000000E+00 -0.77881887790E+02  0.77881887790E+02  0.00000000000E+00 0. -1.
         35    2    1    2    0    0  0.00000000000E+00  0.00000000000E+00  0.16302872520E+03  0.31879250078E+03  0.27395308597E+03 0.  0.
         25    2    3    3    0    0 -0.32439446947E+02  0.43342282003E+02  0.10626290241E+03  0.17137455584E+03  0.12307137292E+03 0.  0.
         25    2    3    3    0    0  0.32439446947E+02 -0.43342282003E+02  0.56765822782E+02  0.14741794494E+03  0.12481514622E+03 0.  0.
          5    1    4    4  502    0 -0.73453675992E+02  0.40399709143E+02  0.98214153462E+02  0.12921179883E+03  0.47000000000E+01 0.  1.
         -5    1    4    4    0  502  0.41014229045E+02  0.29425728601E+01  0.80487489532E+01  0.42162757013E+02  0.47000000000E+01 0.  1.
          5    1    5    5  503    0  0.61090371176E+02 -0.72338061746E+02  0.43411429258E+02  0.10426634557E+03  0.47000000000E+01 0.  1.
         -5    1    5    5    0  503 -0.28650924229E+02  0.28995779743E+02  0.13354393524E+02  0.43151599373E+02  0.47000000000E+01 0.  1.
<mgrwt>
<rscale>  0 0.27395309E+03</rscale>
<asrwt>0</asrwt>
<pdfrwt beam="1">  1        3 0.37063171E-01 0.27395309E+03</pdfrwt>
<pdfrwt beam="2">  1       -3 0.11981829E-01 0.27395309E+03</pdfrwt>
<totfact> 0.99659281E+02</totfact>
</mgrwt>
</event>
<event>
 9    1  0.8186049E-001  0.2778738E+03  0.7818608E-02  0.1096856E+00
          2   -1    0    0  501    0  0.00000000000E+00  0.00000000000E+00  0.27103240670E+04  0.27103240670E+04  0.00000000000E+00 0. -1.
         -2   -1    0    0    0  501 -0.00000000000E+00 -0.00000000000E+00 -0.71221950718E+01  0.71221950718E+01  0.00000000000E+00 0. -1.
         35    2    1    2    0    0 -0.35527136788E-14 -0.71054273576E-14  0.27032018720E+04  0.27174462621E+04  0.27787376064E+03 0.  0.
         25    2    3    3    0    0 -0.28910963975E+02  0.50194006290E+02  0.13627751214E+04  0.13698278632E+04  0.12616283569E+03 0.  0.
         25    2    3    3    0    0  0.28910963975E+02 -0.50194006290E+02  0.13404267506E+04  0.13476183989E+04  0.12639696760E+03 0.  0.
          5    1    4    4  502    0  0.36465599659E+02  0.62085558332E+02  0.72763720865E+03  0.73120609538E+03  0.47000000000E+01 0.  1.
         -5    1    4    4    0  502 -0.65376563634E+02 -0.11891552042E+02  0.63513791276E+03  0.63862176780E+03  0.47000000000E+01 0.  1.
          5    1    5    5  503    0 -0.25731393782E+02 -0.57178739786E+02  0.10558660847E+04  0.10577366363E+04  0.47000000000E+01 0. -1.
         -5    1    5    5    0  503  0.54642357757E+02  0.69847334957E+01  0.28456066585E+03  0.28988176264E+03  0.47000000000E+01 0. -1.
<mgrwt>
<rscale>  0 0.27787376E+03</rscale>
<asrwt>0</asrwt>
<pdfrwt beam="1">  1        2 0.41697211E+00 0.27787376E+03</pdfrwt>
<pdfrwt beam="2">  1       -2 0.10957245E-02 0.27787376E+03</pdfrwt>
<totfact> 0.57181414E+03</totfact>
</mgrwt>
</event>
<event>
 9    1  0.8186049E-001  0.2677663E+03  0.7818608E-02  0.1102565E+00
          1   -1    0    0  501    0  0.00000000000E+00  0.00000000000E+00  0.32274094009E+03  0.32274094009E+03  0.00000000000E+00 0.  1.
         -1   -1    0    0    0  501 -0.00000000000E+00 -0.00000000000E+00 -0.55538975603E+02  0.55538975603E+02  0.00000000000E+00 0.  1.
         35    2    1    2    0    0  0.71054273576E-14 -0.35527136788E-14  0.26720196449E+03  0.37827991569E+03  0.26776632498E+03 0.  0.
         25    2    3    3    0    0 -0.16416312495E+02 -0.74598615326E+01  0.95372559036E+02  0.16481315202E+03  0.13320024478E+03 0.  0.
         25    2    3    3    0    0  0.16416312495E+02  0.74598615326E+01  0.17182940545E+03  0.21346676367E+03  0.12536973226E+03 0.  0.
          5    1    4    4  502    0 -0.67419349923E+02  0.26749596007E+02  0.55338325875E+02  0.91352777414E+02  0.47000000000E+01 0. -1.
         -5    1    4    4    0  502  0.51003037428E+02 -0.34209457539E+02  0.40034233161E+02  0.73460374603E+02  0.47000000000E+01 0. -1.
          5    1    5    5  503    0 -0.29015644696E+01  0.60114516439E+02  0.13002993030E+03  0.14335985120E+03  0.47000000000E+01 0.  1.
         -5    1    5    5    0  503  0.19317876965E+02 -0.52654654907E+02  0.41799475152E+02  0.70106912475E+02  0.47000000000E+01 0.  1.
<mgrwt>
<rscale>  0 0.26776632E+03</rscale>
<asrwt>0</asrwt>
<pdfrwt beam="1">  1        1 0.49652451E-01 0.26776632E+03</pdfrwt>
<pdfrwt beam="2">  1       -1 0.85444580E-02 0.26776632E+03</pdfrwt>
<totfact> 0.61609286E+03</totfact>
</mgrwt>
</event>
<event>
 9    1  0.8186049E-001  0.2760611E+03  0.7818608E-02  0.1097860E+00
         -2   -1    0    0    0  501 -0.00000000000E+00  0.00000000000E+00  0.46077608984E+02  0.46077608984E+02  0.00000000000E+00 0. -1.
          2   -1    0    0  501    0  0.00000000000E+00 -0.00000000000E+00 -0.41348580577E+03  0.41348580577E+03  0.00000000000E+00 0. -1.
         35    2    1    2    0    0 -0.71054273576E-14  0.17763568394E-14 -0.36740819679E+03  0.45956341475E+03  0.27606113293E+03 0.  0.
         25    2    3    3    0    0  0.32962069932E+02  0.63757073160E+01 -0.26795824742E+03  0.29676595495E+03  0.12304983526E+03 0.  0.
         25    2    3    3    0    0 -0.32962069932E+02 -0.63757073160E+01 -0.99449949367E+02  0.16279745980E+03  0.12444104143E+03 0.  0.
          5    1    4    4  502    0 -0.43063147055E+01  0.16157313534E+02 -0.25536925915E+03  0.25595927732E+03  0.47000000000E+01 0. -1.
         -5    1    4    4    0  502  0.37268384637E+02 -0.97816062177E+01 -0.12588988272E+02  0.40806677632E+02  0.47000000000E+01 0. -1.
          5    1    5    5  503    0  0.26820781362E+02  0.36553902228E+02 -0.96439410098E+01  0.46590102803E+02  0.47000000000E+01 0. -1.
         -5    1    5    5    0  503 -0.59782851294E+02 -0.42929609544E+02 -0.89806008357E+02  0.11620735700E+03  0.47000000000E+01 0. -1.
<mgrwt>
<rscale>  0 0.27606113E+03</rscale>
<asrwt>0</asrwt>
<pdfrwt beam="1">  1        2 0.63613202E-01 0.27606113E+03</pdfrwt>
<pdfrwt beam="2">  1       -2 0.70888628E-02 0.27606113E+03</pdfrwt>
<totfact> 0.87389803E+03</totfact>
</mgrwt>
</event>
<event>
 9    1  0.8186049E-001  0.2752412E+03  0.7818608E-02  0.1098317E+00
         -2   -1    0    0    0  501 -0.00000000000E+00  0.00000000000E+00  0.15135202565E+02  0.15135202565E+02  0.00000000000E+00 0.  1.
          2   -1    0    0  501    0  0.00000000000E+00 -0.00000000000E+00 -0.12513497189E+04  0.12513497189E+04  0.00000000000E+00 0.  1.
         35    2    1    2    0    0  0.71054273576E-14  0.35527136788E-14 -0.12362145164E+04  0.12664849215E+04  0.27524121403E+03 0.  0.
         25    2    3    3    0    0 -0.41911155427E+02  0.18924611102E+02 -0.48359550573E+03  0.50157447668E+03  0.12489057866E+03 0.  0.
         25    2    3    3    0    0  0.41911155427E+02 -0.18924611102E+02 -0.75261901064E+03  0.76491044483E+03  0.12859987390E+03 0.  0.
          5    1    4    4  502    0 -0.27005807487E+02 -0.10668633275E+02 -0.17392814751E+02  0.34172114054E+02  0.47000000000E+01 0. -1.
         -5    1    4    4    0  502 -0.14905347941E+02  0.29593244377E+02 -0.46620269098E+03  0.46740236262E+03  0.47000000000E+01 0. -1.
          5    1    5    5  503    0  0.32048687201E+02  0.40677155083E+01 -0.73037754940E+03  0.73110677696E+03  0.47000000000E+01 0. -1.
         -5    1    5    5    0  503  0.98624682261E+01 -0.22992326610E+02 -0.22241461248E+02  0.33803667862E+02  0.47000000000E+01 0. -1.
<mgrwt>
<rscale>  0 0.27524121E+03</rscale>
<asrwt>0</asrwt>
<pdfrwt beam="1">  1        2 0.19251535E+00 0.27524121E+03</pdfrwt>
<pdfrwt beam="2">  1       -2 0.23284926E-02 0.27524121E+03</pdfrwt>
<totfact> 0.11525133E+04</totfact>
</mgrwt>
</event>
<event>
 9    1  0.8186049E-001  0.2909896E+03  0.7818608E-02  0.1089834E+00
          2   -1    0    0  501    0  0.00000000000E+00  0.00000000000E+00  0.27006506343E+04  0.27006506343E+04  0.00000000000E+00 0.  1.
         -2   -1    0    0    0  501 -0.00000000000E+00 -0.00000000000E+00 -0.78383819296E+01  0.78383819296E+01  0.00000000000E+00 0.  1.
         35    2    1    2    0    0 -0.71054273576E-14 -0.71054273576E-14  0.26928122524E+04  0.27084890162E+04  0.29098956084E+03 0.  0.
         25    2    3    3    0    0  0.36309049672E+02  0.55580752001E+02  0.10541971147E+04  0.10637702815E+04  0.12596859974E+03 0.  0.
         25    2    3    3    0    0 -0.36309049672E+02 -0.55580752001E+02  0.16386151376E+04  0.16447187347E+04  0.12503031562E+03 0.  0.
          5    1    4    4  502    0  0.79864956731E+02  0.47251569078E+02  0.56992339724E+03  0.57744773860E+03  0.47000000000E+01 0. -1.
         -5    1    4    4    0  502 -0.43555907059E+02  0.83291829237E+01  0.48427371748E+03  0.48632254293E+03  0.47000000000E+01 0. -1.
          5    1    5    5  503    0 -0.12956851960E+02  0.40113538059E+02  0.42981870231E+03  0.43190645145E+03  0.47000000000E+01 0. -1.
         -5    1    5    5    0  503 -0.23352197712E+02 -0.95694290060E+02  0.12087964353E+04  0.12128122832E+04  0.47000000000E+01 0. -1.
<mgrwt>
<rscale>  0 0.29098956E+03</rscale>
<asrwt>0</asrwt>
<pdfrwt beam="1">  1        2 0.41548397E+00 0.29098956E+03</pdfrwt>
<pdfrwt beam="2">  1       -2 0.12059071E-02 0.29098956E+03</pdfrwt>
<totfact> 0.50330181E+03</totfact>
</mgrwt>
</event>
<event>
 9    1  0.8186049E-001  0.2769747E+03  0.7818608E-02  0.1097353E+00
          1   -1    0    0  501    0  0.00000000000E+00  0.00000000000E+00  0.10441623059E+03  0.10441623059E+03  0.00000000000E+00 0.  1.
         -1   -1    0    0    0  501 -0.00000000000E+00 -0.00000000000E+00 -0.18367594426E+03  0.18367594426E+03  0.00000000000E+00 0.  1.
         35    2    1    2    0    0 -0.71054273576E-14  0.00000000000E+00 -0.79259713668E+02  0.28809217486E+03  0.27697472629E+03 0.  0.
         25    2    3    3    0    0  0.62731880857E+01  0.59541862999E+02 -0.38144980351E+02  0.14341595520E+03  0.12461344367E+03 0.  0.
         25    2    3    3    0    0 -0.62731880857E+01 -0.59541862999E+02 -0.41114733317E+02  0.14467621965E+03  0.12512474135E+03 0.  0.
          5    1    4    4  502    0 -0.19965623112E+02  0.92988752250E+02 -0.30332773656E+02  0.99938487626E+02  0.47000000000E+01 0. -1.
         -5    1    4    4    0  502  0.26238811198E+02 -0.33446889251E+02 -0.78122066951E+01  0.43477467579E+02  0.47000000000E+01 0. -1.
          5    1    5    5  503    0 -0.63064263174E+02 -0.48765348090E+02 -0.31711371742E+02  0.85923579777E+02  0.47000000000E+01 0. -1.
         -5    1    5    5    0  503  0.56791075088E+02 -0.10776514909E+02 -0.94033615754E+01  0.58752639874E+02  0.47000000000E+01 0. -1.
<mgrwt>
<rscale>  0 0.27697473E+03</rscale>
<asrwt>0</asrwt>
<pdfrwt beam="1">  1        1 0.16064036E-01 0.27697473E+03</pdfrwt>
<pdfrwt beam="2">  1       -1 0.28257837E-01 0.27697473E+03</pdfrwt>
<totfact> 0.38321703E+03</totfact>
</mgrwt>
</event>
<event>
 9    1  0.8186049E-001  0.2673218E+03  0.7818608E-02  0.1102822E+00
         -2   -1    0    0    0  501 -0.00000000000E+00  0.00000000000E+00  0.50035639228E+03  0.50035639228E+03  0.00000000000E+00 0. -1.
          2   -1    0    0  501    0  0.00000000000E+00 -0.00000000000E+00 -0.35705018286E+02  0.35705018286E+02  0.00000000000E+00 0. -1.
         35    2    1    2    0    0 -0.35527136788E-14  0.00000000000E+00  0.46465137400E+03  0.53606141057E+03  0.26732178464E+03 0.  0.
         25    2    3    3    0    0  0.13155979657E+02 -0.43900649678E+02  0.19921645857E+03  0.23913287608E+03  0.12408460104E+03 0.  0.
         25    2    3    3    0    0 -0.13155979657E+02  0.43900649678E+02  0.26543491543E+03  0.29692853448E+03  0.12494204024E+03 0.  0.
          5    1    4    4  502    0 -0.21134901366E+02  0.34467390889E+02  0.34041291052E+02  0.53062082384E+02  0.47000000000E+01 0. -1.
         -5    1    4    4    0  502  0.34290881022E+02 -0.78368040568E+02  0.16517516752E+03  0.18607079370E+03  0.47000000000E+01 0. -1.
          5    1    5    5  503    0 -0.51989201288E+02  0.42030439433E+02  0.24240176469E+03  0.25149580595E+03  0.47000000000E+01 0. -1.
         -5    1    5    5    0  503  0.38833221631E+02  0.18702102458E+01  0.23033150739E+02  0.45432728529E+02  0.47000000000E+01 0. -1.
<mgrwt>
<rscale>  0 0.26732178E+03</rscale>
<asrwt>0</asrwt>
<pdfrwt beam="1">  1        2 0.54930801E-02 0.26732178E+03</pdfrwt>
<pdfrwt beam="2">  1       -2 0.76977901E-01 0.26732178E+03</pdfrwt>
<totfact> 0.21451383E+03</totfact>
</mgrwt>
</event>
<event>
 9    1  0.8186049E-001  0.2785413E+03  0.7818608E-02  0.1096488E+00
          2   -1    0    0  501    0  0.00000000000E+00  0.00000000000E+00  0.42441315939E+03  0.42441315939E+03  0.00000000000E+00 0.  1.
         -2   -1    0    0    0  501 -0.00000000000E+00 -0.00000000000E+00 -0.45701475320E+02  0.45701475320E+02  0.00000000000E+00 0.  1.
         35    2    1    2    0    0 -0.71054273576E-14  0.00000000000E+00  0.37871168407E+03  0.47011463471E+03  0.27854125389E+03 0.  0.
         25    2    3    3    0    0  0.40996239135E+02  0.34708309368E+02  0.13963238679E+03  0.19487386543E+03  0.12487298196E+03 0.  0.
         25    2    3    3    0    0 -0.40996239135E+02 -0.34708309368E+02  0.23907929728E+03  0.27524076928E+03  0.12535235269E+03 0.  0.
          5    1    4    4  502    0  0.50645080499E+02  0.46464274218E+02  0.15691848078E+03  0.17137488897E+03  0.47000000000E+01 0. -1.
         -5    1    4    4    0  502 -0.96488413640E+01 -0.11755964850E+02 -0.17286093993E+02  0.23498976462E+02  0.47000000000E+01 0. -1.
          5    1    5    5  503    0 -0.82770650078E+02 -0.36055496747E+02  0.13010042453E+03  0.15842723826E+03  0.47000000000E+01 0.  1.
         -5    1    5    5    0  503  0.41774410943E+02  0.13471873787E+01  0.10897887275E+03  0.11681353102E+03  0.47000000000E+01 0.  1.
<mgrwt>
<rscale>  0 0.27854125E+03</rscale>
<asrwt>0</asrwt>
<pdfrwt beam="1">  1        2 0.65294330E-01 0.27854125E+03</pdfrwt>
<pdfrwt beam="2">  1       -2 0.70309965E-02 0.27854125E+03</pdfrwt>
<totfact> 0.86050430E+03</totfact>
</mgrwt>
</event>
<event>
 9    1  0.8186049E-001  0.2748346E+03  0.7818608E-02  0.1098544E+00
          2   -1    0    0  501    0  0.00000000000E+00  0.00000000000E+00  0.33821616673E+04  0.33821616673E+04  0.00000000000E+00 0. -1.
         -2   -1    0    0    0  501 -0.00000000000E+00 -0.00000000000E+00 -0.55832658543E+01  0.55832658543E+01  0.00000000000E+00 0. -1.
         35    2    1    2    0    0  0.71054273576E-14  0.14210854715E-13  0.33765784015E+04  0.33877449332E+04  0.27483455206E+03 0.  0.
         25    2    3    3    0    0  0.10363799276E+02 -0.52261279253E+02  0.16294922640E+04  0.16354294771E+04  0.12863081511E+03 0.  0.
         25    2    3    3    0    0 -0.10363799276E+02  0.52261279253E+02  0.17470861375E+04  0.17523154561E+04  0.12434161054E+03 0.  0.
          5    1    4    4  502    0 -0.51072261777E+02 -0.57384378226E+02  0.96734399212E+03  0.97040086144E+03  0.47000000000E+01 0. -1.
         -5    1    4    4    0  502  0.61436061053E+02  0.51230989732E+01  0.66214827186E+03  0.66502861568E+03  0.47000000000E+01 0. -1.
          5    1    5    5  503    0  0.25156573224E+02  0.67717916846E+02  0.56946017609E+03  0.57404316178E+03  0.47000000000E+01 0.  1.
         -5    1    5    5    0  503 -0.35520372500E+02 -0.15456637593E+02  0.11776259614E+04  0.11782722943E+04  0.47000000000E+01 0.  1.
<mgrwt>
<rscale>  0 0.27483455E+03</rscale>
<asrwt>0</asrwt>
<pdfrwt beam="1">  1        2 0.52033093E+00 0.27483455E+03</pdfrwt>
<pdfrwt beam="2">  1       -2 0.85896668E-03 0.27483455E+03</pdfrwt>
<totfact> 0.32189775E+03</totfact>
</mgrwt>
</event>
<event>
 9    1  0.8186049E-001  0.2766795E+03  0.7818608E-02  0.1097516E+00
          1   -1    0    0  501    0  0.00000000000E+00  0.00000000000E+00  0.11705960307E+04  0.11705960307E+04  0.00000000000E+00 0.  1.
         -1   -1    0    0    0  501 -0.00000000000E+00 -0.00000000000E+00 -0.16348834921E+02  0.16348834921E+02  0.00000000000E+00 0.  1.
         35    2    1    2    0    0  0.00000000000E+00  0.14210854715E-13  0.11542471958E+04  0.11869448657E+04  0.27667946267E+03 0.  0.
         25    2    3    3    0    0 -0.32309832815E+02  0.44765667183E+02  0.54289342315E+03  0.56058265452E+03  0.12834232893E+03 0.  0.
         25    2    3    3    0    0  0.32309832815E+02 -0.44765667183E+02  0.61135377267E+03  0.62636221114E+03  0.12461257534E+03 0.  0.
          5    1    4    4  502    0 -0.13770438597E+02  0.86889490135E+02  0.27631538623E+03  0.29002015644E+03  0.47000000000E+01 0. -1.
         -5    1    4    4    0  502 -0.18539394218E+02 -0.42123822952E+02  0.26657803692E+03  0.27056249807E+03  0.47000000000E+01 0. -1.
          5    1    5    5  503    0 -0.20904379169E+02  0.32654987317E+02  0.12369696275E+03  0.12971649802E+03  0.47000000000E+01 0. -1.
         -5    1    5    5    0  503  0.53214211984E+02 -0.77420654500E+02  0.48765680992E+03  0.49664571312E+03  0.47000000000E+01 0. -1.
<mgrwt>
<rscale>  0 0.27667946E+03</rscale>
<asrwt>0</asrwt>
<pdfrwt beam="1">  1        1 0.18009163E+00 0.27667946E+03</pdfrwt>
<pdfrwt beam="2">  1       -1 0.25152063E-02 0.27667946E+03</pdfrwt>
<totfact> 0.58781255E+03</totfact>
</mgrwt>
</event>
<event>
 9    1  0.8186049E-001  0.2784128E+03  0.7818608E-02  0.1096559E+00
          4   -1    0    0  501    0  0.00000000000E+00  0.00000000000E+00  0.10103498273E+04  0.10103498273E+04  0.00000000000E+00 0. -1.
         -4   -1    0    0    0  501 -0.00000000000E+00 -0.00000000000E+00 -0.19179916391E+02  0.19179916391E+02  0.00000000000E+00 0. -1.
         35    2    1    2    0    0 -0.14210854715E-13  0.00000000000E+00  0.99116991090E+03  0.10295297437E+04  0.27841282451E+03 0.  0.
         25    2    3    3    0    0  0.51119308335E+02  0.37144507743E+02  0.58369331385E+03  0.59884015212E+03  0.11797773102E+03 0.  0.
         25    2    3    3    0    0 -0.51119308335E+02 -0.37144507743E+02  0.40747659705E+03  0.43068959156E+03  0.12435211698E+03 0.  0.
          5    1    4    4  502    0  0.79690698968E+01 -0.18759276771E+02  0.41976135344E+03  0.42028216758E+03  0.47000000000E+01 0. -1.
         -5    1    4    4    0  502  0.43150238438E+02  0.55903784514E+02  0.16393196040E+03  0.17855798454E+03  0.47000000000E+01 0. -1.
          5    1    5    5  503    0 -0.46948256681E+02  0.32937498164E+02  0.10102007540E+03  0.11625903502E+03  0.47000000000E+01 0.  1.
         -5    1    5    5    0  503 -0.41710516535E+01 -0.70082005907E+02  0.30645652165E+03  0.31443055654E+03  0.47000000000E+01 0.  1.
<mgrwt>
<rscale>  0 0.27841282E+03</rscale>
<asrwt>0</asrwt>
<pdfrwt beam="1">  1        4 0.15543839E+00 0.27841282E+03</pdfrwt>
<pdfrwt beam="2">  1       -4 0.29507572E-02 0.27841282E+03</pdfrwt>
<totfact> 0.29913765E+02</totfact>
</mgrwt>
</event>
<event>
 9    1  0.8186049E-001  0.2751490E+03  0.7818608E-02  0.1098368E+00
          2   -1    0    0  501    0  0.00000000000E+00  0.00000000000E+00  0.38659361386E+02  0.38659361386E+02  0.00000000000E+00 0.  1.
         -2   -1    0    0    0  501 -0.00000000000E+00 -0.00000000000E+00 -0.48957722630E+03  0.48957722630E+03  0.00000000000E+00 0.  1.
         35    2    1    2    0    0  0.00000000000E+00  0.00000000000E+00 -0.45091786492E+03  0.52823658769E+03  0.27514899904E+03 0.  0.
         25    2    3    3    0    0 -0.20629985188E+02  0.77746695402E+01 -0.11727951377E+03  0.17116734114E+03  0.12270995293E+03 0.  0.
         25    2    3    3    0    0  0.20629985188E+02 -0.77746695402E+01 -0.33363835115E+03  0.35706924655E+03  0.12529108387E+03 0.  0.
          5    1    4    4  502    0 -0.52391645156E+02 -0.24003547493E+02 -0.15574245705E+02  0.59880730654E+02  0.47000000000E+01 0.  1.
         -5    1    4    4    0  502  0.31761659969E+02  0.31778217033E+02 -0.10170526806E+03  0.11128661049E+03  0.47000000000E+01 0.  1.
          5    1    5    5  503    0 -0.40808783235E+02  0.70882192339E+01 -0.44138630356E+02  0.60711681996E+02  0.47000000000E+01 0. -1.
         -5    1    5    5    0  503  0.61438768423E+02 -0.14862888774E+02 -0.28949972080E+03  0.29635756455E+03  0.47000000000E+01 0. -1.
<mgrwt>
<rscale>  0 0.27514900E+03</rscale>
<asrwt>0</asrwt>
<pdfrwt beam="1">  1        2 0.59475941E-02 0.27514900E+03</pdfrwt>
<pdfrwt beam="2">  1       -2 0.75319572E-01 0.27514900E+03</pdfrwt>
<totfact> 0.20289577E+03</totfact>
</mgrwt>
</event>
<event>
 9    1  0.8186049E-001  0.2697924E+03  0.7818608E-02  0.1101398E+00
          1   -1    0    0  501    0  0.00000000000E+00  0.00000000000E+00  0.22443153924E+04  0.22443153924E+04  0.00000000000E+00 0. -1.
         -1   -1    0    0    0  501 -0.00000000000E+00 -0.00000000000E+00 -0.81080343304E+01  0.81080343304E+01  0.00000000000E+00 0. -1.
         35    2    1    2    0    0 -0.35527136788E-14  0.00000000000E+00  0.22362073581E+04  0.22524234268E+04  0.26979241094E+03 0.  0.
         25    2    3    3    0    0  0.31179924206E+02  0.29312696493E+02  0.13363181371E+04  0.13428420939E+04  0.12508918250E+03 0.  0.
         25    2    3    3    0    0 -0.31179924206E+02 -0.29312696493E+02  0.89988922097E+03  0.90958133290E+03  0.12532425659E+03 0.  0.
          5    1    4    4  502    0  0.62266307199E+02  0.47105097312E+02  0.53264691678E+03  0.53835936990E+03  0.47000000000E+01 0.  1.
         -5    1    4    4    0  502 -0.31086382992E+02 -0.17792400818E+02  0.80367122036E+03  0.80448272397E+03  0.47000000000E+01 0.  1.
          5    1    5    5  503    0  0.36165522405E+02 -0.51672800226E+01  0.60428123124E+03  0.60540279337E+03  0.47000000000E+01 0.  1.
         -5    1    5    5    0  503 -0.67345446612E+02 -0.24145416471E+02  0.29560798973E+03  0.30417853953E+03  0.47000000000E+01 0.  1.
<mgrwt>
<rscale>  0 0.26979241E+03</rscale>
<asrwt>0</asrwt>
<pdfrwt beam="1">  1        1 0.34527880E+00 0.26979241E+03</pdfrwt>
<pdfrwt beam="2">  1       -1 0.12473917E-02 0.26979241E+03</pdfrwt>
<totfact> 0.31919715E+03</totfact>
</mgrwt>
</event>
<event>
 9    1  0.8186049E-001  0.2780489E+03  0.7818608E-02  0.1096759E+00
          2   -1    0    0  501    0  0.00000000000E+00  0.00000000000E+00  0.10389231556E+04  0.10389231556E+04  0.00000000000E+00 0. -1.
         -2   -1    0    0    0  501 -0.00000000000E+00 -0.00000000000E+00 -0.18603686780E+02  0.18603686780E+02  0.00000000000E+00 0. -1.
         35    2    1    2    0    0  0.00000000000E+00 -0.71054273576E-14  0.10203194688E+04  0.10575268424E+04  0.27804892357E+03 0.  0.
         25    2    3    3    0    0 -0.13351555243E+02 -0.25726968678E+02  0.71608640422E+03  0.72744662554E+03  0.12473457321E+03 0.  0.
         25    2    3    3    0    0  0.13351555243E+02  0.25726968678E+02  0.30423306458E+03  0.33008021682E+03  0.12471989019E+03 0.  0.
          5    1    4    4  502    0  0.16078488793E+02 -0.70969907973E+02  0.36605722876E+03  0.37324955508E+03  0.47000000000E+01 0. -1.
         -5    1    4    4    0  502 -0.29430044036E+02  0.45242939295E+02  0.35002917546E+03  0.35419707046E+03  0.47000000000E+01 0. -1.
          5    1    5    5  503    0 -0.10492463504E+02 -0.42632326046E+02  0.55163003419E+02  0.70658714683E+02  0.47000000000E+01 0.  1.
         -5    1    5    5    0  503  0.23844018747E+02  0.68359294724E+02  0.24907006116E+03  0.25942150214E+03  0.47000000000E+01 0.  1.
<mgrwt>
<rscale>  0 0.27804892E+03</rscale>
<asrwt>0</asrwt>
<pdfrwt beam="1">  1        2 0.15983429E+00 0.27804892E+03</pdfrwt>
<pdfrwt beam="2">  1       -2 0.28621065E-02 0.27804892E+03</pdfrwt>
<totfact> 0.11273406E+04</totfact>
</mgrwt>
</event>
<event>
 9    1  0.8186049E-001  0.2772347E+03  0.7818608E-02  0.1097209E+00
          4   -1    0    0  501    0  0.00000000000E+00  0.00000000000E+00  0.11187433597E+04  0.11187433597E+04  0.00000000000E+00 0.  1.
         -4   -1    0    0    0  501 -0.00000000000E+00 -0.00000000000E+00 -0.17175318438E+02  0.17175318438E+02  0.00000000000E+00 0.  1.
         35    2    1    2    0    0  0.00000000000E+00  0.71054273576E-14  0.11015680413E+04  0.11359186781E+04  0.27723472692E+03 0.  0.
         25    2    3    3    0    0 -0.66410673049E+00 -0.54613394374E+02  0.59641459301E+03  0.61275399463E+03  0.12951458333E+03 0.  0.
         25    2    3    3    0    0  0.66410673049E+00  0.54613394374E+02  0.50515344826E+03  0.52316468352E+03  0.12465238027E+03 0.  0.
          5    1    4    4  502    0  0.22953810593E+02 -0.92592010683E+02  0.39574070303E+03  0.40710312195E+03  0.47000000000E+01 0. -1.
         -5    1    4    4    0  502 -0.23617917324E+02  0.37978616310E+02  0.20067388998E+03  0.20565087268E+03  0.47000000000E+01 0. -1.
          5    1    5    5  503    0  0.31147780412E+02  0.42449585050E+02  0.47626399938E+03  0.47918852094E+03  0.47000000000E+01 0.  1.
         -5    1    5    5    0  503 -0.30483673681E+02  0.12163809324E+02  0.28889448880E+02  0.43976162576E+02  0.47000000000E+01 0.  1.
<mgrwt>
<rscale>  0 0.27723473E+03</rscale>
<asrwt>0</asrwt>
<pdfrwt beam="1">  1        4 0.17211431E+00 0.27723473E+03</pdfrwt>
<pdfrwt beam="2">  1       -4 0.26423576E-02 0.27723473E+03</pdfrwt>
<totfact> 0.27084625E+02</totfact>
</mgrwt>
</event>
<event>
 9    1  0.8186049E-001  0.2769570E+03  0.7818608E-02  0.1097363E+00
          2   -1    0    0  501    0  0.00000000000E+00  0.00000000000E+00  0.28696677648E+03  0.28696677648E+03  0.00000000000E+00 0.  1.
         -2   -1    0    0    0  501 -0.00000000000E+00 -0.00000000000E+00 -0.66824087809E+02  0.66824087809E+02  0.00000000000E+00 0.  1.
         35    2    1    2    0    0  0.00000000000E+00  0.71054273576E-14  0.22014268867E+03  0.35379086429E+03  0.27695698633E+03 0.  0.
         25    2    3    3    0    0 -0.25784537912E+02 -0.33258949544E+02  0.56251671422E+02  0.14401508895E+03  0.12571831683E+03 0.  0.
         25    2    3    3    0    0  0.25784537912E+02  0.33258949544E+02  0.16389101725E+03  0.20977577534E+03  0.12399439610E+03 0.  0.
          5    1    4    4  502    0 -0.55841679611E+02  0.20567153460E+02  0.56490339358E+02  0.82186065875E+02  0.47000000000E+01 0. -1.
         -5    1    4    4    0  502  0.30057141699E+02 -0.53826103004E+02 -0.23866793610E+00  0.61829023072E+02  0.47000000000E+01 0. -1.
          5    1    5    5  503    0 -0.34529315240E+02  0.44477126647E+02  0.12449160664E+03  0.13671407582E+03  0.47000000000E+01 0. -1.
         -5    1    5    5    0  503  0.60313853152E+02 -0.11218177103E+02  0.39399410612E+02  0.73061699516E+02  0.47000000000E+01 0. -1.
<mgrwt>
<rscale>  0 0.27695699E+03</rscale>
<asrwt>0</asrwt>
<pdfrwt beam="1">  1        2 0.44148734E-01 0.27695699E+03</pdfrwt>
<pdfrwt beam="2">  1       -2 0.10280629E-01 0.27695699E+03</pdfrwt>
<totfact> 0.72325756E+03</totfact>
</mgrwt>
</event>
<event>
 9    1  0.8186049E-001  0.2691079E+03  0.7818608E-02  0.1101791E+00
         -2   -1    0    0    0  501 -0.00000000000E+00  0.00000000000E+00  0.45939077872E+02  0.45939077872E+02  0.00000000000E+00 0.  1.
          2   -1    0    0  501    0  0.00000000000E+00 -0.00000000000E+00 -0.39410391397E+03  0.39410391397E+03  0.00000000000E+00 0.  1.
         35    2    1    2    0    0  0.35527136788E-14 -0.10658141036E-13 -0.34816483609E+03  0.44004299184E+03  0.26910793666E+03 0.  0.
         25    2    3    3    0    0  0.24774297480E+02 -0.20429751010E+02 -0.11246836859E+03  0.17136789797E+03  0.12524648489E+03 0.  0.
         25    2    3    3    0    0 -0.24774297480E+02  0.20429751010E+02 -0.23569646750E+03  0.26867509387E+03  0.12490933005E+03 0.  0.
          5    1    4    4  502    0  0.40134910370E+01 -0.16390048673E+02  0.25925471265E+02  0.31288366306E+02  0.47000000000E+01 0. -1.
         -5    1    4    4    0  502  0.20760806443E+02 -0.40397023371E+01 -0.13839383986E+03  0.14007953166E+03  0.47000000000E+01 0. -1.
          5    1    5    5  503    0  0.20680697640E+02 -0.12229302557E+02  0.18759859388E+01  0.24553134609E+02  0.47000000000E+01 0.  1.
         -5    1    5    5    0  503 -0.45454995120E+02  0.32659053567E+02 -0.23757245344E+03  0.24412195926E+03  0.47000000000E+01 0.  1.
<mgrwt>
<rscale>  0 0.26910794E+03</rscale>
<asrwt>0</asrwt>
<pdfrwt beam="1">  1        2 0.60631375E-01 0.26910794E+03</pdfrwt>
<pdfrwt beam="2">  1       -2 0.70675500E-02 0.26910794E+03</pdfrwt>
<totfact> 0.92411820E+03</totfact>
</mgrwt>
</event>
<event>
 9    1  0.8186049E-001  0.2754072E+03  0.7818608E-02  0.1098224E+00
         -2   -1    0    0    0  501 -0.00000000000E+00  0.00000000000E+00  0.25060120966E+02  0.25060120966E+02  0.00000000000E+00 0. -1.
          2   -1    0    0  501    0  0.00000000000E+00 -0.00000000000E+00 -0.75667179576E+03  0.75667179576E+03  0.00000000000E+00 0. -1.
         35    2    1    2    0    0  0.00000000000E+00  0.00000000000E+00 -0.73161167479E+03  0.78173191672E+03  0.27540723835E+03 0.  0.
         25    2    3    3    0    0  0.32376122096E+02  0.39815978007E+02 -0.44294052169E+03  0.46305529965E+03  0.12486144078E+03 0.  0.
         25    2    3    3    0    0 -0.32376122096E+02 -0.39815978007E+02 -0.28867115310E+03  0.31867661707E+03  0.12486082752E+03 0.  0.
          5    1    4    4  502    0  0.26872468324E+02  0.43604389571E+02 -0.44958968757E+03  0.45252231935E+03  0.47000000000E+01 0.  1.
         -5    1    4    4    0  502  0.55036537719E+01 -0.37884115641E+01  0.66491658806E+01  0.10532980297E+02  0.47000000000E+01 0.  1.
          5    1    5    5  503    0  0.88719913875E+01  0.33441003503E+02 -0.16763310699E+03  0.17123072594E+03  0.47000000000E+01 0.  1.
         -5    1    5    5    0  503 -0.41248113484E+02 -0.73256981510E+02 -0.12103804611E+03  0.14744589113E+03  0.47000000000E+01 0.  1.
<mgrwt>
<rscale>  0 0.27540724E+03</rscale>
<asrwt>0</asrwt>
<pdfrwt beam="1">  1        2 0.11641105E+00 0.27540724E+03</pdfrwt>
<pdfrwt beam="2">  1       -2 0.38554031E-02 0.27540724E+03</pdfrwt>
<totfact> 0.11024224E+04</totfact>
</mgrwt>
</event>
<event>
 9    1  0.8186049E-001  0.2721041E+03  0.7818608E-02  0.1100081E+00
         -2   -1    0    0    0  501 -0.00000000000E+00  0.00000000000E+00  0.13722129960E+02  0.13722129960E+02  0.00000000000E+00 0. -1.
          2   -1    0    0  501    0  0.00000000000E+00 -0.00000000000E+00 -0.13489279502E+04  0.13489279502E+04  0.00000000000E+00 0. -1.
         35    2    1    2    0    0 -0.71054273576E-14  0.00000000000E+00 -0.13352058202E+04  0.13626500801E+04  0.27210413182E+03 0.  0.
         25    2    3    3    0    0  0.32519715508E+02 -0.39902316323E+02 -0.66087190843E+03  0.67495106884E+03  0.12711230954E+03 0.  0.
         25    2    3    3    0    0 -0.32519715508E+02  0.39902316323E+02 -0.67433391177E+03  0.68769901128E+03  0.12471559166E+03 0.  0.
          5    1    4    4  502    0  0.31721222457E+02 -0.42263540009E+02 -0.93104000022E+02  0.10715823621E+03  0.47000000000E+01 0. -1.
         -5    1    4    4    0  502  0.79849305029E+00  0.23612236866E+01 -0.56776790841E+03  0.56779283263E+03  0.47000000000E+01 0. -1.
          5    1    5    5  503    0 -0.37711510023E+02 -0.16752083910E+02 -0.54185456472E+03  0.54344387899E+03  0.47000000000E+01 0.  1.
         -5    1    5    5    0  503  0.51917945157E+01  0.56654400232E+02 -0.13247934705E+03  0.14425513228E+03  0.47000000000E+01 0.  1.
<mgrwt>
<rscale>  0 0.27210413E+03</rscale>
<asrwt>0</asrwt>
<pdfrwt beam="1">  1        2 0.20752735E+00 0.27210413E+03</pdfrwt>
<pdfrwt beam="2">  1       -2 0.21110972E-02 0.27210413E+03</pdfrwt>
<totfact> 0.11755994E+04</totfact>
</mgrwt>
</event>
<event>
 9    1  0.8186049E-001  0.2728823E+03  0.7818608E-02  0.1099641E+00
          1   -1    0    0  501    0  0.00000000000E+00  0.00000000000E+00  0.96242815084E+02  0.96242815084E+02  0.00000000000E+00 0. -1.
         -1   -1    0    0    0  501 -0.00000000000E+00 -0.00000000000E+00 -0.19342933098E+03  0.19342933098E+03  0.00000000000E+00 0. -1.
         35    2    1    2    0    0  0.35527136788E-14 -0.35527136788E-14 -0.97186515896E+02  0.28967214606E+03  0.27288227010E+03 0.  0.
         25    2    3    3    0    0 -0.83382698144E+01 -0.30574595858E+02 -0.27674870372E+01  0.12831783236E+03  0.12431200450E+03 0.  0.
         25    2    3    3    0    0  0.83382698144E+01  0.30574595858E+02 -0.94419028859E+02  0.16135431370E+03  0.12694852849E+03 0.  0.
          5    1    4    4  502    0 -0.24052779468E+02 -0.58599169482E+02 -0.42934398318E+02  0.76667146960E+02  0.47000000000E+01 0.  1.
         -5    1    4    4    0  502  0.15714509653E+02  0.28024573624E+02  0.40166911280E+02  0.51650685400E+02  0.47000000000E+01 0.  1.
          5    1    5    5  503    0  0.57526518556E+02 -0.18697971887E+02 -0.37704766088E+02  0.71432862715E+02  0.47000000000E+01 0.  1.
         -5    1    5    5    0  503 -0.49188248742E+02  0.49272567745E+02 -0.56714262770E+02  0.89921450989E+02  0.47000000000E+01 0.  1.
<mgrwt>
<rscale>  0 0.27288227E+03</rscale>
<asrwt>0</asrwt>
<pdfrwt beam="1">  1        1 0.14806587E-01 0.27288227E+03</pdfrwt>
<pdfrwt beam="2">  1       -1 0.29758358E-01 0.27288227E+03</pdfrwt>
<totfact> 0.39044892E+03</totfact>
</mgrwt>
</event>
<event>
 9    1  0.8186049E-001  0.2746302E+03  0.7818608E-02  0.1098658E+00
          2   -1    0    0  501    0  0.00000000000E+00  0.00000000000E+00  0.51694019323E+03  0.51694019323E+03  0.00000000000E+00 0.  1.
         -2   -1    0    0    0  501 -0.00000000000E+00 -0.00000000000E+00 -0.36475096216E+02  0.36475096216E+02  0.00000000000E+00 0.  1.
         35    2    1    2    0    0 -0.71054273576E-14  0.00000000000E+00  0.48046509701E+03  0.55341528945E+03  0.27463024805E+03 0.  0.
         25    2    3    3    0    0 -0.41711928972E+02  0.32532794893E+02  0.20076090158E+03  0.24242607438E+03  0.12516866291E+03 0.  0.
         25    2    3    3    0    0  0.41711928972E+02 -0.32532794893E+02  0.27970419544E+03  0.31098921507E+03  0.12522614416E+03 0.  0.
          5    1    4    4  502    0 -0.83350480655E+02  0.38933321392E+02  0.15279566902E+03  0.17841444059E+03  0.47000000000E+01 0. -1.
         -5    1    4    4    0  502  0.41638551683E+02 -0.64005264992E+01  0.47965232556E+02  0.64011633786E+02  0.47000000000E+01 0. -1.
          5    1    5    5  503    0 -0.41204370850E+02  0.64534391793E+01  0.63411243118E+02  0.76042901104E+02  0.47000000000E+01 0.  1.
         -5    1    5    5    0  503  0.82916299822E+02 -0.38986234072E+02  0.21629295232E+03  0.23494631396E+03  0.47000000000E+01 0.  1.
<mgrwt>
<rscale>  0 0.27463025E+03</rscale>
<asrwt>0</asrwt>
<pdfrwt beam="1">  1        2 0.79529255E-01 0.27463025E+03</pdfrwt>
<pdfrwt beam="2">  1       -2 0.56115536E-02 0.27463025E+03</pdfrwt>
<totfact> 0.97789463E+03</totfact>
</mgrwt>
</event>
<event>
 9    1  0.8186049E-001  0.2947018E+03  0.7818608E-02  0.1087920E+00
         -2   -1    0    0    0  501 -0.00000000000E+00  0.00000000000E+00  0.20859922370E+03  0.20859922370E+03  0.00000000000E+00 0.  1.
          2   -1    0    0  501    0  0.00000000000E+00 -0.00000000000E+00 -0.10408615325E+03  0.10408615325E+03  0.00000000000E+00 0.  1.
         35    2    1    2    0    0  0.00000000000E+00  0.00000000000E+00  0.10451307045E+03  0.31268537695E+03  0.29470182060E+03 0.  0.
         25    2    3    3    0    0 -0.33833751312E+01 -0.74935956912E+02  0.80036514615E+02  0.16635063326E+03  0.12505936450E+03 0.  0.
         25    2    3    3    0    0  0.33833751312E+01  0.74935956912E+02  0.24476555836E+02  0.14633474369E+03  0.12323924115E+03 0.  0.
          5    1    4    4  502    0  0.37826126582E+02 -0.78562323756E+02  0.14220664249E+02  0.88471305280E+02  0.47000000000E+01 0.  1.
         -5    1    4    4    0  502 -0.41209501713E+02  0.36263668439E+01  0.65815850365E+02  0.77879327984E+02  0.47000000000E+01 0.  1.
          5    1    5    5  503    0 -0.34024605481E+02  0.92198055107E+02  0.33431207308E+02  0.10391289990E+03  0.47000000000E+01 0. -1.
         -5    1    5    5    0  503  0.37407980612E+02 -0.17262098194E+02 -0.89546514724E+01  0.42421843790E+02  0.47000000000E+01 0. -1.
<mgrwt>
<rscale>  0 0.29470182E+03</rscale>
<asrwt>0</asrwt>
<pdfrwt beam="1">  1        2 0.16013254E-01 0.29470182E+03</pdfrwt>
<pdfrwt beam="2">  1       -2 0.32092188E-01 0.29470182E+03</pdfrwt>
<totfact> 0.32498142E+03</totfact>
</mgrwt>
</event>
<event>
 9    1  0.8186049E-001  0.2729982E+03  0.7818608E-02  0.1099576E+00
          4   -1    0    0  501    0  0.00000000000E+00  0.00000000000E+00  0.24460202980E+03  0.24460202980E+03  0.00000000000E+00 0. -1.
         -4   -1    0    0    0  501 -0.00000000000E+00 -0.00000000000E+00 -0.76172745755E+02  0.76172745755E+02  0.00000000000E+00 0. -1.
         35    2    1    2    0    0  0.00000000000E+00  0.00000000000E+00  0.16842928405E+03  0.32077477556E+03  0.27299822877E+03 0.  0.
         25    2    3    3    0    0  0.13553315975E+02  0.53481931068E+02  0.84449800000E+02  0.16179437946E+03  0.12649760148E+03 0.  0.
         25    2    3    3    0    0 -0.13553315975E+02 -0.53481931068E+02  0.83979484048E+02  0.15898039609E+03  0.12319985096E+03 0.  0.
          5    1    4    4  502    0  0.25156811899E+02 -0.37888034447E+02  0.25742416637E+02  0.52470280669E+02  0.47000000000E+01 0.  1.
         -5    1    4    4    0  502 -0.11603495924E+02  0.91369965515E+02  0.58707383363E+02  0.10932409879E+03  0.47000000000E+01 0.  1.
          5    1    5    5  503    0 -0.37796697738E+02 -0.23435234928E+02 -0.19235033552E+02  0.48681383626E+02  0.47000000000E+01 0.  1.
         -5    1    5    5    0  503  0.24243381763E+02 -0.30046696139E+02  0.10321451760E+03  0.11029901247E+03  0.47000000000E+01 0.  1.
<mgrwt>
<rscale>  0 0.27299823E+03</rscale>
<asrwt>0</asrwt>
<pdfrwt beam="1">  1        4 0.37631081E-01 0.27299823E+03</pdfrwt>
<pdfrwt beam="2">  1       -4 0.11718884E-01 0.27299823E+03</pdfrwt>
<totfact> 0.74390095E+02</totfact>
</mgrwt>
</event>
<event>
 9    1  0.8186049E-001  0.2749042E+03  0.7818608E-02  0.1098505E+00
          2   -1    0    0  501    0  0.00000000000E+00  0.00000000000E+00  0.17323855001E+04  0.17323855001E+04  0.00000000000E+00 0.  1.
         -2   -1    0    0    0  501 -0.00000000000E+00 -0.00000000000E+00 -0.10905818089E+02  0.10905818089E+02  0.00000000000E+00 0.  1.
         35    2    1    2    0    0  0.00000000000E+00  0.35527136788E-14  0.17214796820E+04  0.17432913182E+04  0.27490420968E+03 0.  0.
         25    2    3    3    0    0 -0.53045802048E+02  0.16971458200E+02  0.75554387861E+03  0.76783358769E+03  0.12497991186E+03 0.  0.
         25    2    3    3    0    0  0.53045802048E+02 -0.16971458200E+02  0.96593580340E+03  0.97545773050E+03  0.12403193215E+03 0.  0.
          5    1    4    4  502    0 -0.35293762591E+02 -0.26133548529E+02  0.65943282262E+03  0.66091024322E+03  0.47000000000E+01 0. -1.
         -5    1    4    4    0  502 -0.17752039458E+02  0.43105006729E+02  0.96111055986E+02  0.10692334447E+03  0.47000000000E+01 0. -1.
          5    1    5    5  503    0 -0.32799083352E+02 -0.13597852095E+02  0.12203517403E+03  0.12718236966E+03  0.47000000000E+01 0.  1.
         -5    1    5    5    0  503  0.85844885400E+02 -0.33736061044E+01  0.84390062937E+03  0.84827536084E+03  0.47000000000E+01 0.  1.
<mgrwt>
<rscale>  0 0.27490421E+03</rscale>
<asrwt>0</asrwt>
<pdfrwt beam="1">  1        2 0.26652063E+00 0.27490421E+03</pdfrwt>
<pdfrwt beam="2">  1       -2 0.16778195E-02 0.27490421E+03</pdfrwt>
<totfact> 0.10282482E+04</totfact>
</mgrwt>
</event>
<event>
 9    1  0.8186049E-001  0.2804343E+03  0.7818608E-02  0.1095452E+00
          4   -1    0    0  501    0  0.00000000000E+00  0.00000000000E+00  0.28612113654E+03  0.28612113654E+03  0.00000000000E+00 0.  1.
         -4   -1    0    0    0  501 -0.00000000000E+00 -0.00000000000E+00 -0.68715140043E+02  0.68715140043E+02  0.00000000000E+00 0.  1.
         35    2    1    2    0    0  0.00000000000E+00  0.14210854715E-13  0.21740599650E+03  0.35483627659E+03  0.28043433432E+03 0.  0.
         25    2    3    3    0    0  0.11241567898E+02  0.55819457643E+02  0.73199229628E+02  0.15571598336E+03  0.12508859082E+03 0.  0.
         25    2    3    3    0    0 -0.11241567898E+02 -0.55819457643E+02  0.14420676687E+03  0.19912029323E+03  0.12494444711E+03 0.  0.
          5    1    4    4  502    0 -0.36952124040E+01  0.52175575427E+02 -0.23610548399E+02  0.57580320089E+02  0.47000000000E+01 0.  1.
         -5    1    4    4    0  502  0.14936780302E+02  0.36438822153E+01  0.96809778026E+02  0.98135663267E+02  0.47000000000E+01 0.  1.
          5    1    5    5  503    0  0.27874782742E+01 -0.22922104686E+02 -0.20055810941E+02  0.30943795354E+02  0.47000000000E+01 0.  1.
         -5    1    5    5    0  503 -0.14029046172E+02 -0.32897352957E+02  0.16426257781E+03  0.16817649788E+03  0.47000000000E+01 0.  1.
<mgrwt>
<rscale>  0 0.28043433E+03</rscale>
<asrwt>0</asrwt>
<pdfrwt beam="1">  1        4 0.44018636E-01 0.28043433E+03</pdfrwt>
<pdfrwt beam="2">  1       -4 0.10571560E-01 0.28043433E+03</pdfrwt>
<totfact> 0.65195929E+02</totfact>
</mgrwt>
</event>
<event>
 9    1  0.8186049E-001  0.2759236E+03  0.7818608E-02  0.1097936E+00
          3   -1    0    0  501    0  0.00000000000E+00  0.00000000000E+00  0.27529723680E+03  0.27529723680E+03  0.00000000000E+00 0.  1.
         -3   -1    0    0    0  501 -0.00000000000E+00 -0.00000000000E+00 -0.69137840189E+02  0.69137840189E+02  0.00000000000E+00 0.  1.
         35    2    1    2    0    0  0.35527136788E-14 -0.71054273576E-14  0.20615939661E+03  0.34443507699E+03  0.27592358625E+03 0.  0.
         25    2    3    3    0    0 -0.26691300398E+02 -0.46916239425E+02  0.12842438667E+03  0.18690520842E+03  0.12460808483E+03 0.  0.
         25    2    3    3    0    0  0.26691300398E+02  0.46916239425E+02  0.77735009939E+02  0.15752986857E+03  0.12593398541E+03 0.  0.
          5    1    4    4  502    0  0.47809158105E+01  0.35293002172E+02  0.65896345379E+01  0.36523505330E+02  0.47000000000E+01 0. -1.
         -5    1    4    4    0  502 -0.31472216209E+02 -0.82209241597E+02  0.12183475214E+03  0.15038170309E+03  0.47000000000E+01 0. -1.
          5    1    5    5  503    0 -0.44213545317E+02 -0.71732696010E+01  0.11904597684E+02  0.46584362530E+02  0.47000000000E+01 0.  1.
         -5    1    5    5    0  503  0.70904845715E+02  0.54089509026E+02  0.65830412255E+02  0.11094550604E+03  0.47000000000E+01 0.  1.
<mgrwt>
<rscale>  0 0.27592359E+03</rscale>
<asrwt>0</asrwt>
<pdfrwt beam="1">  1        3 0.42353421E-01 0.27592359E+03</pdfrwt>
<pdfrwt beam="2">  1       -3 0.10636591E-01 0.27592359E+03</pdfrwt>
<totfact> 0.94062393E+02</totfact>
</mgrwt>
</event>
<event>
 9    1  0.8186049E-001  0.2752369E+03  0.7818608E-02  0.1098319E+00
          2   -1    0    0  501    0  0.00000000000E+00  0.00000000000E+00  0.10352329432E+04  0.10352329432E+04  0.00000000000E+00 0. -1.
         -2   -1    0    0    0  501 -0.00000000000E+00 -0.00000000000E+00 -0.18294279148E+02  0.18294279148E+02  0.00000000000E+00 0. -1.
         35    2    1    2    0    0  0.00000000000E+00  0.00000000000E+00  0.10169386640E+04  0.10535272223E+04  0.27523691937E+03 0.  0.
         25    2    3    3    0    0 -0.26367803679E+02  0.16251911216E+02  0.71357015972E+03  0.72419666621E+03  0.11966224473E+03 0.  0.
         25    2    3    3    0    0  0.26367803679E+02 -0.16251911216E+02  0.30336850432E+03  0.32933055613E+03  0.12436551008E+03 0.  0.
          5    1    4    4  502    0 -0.59529937080E+01  0.66626582937E+02  0.32786904954E+03  0.33465615688E+03  0.47000000000E+01 0. -1.
         -5    1    4    4    0  502 -0.20414809971E+02 -0.50374671721E+02  0.38570111018E+03  0.38954050933E+03  0.47000000000E+01 0. -1.
          5    1    5    5  503    0  0.14520476528E+02 -0.68123279879E+02  0.12544675277E+03  0.14356393447E+03  0.47000000000E+01 0. -1.
         -5    1    5    5    0  503  0.11847327151E+02  0.51871368663E+02  0.17792175156E+03  0.18576662166E+03  0.47000000000E+01 0. -1.
<mgrwt>
<rscale>  0 0.27523692E+03</rscale>
<asrwt>0</asrwt>
<pdfrwt beam="1">  1        2 0.15926656E+00 0.27523692E+03</pdfrwt>
<pdfrwt beam="2">  1       -2 0.28145053E-02 0.27523692E+03</pdfrwt>
<totfact> 0.11613567E+04</totfact>
</mgrwt>
</event>
<event>
 9    1  0.8186049E-001  0.2766953E+03  0.7818608E-02  0.1097508E+00
         -2   -1    0    0    0  501 -0.00000000000E+00  0.00000000000E+00  0.42686099856E+02  0.42686099856E+02  0.00000000000E+00 0.  1.
          2   -1    0    0  501    0  0.00000000000E+00 -0.00000000000E+00 -0.44839112664E+03  0.44839112664E+03  0.00000000000E+00 0.  1.
         35    2    1    2    0    0  0.35527136788E-14  0.00000000000E+00 -0.40570502678E+03  0.49107722649E+03  0.27669527214E+03 0.  0.
         25    2    3    3    0    0 -0.22232215489E+02  0.36029718208E+02 -0.25942354909E+03  0.29389184145E+03  0.13145122534E+03 0.  0.
         25    2    3    3    0    0  0.22232215489E+02 -0.36029718208E+02 -0.14628147769E+03  0.19718538505E+03  0.12526529193E+03 0.  0.
          5    1    4    4  502    0 -0.13831857634E+02  0.81875392570E+01  0.12172343519E+02  0.20702947410E+02  0.47000000000E+01 0.  1.
         -5    1    4    4    0  502 -0.84003578551E+01  0.27842178951E+02 -0.27159589261E+03  0.27318889404E+03  0.47000000000E+01 0.  1.
          5    1    5    5  503    0  0.48732364956E+02 -0.30895587373E+02 -0.15732962848E+03  0.16764272340E+03  0.47000000000E+01 0.  1.
         -5    1    5    5    0  503 -0.26500149467E+02 -0.51341308358E+01  0.11048150789E+02  0.29542661645E+02  0.47000000000E+01 0.  1.
<mgrwt>
<rscale>  0 0.27669527E+03</rscale>
<asrwt>0</asrwt>
<pdfrwt beam="1">  1        2 0.68983245E-01 0.27669527E+03</pdfrwt>
<pdfrwt beam="2">  1       -2 0.65670928E-02 0.27669527E+03</pdfrwt>
<totfact> 0.90009090E+03</totfact>
</mgrwt>
</event>
<event>
 9    1  0.8186049E-001  0.2703237E+03  0.7818608E-02  0.1101095E+00
          1   -1    0    0  501    0  0.00000000000E+00  0.00000000000E+00  0.79825206634E+01  0.79825206634E+01  0.00000000000E+00 0. -1.
         -1   -1    0    0    0  501 -0.00000000000E+00 -0.00000000000E+00 -0.22885902528E+04  0.22885902528E+04  0.00000000000E+00 0. -1.
         35    2    1    2    0    0  0.00000000000E+00  0.00000000000E+00 -0.22806077321E+04  0.22965727734E+04  0.27032365034E+03 0.  0.
         25    2    3    3    0    0  0.37484979754E+02 -0.38062634435E+02 -0.11297718189E+04  0.11379296991E+04  0.12508296979E+03 0.  0.
         25    2    3    3    0    0 -0.37484979754E+02  0.38062634435E+02 -0.11508359132E+04  0.11586430744E+04  0.12319329066E+03 0.  0.
          5    1    4    4  502    0  0.29316016503E+02 -0.98702748729E+01 -0.59323854988E+02  0.67069075737E+02  0.47000000000E+01 0.  1.
         -5    1    4    4    0  502  0.81689632509E+01 -0.28192359562E+02 -0.10704479640E+04  0.10708606233E+04  0.47000000000E+01 0.  1.
          5    1    5    5  503    0  0.15024393809E+02  0.67017190421E+02 -0.77186055048E+03  0.77492440638E+03  0.47000000000E+01 0.  1.
         -5    1    5    5    0  503 -0.52509373563E+02 -0.28954555986E+02 -0.37897536269E+03  0.38371866797E+03  0.47000000000E+01 0.  1.
<mgrwt>
<rscale>  0 0.27032365E+03</rscale>
<asrwt>0</asrwt>
<pdfrwt beam="1">  1        1 0.12280821E-02 0.27032365E+03</pdfrwt>
<pdfrwt beam="2">  1       -1 0.35209025E+00 0.27032365E+03</pdfrwt>
<totfact> 0.21884155E+02</totfact>
</mgrwt>
</event>
<event>
 9    1  0.8186049E-001  0.2762842E+03  0.7818608E-02  0.1097736E+00
          1   -1    0    0  501    0  0.00000000000E+00  0.00000000000E+00  0.33804796578E+02  0.33804796578E+02  0.00000000000E+00 0. -1.
         -1   -1    0    0    0  501 -0.00000000000E+00 -0.00000000000E+00 -0.56451267486E+03  0.56451267486E+03  0.00000000000E+00 0. -1.
         35    2    1    2    0    0  0.00000000000E+00  0.14210854715E-13 -0.53070787828E+03  0.59831747144E+03  0.27628417356E+03 0.  0.
         25    2    3    3    0    0 -0.25010202524E+02 -0.54951990456E+02 -0.26374555735E+03  0.29776559725E+03  0.12432779414E+03 0.  0.
         25    2    3    3    0    0  0.25010202524E+02  0.54951990456E+02 -0.26696232093E+03  0.30055187419E+03  0.12416648822E+03 0.  0.
          5    1    4    4  502    0  0.19872316549E+02  0.22892069916E+02 -0.14807384298E+03  0.15121808359E+03  0.47000000000E+01 0.  1.
         -5    1    4    4    0  502 -0.44882519073E+02 -0.77844060372E+02 -0.11567171437E+03  0.14654751366E+03  0.47000000000E+01 0.  1.
          5    1    5    5  503    0  0.44522709050E+02  0.86997030546E+02 -0.16530238404E+03  0.19208780053E+03  0.47000000000E+01 0. -1.
         -5    1    5    5    0  503 -0.19512506526E+02 -0.32045040090E+02 -0.10165993689E+03  0.10846407366E+03  0.47000000000E+01 0. -1.
<mgrwt>
<rscale>  0 0.27628417E+03</rscale>
<asrwt>0</asrwt>
<pdfrwt beam="1">  1        1 0.52007383E-02 0.27628417E+03</pdfrwt>
<pdfrwt beam="2">  1       -1 0.86848098E-01 0.27628417E+03</pdfrwt>
<totfact> 0.21584800E+03</totfact>
</mgrwt>
</event>
<event>
 9    1  0.8186049E-001  0.2754164E+03  0.7818608E-02  0.1098219E+00
          1   -1    0    0  501    0  0.00000000000E+00  0.00000000000E+00  0.24426265458E+02  0.24426265458E+02  0.00000000000E+00 0.  1.
         -1   -1    0    0    0  501 -0.00000000000E+00 -0.00000000000E+00 -0.77635910127E+03  0.77635910127E+03  0.00000000000E+00 0.  1.
         35    2    1    2    0    0  0.00000000000E+00  0.00000000000E+00 -0.75193283581E+03  0.80078536673E+03  0.27541643741E+03 0.  0.
         25    2    3    3    0    0 -0.36592786481E+02 -0.35035558205E+01 -0.27954210139E+03  0.30891674223E+03  0.12623177197E+03 0.  0.
         25    2    3    3    0    0  0.36592786481E+02  0.35035558205E+01 -0.47239073443E+03  0.49186862450E+03  0.13202435712E+03 0.  0.
          5    1    4    4  502    0 -0.18553291738E+02 -0.64568415770E+02 -0.13335547024E+03  0.14939570406E+03  0.47000000000E+01 0. -1.
         -5    1    4    4    0  502 -0.18039494744E+02  0.61064859949E+02 -0.14618663115E+03  0.15952103816E+03  0.47000000000E+01 0. -1.
          5    1    5    5  503    0 -0.17057287586E+00  0.52320286608E+02 -0.86961639761E+02  0.10159654657E+03  0.47000000000E+01 0.  1.
         -5    1    5    5    0  503  0.36763359357E+02 -0.48816730788E+02 -0.38542909467E+03  0.39027207793E+03  0.47000000000E+01 0.  1.
<mgrwt>
<rscale>  0 0.27541644E+03</rscale>
<asrwt>0</asrwt>
<pdfrwt beam="1">  1        1 0.37578868E-02 0.27541644E+03</pdfrwt>
<pdfrwt beam="2">  1       -1 0.11943987E+00 0.27541644E+03</pdfrwt>
<totfact> 0.16590376E+03</totfact>
</mgrwt>
</event>
<event>
 9    1  0.8186049E-001  0.2750947E+03  0.7818608E-02  0.1098399E+00
          2   -1    0    0  501    0  0.00000000000E+00  0.00000000000E+00  0.21056238146E+04  0.21056238146E+04  0.00000000000E+00 0.  1.
         -2   -1    0    0    0  501 -0.00000000000E+00 -0.00000000000E+00 -0.89851163162E+01  0.89851163162E+01  0.00000000000E+00 0.  1.
         35    2    1    2    0    0  0.00000000000E+00  0.00000000000E+00  0.20966386983E+04  0.21146089309E+04  0.27509471018E+03 0.  0.
         25    2    3    3    0    0 -0.24267805418E+02  0.35660237777E+02  0.15221711176E+04  0.15275573721E+04  0.12068982913E+03 0.  0.
         25    2    3    3    0    0  0.24267805418E+02 -0.35660237777E+02  0.57446758071E+03  0.58705155884E+03  0.11294225302E+03 0.  0.
          5    1    4    4  502    0 -0.23424417488E+02  0.78865838421E+02  0.11251814918E+04  0.11281950201E+04  0.47000000000E+01 0. -1.
         -5    1    4    4    0  502 -0.84338792940E+00 -0.43205600644E+02  0.39698962578E+03  0.39936235201E+03  0.47000000000E+01 0. -1.
          5    1    5    5  503    0  0.25050433963E+02 -0.66754041225E+02  0.51349450184E+03  0.51844220477E+03  0.47000000000E+01 0.  1.
         -5    1    5    5    0  503 -0.78262854520E+00  0.31093803448E+02  0.60973078866E+02  0.68609354076E+02  0.47000000000E+01 0.  1.
<mgrwt>
<rscale>  0 0.27509471E+03</rscale>
<asrwt>0</asrwt>
<pdfrwt beam="1">  1        2 0.32394173E+00 0.27509471E+03</pdfrwt>
<pdfrwt beam="2">  1       -2 0.13823273E-02 0.27509471E+03</pdfrwt>
<totfact> 0.86887379E+03</totfact>
</mgrwt>
</event>
<event>
 9    1  0.8186049E-001  0.2695274E+03  0.7818608E-02  0.1101550E+00
         -2   -1    0    0    0  501 -0.00000000000E+00  0.00000000000E+00  0.14598383172E+03  0.14598383172E+03  0.00000000000E+00 0.  1.
          2   -1    0    0  501    0  0.00000000000E+00 -0.00000000000E+00 -0.12440597037E+03  0.12440597037E+03  0.00000000000E+00 0.  1.
         35    2    1    2    0    0 -0.71054273576E-14  0.00000000000E+00  0.21577861353E+02  0.27038980208E+03  0.26952744011E+03 0.  0.
         25    2    3    3    0    0  0.44682131628E+02 -0.24146364074E+02  0.15692274153E+02  0.13602729315E+03  0.12521037189E+03 0.  0.
         25    2    3    3    0    0 -0.44682131628E+02  0.24146364074E+02  0.58855871993E+01  0.13436250894E+03  0.12425419062E+03 0.  0.
          5    1    4    4  502    0 -0.41327340272E+02 -0.25726581453E+02  0.37390836577E+01  0.49049737959E+02  0.47000000000E+01 0. -1.
         -5    1    4    4    0  502  0.86009471900E+02  0.15802173795E+01  0.11953190496E+02  0.86977555188E+02  0.47000000000E+01 0. -1.
          5    1    5    5  503    0  0.39193289231E+02  0.13864289697E+02  0.23397227082E+02  0.47935922696E+02  0.47000000000E+01 0. -1.
         -5    1    5    5    0  503 -0.83875420859E+02  0.10282074377E+02 -0.17511639883E+02  0.86426586240E+02  0.47000000000E+01 0. -1.
<mgrwt>
<rscale>  0 0.26952744E+03</rscale>
<asrwt>0</asrwt>
<pdfrwt beam="1">  1        2 0.19139380E-01 0.26952744E+03</pdfrwt>
<pdfrwt beam="2">  1       -2 0.22459051E-01 0.26952744E+03</pdfrwt>
<totfact> 0.49810743E+03</totfact>
</mgrwt>
</event>
<event>
 9    1  0.8186049E-001  0.2712413E+03  0.7818608E-02  0.1100571E+00
          4   -1    0    0  501    0  0.00000000000E+00  0.00000000000E+00  0.59781573170E+02  0.59781573170E+02  0.00000000000E+00 0. -1.
         -4   -1    0    0    0  501 -0.00000000000E+00 -0.00000000000E+00 -0.30766930669E+03  0.30766930669E+03  0.00000000000E+00 0. -1.
         35    2    1    2    0    0  0.71054273576E-14 -0.17763568394E-14 -0.24788773352E+03  0.36745087986E+03  0.27124125918E+03 0.  0.
         25    2    3    3    0    0 -0.51437873965E+02  0.10686902920E+02 -0.13084255429E+03  0.18843808051E+03  0.12501628454E+03 0.  0.
         25    2    3    3    0    0  0.51437873965E+02 -0.10686902920E+02 -0.11704517923E+03  0.17901279935E+03  0.12484367656E+03 0.  0.
          5    1    4    4  502    0  0.40296368460E+02 -0.92235609262E+01 -0.38902729085E+02  0.56959491900E+02  0.47000000000E+01 0.  1.
         -5    1    4    4    0  502 -0.91734242426E+02  0.19910463847E+02 -0.91939825201E+02  0.13147858861E+03  0.47000000000E+01 0.  1.
          5    1    5    5  503    0 -0.26030986550E+02  0.19664496766E+01  0.11027316355E+02  0.28725787911E+02  0.47000000000E+01 0. -1.
         -5    1    5    5    0  503  0.77468860515E+02 -0.12653352597E+02 -0.12807249559E+03  0.15028701144E+03  0.47000000000E+01 0. -1.
<mgrwt>
<rscale>  0 0.27124126E+03</rscale>
<asrwt>0</asrwt>
<pdfrwt beam="1">  1        4 0.91971652E-02 0.27124126E+03</pdfrwt>
<pdfrwt beam="2">  1       -4 0.47333739E-01 0.27124126E+03</pdfrwt>
<totfact> 0.70956944E+02</totfact>
</mgrwt>
</event>
<event>
 9    1  0.8186049E-001  0.2875424E+03  0.7818608E-02  0.1091639E+00
          2   -1    0    0  501    0  0.00000000000E+00  0.00000000000E+00  0.80207269487E+03  0.80207269487E+03  0.00000000000E+00 0. -1.
         -2   -1    0    0    0  501 -0.00000000000E+00 -0.00000000000E+00 -0.25770931491E+02  0.25770931491E+02  0.00000000000E+00 0. -1.
         35    2    1    2    0    0  0.35527136788E-14  0.00000000000E+00  0.77630176338E+03  0.82784362636E+03  0.28754241753E+03 0.  0.
         25    2    3    3    0    0 -0.19834894880E+02  0.71879141256E+02  0.41928542374E+03  0.44229507331E+03  0.11943463193E+03 0.  0.
         25    2    3    3    0    0  0.19834894880E+02 -0.71879141256E+02  0.35701633963E+03  0.38554855305E+03  0.12500794372E+03 0.  0.
          5    1    4    4  502    0 -0.54741460888E+02  0.66954774737E+02  0.37803657818E+03  0.38783155343E+03  0.47000000000E+01 0. -1.
         -5    1    4    4    0  502  0.34906566008E+02  0.49243665189E+01  0.41248845568E+02  0.54463519872E+02  0.47000000000E+01 0. -1.
          5    1    5    5  503    0 -0.22341746615E+02  0.28480298959E+02  0.83731630650E+02  0.91341978531E+02  0.47000000000E+01 0. -1.
         -5    1    5    5    0  503  0.42176641495E+02 -0.10035944022E+03  0.27328470898E+03  0.29420657452E+03  0.47000000000E+01 0. -1.
<mgrwt>
<rscale>  0 0.28754242E+03</rscale>
<asrwt>0</asrwt>
<pdfrwt beam="1">  1        2 0.12339578E+00 0.28754242E+03</pdfrwt>
<pdfrwt beam="2">  1       -2 0.39647593E-02 0.28754242E+03</pdfrwt>
<totfact> 0.98351553E+03</totfact>
</mgrwt>
</event>
<event>
 9    1  0.8186049E-001  0.2949340E+03  0.7818608E-02  0.1087801E+00
          3   -1    0    0  501    0  0.00000000000E+00  0.00000000000E+00  0.12202257362E+03  0.12202257362E+03  0.00000000000E+00 0.  1.
         -3   -1    0    0    0  501 -0.00000000000E+00 -0.00000000000E+00 -0.17821716669E+03  0.17821716669E+03  0.00000000000E+00 0.  1.
         35    2    1    2    0    0 -0.71054273576E-14  0.35527136788E-14 -0.56194593076E+02  0.30023974031E+03  0.29493400850E+03 0.  0.
         25    2    3    3    0    0 -0.63703570770E+02  0.18665304254E+02  0.14337913022E+02  0.14251027985E+03  0.12528793079E+03 0.  0.
         25    2    3    3    0    0  0.63703570770E+02 -0.18665304254E+02 -0.70532506098E+02  0.15772946046E+03  0.12448778963E+03 0.  0.
          5    1    4    4  502    0 -0.78232197297E+02 -0.26555054485E+02 -0.18222934925E+02  0.84732596855E+02  0.47000000000E+01 0. -1.
         -5    1    4    4    0  502  0.14528626527E+02  0.45220358739E+02  0.32560847948E+02  0.57777682995E+02  0.47000000000E+01 0. -1.
          5    1    5    5  503    0 -0.23293409063E+02 -0.16001785632E+02 -0.64239467466E+02  0.70338035440E+02  0.47000000000E+01 0. -1.
         -5    1    5    5    0  503  0.86996979832E+02 -0.26635186221E+01 -0.62930386320E+01  0.87391425018E+02  0.47000000000E+01 0. -1.
<mgrwt>
<rscale>  0 0.29493401E+03</rscale>
<asrwt>0</asrwt>
<pdfrwt beam="1">  1        3 0.18772704E-01 0.29493401E+03</pdfrwt>
<pdfrwt beam="2">  1       -3 0.27418026E-01 0.29493401E+03</pdfrwt>
<totfact> 0.81513090E+02</totfact>
</mgrwt>
</event>
<event>
 9    1  0.8186049E-001  0.2736710E+03  0.7818608E-02  0.1099197E+00
         -2   -1    0    0    0  501 -0.00000000000E+00  0.00000000000E+00  0.15642130317E+03  0.15642130317E+03  0.00000000000E+00 0. -1.
          2   -1    0    0  501    0  0.00000000000E+00 -0.00000000000E+00 -0.11970210709E+03  0.11970210709E+03  0.00000000000E+00 0. -1.
         35    2    1    2    0    0  0.35527136788E-14  0.17763568394E-14  0.36719196081E+02  0.27612341026E+03  0.27367104036E+03 0.  0.
         25    2    3    3    0    0 -0.37796220240E+01  0.50126793727E+01  0.70741541004E+02  0.14569893622E+03  0.12721793071E+03 0.  0.
         25    2    3    3    0    0  0.37796220240E+01 -0.50126793727E+01 -0.34022344923E+02  0.13042447404E+03  0.12575218081E+03 0.  0.
          5    1    4    4  502    0  0.18019394115E+02  0.61567391230E+02  0.49985130309E+02  0.81460698985E+02  0.47000000000E+01 0. -1.
         -5    1    4    4    0  502 -0.21799016139E+02 -0.56554711857E+02  0.20756410695E+02  0.64238237233E+02  0.47000000000E+01 0. -1.
          5    1    5    5  503    0  0.47000348856E+02 -0.43212227821E+01  0.27697342488E+02  0.54926665107E+02  0.47000000000E+01 0. -1.
         -5    1    5    5    0  503 -0.43220726832E+02 -0.69145659068E+00 -0.61719687411E+02  0.75497808936E+02  0.47000000000E+01 0. -1.
<mgrwt>
<rscale>  0 0.27367104E+03</rscale>
<asrwt>0</asrwt>
<pdfrwt beam="1">  1        2 0.18415709E-01 0.27367104E+03</pdfrwt>
<pdfrwt beam="2">  1       -2 0.24064816E-01 0.27367104E+03</pdfrwt>
<totfact> 0.46186090E+03</totfact>
</mgrwt>
</event>
<event>
 9    1  0.8186049E-001  0.2770807E+03  0.7818608E-02  0.1097294E+00
         -2   -1    0    0    0  501 -0.00000000000E+00  0.00000000000E+00  0.14186944410E+02  0.14186944410E+02  0.00000000000E+00 0.  1.
          2   -1    0    0  501    0  0.00000000000E+00 -0.00000000000E+00 -0.13528940165E+04  0.13528940165E+04  0.00000000000E+00 0.  1.
         35    2    1    2    0    0  0.00000000000E+00  0.00000000000E+00 -0.13387070721E+04  0.13670809609E+04  0.27708072618E+03 0.  0.
         25    2    3    3    0    0 -0.34819523527E+02  0.38295411718E+02 -0.80856599958E+03  0.81985372683E+03  0.12530849906E+03 0.  0.
         25    2    3    3    0    0  0.34819523527E+02 -0.38295411718E+02 -0.53014107250E+03  0.54722723408E+03  0.12541591280E+03 0.  0.
          5    1    4    4  502    0  0.23532916318E+02  0.49976620203E+02 -0.17715629636E+03  0.18562840315E+03  0.47000000000E+01 0. -1.
         -5    1    4    4    0  502 -0.58352439845E+02 -0.11681208485E+02 -0.63140970322E+03  0.63422532368E+03  0.47000000000E+01 0. -1.
          5    1    5    5  503    0 -0.12883068307E+02 -0.46996787985E+02 -0.45531613686E+03  0.45794054856E+03  0.47000000000E+01 0.  1.
         -5    1    5    5    0  503  0.47702591834E+02  0.87013762677E+01 -0.74824935643E+02  0.89286685517E+02  0.47000000000E+01 0.  1.
<mgrwt>
<rscale>  0 0.27708073E+03</rscale>
<asrwt>0</asrwt>
<pdfrwt beam="1">  1        2 0.20813750E+00 0.27708073E+03</pdfrwt>
<pdfrwt beam="2">  1       -2 0.21826073E-02 0.27708073E+03</pdfrwt>
<totfact> 0.11141799E+04</totfact>
</mgrwt>
</event>
<event>
 9    1  0.8186049E-001  0.2726982E+03  0.7818608E-02  0.1099745E+00
          2   -1    0    0  501    0  0.00000000000E+00  0.00000000000E+00  0.45247264164E+02  0.45247264164E+02  0.00000000000E+00 0. -1.
         -2   -1    0    0    0  501 -0.00000000000E+00 -0.00000000000E+00 -0.41087751366E+03  0.41087751366E+03  0.00000000000E+00 0. -1.
         35    2    1    2    0    0  0.71054273576E-14 -0.35527136788E-14 -0.36563024950E+03  0.45612477783E+03  0.27269824642E+03 0.  0.
         25    2    3    3    0    0 -0.48005642554E+02  0.24540482106E+02 -0.17161942308E+03  0.21935251745E+03  0.12552100842E+03 0.  0.
         25    2    3    3    0    0  0.48005642554E+02 -0.24540482106E+02 -0.19401082642E+03  0.23677226037E+03  0.12455571258E+03 0.  0.
          5    1    4    4  502    0 -0.16442161072E+02  0.52656494446E+02 -0.15426616980E+02  0.57472789906E+02  0.47000000000E+01 0. -1.
         -5    1    4    4    0  502 -0.31563481482E+02 -0.28116012340E+02 -0.15619280610E+03  0.16187972755E+03  0.47000000000E+01 0. -1.
          5    1    5    5  503    0  0.83765760227E+02 -0.13060387606E+02 -0.17478852585E+03  0.19432034140E+03  0.47000000000E+01 0. -1.
         -5    1    5    5    0  503 -0.35760117673E+02 -0.11480094501E+02 -0.19222300564E+02  0.42451918976E+02  0.47000000000E+01 0. -1.
<mgrwt>
<rscale>  0 0.27269825E+03</rscale>
<asrwt>0</asrwt>
<pdfrwt beam="1">  1        2 0.69611176E-02 0.27269825E+03</pdfrwt>
<pdfrwt beam="2">  1       -2 0.63211925E-01 0.27269825E+03</pdfrwt>
<totfact> 0.24046394E+03</totfact>
</mgrwt>
</event>
<event>
 9    1  0.8186049E-001  0.2737962E+03  0.7818608E-02  0.1099126E+00
         -1   -1    0    0    0  501 -0.00000000000E+00  0.00000000000E+00  0.22895780674E+03  0.22895780674E+03  0.00000000000E+00 0.  1.
          1   -1    0    0  501    0  0.00000000000E+00 -0.00000000000E+00 -0.81853880025E+02  0.81853880025E+02  0.00000000000E+00 0.  1.
         35    2    1    2    0    0  0.00000000000E+00  0.71054273576E-14  0.14710392672E+03  0.31081168677E+03  0.27379616392E+03 0.  0.
         25    2    3    3    0    0 -0.34830875732E+02  0.33100203277E+02  0.87172901111E+02  0.16399599308E+03  0.13033325629E+03 0.  0.
         25    2    3    3    0    0  0.34830875732E+02 -0.33100203277E+02  0.59931025604E+02  0.14681569369E+03  0.12511717197E+03 0.  0.
          5    1    4    4  502    0 -0.84099812871E+02  0.13029740103E+02  0.48594808976E+02  0.98112680687E+02  0.47000000000E+01 0. -1.
         -5    1    4    4    0  502  0.49268937139E+02  0.20070463174E+02  0.38578092136E+02  0.65883312391E+02  0.47000000000E+01 0. -1.
          5    1    5    5  503    0  0.16739450247E+02  0.47517434853E+02  0.15685175182E+02  0.52973866482E+02  0.47000000000E+01 0.  1.
         -5    1    5    5    0  503  0.18091425486E+02 -0.80617638130E+02  0.44245850422E+02  0.93841827205E+02  0.47000000000E+01 0.  1.
<mgrwt>
<rscale>  0 0.27379616E+03</rscale>
<asrwt>0</asrwt>
<pdfrwt beam="1">  1        1 0.12592905E-01 0.27379616E+03</pdfrwt>
<pdfrwt beam="2">  1       -1 0.35224278E-01 0.27379616E+03</pdfrwt>
<totfact> 0.36186528E+03</totfact>
</mgrwt>
</event>
<event>
 9    1  0.8186049E-001  0.2747562E+03  0.7818608E-02  0.1098588E+00
          1   -1    0    0  501    0  0.00000000000E+00  0.00000000000E+00  0.16373150211E+02  0.16373150211E+02  0.00000000000E+00 0. -1.
         -1   -1    0    0    0  501 -0.00000000000E+00 -0.00000000000E+00 -0.11526639043E+04  0.11526639043E+04  0.00000000000E+00 0. -1.
         35    2    1    2    0    0  0.00000000000E+00  0.00000000000E+00 -0.11362907541E+04  0.11690370545E+04  0.27475617735E+03 0.  0.
         25    2    3    3    0    0  0.24694729612E+02 -0.38971952293E+02 -0.42963864302E+03  0.44997114968E+03  0.12552302273E+03 0.  0.
         25    2    3    3    0    0 -0.24694729612E+02  0.38971952293E+02 -0.70665211104E+03  0.71906590480E+03  0.12477951223E+03 0.  0.
          5    1    4    4  502    0  0.78847660044E+01 -0.45118604243E+01  0.65041438961E+01  0.12121068734E+02  0.47000000000E+01 0.  1.
         -5    1    4    4    0  502  0.16809963607E+02 -0.34460091868E+02 -0.43614278692E+03  0.43785008095E+03  0.47000000000E+01 0.  1.
          5    1    5    5  503    0  0.91214071105E+01  0.29960627120E+02 -0.37932138818E+02  0.49414333957E+02  0.47000000000E+01 0. -1.
         -5    1    5    5    0  503 -0.33816136722E+02  0.90113251726E+01 -0.66871997222E+03  0.66965157085E+03  0.47000000000E+01 0. -1.
<mgrwt>
<rscale>  0 0.27475618E+03</rscale>
<asrwt>0</asrwt>
<pdfrwt beam="1">  1        1 0.25189459E-02 0.27475618E+03</pdfrwt>
<pdfrwt beam="2">  1       -1 0.17733293E+00 0.27475618E+03</pdfrwt>
<totfact> 0.10415253E+03</totfact>
</mgrwt>
</event>
<event>
 9    1  0.8186049E-001  0.2729025E+03  0.7818608E-02  0.1099630E+00
         -1   -1    0    0    0  501 -0.00000000000E+00  0.00000000000E+00  0.52303619709E+02  0.52303619709E+02  0.00000000000E+00 0. -1.
          1   -1    0    0  501    0  0.00000000000E+00 -0.00000000000E+00 -0.35597816754E+03  0.35597816754E+03  0.00000000000E+00 0. -1.
         35    2    1    2    0    0  0.71054273576E-14  0.35527136788E-14 -0.30367454783E+03  0.40828178725E+03  0.27290252252E+03 0.  0.
         25    2    3    3    0    0  0.11640236942E+02 -0.99186605817E+00 -0.22109014884E+03  0.25801308676E+03  0.13248932073E+03 0.  0.
         25    2    3    3    0    0 -0.11640236942E+02  0.99186605817E+00 -0.82584398985E+02  0.15026870049E+03  0.12499608184E+03 0.  0.
          5    1    4    4  502    0  0.63078428494E+02  0.20538879164E+02 -0.16878429267E+03  0.18141378435E+03  0.47000000000E+01 0.  1.
         -5    1    4    4    0  502 -0.51438191552E+02 -0.21530745222E+02 -0.52305856173E+02  0.76599302412E+02  0.47000000000E+01 0.  1.
          5    1    5    5  503    0 -0.51251599413E+02 -0.40851330288E+02 -0.30444506154E+02  0.72419027773E+02  0.47000000000E+01 0.  1.
         -5    1    5    5    0  503  0.39611362471E+02  0.41843196346E+02 -0.52139892831E+02  0.77849672714E+02  0.47000000000E+01 0.  1.
<mgrwt>
<rscale>  0 0.27290252E+03</rscale>
<asrwt>0</asrwt>
<pdfrwt beam="1">  1        1 0.54765870E-01 0.27290252E+03</pdfrwt>
<pdfrwt beam="2">  1       -1 0.80467110E-02 0.27290252E+03</pdfrwt>
<totfact> 0.59696537E+03</totfact>
</mgrwt>
</event>
<event>
 9    1  0.8186049E-001  0.2898888E+03  0.7818608E-02  0.1090407E+00
          4   -1    0    0  501    0  0.00000000000E+00  0.00000000000E+00  0.78031051955E+03  0.78031051955E+03  0.00000000000E+00 0.  1.
         -4   -1    0    0    0  501 -0.00000000000E+00 -0.00000000000E+00 -0.26923735923E+02  0.26923735923E+02  0.00000000000E+00 0.  1.
         35    2    1    2    0    0 -0.35527136788E-14  0.71054273576E-14  0.75338678363E+03  0.80723425548E+03  0.28988876740E+03 0.  0.
         25    2    3    3    0    0 -0.48521070437E+01  0.60901886675E+02  0.33472356960E+03  0.36253858340E+03  0.12514700819E+03 0.  0.
         25    2    3    3    0    0  0.48521070437E+01 -0.60901886675E+02  0.41866321403E+03  0.44469567208E+03  0.13690424115E+03 0.  0.
          5    1    4    4  502    0  0.41132631242E+02  0.63686201779E+01  0.24126176118E+03  0.24487094577E+03  0.47000000000E+01 0.  1.
         -5    1    4    4    0  502 -0.45984738286E+02  0.54533266497E+02  0.93461808425E+02  0.11766763762E+03  0.47000000000E+01 0.  1.
          5    1    5    5  503    0  0.20684873986E+02  0.12656149733E+02  0.62917837020E+01  0.25489579833E+02  0.47000000000E+01 0.  1.
         -5    1    5    5    0  503 -0.15832766943E+02 -0.73558036409E+02  0.41237143032E+03  0.41920609225E+03  0.47000000000E+01 0.  1.
<mgrwt>
<rscale>  0 0.28988877E+03</rscale>
<asrwt>0</asrwt>
<pdfrwt beam="1">  1        4 0.12004776E+00 0.28988877E+03</pdfrwt>
<pdfrwt beam="2">  1       -4 0.41421138E-02 0.28988877E+03</pdfrwt>
<totfact> 0.33638467E+02</totfact>
</mgrwt>
</event>
<event>
 9    1  0.8186049E-001  0.2746674E+03  0.7818608E-02  0.1098638E+00
         -1   -1    0    0    0  501 -0.00000000000E+00  0.00000000000E+00  0.77224954474E+02  0.77224954474E+02  0.00000000000E+00 0.  1.
          1   -1    0    0  501    0  0.00000000000E+00 -0.00000000000E+00 -0.24422863063E+03  0.24422863063E+03  0.00000000000E+00 0.  1.
         35    2    1    2    0    0  0.00000000000E+00  0.00000000000E+00 -0.16700367615E+03  0.32145358510E+03  0.27466739800E+03 0.  0.
         25    2    3    3    0    0  0.30581977172E+02 -0.53915700485E+01 -0.27651056537E+02  0.13194734383E+03  0.12522457530E+03 0.  0.
         25    2    3    3    0    0 -0.30581977172E+02  0.53915700485E+01 -0.13935261962E+03  0.18950624128E+03  0.12461595617E+03 0.  0.
          5    1    4    4  502    0  0.19645749992E+02  0.55130409713E+02  0.10177091010E+02  0.59590106136E+02  0.47000000000E+01 0. -1.
         -5    1    4    4    0  502  0.10936227180E+02 -0.60521979762E+02 -0.37828147547E+02  0.72357237689E+02  0.47000000000E+01 0. -1.
          5    1    5    5  503    0 -0.96249600836E+01  0.38135463445E+02  0.50100491284E+01  0.39926733163E+02  0.47000000000E+01 0. -1.
         -5    1    5    5    0  503 -0.20957017088E+02 -0.32743893397E+02 -0.14436266875E+03  0.14957950811E+03  0.47000000000E+01 0. -1.
<mgrwt>
<rscale>  0 0.27466740E+03</rscale>
<asrwt>0</asrwt>
<pdfrwt beam="1">  1        1 0.37573635E-01 0.27466740E+03</pdfrwt>
<pdfrwt beam="2">  1       -1 0.11880762E-01 0.27466740E+03</pdfrwt>
<totfact> 0.52573496E+03</totfact>
</mgrwt>
</event>
<event>
 9    1  0.8186049E-001  0.2761501E+03  0.7818608E-02  0.1097810E+00
          1   -1    0    0  501    0  0.00000000000E+00  0.00000000000E+00  0.99946012313E+02  0.99946012313E+02  0.00000000000E+00 0.  1.
         -1   -1    0    0    0  501 -0.00000000000E+00 -0.00000000000E+00 -0.19075014052E+03  0.19075014052E+03  0.00000000000E+00 0.  1.
         35    2    1    2    0    0  0.35527136788E-14  0.35527136788E-14 -0.90804128209E+02  0.29069615284E+03  0.27615007437E+03 0.  0.
         25    2    3    3    0    0  0.67151843665E+01  0.31710777551E+02 -0.89103632245E+02  0.16233782212E+03  0.13177042193E+03 0.  0.
         25    2    3    3    0    0 -0.67151843665E+01 -0.31710777551E+02 -0.17004959644E+01  0.12835833072E+03  0.12418656233E+03 0.  0.
          5    1    4    4  502    0 -0.32790453825E+02 -0.39979043634E+02 -0.21995896489E+02  0.56386587539E+02  0.47000000000E+01 0.  1.
         -5    1    4    4    0  502  0.39505638191E+02  0.71689821186E+02 -0.67107735756E+02  0.10595123458E+03  0.47000000000E+01 0.  1.
          5    1    5    5  503    0  0.20701881621E+02  0.18066264432E+02  0.46152422711E+02  0.53917473376E+02  0.47000000000E+01 0. -1.
         -5    1    5    5    0  503 -0.27417065987E+02 -0.49777041984E+02 -0.47852918675E+02  0.74440857342E+02  0.47000000000E+01 0. -1.
<mgrwt>
<rscale>  0 0.27615007E+03</rscale>
<asrwt>0</asrwt>
<pdfrwt beam="1">  1        1 0.15376310E-01 0.27615007E+03</pdfrwt>
<pdfrwt beam="2">  1       -1 0.29346176E-01 0.27615007E+03</pdfrwt>
<totfact> 0.38062242E+03</totfact>
</mgrwt>
</event>
<event>
 9    1  0.8186049E-001  0.2757207E+03  0.7818608E-02  0.1098049E+00
          2   -1    0    0  501    0  0.00000000000E+00  0.00000000000E+00  0.57575237211E+03  0.57575237211E+03  0.00000000000E+00 0. -1.
         -2   -1    0    0    0  501 -0.00000000000E+00 -0.00000000000E+00 -0.33009810504E+02  0.33009810504E+02  0.00000000000E+00 0. -1.
         35    2    1    2    0    0 -0.14210854715E-13 -0.35527136788E-14  0.54274256161E+03  0.60876218262E+03  0.27572070434E+03 0.  0.
         25    2    3    3    0    0 -0.59776630960E+02  0.12489985054E+02  0.22867059542E+03  0.26522963865E+03  0.11969659424E+03 0.  0.
         25    2    3    3    0    0  0.59776630960E+02 -0.12489985054E+02  0.31407196619E+03  0.34353254397E+03  0.12507663045E+03 0.  0.
          5    1    4    4  502    0 -0.56719452637E+02 -0.27602459038E+01  0.23918338786E+03  0.24587699830E+03  0.47000000000E+01 0.  1.
         -5    1    4    4    0  502 -0.30571783231E+01  0.15250230958E+02 -0.10512792440E+02  0.19352640348E+02  0.47000000000E+01 0.  1.
          5    1    5    5  503    0 -0.24995635641E+02 -0.27925431883E+02  0.18121868218E+03  0.18511324188E+03  0.47000000000E+01 0. -1.
         -5    1    5    5    0  503  0.84772266602E+02  0.15435446829E+02  0.13285328401E+03  0.15841930209E+03  0.47000000000E+01 0. -1.
<mgrwt>
<rscale>  0 0.27572070E+03</rscale>
<asrwt>0</asrwt>
<pdfrwt beam="1">  1        2 0.88577281E-01 0.27572070E+03</pdfrwt>
<pdfrwt beam="2">  1       -2 0.50784328E-02 0.27572070E+03</pdfrwt>
<totfact> 0.10074923E+04</totfact>
</mgrwt>
</event>
<event>
 9    1  0.8186049E-001  0.2757582E+03  0.7818608E-02  0.1098029E+00
          2   -1    0    0  501    0  0.00000000000E+00  0.00000000000E+00  0.11669616338E+03  0.11669616338E+03  0.00000000000E+00 0. -1.
         -2   -1    0    0    0  501 -0.00000000000E+00 -0.00000000000E+00 -0.16290718656E+03  0.16290718656E+03  0.00000000000E+00 0. -1.
         35    2    1    2    0    0  0.00000000000E+00 -0.14210854715E-13 -0.46211023180E+02  0.27960334995E+03  0.27575818145E+03 0.  0.
         25    2    3    3    0    0 -0.28718121389E+02 -0.52686661193E+02 -0.25639871247E+02  0.14130996641E+03  0.12534148892E+03 0.  0.
         25    2    3    3    0    0  0.28718121389E+02  0.52686661193E+02 -0.20571151933E+02  0.13829338354E+03  0.12288723642E+03 0.  0.
          5    1    4    4  502    0 -0.76381132925E+02 -0.44905034860E+02 -0.27074034103E+02  0.92766550789E+02  0.47000000000E+01 0. -1.
         -5    1    4    4    0  502  0.47663011536E+02 -0.77816263326E+01  0.14341628560E+01  0.48543415621E+02  0.47000000000E+01 0. -1.
          5    1    5    5  503    0  0.67239222984E+02  0.36624918050E+01  0.10764884785E+02  0.68355685193E+02  0.47000000000E+01 0.  1.
         -5    1    5    5    0  503 -0.38521101595E+02  0.49024169388E+02 -0.31336036719E+02  0.69937698343E+02  0.47000000000E+01 0.  1.
<mgrwt>
<rscale>  0 0.27575818E+03</rscale>
<asrwt>0</asrwt>
<pdfrwt beam="1">  1        2 0.17953256E-01 0.27575818E+03</pdfrwt>
<pdfrwt beam="2">  1       -2 0.25062644E-01 0.27575818E+03</pdfrwt>
<totfact> 0.44296518E+03</totfact>
</mgrwt>
</event>
<event>
 9    1  0.8186049E-001  0.2742529E+03  0.7818608E-02  0.1098870E+00
          2   -1    0    0  501    0  0.00000000000E+00  0.00000000000E+00  0.88053074862E+03  0.88053074862E+03  0.00000000000E+00 0.  1.
         -2   -1    0    0    0  501 -0.00000000000E+00 -0.00000000000E+00 -0.21354915783E+02  0.21354915783E+02  0.00000000000E+00 0.  1.
         35    2    1    2    0    0  0.00000000000E+00  0.00000000000E+00  0.85917583283E+03  0.90188566440E+03  0.27425287588E+03 0.  0.
         25    2    3    3    0    0 -0.13887173272E+02  0.90330899053E-01  0.61064433799E+03  0.62345707108E+03  0.12497739885E+03 0.  0.
         25    2    3    3    0    0  0.13887173272E+02 -0.90330899053E-01  0.24853149484E+03  0.27842859332E+03  0.12474660679E+03 0.  0.
          5    1    4    4  502    0 -0.80343558859E+01  0.42435075634E+02  0.79679469039E+02  0.90753480952E+02  0.47000000000E+01 0. -1.
         -5    1    4    4    0  502 -0.58528173866E+01 -0.42344744735E+02  0.53096486895E+03  0.53270359013E+03  0.47000000000E+01 0. -1.
          5    1    5    5  503    0  0.36508121374E+01  0.39727261206E+02  0.17665223200E+02  0.43883183828E+02  0.47000000000E+01 0.  1.
         -5    1    5    5    0  503  0.10236361135E+02 -0.39817592105E+02  0.23086627164E+03  0.23454540949E+03  0.47000000000E+01 0.  1.
<mgrwt>
<rscale>  0 0.27425288E+03</rscale>
<asrwt>0</asrwt>
<pdfrwt beam="1">  1        2 0.13546624E+00 0.27425288E+03</pdfrwt>
<pdfrwt beam="2">  1       -2 0.32853723E-02 0.27425288E+03</pdfrwt>
<totfact> 0.11528919E+04</totfact>
</mgrwt>
</event>
<event>
 9    1  0.8186049E-001  0.2774156E+03  0.7818608E-02  0.1097109E+00
         -2   -1    0    0    0  501 -0.00000000000E+00  0.00000000000E+00  0.42699553641E+02  0.42699553641E+02  0.00000000000E+00 0.  1.
          2   -1    0    0  501    0  0.00000000000E+00 -0.00000000000E+00 -0.45058671697E+03  0.45058671697E+03  0.00000000000E+00 0.  1.
         35    2    1    2    0    0  0.10658141036E-13  0.71054273576E-14 -0.40788716333E+03  0.49328627061E+03  0.27741558493E+03 0.  0.
         25    2    3    3    0    0 -0.23244844379E+02 -0.22698337965E+02 -0.29365862613E+03  0.32093109149E+03  0.12532294064E+03 0.  0.
         25    2    3    3    0    0  0.23244844379E+02  0.22698337965E+02 -0.11422853720E+03  0.17235517912E+03  0.12491041478E+03 0.  0.
          5    1    4    4  502    0  0.43625014013E+02 -0.40321554847E+02 -0.12095425196E+03  0.13483690407E+03  0.47000000000E+01 0. -1.
         -5    1    4    4    0  502 -0.66869858392E+02  0.17623216883E+02 -0.17270437417E+03  0.18609418742E+03  0.47000000000E+01 0. -1.
          5    1    5    5  503    0  0.28945193328E+02  0.26649226575E+02 -0.13987276188E+03  0.14537704430E+03  0.47000000000E+01 0. -1.
         -5    1    5    5    0  503 -0.57003489488E+01 -0.39508886102E+01  0.25644224677E+02  0.26978134818E+02  0.47000000000E+01 0. -1.
<mgrwt>
<rscale>  0 0.27741558E+03</rscale>
<asrwt>0</asrwt>
<pdfrwt beam="1">  1        2 0.69321037E-01 0.27741558E+03</pdfrwt>
<pdfrwt beam="2">  1       -2 0.65691618E-02 0.27741558E+03</pdfrwt>
<totfact> 0.89491574E+03</totfact>
</mgrwt>
</event>
<event>
 9    1  0.8186049E-001  0.2743150E+03  0.7818608E-02  0.1098835E+00
         -1   -1    0    0    0  501 -0.00000000000E+00  0.00000000000E+00  0.16440829738E+02  0.16440829738E+02  0.00000000000E+00 0. -1.
          1   -1    0    0  501    0  0.00000000000E+00 -0.00000000000E+00 -0.11442357095E+04  0.11442357095E+04  0.00000000000E+00 0. -1.
         35    2    1    2    0    0  0.35527136788E-14 -0.71054273576E-14 -0.11277948797E+04  0.11606765392E+04  0.27431503407E+03 0.  0.
         25    2    3    3    0    0  0.15738933321E+02 -0.49293302264E+02 -0.47273511486E+03  0.49167135875E+03  0.12483866600E+03 0.  0.
         25    2    3    3    0    0 -0.15738933321E+02  0.49293302264E+02 -0.65505976489E+03  0.66900518047E+03  0.12564669612E+03 0.  0.
          5    1    4    4  502    0 -0.38068274391E+02  0.22689220075E+02 -0.17866166975E+03  0.18413602706E+03  0.47000000000E+01 0.  1.
         -5    1    4    4    0  502  0.53807207713E+02 -0.71982522339E+02 -0.29407344510E+03  0.30753533169E+03  0.47000000000E+01 0.  1.
          5    1    5    5  503    0  0.13728383710E+02 -0.24637755360E+02 -0.41641005325E+03  0.41739059639E+03  0.47000000000E+01 0. -1.
         -5    1    5    5    0  503 -0.29467317032E+02  0.73931057624E+02 -0.23864971164E+03  0.25161458408E+03  0.47000000000E+01 0. -1.
<mgrwt>
<rscale>  0 0.27431503E+03</rscale>
<asrwt>0</asrwt>
<pdfrwt beam="1">  1        1 0.17603627E+00 0.27431503E+03</pdfrwt>
<pdfrwt beam="2">  1       -1 0.25293584E-02 0.27431503E+03</pdfrwt>
<totfact> 0.60849837E+03</totfact>
</mgrwt>
</event>
<event>
 9    1  0.8186049E-001  0.2756686E+03  0.7818608E-02  0.1098078E+00
          2   -1    0    0  501    0  0.00000000000E+00  0.00000000000E+00  0.35243458124E+04  0.35243458124E+04  0.00000000000E+00 0.  1.
         -2   -1    0    0    0  501 -0.00000000000E+00 -0.00000000000E+00 -0.53905876222E+01  0.53905876222E+01  0.00000000000E+00 0.  1.
         35    2    1    2    0    0  0.00000000000E+00  0.17763568394E-14  0.35189552248E+04  0.35297364000E+04  0.27566860476E+03 0.  0.
         25    2    3    3    0    0 -0.41441058974E+02  0.11150776613E+02  0.11422690127E+04  0.11500824558E+04  0.12676536036E+03 0.  0.
         25    2    3    3    0    0  0.41441058974E+02 -0.11150776613E+02  0.23766862120E+04  0.23796539442E+04  0.11078737457E+03 0.  0.
          5    1    4    4  502    0  0.32769943474E+02  0.10392459940E+02  0.75150267074E+03  0.75230328096E+03  0.47000000000E+01 0. -1.
         -5    1    4    4    0  502 -0.74211002448E+02  0.75831667267E+00  0.39076634198E+03  0.39777917486E+03  0.47000000000E+01 0. -1.
          5    1    5    5  503    0  0.17754939789E+02 -0.50149061861E+02  0.19036521377E+04  0.19044011441E+04  0.47000000000E+01 0.  1.
         -5    1    5    5    0  503  0.23686119184E+02  0.38998285248E+02  0.47303407436E+03  0.47525280010E+03  0.47000000000E+01 0.  1.
<mgrwt>
<rscale>  0 0.27566860E+03</rscale>
<asrwt>0</asrwt>
<pdfrwt beam="1">  1        2 0.54220521E+00 0.27566860E+03</pdfrwt>
<pdfrwt beam="2">  1       -2 0.82932399E-03 0.27566860E+03</pdfrwt>
<totfact> 0.27331346E+03</totfact>
</mgrwt>
</event>
<event>
 9    1  0.8186049E-001  0.2818271E+03  0.7818608E-02  0.1094695E+00
          2   -1    0    0  501    0  0.00000000000E+00  0.00000000000E+00  0.41940979505E+03  0.41940979505E+03  0.00000000000E+00 0.  1.
         -2   -1    0    0    0  501 -0.00000000000E+00 -0.00000000000E+00 -0.47344203190E+02  0.47344203190E+02  0.00000000000E+00 0.  1.
         35    2    1    2    0    0  0.00000000000E+00  0.00000000000E+00  0.37206559186E+03  0.46675399824E+03  0.28182705730E+03 0.  0.
         25    2    3    3    0    0 -0.33040518608E+02  0.23198283190E+02  0.26921378302E+03  0.29949074175E+03  0.12485514492E+03 0.  0.
         25    2    3    3    0    0  0.33040518608E+02 -0.23198283190E+02  0.10285180884E+03  0.16726325649E+03  0.12557334979E+03 0.  0.
          5    1    4    4  502    0 -0.15226684154E+02  0.19115709187E+02 -0.43609361233E+01  0.25265985275E+02  0.47000000000E+01 0.  1.
         -5    1    4    4    0  502 -0.17813834453E+02  0.40825740033E+01  0.27357471914E+03  0.27422475647E+03  0.47000000000E+01 0.  1.
          5    1    5    5  503    0  0.57891271884E+02 -0.61511268452E+02  0.54751185373E+02  0.10077111593E+03  0.47000000000E+01 0.  1.
         -5    1    5    5    0  503 -0.24850753276E+02  0.38312985261E+02  0.48100623466E+02  0.66492140556E+02  0.47000000000E+01 0.  1.
<mgrwt>
<rscale>  0 0.28182706E+03</rscale>
<asrwt>0</asrwt>
<pdfrwt beam="1">  1        2 0.64524581E-01 0.28182706E+03</pdfrwt>
<pdfrwt beam="2">  1       -2 0.72837238E-02 0.28182706E+03</pdfrwt>
<totfact> 0.82561607E+03</totfact>
</mgrwt>
</event>
<event>
 9    1  0.8186049E-001  0.2828028E+03  0.7818608E-02  0.1094168E+00
         -1   -1    0    0    0  501 -0.00000000000E+00  0.00000000000E+00  0.34771850638E+02  0.34771850638E+02  0.00000000000E+00 0.  1.
          1   -1    0    0  501    0  0.00000000000E+00 -0.00000000000E+00 -0.57501552408E+03  0.57501552408E+03  0.00000000000E+00 0.  1.
         35    2    1    2    0    0  0.00000000000E+00  0.17763568394E-14 -0.54024367345E+03  0.60978737472E+03  0.28280278583E+03 0.  0.
         25    2    3    3    0    0  0.42339720989E+02  0.79653144267E+01 -0.16578726644E+03  0.21216901078E+03  0.12519653835E+03 0.  0.
         25    2    3    3    0    0 -0.42339720989E+02 -0.79653144267E+01 -0.37445640700E+03  0.39761836394E+03  0.12659646279E+03 0.  0.
          5    1    4    4  502    0  0.60982032343E+02 -0.38754831582E+02 -0.56752083487E+02  0.91998012043E+02  0.47000000000E+01 0. -1.
         -5    1    4    4    0  502 -0.18642311354E+02  0.46720146008E+02 -0.10903518295E+03  0.12017099874E+03  0.47000000000E+01 0. -1.
          5    1    5    5  503    0 -0.50534519515E+02  0.10381985020E+02 -0.48355492319E+02  0.70865131856E+02  0.47000000000E+01 0.  1.
         -5    1    5    5    0  503  0.81947985259E+01 -0.18347299447E+02 -0.32610091468E+03  0.32675323208E+03  0.47000000000E+01 0.  1.
<mgrwt>
<rscale>  0 0.28280279E+03</rscale>
<asrwt>0</asrwt>
<pdfrwt beam="1">  1        1 0.88463924E-01 0.28280279E+03</pdfrwt>
<pdfrwt beam="2">  1       -1 0.53495156E-02 0.28280279E+03</pdfrwt>
<totfact> 0.59156790E+03</totfact>
</mgrwt>
</event>
<event>
 9    1  0.8186049E-001  0.2748536E+03  0.7818608E-02  0.1098533E+00
         -2   -1    0    0    0  501 -0.00000000000E+00  0.00000000000E+00  0.24128768750E+02  0.24128768750E+02  0.00000000000E+00 0. -1.
          2   -1    0    0  501    0  0.00000000000E+00 -0.00000000000E+00 -0.78272206820E+03  0.78272206820E+03  0.00000000000E+00 0. -1.
         35    2    1    2    0    0  0.00000000000E+00  0.00000000000E+00 -0.75859329945E+03  0.80685083695E+03  0.27485355940E+03 0.  0.
         25    2    3    3    0    0 -0.53834377248E+01 -0.58056229414E+02 -0.36694527662E+03  0.39180640065E+03  0.12435398017E+03 0.  0.
         25    2    3    3    0    0  0.53834377248E+01  0.58056229414E+02 -0.39164802283E+03  0.41504443630E+03  0.12439535015E+03 0.  0.
          5    1    4    4  502    0  0.34490950892E+02  0.19470869099E+02 -0.55434344094E+02  0.68291997643E+02  0.47000000000E+01 0. -1.
         -5    1    4    4    0  502 -0.39874388617E+02 -0.77527098513E+02 -0.31151093252E+03  0.32351440301E+03  0.47000000000E+01 0. -1.
          5    1    5    5  503    0  0.43917390049E+02  0.65968098241E+02 -0.14569065723E+03  0.16591680065E+03  0.47000000000E+01 0. -1.
         -5    1    5    5    0  503 -0.38533952324E+02 -0.79118688270E+01 -0.24595736560E+03  0.24912763564E+03  0.47000000000E+01 0. -1.
<mgrwt>
<rscale>  0 0.27485356E+03</rscale>
<asrwt>0</asrwt>
<pdfrwt beam="1">  1        2 0.12041877E+00 0.27485356E+03</pdfrwt>
<pdfrwt beam="2">  1       -2 0.37121185E-02 0.27485356E+03</pdfrwt>
<totfact> 0.11183221E+04</totfact>
</mgrwt>
</event>
<event>
 9    1  0.8186049E-001  0.2765516E+03  0.7818608E-02  0.1097587E+00
          2   -1    0    0  501    0  0.00000000000E+00  0.00000000000E+00  0.27128426419E+04  0.27128426419E+04  0.00000000000E+00 0.  1.
         -2   -1    0    0    0  501 -0.00000000000E+00 -0.00000000000E+00 -0.70480297472E+01  0.70480297472E+01  0.00000000000E+00 0.  1.
         35    2    1    2    0    0 -0.35527136788E-14  0.00000000000E+00  0.27057946121E+04  0.27198906716E+04  0.27655159113E+03 0.  0.
         25    2    3    3    0    0 -0.19214632271E+02 -0.40151914116E+02  0.97667229472E+03  0.98568318617E+03  0.12530440503E+03 0.  0.
         25    2    3    3    0    0  0.19214632271E+02  0.40151914116E+02  0.17291223174E+04  0.17342074854E+04  0.12502094123E+03 0.  0.
          5    1    4    4  502    0 -0.46586524632E+02  0.99696115825E+01  0.16013335192E+03  0.16713610571E+03  0.47000000000E+01 0.  1.
         -5    1    4    4    0  502  0.27371892361E+02 -0.50121525699E+02  0.81653894279E+03  0.81854708046E+03  0.47000000000E+01 0.  1.
          5    1    5    5  503    0  0.15024315690E+01 -0.32614112293E+02  0.16383132170E+03  0.16711890854E+03  0.47000000000E+01 0.  1.
         -5    1    5    5    0  503  0.17712200702E+02  0.72766026410E+02  0.15652909957E+04  0.15670885769E+04  0.47000000000E+01 0.  1.
<mgrwt>
<rscale>  0 0.27655159E+03</rscale>
<asrwt>0</asrwt>
<pdfrwt beam="1">  1        2 0.41735957E+00 0.27655159E+03</pdfrwt>
<pdfrwt beam="2">  1       -2 0.10843144E-02 0.27655159E+03</pdfrwt>
<totfact> 0.57872768E+03</totfact>
</mgrwt>
</event>
<event>
 9    1  0.8186049E-001  0.2764642E+03  0.7818608E-02  0.1097636E+00
         -2   -1    0    0    0  501 -0.00000000000E+00  0.00000000000E+00  0.30440316167E+02  0.30440316167E+02  0.00000000000E+00 0. -1.
          2   -1    0    0  501    0  0.00000000000E+00 -0.00000000000E+00 -0.62772406534E+03  0.62772406534E+03  0.00000000000E+00 0. -1.
         35    2    1    2    0    0  0.14210854715E-13  0.00000000000E+00 -0.59728374918E+03  0.65816438151E+03  0.27646424011E+03 0.  0.
         25    2    3    3    0    0 -0.43197069460E+02 -0.16880177973E+02 -0.21199631823E+03  0.25041863060E+03  0.12496449251E+03 0.  0.
         25    2    3    3    0    0  0.43197069460E+02  0.16880177973E+02 -0.38528743095E+03  0.40774575091E+03  0.12513698783E+03 0.  0.
          5    1    4    4  502    0 -0.35788939864E+02 -0.67710805361E+02 -0.91955155900E+02  0.11976411013E+03  0.47000000000E+01 0. -1.
         -5    1    4    4    0  502 -0.74081295960E+01  0.50830627387E+02 -0.12004116233E+03  0.13065452046E+03  0.47000000000E+01 0. -1.
          5    1    5    5  503    0 -0.39489128707E+02  0.23815909375E+02 -0.93599279156E+02  0.10444857052E+03  0.47000000000E+01 0. -1.
         -5    1    5    5    0  503  0.82686198167E+02 -0.69357314015E+01 -0.29168815179E+03  0.30329718039E+03  0.47000000000E+01 0. -1.
<mgrwt>
<rscale>  0 0.27646424E+03</rscale>
<asrwt>0</asrwt>
<pdfrwt beam="1">  1        2 0.96572926E-01 0.27646424E+03</pdfrwt>
<pdfrwt beam="2">  1       -2 0.46831259E-02 0.27646424E+03</pdfrwt>
<totfact> 0.10305723E+04</totfact>
</mgrwt>
</event>
<event>
 9    1  0.8186049E-001  0.2758496E+03  0.7818608E-02  0.1097978E+00
         -2   -1    0    0    0  501 -0.00000000000E+00  0.00000000000E+00  0.73449017635E+01  0.73449017635E+01  0.00000000000E+00 0.  1.
          2   -1    0    0  501    0  0.00000000000E+00 -0.00000000000E+00 -0.25899941670E+04  0.25899941670E+04  0.00000000000E+00 0.  1.
         35    2    1    2    0    0  0.00000000000E+00  0.00000000000E+00 -0.25826492652E+04  0.25973390688E+04  0.27584961646E+03 0.  0.
         25    2    3    3    0    0  0.11051622534E+02  0.44317177449E+02 -0.94046504473E+03  0.94986615582E+03  0.12524002177E+03 0.  0.
         25    2    3    3    0    0 -0.11051622534E+02 -0.44317177449E+02 -0.16421842205E+04  0.16474729129E+04  0.12374099642E+03 0.  0.
          5    1    4    4  502    0  0.18169752857E+02  0.71737019664E+02 -0.30990920503E+03  0.31865678287E+03  0.47000000000E+01 0.  1.
         -5    1    4    4    0  502 -0.71181303234E+01 -0.27419842215E+02 -0.63055583970E+03  0.63120937295E+03  0.47000000000E+01 0.  1.
          5    1    5    5  503    0 -0.35450213557E+02 -0.31482067865E+02 -0.22389805544E+03  0.22891104706E+03  0.47000000000E+01 0. -1.
         -5    1    5    5    0  503  0.24398591023E+02 -0.12835109584E+02 -0.14182861651E+04  0.14185618659E+04  0.47000000000E+01 0. -1.
<mgrwt>
<rscale>  0 0.27584962E+03</rscale>
<asrwt>0</asrwt>
<pdfrwt beam="1">  1        2 0.39846044E+00 0.27584962E+03</pdfrwt>
<pdfrwt beam="2">  1       -2 0.11299855E-02 0.27584962E+03</pdfrwt>
<totfact> 0.63845736E+03</totfact>
</mgrwt>
</event>
<event>
 9    1  0.8186049E-001  0.2735627E+03  0.7818608E-02  0.1099258E+00
          1   -1    0    0  501    0  0.00000000000E+00  0.00000000000E+00  0.51516022602E+03  0.51516022602E+03  0.00000000000E+00 0. -1.
         -1   -1    0    0    0  501 -0.00000000000E+00 -0.00000000000E+00 -0.36317123186E+02  0.36317123186E+02  0.00000000000E+00 0. -1.
         35    2    1    2    0    0  0.00000000000E+00 -0.71054273576E-14  0.47884310283E+03  0.55147734920E+03  0.27356269767E+03 0.  0.
         25    2    3    3    0    0 -0.18176758005E+02 -0.77634909972E+01  0.13653607825E+03  0.18633759338E+03  0.12525546581E+03 0.  0.
         25    2    3    3    0    0  0.18176758005E+02  0.77634909972E+01  0.34230702458E+03  0.36513975583E+03  0.12554790276E+03 0.  0.
          5    1    4    4  502    0 -0.25056398362E+01 -0.54887068089E+02  0.12277600540E+03  0.13459162670E+03  0.47000000000E+01 0.  1.
         -5    1    4    4    0  502 -0.15671118169E+02  0.47123577092E+02  0.13760072851E+02  0.51745966678E+02  0.47000000000E+01 0.  1.
          5    1    5    5  503    0  0.66625583114E+01  0.47454015130E+02  0.48281931402E+02  0.68187301861E+02  0.47000000000E+01 0.  1.
         -5    1    5    5    0  503  0.11514199694E+02 -0.39690524133E+02  0.29402509317E+03  0.29695245397E+03  0.47000000000E+01 0.  1.
<mgrwt>
<rscale>  0 0.27356270E+03</rscale>
<asrwt>0</asrwt>
<pdfrwt beam="1">  1        1 0.79255414E-01 0.27356270E+03</pdfrwt>
<pdfrwt beam="2">  1       -1 0.55872501E-02 0.27356270E+03</pdfrwt>
<totfact> 0.64250182E+03</totfact>
</mgrwt>
</event>
<event>
 9    1  0.8186049E-001  0.2746808E+03  0.7818608E-02  0.1098630E+00
         -2   -1    0    0    0  501 -0.00000000000E+00  0.00000000000E+00  0.72988610040E+01  0.72988610040E+01  0.00000000000E+00 0. -1.
          2   -1    0    0  501    0  0.00000000000E+00 -0.00000000000E+00 -0.25842912313E+04  0.25842912313E+04  0.00000000000E+00 0. -1.
         35    2    1    2    0    0 -0.71054273576E-14  0.14210854715E-13 -0.25769923703E+04  0.25915900923E+04  0.27468077830E+03 0.  0.
         25    2    3    3    0    0  0.26335878078E+02 -0.46090620725E+02 -0.10920481995E+04  0.11004985361E+04  0.12533887691E+03 0.  0.
         25    2    3    3    0    0 -0.26335878078E+02  0.46090620725E+02 -0.14849441708E+04  0.14910915562E+04  0.12440624945E+03 0.  0.
          5    1    4    4  502    0  0.27191374401E+01  0.42467996731E+02 -0.42856697268E+03  0.43070020261E+03  0.47000000000E+01 0.  1.
         -5    1    4    4    0  502  0.23616740638E+02 -0.88558617455E+02 -0.66348122686E+03  0.66979833350E+03  0.47000000000E+01 0.  1.
          5    1    5    5  503    0 -0.75170504059E+02  0.26822064879E+02 -0.74666454459E+03  0.75093279326E+03  0.47000000000E+01 0.  1.
         -5    1    5    5    0  503  0.48834625981E+02  0.19268555846E+02 -0.73827962619E+03  0.74015876296E+03  0.47000000000E+01 0.  1.
<mgrwt>
<rscale>  0 0.27468078E+03</rscale>
<asrwt>0</asrwt>
<pdfrwt beam="1">  1        2 0.39758380E+00 0.27468078E+03</pdfrwt>
<pdfrwt beam="2">  1       -2 0.11229002E-02 0.27468078E+03</pdfrwt>
<totfact> 0.64905420E+03</totfact>
</mgrwt>
</event>
<event>
 9    1  0.8186049E-001  0.2959017E+03  0.7818608E-02  0.1087307E+00
         -1   -1    0    0    0  501 -0.00000000000E+00  0.00000000000E+00  0.11646027244E+04  0.11646027244E+04  0.00000000000E+00 0.  1.
          1   -1    0    0  501    0  0.00000000000E+00 -0.00000000000E+00 -0.18795644091E+02  0.18795644091E+02  0.00000000000E+00 0.  1.
         35    2    1    2    0    0  0.71054273576E-14  0.00000000000E+00  0.11458070803E+04  0.11833983685E+04  0.29590172906E+03 0.  0.
         25    2    3    3    0    0 -0.29696005989E+02  0.22341328551E+02  0.85218725031E+03  0.86210067235E+03  0.12495387926E+03 0.  0.
         25    2    3    3    0    0  0.29696005989E+02 -0.22341328551E+02  0.29361983001E+03  0.32129769616E+03  0.12505445711E+03 0.  0.
          5    1    4    4  502    0 -0.51946453890E+02  0.64156899695E+02  0.55518071216E+03  0.56130406644E+03  0.47000000000E+01 0. -1.
         -5    1    4    4    0  502  0.22250447901E+02 -0.41815571144E+02  0.29700653815E+03  0.30079660591E+03  0.47000000000E+01 0. -1.
          5    1    5    5  503    0 -0.43353624228E+02  0.12135775844E+01  0.52754869818E+02  0.68455648370E+02  0.47000000000E+01 0.  1.
         -5    1    5    5    0  503  0.73049630217E+02 -0.23554906135E+02  0.24086496020E+03  0.25284204779E+03  0.47000000000E+01 0.  1.
<mgrwt>
<rscale>  0 0.29590173E+03</rscale>
<asrwt>0</asrwt>
<pdfrwt beam="1">  1        1 0.28916385E-02 0.29590173E+03</pdfrwt>
<pdfrwt beam="2">  1       -1 0.17916959E+00 0.29590173E+03</pdfrwt>
<totfact> 0.83281255E+02</totfact>
</mgrwt>
</event>
<event>
 9    1  0.8186049E-001  0.2758396E+03  0.7818608E-02  0.1097983E+00
         -1   -1    0    0    0  501 -0.00000000000E+00  0.00000000000E+00  0.23862049610E+03  0.23862049610E+03  0.00000000000E+00 0. -1.
          1   -1    0    0  501    0  0.00000000000E+00 -0.00000000000E+00 -0.79715972288E+02  0.79715972288E+02  0.00000000000E+00 0. -1.
         35    2    1    2    0    0 -0.71054273576E-14 -0.71054273576E-14  0.15890452381E+03  0.31833646839E+03  0.27583955376E+03 0.  0.
         25    2    3    3    0    0  0.33349752283E+02 -0.49673724592E+02  0.84213288505E+02  0.16046730397E+03  0.12279329294E+03 0.  0.
         25    2    3    3    0    0 -0.33349752283E+02  0.49673724592E+02  0.74691235305E+02  0.15786916441E+03  0.12555559545E+03 0.  0.
          5    1    4    4  502    0  0.73030734631E+02 -0.39019812647E+01  0.61257374128E+02  0.95515807821E+02  0.47000000000E+01 0. -1.
         -5    1    4    4    0  502 -0.39680982349E+02 -0.45771743328E+02  0.22955914377E+02  0.64951496152E+02  0.47000000000E+01 0. -1.
          5    1    5    5  503    0 -0.56587805131E+02  0.67294139013E+01  0.89871659656E+02  0.10651980994E+03  0.47000000000E+01 0.  1.
         -5    1    5    5    0  503  0.23238052849E+02  0.42944310691E+02 -0.15180424351E+02  0.51349354469E+02  0.47000000000E+01 0.  1.
<mgrwt>
<rscale>  0 0.27583955E+03</rscale>
<asrwt>0</asrwt>
<pdfrwt beam="1">  1        1 0.12263996E-01 0.27583955E+03</pdfrwt>
<pdfrwt beam="2">  1       -1 0.36710845E-01 0.27583955E+03</pdfrwt>
<totfact> 0.34879636E+03</totfact>
</mgrwt>
</event>
<event>
 9    1  0.8186049E-001  0.2753885E+03  0.7818608E-02  0.1098235E+00
          1   -1    0    0  501    0  0.00000000000E+00  0.00000000000E+00  0.35832296959E+03  0.35832296959E+03  0.00000000000E+00 0.  1.
         -1   -1    0    0    0  501 -0.00000000000E+00 -0.00000000000E+00 -0.52912336929E+02  0.52912336929E+02  0.00000000000E+00 0.  1.
         35    2    1    2    0    0  0.71054273576E-14 -0.26645352591E-14  0.30541063266E+03  0.41123530651E+03  0.27538849428E+03 0.  0.
         25    2    3    3    0    0 -0.44140714127E+02  0.55686384852E+01  0.10265326026E+03  0.16864001186E+03  0.12618379206E+03 0.  0.
         25    2    3    3    0    0  0.44140714127E+02 -0.55686384852E+01  0.20275737240E+03  0.24259529466E+03  0.12554884528E+03 0.  0.
          5    1    4    4  502    0 -0.67572369021E+02  0.41738727614E+02  0.96154396082E+02  0.12480346279E+03  0.47000000000E+01 0. -1.
         -5    1    4    4    0  502  0.23431654894E+02 -0.36170089129E+02  0.64988641770E+01  0.43836549069E+02  0.47000000000E+01 0. -1.
          5    1    5    5  503    0 -0.27430690102E+02  0.75047587247E+01  0.18677920448E+01  0.28884992818E+02  0.47000000000E+01 0.  1.
         -5    1    5    5    0  503  0.71571404229E+02 -0.13073397210E+02  0.20088958035E+03  0.21371030184E+03  0.47000000000E+01 0.  1.
<mgrwt>
<rscale>  0 0.27538849E+03</rscale>
<asrwt>0</asrwt>
<pdfrwt beam="1">  1        1 0.55126609E-01 0.27538849E+03</pdfrwt>
<pdfrwt beam="2">  1       -1 0.81403597E-02 0.27538849E+03</pdfrwt>
<totfact> 0.58180400E+03</totfact>
</mgrwt>
</event>
<event>
 9    1  0.8186049E-001  0.2744340E+03  0.7818608E-02  0.1098768E+00
          4   -1    0    0  501    0  0.00000000000E+00  0.00000000000E+00  0.19406148253E+03  0.19406148253E+03  0.00000000000E+00 0.  1.
         -4   -1    0    0    0  501 -0.00000000000E+00 -0.00000000000E+00 -0.97023401143E+02  0.97023401143E+02  0.00000000000E+00 0.  1.
         35    2    1    2    0    0  0.00000000000E+00  0.00000000000E+00  0.97038081386E+02  0.29108488367E+03  0.27443399983E+03 0.  0.
         25    2    3    3    0    0 -0.40260697317E+02  0.25339336896E+02  0.80079040711E+02  0.15632785448E+03  0.12554974943E+03 0.  0.
         25    2    3    3    0    0  0.40260697317E+02 -0.25339336896E+02  0.16959040675E+02  0.13475702919E+03  0.12493535174E+03 0.  0.
          5    1    4    4  502    0 -0.37343725211E+02  0.20828056627E+02 -0.25831620775E+02  0.50176930828E+02  0.47000000000E+01 0. -1.
         -5    1    4    4    0  502 -0.29169721060E+01  0.45112802688E+01  0.10591066149E+03  0.10615092365E+03  0.47000000000E+01 0. -1.
          5    1    5    5  503    0 -0.14772986168E+02 -0.26743803502E+02  0.58139793161E+02  0.65846774370E+02  0.47000000000E+01 0. -1.
         -5    1    5    5    0  503  0.55033683485E+02  0.14044666056E+01 -0.41180752486E+02  0.68910254822E+02  0.47000000000E+01 0. -1.
<mgrwt>
<rscale>  0 0.27443400E+03</rscale>
<asrwt>0</asrwt>
<pdfrwt beam="1">  1        4 0.29855613E-01 0.27443400E+03</pdfrwt>
<pdfrwt beam="2">  1       -4 0.14926677E-01 0.27443400E+03</pdfrwt>
<totfact> 0.76483873E+02</totfact>
</mgrwt>
</event>
<event>
 9    1  0.8186049E-001  0.2737863E+03  0.7818608E-02  0.1099132E+00
         -2   -1    0    0    0  501 -0.00000000000E+00  0.00000000000E+00  0.15730886669E+02  0.15730886669E+02  0.00000000000E+00 0. -1.
          2   -1    0    0  501    0  0.00000000000E+00 -0.00000000000E+00 -0.11912702514E+04  0.11912702514E+04  0.00000000000E+00 0. -1.
         35    2    1    2    0    0  0.00000000000E+00  0.00000000000E+00 -0.11755393648E+04  0.12070011381E+04  0.27378632046E+03 0.  0.
         25    2    3    3    0    0 -0.30915675430E+02  0.75462433279E+01 -0.82905605100E+03  0.83908974755E+03  0.12539913863E+03 0.  0.
         25    2    3    3    0    0  0.30915675430E+02 -0.75462433279E+01 -0.34648331376E+03  0.36791139055E+03  0.11956328787E+03 0.  0.
          5    1    4    4  502    0 -0.59966996260E+02 -0.59209118246E+01 -0.19372421407E+03  0.20293412467E+03  0.47000000000E+01 0.  1.
         -5    1    4    4    0  502  0.29051320829E+02  0.13467155152E+02 -0.63533183692E+03  0.63615562288E+03  0.47000000000E+01 0.  1.
          5    1    5    5  503    0  0.70086917092E+02 -0.21119930402E+02 -0.27977174949E+03  0.28922750426E+03  0.47000000000E+01 0. -1.
         -5    1    5    5    0  503 -0.39171241662E+02  0.13573687074E+02 -0.66711564268E+02  0.78683886287E+02  0.47000000000E+01 0. -1.
<mgrwt>
<rscale>  0 0.27378632E+03</rscale>
<asrwt>0</asrwt>
<pdfrwt beam="1">  1        2 0.18327235E+00 0.27378632E+03</pdfrwt>
<pdfrwt beam="2">  1       -2 0.24201364E-02 0.27378632E+03</pdfrwt>
<totfact> 0.11769185E+04</totfact>
</mgrwt>
</event>
<event>
 9    1  0.8186049E-001  0.2759723E+03  0.7818608E-02  0.1097909E+00
         -2   -1    0    0    0  501 -0.00000000000E+00  0.00000000000E+00  0.67305787058E+01  0.67305787058E+01  0.00000000000E+00 0.  1.
          2   -1    0    0  501    0  0.00000000000E+00 -0.00000000000E+00 -0.28289062695E+04  0.28289062695E+04  0.00000000000E+00 0.  1.
         35    2    1    2    0    0  0.53290705182E-14  0.00000000000E+00 -0.28221756908E+04  0.28356368482E+04  0.27597229063E+03 0.  0.
         25    2    3    3    0    0 -0.15608092658E+02  0.23315395650E+01 -0.19893268378E+04  0.19933256614E+04  0.12520733239E+03 0.  0.
         25    2    3    3    0    0  0.15608092658E+02 -0.23315395650E+01 -0.83284885301E+03  0.84231118684E+03  0.12490746530E+03 0.  0.
          5    1    4    4  502    0  0.59478299607E+01 -0.57071389669E+02 -0.12352753926E+04  0.12366163131E+04  0.47000000000E+01 0. -1.
         -5    1    4    4    0  502 -0.21555922618E+02  0.59402929234E+02 -0.75405144517E+03  0.75670934827E+03  0.47000000000E+01 0. -1.
          5    1    5    5  503    0 -0.24167757875E+02  0.37701281419E+02 -0.13804080971E+03  0.14519925030E+03  0.47000000000E+01 0.  1.
         -5    1    5    5    0  503  0.39775850532E+02 -0.40032820984E+02 -0.69480804329E+03  0.69711193654E+03  0.47000000000E+01 0.  1.
<mgrwt>
<rscale>  0 0.27597229E+03</rscale>
<asrwt>0</asrwt>
<pdfrwt beam="1">  1        2 0.43521600E+00 0.27597229E+03</pdfrwt>
<pdfrwt beam="2">  1       -2 0.10354745E-02 0.27597229E+03</pdfrwt>
<totfact> 0.53146463E+03</totfact>
</mgrwt>
</event>
<event>
 9    1  0.8186049E-001  0.2732840E+03  0.7818608E-02  0.1099415E+00
         -2   -1    0    0    0  501 -0.00000000000E+00  0.00000000000E+00  0.24637324408E+03  0.24637324408E+03  0.00000000000E+00 0.  1.
          2   -1    0    0  501    0  0.00000000000E+00 -0.00000000000E+00 -0.75783540897E+02  0.75783540897E+02  0.00000000000E+00 0.  1.
         35    2    1    2    0    0  0.71054273576E-14  0.00000000000E+00  0.17058970318E+03  0.32215678497E+03  0.27328400479E+03 0.  0.
         25    2    3    3    0    0 -0.18742822874E+02  0.47307770440E+02  0.91636471964E+02  0.16582109788E+03  0.12849153651E+03 0.  0.
         25    2    3    3    0    0  0.18742822874E+02 -0.47307770440E+02  0.78953231216E+02  0.15633568710E+03  0.12497165993E+03 0.  0.
          5    1    4    4  502    0  0.20500264416E+02  0.92100581187E+01 -0.26794268185E+02  0.35286099519E+02  0.47000000000E+01 0.  1.
         -5    1    4    4    0  502 -0.39243087291E+02  0.38097712322E+02  0.11843074015E+03  0.13053499836E+03  0.47000000000E+01 0.  1.
          5    1    5    5  503    0  0.70500759044E+02 -0.38116597335E+02  0.34701954103E+02  0.87461692396E+02  0.47000000000E+01 0.  1.
         -5    1    5    5    0  503 -0.51757936170E+02 -0.91911731054E+01  0.44251277113E+02  0.68873994699E+02  0.47000000000E+01 0.  1.
<mgrwt>
<rscale>  0 0.27328400E+03</rscale>
<asrwt>0</asrwt>
<pdfrwt beam="1">  1        2 0.11659006E-01 0.27328400E+03</pdfrwt>
<pdfrwt beam="2">  1       -2 0.37903576E-01 0.27328400E+03</pdfrwt>
<totfact> 0.34795581E+03</totfact>
</mgrwt>
</event>
<event>
 9    1  0.8186049E-001  0.2802999E+03  0.7818608E-02  0.1095525E+00
         -1   -1    0    0    0  501 -0.00000000000E+00  0.00000000000E+00  0.80130961910E+01  0.80130961910E+01  0.00000000000E+00 0.  1.
          1   -1    0    0  501    0  0.00000000000E+00 -0.00000000000E+00 -0.24512390153E+04  0.24512390153E+04  0.00000000000E+00 0.  1.
         35    2    1    2    0    0 -0.53290705182E-14  0.00000000000E+00 -0.24432259191E+04  0.24592521115E+04  0.28029993947E+03 0.  0.
         25    2    3    3    0    0  0.74391813204E+01  0.46567755157E+02 -0.15635442767E+04  0.15693886654E+04  0.12683130838E+03 0.  0.
         25    2    3    3    0    0 -0.74391813204E+01 -0.46567755157E+02 -0.87968164241E+03  0.88986344605E+03  0.12567125120E+03 0.  0.
          5    1    4    4  502    0 -0.41421749826E+01 -0.18678105968E+02 -0.11778704045E+04  0.11780351476E+04  0.47000000000E+01 0. -1.
         -5    1    4    4    0  502  0.11581356303E+02  0.65245861125E+02 -0.38567387220E+03  0.39135351781E+03  0.47000000000E+01 0. -1.
          5    1    5    5  503    0 -0.33098205572E+02  0.60849277102E+00 -0.73008357089E+03  0.73084880239E+03  0.47000000000E+01 0.  1.
         -5    1    5    5    0  503  0.25659024251E+02 -0.47176247928E+02 -0.14959807152E+03  0.15901464366E+03  0.47000000000E+01 0.  1.
<mgrwt>
<rscale>  0 0.28029994E+03</rscale>
<asrwt>0</asrwt>
<pdfrwt beam="1">  1        1 0.37711392E+00 0.28029994E+03</pdfrwt>
<pdfrwt beam="2">  1       -1 0.12327833E-02 0.28029994E+03</pdfrwt>
<totfact> 0.23716392E+03</totfact>
</mgrwt>
</event>
<event>
 9    1  0.8186049E-001  0.2747476E+03  0.7818608E-02  0.1098593E+00
         -1   -1    0    0    0  501 -0.00000000000E+00  0.00000000000E+00  0.14233524824E+02  0.14233524824E+02  0.00000000000E+00 0. -1.
          1   -1    0    0  501    0  0.00000000000E+00 -0.00000000000E+00 -0.13258531454E+04  0.13258531454E+04  0.00000000000E+00 0. -1.
         35    2    1    2    0    0  0.71054273576E-14  0.00000000000E+00 -0.13116196205E+04  0.13400866702E+04  0.27474761988E+03 0.  0.
         25    2    3    3    0    0  0.18136178583E+02  0.54297431126E+02 -0.69645077418E+03  0.70982848023E+03  0.12464212168E+03 0.  0.
         25    2    3    3    0    0 -0.18136178583E+02 -0.54297431126E+02 -0.61516884637E+03  0.63025818996E+03  0.12456140843E+03 0.  0.
          5    1    4    4  502    0  0.49508943904E+02 -0.18028209111E+02 -0.18878038168E+03  0.19605171347E+03  0.47000000000E+01 0. -1.
         -5    1    4    4    0  502 -0.31372765321E+02  0.72325640237E+02 -0.50767039250E+03  0.51377676676E+03  0.47000000000E+01 0. -1.
          5    1    5    5  503    0 -0.43554104891E+02  0.17090525442E+02 -0.38568481080E+03  0.38854074354E+03  0.47000000000E+01 0.  1.
         -5    1    5    5    0  503  0.25417926308E+02 -0.71387956568E+02 -0.22948403558E+03  0.24171744642E+03  0.47000000000E+01 0.  1.
<mgrwt>
<rscale>  0 0.27474762E+03</rscale>
<asrwt>0</asrwt>
<pdfrwt beam="1">  1        1 0.20397743E+00 0.27474762E+03</pdfrwt>
<pdfrwt beam="2">  1       -1 0.21897728E-02 0.27474762E+03</pdfrwt>
<totfact> 0.56240501E+03</totfact>
</mgrwt>
</event>
<event>
 9    1  0.8186049E-001  0.2713577E+03  0.7818608E-02  0.1100505E+00
          2   -1    0    0  501    0  0.00000000000E+00  0.00000000000E+00  0.44672793014E+03  0.44672793014E+03  0.00000000000E+00 0.  1.
         -2   -1    0    0    0  501 -0.00000000000E+00 -0.00000000000E+00 -0.41207983310E+02  0.41207983310E+02  0.00000000000E+00 0.  1.
         35    2    1    2    0    0  0.00000000000E+00  0.00000000000E+00  0.40551994683E+03  0.48793591345E+03  0.27135774976E+03 0.  0.
         25    2    3    3    0    0 -0.14370147272E+02 -0.31692873559E+02  0.12658361154E+03  0.18122027505E+03  0.12492572998E+03 0.  0.
         25    2    3    3    0    0  0.14370147272E+02  0.31692873559E+02  0.27893633529E+03  0.30671563840E+03  0.12271130481E+03 0.  0.
          5    1    4    4  502    0 -0.67921729631E+02 -0.43389532078E+01  0.55135247431E+02  0.87716437343E+02  0.47000000000E+01 0.  1.
         -5    1    4    4    0  502  0.53551582359E+02 -0.27353920351E+02  0.71448364113E+02  0.93503837708E+02  0.47000000000E+01 0.  1.
          5    1    5    5  503    0  0.15907492999E+02  0.76803472530E+02  0.13983287447E+03  0.16039683447E+03  0.47000000000E+01 0.  1.
         -5    1    5    5    0  503 -0.15373457264E+01 -0.45110598971E+02  0.13910346082E+03  0.14631880393E+03  0.47000000000E+01 0.  1.
<mgrwt>
<rscale>  0 0.27135775E+03</rscale>
<asrwt>0</asrwt>
<pdfrwt beam="1">  1        2 0.68727370E-01 0.27135775E+03</pdfrwt>
<pdfrwt beam="2">  1       -2 0.63396901E-02 0.27135775E+03</pdfrwt>
<totfact> 0.95348754E+03</totfact>
</mgrwt>
</event>
<event>
 9    1  0.8186049E-001  0.2735058E+03  0.7818608E-02  0.1099290E+00
         -2   -1    0    0    0  501 -0.00000000000E+00  0.00000000000E+00  0.77778309780E+01  0.77778309780E+01  0.00000000000E+00 0.  1.
          2   -1    0    0  501    0  0.00000000000E+00 -0.00000000000E+00 -0.24044437706E+04  0.24044437706E+04  0.00000000000E+00 0.  1.
         35    2    1    2    0    0  0.71054273576E-14 -0.71054273576E-14 -0.23966659396E+04  0.24122216015E+04  0.27350581159E+03 0.  0.
         25    2    3    3    0    0 -0.27168464828E+02  0.47811996429E+02 -0.77570629452E+03  0.78552620448E+03  0.11093714472E+03 0.  0.
         25    2    3    3    0    0  0.27168464828E+02 -0.47811996429E+02 -0.16209596451E+04  0.16266953971E+04  0.12491449642E+03 0.  0.
          5    1    4    4  502    0  0.11160285207E+02  0.44131999210E+02 -0.11629902826E+03  0.12497895540E+03  0.47000000000E+01 0.  1.
         -5    1    4    4    0  502 -0.38328750035E+02  0.36799972189E+01 -0.65940726626E+03  0.66054724908E+03  0.47000000000E+01 0.  1.
          5    1    5    5  503    0  0.74362095576E+02 -0.35728760173E+02 -0.79390356172E+03  0.79819247107E+03  0.47000000000E+01 0. -1.
         -5    1    5    5    0  503 -0.47193630748E+02 -0.12083236256E+02 -0.82705608334E+03  0.82850292599E+03  0.47000000000E+01 0. -1.
<mgrwt>
<rscale>  0 0.27350581E+03</rscale>
<asrwt>0</asrwt>
<pdfrwt beam="1">  1        2 0.36991450E+00 0.27350581E+03</pdfrwt>
<pdfrwt beam="2">  1       -2 0.11965891E-02 0.27350581E+03</pdfrwt>
<totfact> 0.74235054E+03</totfact>
</mgrwt>
</event>
<event>
 9    1  0.8186049E-001  0.2784291E+03  0.7818608E-02  0.1096550E+00
          1   -1    0    0  501    0  0.00000000000E+00  0.00000000000E+00  0.10112083066E+03  0.10112083066E+03  0.00000000000E+00 0.  1.
         -1   -1    0    0    0  501 -0.00000000000E+00 -0.00000000000E+00 -0.19165880081E+03  0.19165880081E+03  0.00000000000E+00 0.  1.
         35    2    1    2    0    0  0.00000000000E+00  0.00000000000E+00 -0.90537970149E+02  0.29277963147E+03  0.27842914461E+03 0.  0.
         25    2    3    3    0    0 -0.96569186227E+01  0.55607682869E+02 -0.20217454752E+02  0.13853138774E+03  0.12488686657E+03 0.  0.
         25    2    3    3    0    0  0.96569186227E+01 -0.55607682869E+02 -0.70320515397E+02  0.15424824373E+03  0.12514821348E+03 0.  0.
          5    1    4    4  502    0  0.10414616142E+02 -0.26756151462E+02  0.28429684951E+02  0.40677916083E+02  0.47000000000E+01 0. -1.
         -5    1    4    4    0  502 -0.20071534765E+02  0.82363834331E+02 -0.48647139704E+02  0.97853471655E+02  0.47000000000E+01 0. -1.
          5    1    5    5  503    0  0.24611428515E+02 -0.87484811923E+02 -0.75634589746E+02  0.11833002956E+03  0.47000000000E+01 0.  1.
         -5    1    5    5    0  503 -0.14954509893E+02  0.31877129053E+02  0.53140743499E+01  0.35918214168E+02  0.47000000000E+01 0.  1.
<mgrwt>
<rscale>  0 0.27842914E+03</rscale>
<asrwt>0</asrwt>
<pdfrwt beam="1">  1        1 0.15557051E-01 0.27842914E+03</pdfrwt>
<pdfrwt beam="2">  1       -1 0.29485969E-01 0.27842914E+03</pdfrwt>
<totfact> 0.37191721E+03</totfact>
</mgrwt>
</event>
<event>
 8    1  0.8186049E-001  0.3438955E+03  0.7818608E-02  0.1065149E+00
          2   -1    0    0  501    0  0.00000000000E+00  0.00000000000E+00  0.31311577050E+03  0.31311577050E+03  0.00000000000E+00 0.  1.
         -2   -1    0    0    0  501 -0.00000000000E+00 -0.00000000000E+00 -0.94425255248E+02  0.94425255248E+02  0.00000000000E+00 0.  1.
         25    2    1    2    0    0 -0.94592747738E+02  0.69465738038E+02  0.87210862859E+02  0.19133115542E+03  0.12340421285E+03 0.  0.
         25    2    1    2    0    0  0.94592747738E+02 -0.69465738038E+02  0.13147965240E+03  0.21620987033E+03  0.12524588754E+03 0.  0.
          5    1    3    3  502    0  0.34160090317E+01  0.26222350974E+02  0.79399580111E+02  0.83819234846E+02  0.47000000000E+01 0. -1.
         -5    1    3    3    0  502 -0.98008756770E+02  0.43243387064E+02  0.78112827473E+01  0.10751192058E+03  0.47000000000E+01 0. -1.
          5    1    4    4  503    0  0.16938567941E+02  0.15453090727E+02 -0.16543519833E+02  0.28661666828E+02  0.47000000000E+01 0.  1.
         -5    1    4    4    0  503  0.77654179797E+02 -0.84918828765E+02  0.14802317223E+03  0.18754820350E+03  0.47000000000E+01 0.  1.
<mgrwt>
<rscale>  0 0.34389555E+03</rscale>
<asrwt>0</asrwt>
<pdfrwt beam="1">  1        2 0.48171657E-01 0.34389555E+03</pdfrwt>
<pdfrwt beam="2">  1       -2 0.14526962E-01 0.34389555E+03</pdfrwt>
<totfact> 0.37791570E+03</totfact>
</mgrwt>
</event>
<event>
 9    1  0.8186049E-001  0.2644862E+03  0.7818608E-02  0.1104477E+00
          2   -1    0    0  501    0  0.00000000000E+00  0.00000000000E+00  0.18829129447E+03  0.18829129447E+03  0.00000000000E+00 0. -1.
         -2   -1    0    0    0  501 -0.00000000000E+00 -0.00000000000E+00 -0.92878648247E+02  0.92878648247E+02  0.00000000000E+00 0. -1.
         35    2    1    2    0    0  0.00000000000E+00  0.00000000000E+00  0.95412646222E+02  0.28116994272E+03  0.26448622578E+03 0.  0.
         25    2    3    3    0    0 -0.90358302003E+00  0.27207772620E+02  0.32076159722E+02  0.13841029973E+03  0.13186148678E+03 0.  0.
         25    2    3    3    0    0  0.90358302003E+00 -0.27207772620E+02  0.63336486499E+02  0.14275964299E+03  0.12501090268E+03 0.  0.
          5    1    4    4  502    0  0.61731725130E+02  0.31890709417E+02  0.49049857104E+01  0.69813839025E+02  0.47000000000E+01 0. -1.
         -5    1    4    4    0  502 -0.62635308150E+02 -0.46829367977E+01  0.27171174012E+02  0.68596460705E+02  0.47000000000E+01 0. -1.
          5    1    5    5  503    0 -0.50797940864E+02  0.11896089354E+02  0.54255133392E+00  0.52386373227E+02  0.47000000000E+01 0. -1.
         -5    1    5    5    0  503  0.51701523884E+02 -0.39103861974E+02  0.62793935166E+02  0.90373269758E+02  0.47000000000E+01 0. -1.
<mgrwt>
<rscale>  0 0.26448623E+03</rscale>
<asrwt>0</asrwt>
<pdfrwt beam="1">  1        2 0.28967891E-01 0.26448623E+03</pdfrwt>
<pdfrwt beam="2">  1       -2 0.14289023E-01 0.26448623E+03</pdfrwt>
<totfact> 0.66983123E+03</totfact>
</mgrwt>
</event>
<event>
 9    1  0.8186049E-001  0.2780254E+03  0.7818608E-02  0.1096772E+00
         -1   -1    0    0    0  501 -0.00000000000E+00  0.00000000000E+00  0.21331402215E+03  0.21331402215E+03  0.00000000000E+00 0.  1.
          1   -1    0    0  501    0  0.00000000000E+00 -0.00000000000E+00 -0.90591931810E+02  0.90591931810E+02  0.00000000000E+00 0.  1.
         35    2    1    2    0    0  0.00000000000E+00 -0.35527136788E-14  0.12272209033E+03  0.30390595396E+03  0.27802538984E+03 0.  0.
         25    2    3    3    0    0  0.32941220173E+02  0.93759642020E+01  0.53852510445E+01  0.12935316076E+03  0.12462024948E+03 0.  0.
         25    2    3    3    0    0 -0.32941220173E+02 -0.93759642020E+01  0.11733683929E+03  0.17455279319E+03  0.12461023660E+03 0.  0.
          5    1    4    4  502    0 -0.40292195034E+02 -0.83463965839E+01 -0.24545678946E+02  0.48142534951E+02  0.47000000000E+01 0. -1.
         -5    1    4    4    0  502  0.73233415207E+02  0.17722360786E+02  0.29930929990E+02  0.81210625812E+02  0.47000000000E+01 0. -1.
          5    1    5    5  503    0 -0.51140710645E+02 -0.56682766262E+02  0.84499224111E+02  0.11397594988E+03  0.47000000000E+01 0. -1.
         -5    1    5    5    0  503  0.18199490472E+02  0.47306802060E+02  0.32837615180E+02  0.60576843309E+02  0.47000000000E+01 0. -1.
<mgrwt>
<rscale>  0 0.27802539E+03</rscale>
<asrwt>0</asrwt>
<pdfrwt beam="1">  1        1 0.13937220E-01 0.27802539E+03</pdfrwt>
<pdfrwt beam="2">  1       -1 0.32817542E-01 0.27802539E+03</pdfrwt>
<totfact> 0.35783437E+03</totfact>
</mgrwt>
</event>
<event>
 9    1  0.8186049E-001  0.2720361E+03  0.7818608E-02  0.1100120E+00
         -1   -1    0    0    0  501 -0.00000000000E+00  0.00000000000E+00  0.19674579195E+03  0.19674579195E+03  0.00000000000E+00 0.  1.
          1   -1    0    0  501    0  0.00000000000E+00 -0.00000000000E+00 -0.94034600829E+02  0.94034600829E+02  0.00000000000E+00 0.  1.
         35    2    1    2    0    0  0.00000000000E+00 -0.35527136788E-14  0.10271119113E+03  0.29078039278E+03  0.27203611533E+03 0.  0.
         25    2    3    3    0    0 -0.39420930439E+02  0.30172303370E+02  0.69935779416E+02  0.15272724271E+03  0.12637333491E+03 0.  0.
         25    2    3    3    0    0  0.39420930439E+02 -0.30172303370E+02  0.32775411710E+02  0.13805315007E+03  0.12457956087E+03 0.  0.
          5    1    4    4  502    0 -0.43505646640E+02  0.25900638053E+01  0.10137273222E+03  0.11044442294E+03  0.47000000000E+01 0.  1.
         -5    1    4    4    0  502  0.40847162010E+01  0.27582239564E+02 -0.31436952807E+02  0.42282819769E+02  0.47000000000E+01 0.  1.
          5    1    5    5  503    0  0.21064857405E+02  0.57558244875E+01  0.75717768480E+02  0.78943829376E+02  0.47000000000E+01 0.  1.
         -5    1    5    5    0  503  0.18356073033E+02 -0.35928127857E+02 -0.42942356770E+02  0.59109320699E+02  0.47000000000E+01 0.  1.
<mgrwt>
<rscale>  0 0.27203612E+03</rscale>
<asrwt>0</asrwt>
<pdfrwt beam="1">  1        1 0.14466862E-01 0.27203612E+03</pdfrwt>
<pdfrwt beam="2">  1       -1 0.30268583E-01 0.27203612E+03</pdfrwt>
<totfact> 0.39102998E+03</totfact>
</mgrwt>
</event>
<event>
 9    1  0.8186049E-001  0.2751034E+03  0.7818608E-02  0.1098394E+00
          1   -1    0    0  501    0  0.00000000000E+00  0.00000000000E+00  0.10885126003E+03  0.10885126003E+03  0.00000000000E+00 0.  1.
         -1   -1    0    0    0  501 -0.00000000000E+00 -0.00000000000E+00 -0.17381952038E+03  0.17381952038E+03  0.00000000000E+00 0.  1.
         35    2    1    2    0    0  0.00000000000E+00  0.00000000000E+00 -0.64968260349E+02  0.28267078042E+03  0.27510342646E+03 0.  0.
         25    2    3    3    0    0  0.47281450806E+02 -0.21362262116E+02 -0.57493056835E+02  0.14676342645E+03  0.12466823944E+03 0.  0.
         25    2    3    3    0    0 -0.47281450806E+02  0.21362262116E+02 -0.74752035140E+01  0.13590735397E+03  0.12539158011E+03 0.  0.
          5    1    4    4  502    0  0.12185142427E+02 -0.71963513490E+02 -0.34426440910E+02  0.80836222101E+02  0.47000000000E+01 0. -1.
         -5    1    4    4    0  502  0.35096308379E+02  0.50601251374E+02 -0.23066615924E+02  0.65927204345E+02  0.47000000000E+01 0. -1.
          5    1    5    5  503    0 -0.36340344171E+02  0.69419096352E+02 -0.26527480241E+02  0.82857882912E+02  0.47000000000E+01 0. -1.
         -5    1    5    5    0  503 -0.10941106635E+02 -0.48056834237E+02  0.19052276727E+02  0.53049471060E+02  0.47000000000E+01 0. -1.
<mgrwt>
<rscale>  0 0.27510343E+03</rscale>
<asrwt>0</asrwt>
<pdfrwt beam="1">  1        1 0.16746348E-01 0.27510343E+03</pdfrwt>
<pdfrwt beam="2">  1       -1 0.26741464E-01 0.27510343E+03</pdfrwt>
<totfact> 0.39818517E+03</totfact>
</mgrwt>
</event>
<event>
 9    1  0.8186049E-001  0.2786142E+03  0.7818608E-02  0.1096448E+00
          2   -1    0    0  501    0  0.00000000000E+00  0.00000000000E+00  0.55572238886E+03  0.55572238886E+03  0.00000000000E+00 0. -1.
         -2   -1    0    0    0  501 -0.00000000000E+00 -0.00000000000E+00 -0.34921162357E+02  0.34921162357E+02  0.00000000000E+00 0. -1.
         35    2    1    2    0    0  0.00000000000E+00  0.35527136788E-14  0.52080122651E+03  0.59064355122E+03  0.27861422625E+03 0.  0.
         25    2    3    3    0    0  0.16468458655E+02 -0.20685356362E+02  0.38063114969E+03  0.40108303966E+03  0.12364642530E+03 0.  0.
         25    2    3    3    0    0 -0.16468458655E+02  0.20685356362E+02  0.14017007682E+03  0.18956051156E+03  0.12484567678E+03 0.  0.
          5    1    4    4  502    0 -0.40719163834E+02 -0.44932327499E+02  0.23386691055E+03  0.24164599357E+03  0.47000000000E+01 0. -1.
         -5    1    4    4    0  502  0.57187622489E+02  0.24246971136E+02  0.14676423914E+03  0.15943704609E+03  0.47000000000E+01 0. -1.
          5    1    5    5  503    0  0.12558948392E+02 -0.83160412302E+01  0.14687395863E+03  0.14771910320E+03  0.47000000000E+01 0. -1.
         -5    1    5    5    0  503 -0.29027407047E+02  0.29001397593E+02 -0.67038818150E+01  0.41841408361E+02  0.47000000000E+01 0. -1.
<mgrwt>
<rscale>  0 0.27861423E+03</rscale>
<asrwt>0</asrwt>
<pdfrwt beam="1">  1        2 0.85495746E-01 0.27861423E+03</pdfrwt>
<pdfrwt beam="2">  1       -2 0.53724869E-02 0.27861423E+03</pdfrwt>
<totfact> 0.96337768E+03</totfact>
</mgrwt>
</event>
<event>
 9    1  0.8186049E-001  0.2842343E+03  0.7818608E-02  0.1093398E+00
         -2   -1    0    0    0  501 -0.00000000000E+00  0.00000000000E+00  0.32505810933E+02  0.32505810933E+02  0.00000000000E+00 0.  1.
          2   -1    0    0  501    0  0.00000000000E+00 -0.00000000000E+00 -0.62134366880E+03  0.62134366880E+03  0.00000000000E+00 0.  1.
         35    2    1    2    0    0  0.00000000000E+00  0.00000000000E+00 -0.58883785787E+03  0.65384947974E+03  0.28423426832E+03 0.  0.
         25    2    3    3    0    0  0.11796397977E+02  0.29259101660E+02 -0.15687758623E+03  0.20316471516E+03  0.12518016771E+03 0.  0.
         25    2    3    3    0    0 -0.11796397977E+02 -0.29259101660E+02 -0.43196027164E+03  0.45068476458E+03  0.12462676563E+03 0.  0.
          5    1    4    4  502    0 -0.11758292252E+02 -0.25836899351E+02 -0.13680428507E+03  0.13979737200E+03  0.47000000000E+01 0.  1.
         -5    1    4    4    0  502  0.23554690228E+02  0.55096001010E+02 -0.20073301156E+02  0.63367343154E+02  0.47000000000E+01 0.  1.
          5    1    5    5  503    0  0.15951346855E+02 -0.71656711578E+02 -0.19722469930E+03  0.21049656005E+03  0.47000000000E+01 0. -1.
         -5    1    5    5    0  503 -0.27747744831E+02  0.42397609918E+02 -0.23473557234E+03  0.24018820453E+03  0.47000000000E+01 0. -1.
<mgrwt>
<rscale>  0 0.28423427E+03</rscale>
<asrwt>0</asrwt>
<pdfrwt beam="1">  1        2 0.95591332E-01 0.28423427E+03</pdfrwt>
<pdfrwt beam="2">  1       -2 0.50008941E-02 0.28423427E+03</pdfrwt>
<totfact> 0.94500351E+03</totfact>
</mgrwt>
</event>
<event>
 9    1  0.8186049E-001  0.2737313E+03  0.7818608E-02  0.1099163E+00
          1   -1    0    0  501    0  0.00000000000E+00  0.00000000000E+00  0.45188010043E+02  0.45188010043E+02  0.00000000000E+00 0.  1.
         -1   -1    0    0    0  501 -0.00000000000E+00 -0.00000000000E+00 -0.41453922137E+03  0.41453922137E+03  0.00000000000E+00 0.  1.
         35    2    1    2    0    0  0.00000000000E+00 -0.71054273576E-14 -0.36935121133E+03  0.45972723141E+03  0.27373127332E+03 0.  0.
         25    2    3    3    0    0 -0.47443744217E+02  0.22417297219E+02 -0.17594333480E+03  0.22348563693E+03  0.12742185359E+03 0.  0.
         25    2    3    3    0    0  0.47443744217E+02 -0.22417297219E+02 -0.19340787652E+03  0.23624159448E+03  0.12510012064E+03 0.  0.
          5    1    4    4  502    0 -0.50632162566E+02  0.56139866253E+02 -0.44899445564E+02  0.88053112840E+02  0.47000000000E+01 0. -1.
         -5    1    4    4    0  502  0.31884183483E+01 -0.33722569034E+02 -0.13104388924E+03  0.13543252409E+03  0.47000000000E+01 0. -1.
          5    1    5    5  503    0  0.15477337369E+01  0.46505987916E+02 -0.10540115769E+03  0.11531130228E+03  0.47000000000E+01 0.  1.
         -5    1    5    5    0  503  0.45896010480E+02 -0.68923285135E+02 -0.88006718830E+02  0.12093029220E+03  0.47000000000E+01 0.  1.
<mgrwt>
<rscale>  0 0.27373127E+03</rscale>
<asrwt>0</asrwt>
<pdfrwt beam="1">  1        1 0.69520017E-02 0.27373127E+03</pdfrwt>
<pdfrwt beam="2">  1       -1 0.63775263E-01 0.27373127E+03</pdfrwt>
<totfact> 0.27122480E+03</totfact>
</mgrwt>
</event>
<event>
 9    1  0.8186049E-001  0.2756599E+03  0.7818608E-02  0.1098083E+00
         -1   -1    0    0    0  501 -0.00000000000E+00  0.00000000000E+00  0.13572044159E+03  0.13572044159E+03  0.00000000000E+00 0.  1.
          1   -1    0    0  501    0  0.00000000000E+00 -0.00000000000E+00 -0.13997222327E+03  0.13997222327E+03  0.00000000000E+00 0.  1.
         35    2    1    2    0    0 -0.88817841970E-14 -0.14210854715E-13 -0.42517816770E+01  0.27569266486E+03  0.27565987705E+03 0.  0.
         25    2    3    3    0    0 -0.86116809380E+01 -0.53928801691E+02  0.22081156607E+02  0.13841033467E+03  0.12524921782E+03 0.  0.
         25    2    3    3    0    0  0.86116809380E+01  0.53928801691E+02 -0.26332938284E+02  0.13728233020E+03  0.12316873729E+03 0.  0.
          5    1    4    4  502    0  0.49502737444E+01 -0.37587056270E+01 -0.49342888794E+02  0.49954416748E+02  0.47000000000E+01 0.  1.
         -5    1    4    4    0  502 -0.13561954682E+02 -0.50170096064E+02  0.71424045401E+02  0.88455917921E+02  0.47000000000E+01 0.  1.
          5    1    5    5  503    0  0.58407260432E+02  0.45964948541E+02  0.97324686306E+01  0.75106561040E+02  0.47000000000E+01 0. -1.
         -5    1    5    5    0  503 -0.49795579494E+02  0.79638531494E+01 -0.36065406915E+02  0.62175769155E+02  0.47000000000E+01 0. -1.
<mgrwt>
<rscale>  0 0.27565988E+03</rscale>
<asrwt>0</asrwt>
<pdfrwt beam="1">  1        1 0.21534188E-01 0.27565988E+03</pdfrwt>
<pdfrwt beam="2">  1       -1 0.20880068E-01 0.27565988E+03</pdfrwt>
<totfact> 0.43310330E+03</totfact>
</mgrwt>
</event>
<event>
 9    1  0.8186049E-001  0.2755279E+03  0.7818608E-02  0.1098157E+00
         -1   -1    0    0    0  501 -0.00000000000E+00  0.00000000000E+00  0.48523343248E+01  0.48523343248E+01  0.00000000000E+00 0. -1.
          1   -1    0    0  501    0  0.00000000000E+00 -0.00000000000E+00 -0.39112933274E+04  0.39112933274E+04  0.00000000000E+00 0. -1.
         35    2    1    2    0    0 -0.71054273576E-14  0.00000000000E+00 -0.39064409931E+04  0.39161456618E+04  0.27552787784E+03 0.  0.
         25    2    3    3    0    0  0.31332989746E+02  0.98779555590E+01 -0.26577914323E+04  0.26608079231E+04  0.12232814660E+03 0.  0.
         25    2    3    3    0    0 -0.31332989746E+02 -0.98779555590E+01 -0.12486495608E+04  0.12553377387E+04  0.12517101218E+03 0.  0.
          5    1    4    4  502    0 -0.28949675813E+02  0.46240948303E+02 -0.97283712286E+03  0.97437696332E+03  0.47000000000E+01 0.  1.
         -5    1    4    4    0  502  0.60282665560E+02 -0.36362992744E+02 -0.16849543095E+04  0.16864309598E+04  0.47000000000E+01 0.  1.
          5    1    5    5  503    0  0.35773651401E+02 -0.25309055291E+02 -0.21975350850E+03  0.22412942000E+03  0.47000000000E+01 0.  1.
         -5    1    5    5    0  503 -0.67106641147E+02  0.15431099732E+02 -0.10288960523E+04  0.10312083187E+04  0.47000000000E+01 0.  1.
<mgrwt>
<rscale>  0 0.27552788E+03</rscale>
<asrwt>0</asrwt>
<pdfrwt beam="1">  1        1 0.60174085E+00 0.27552788E+03</pdfrwt>
<pdfrwt beam="2">  1       -1 0.74650874E-03 0.27552788E+03</pdfrwt>
<totfact> 0.42672623E+02</totfact>
</mgrwt>
</event>
<event>
 9    1  0.8186049E-001  0.2799642E+03  0.7818608E-02  0.1095708E+00
         -1   -1    0    0    0  501 -0.00000000000E+00  0.00000000000E+00  0.23392932157E+02  0.23392932157E+02  0.00000000000E+00 0. -1.
          1   -1    0    0  501    0  0.00000000000E+00 -0.00000000000E+00 -0.83764580972E+03  0.83764580972E+03  0.00000000000E+00 0. -1.
         35    2    1    2    0    0  0.00000000000E+00  0.00000000000E+00 -0.81425287756E+03  0.86103874187E+03  0.27996422342E+03 0.  0.
         25    2    3    3    0    0 -0.53700170011E+02  0.31134201163E+02 -0.42245786408E+03  0.44509162648E+03  0.12562986226E+03 0.  0.
         25    2    3    3    0    0  0.53700170011E+02 -0.31134201163E+02 -0.39179501347E+03  0.41594711540E+03  0.12512243397E+03 0.  0.
          5    1    4    4  502    0 -0.55501533193E+02  0.23801653817E+02 -0.70195371813E+02  0.92716876216E+02  0.47000000000E+01 0. -1.
         -5    1    4    4    0  502  0.18013631827E+01  0.73325473459E+01 -0.35226249227E+03  0.35237475026E+03  0.47000000000E+01 0. -1.
          5    1    5    5  503    0  0.16626476097E+00  0.17548386438E+02 -0.69400592149E+00  0.18180900824E+02  0.47000000000E+01 0. -1.
         -5    1    5    5    0  503  0.53533905250E+02 -0.48682587601E+02 -0.39110100755E+03  0.39776621457E+03  0.47000000000E+01 0. -1.
<mgrwt>
<rscale>  0 0.27996422E+03</rscale>
<asrwt>0</asrwt>
<pdfrwt beam="1">  1        1 0.12886859E+00 0.27996422E+03</pdfrwt>
<pdfrwt beam="2">  1       -1 0.35989124E-02 0.27996422E+03</pdfrwt>
<totfact> 0.61657214E+03</totfact>
</mgrwt>
</event>
<event>
 9    1  0.8186049E-001  0.2785043E+03  0.7818608E-02  0.1096509E+00
          1   -1    0    0  501    0  0.00000000000E+00  0.00000000000E+00  0.19111164613E+03  0.19111164613E+03  0.00000000000E+00 0.  1.
         -1   -1    0    0    0  501 -0.00000000000E+00 -0.00000000000E+00 -0.10146508169E+03  0.10146508169E+03  0.00000000000E+00 0.  1.
         35    2    1    2    0    0 -0.35527136788E-14 -0.14210854715E-13  0.89646564439E+02  0.29257672782E+03  0.27850428210E+03 0.  0.
         25    2    3    3    0    0 -0.19208193745E+02 -0.45394349875E+02  0.61334085517E+01  0.13398445123E+03  0.12443718400E+03 0.  0.
         25    2    3    3    0    0  0.19208193745E+02  0.45394349875E+02  0.83513155888E+02  0.15859227659E+03  0.12548888908E+03 0.  0.
          5    1    4    4  502    0  0.29635554659E+02  0.18973372477E+02 -0.28911949546E+02  0.45784776833E+02  0.47000000000E+01 0. -1.
         -5    1    4    4    0  502 -0.48843748404E+02 -0.64367722352E+02  0.35045358098E+02  0.88199674394E+02  0.47000000000E+01 0. -1.
          5    1    5    5  503    0  0.20267445176E+02  0.24709410318E+02 -0.29412650278E+02  0.43686591634E+02  0.47000000000E+01 0. -1.
         -5    1    5    5    0  503 -0.10592514315E+01  0.20684939558E+02  0.11292580617E+03  0.11490568496E+03  0.47000000000E+01 0. -1.
<mgrwt>
<rscale>  0 0.27850428E+03</rscale>
<asrwt>0</asrwt>
<pdfrwt beam="1">  1        1 0.29401792E-01 0.27850428E+03</pdfrwt>
<pdfrwt beam="2">  1       -1 0.15610013E-01 0.27850428E+03</pdfrwt>
<totfact> 0.46575352E+03</totfact>
</mgrwt>
</event>
<event>
 9    1  0.8186049E-001  0.2771807E+03  0.7818608E-02  0.1097239E+00
          1   -1    0    0  501    0  0.00000000000E+00  0.00000000000E+00  0.20499365386E+03  0.20499365386E+03  0.00000000000E+00 0. -1.
         -1   -1    0    0    0  501 -0.00000000000E+00 -0.00000000000E+00 -0.93696974711E+02  0.93696974711E+02  0.00000000000E+00 0. -1.
         35    2    1    2    0    0  0.35527136788E-14  0.00000000000E+00  0.11129667914E+03  0.29869062857E+03  0.27718070064E+03 0.  0.
         25    2    3    3    0    0 -0.30611315425E+02  0.72332573812E+01  0.10895499183E+03  0.16989868832E+03  0.12651087464E+03 0.  0.
         25    2    3    3    0    0  0.30611315425E+02 -0.72332573812E+01  0.23416873141E+01  0.12879194025E+03  0.12486996328E+03 0.  0.
          5    1    4    4  502    0 -0.14194779654E+02 -0.57327342054E+02  0.29741364017E+02  0.66291437230E+02  0.47000000000E+01 0. -1.
         -5    1    4    4    0  502 -0.16416535771E+02  0.64560599436E+02  0.79213627814E+02  0.10360725109E+03  0.47000000000E+01 0. -1.
          5    1    5    5  503    0  0.36981111375E+01 -0.64551394078E+02  0.65406913517E+01  0.65156957777E+02  0.47000000000E+01 0. -1.
         -5    1    5    5    0  503  0.26913204288E+02  0.57318136697E+02 -0.41990040376E+01  0.63634982473E+02  0.47000000000E+01 0. -1.
<mgrwt>
<rscale>  0 0.27718070E+03</rscale>
<asrwt>0</asrwt>
<pdfrwt beam="1">  1        1 0.31537485E-01 0.27718070E+03</pdfrwt>
<pdfrwt beam="2">  1       -1 0.14414919E-01 0.27718070E+03</pdfrwt>
<totfact> 0.48369720E+03</totfact>
</mgrwt>
</event>
<event>
 9    1  0.8186049E-001  0.2609032E+03  0.7818608E-02  0.1106602E+00
         -2   -1    0    0    0  501 -0.00000000000E+00  0.00000000000E+00  0.27026664993E+03  0.27026664993E+03  0.00000000000E+00 0.  1.
          2   -1    0    0  501    0  0.00000000000E+00 -0.00000000000E+00 -0.62966035648E+02  0.62966035648E+02  0.00000000000E+00 0.  1.
         35    2    1    2    0    0 -0.71054273576E-14  0.00000000000E+00  0.20730061428E+03  0.33323268558E+03  0.26090319671E+03 0.  0.
         25    2    3    3    0    0  0.23907675820E+02  0.93795774333E+00  0.15377905808E+03  0.19482651941E+03  0.11720459562E+03 0.  0.
         25    2    3    3    0    0 -0.23907675820E+02 -0.93795774333E+00  0.53521556201E+02  0.13840616616E+03  0.12537644566E+03 0.  0.
          5    1    4    4  502    0  0.59232714041E+02  0.93436178623E+01  0.14527932073E+03  0.15723863596E+03  0.47000000000E+01 0. -1.
         -5    1    4    4    0  502 -0.35325038221E+02 -0.84056601190E+01  0.84997373519E+01  0.37587883452E+02  0.47000000000E+01 0. -1.
          5    1    5    5  503    0 -0.35160792578E+02  0.14920515419E+02 -0.32325693639E+02  0.50258766244E+02  0.47000000000E+01 0.  1.
         -5    1    5    5    0  503  0.11253116758E+02 -0.15858473162E+02  0.85847249840E+02  0.88147399921E+02  0.47000000000E+01 0.  1.
<mgrwt>
<rscale>  0 0.26090320E+03</rscale>
<asrwt>0</asrwt>
<pdfrwt beam="1">  1        2 0.96870826E-02 0.26090320E+03</pdfrwt>
<pdfrwt beam="2">  1       -2 0.41579484E-01 0.26090320E+03</pdfrwt>
<totfact> 0.36598530E+03</totfact>
</mgrwt>
</event>
<event>
 9    1  0.8186049E-001  0.2733186E+03  0.7818608E-02  0.1099395E+00
          2   -1    0    0  501    0  0.00000000000E+00  0.00000000000E+00  0.15405707305E+03  0.15405707305E+03  0.00000000000E+00 0.  1.
         -2   -1    0    0    0  501 -0.00000000000E+00 -0.00000000000E+00 -0.12122626866E+03  0.12122626866E+03  0.00000000000E+00 0.  1.
         35    2    1    2    0    0 -0.35527136788E-14 -0.14210854715E-13  0.32830804385E+02  0.27528334171E+03  0.27331859891E+03 0.  0.
         25    2    3    3    0    0 -0.15138650147E+02 -0.45846754482E+02  0.40611691558E+02  0.14015598412E+03  0.12515305337E+03 0.  0.
         25    2    3    3    0    0  0.15138650147E+02  0.45846754482E+02 -0.77808871721E+01  0.13512735759E+03  0.12596728520E+03 0.  0.
          5    1    4    4  502    0  0.14545136838E+02  0.35882009821E+02 -0.88725071286E+01  0.39998637691E+02  0.47000000000E+01 0. -1.
         -5    1    4    4    0  502 -0.29683786984E+02 -0.81728764303E+02  0.49484198686E+02  0.10015734643E+03  0.47000000000E+01 0. -1.
          5    1    5    5  503    0  0.46027203897E+02  0.45792407471E+02 -0.50368749109E+02  0.82307648292E+02  0.47000000000E+01 0. -1.
         -5    1    5    5    0  503 -0.30888553750E+02  0.54347011934E-01  0.42587861937E+02  0.52819709302E+02  0.47000000000E+01 0. -1.
<mgrwt>
<rscale>  0 0.27331860E+03</rscale>
<asrwt>0</asrwt>
<pdfrwt beam="1">  1        2 0.23701088E-01 0.27331860E+03</pdfrwt>
<pdfrwt beam="2">  1       -2 0.18650195E-01 0.27331860E+03</pdfrwt>
<totfact> 0.53761478E+03</totfact>
</mgrwt>
</event>
<event>
 9    1  0.8186049E-001  0.2747525E+03  0.7818608E-02  0.1098590E+00
          2   -1    0    0  501    0  0.00000000000E+00  0.00000000000E+00  0.70065908639E+03  0.70065908639E+03  0.00000000000E+00 0. -1.
         -2   -1    0    0    0  501 -0.00000000000E+00 -0.00000000000E+00 -0.26934970117E+02  0.26934970117E+02  0.00000000000E+00 0. -1.
         35    2    1    2    0    0  0.17763568394E-14  0.35527136788E-14  0.67372411627E+03  0.72759405651E+03  0.27475248173E+03 0.  0.
         25    2    3    3    0    0 -0.72461662700E+01  0.17172059992E+02  0.47833822585E+03  0.49485507798E+03  0.12540615349E+03 0.  0.
         25    2    3    3    0    0  0.72461662700E+01 -0.17172059992E+02  0.19538589043E+03  0.23273897852E+03  0.12507757343E+03 0.  0.
          5    1    4    4  502    0 -0.30065086185E+02 -0.17591526566E+02  0.35197014942E+02  0.49742246381E+02  0.47000000000E+01 0. -1.
         -5    1    4    4    0  502  0.22818919915E+02  0.34763586559E+02  0.44314121090E+03  0.44511283160E+03  0.47000000000E+01 0. -1.
          5    1    5    5  503    0  0.90138944807E+01 -0.66568363111E+02  0.15407999880E+03  0.16815270825E+03  0.47000000000E+01 0.  1.
         -5    1    5    5    0  503 -0.17677282107E+01  0.49396303119E+02  0.41305891630E+02  0.64586270276E+02  0.47000000000E+01 0.  1.
<mgrwt>
<rscale>  0 0.27475248E+03</rscale>
<asrwt>0</asrwt>
<pdfrwt beam="1">  1        2 0.10779369E+00 0.27475248E+03</pdfrwt>
<pdfrwt beam="2">  1       -2 0.41438421E-02 0.27475248E+03</pdfrwt>
<totfact> 0.10870549E+04</totfact>
</mgrwt>
</event>
<event>
 9    1  0.8186049E-001  0.2754079E+03  0.7818608E-02  0.1098224E+00
         -2   -1    0    0    0  501 -0.00000000000E+00  0.00000000000E+00  0.15491146712E+02  0.15491146712E+02  0.00000000000E+00 0. -1.
          2   -1    0    0  501    0  0.00000000000E+00 -0.00000000000E+00 -0.12240781561E+04  0.12240781561E+04  0.00000000000E+00 0. -1.
         35    2    1    2    0    0  0.00000000000E+00 -0.71054273576E-14 -0.12085870094E+04  0.12395693028E+04  0.27540787427E+03 0.  0.
         25    2    3    3    0    0 -0.33562685308E+02  0.39661647362E+02 -0.66746349421E+03  0.68103061556E+03  0.12488267740E+03 0.  0.
         25    2    3    3    0    0  0.33562685308E+02 -0.39661647362E+02 -0.54112351516E+03  0.55853868723E+03  0.12826264600E+03 0.  0.
          5    1    4    4  502    0  0.67770394549E+01 -0.16999103036E+02 -0.13163857790E+02  0.23027698968E+02  0.47000000000E+01 0.  1.
         -5    1    4    4    0  502 -0.40339724763E+02  0.56660750399E+02 -0.65429963642E+03  0.65800291660E+03  0.47000000000E+01 0.  1.
          5    1    5    5  503    0  0.75873351908E+02  0.38388271784E+01 -0.26061502508E+03  0.27150282396E+03  0.47000000000E+01 0. -1.
         -5    1    5    5    0  503 -0.42310666600E+02 -0.43500474541E+02 -0.28050849008E+03  0.28703586326E+03  0.47000000000E+01 0. -1.
<mgrwt>
<rscale>  0 0.27540787E+03</rscale>
<asrwt>0</asrwt>
<pdfrwt beam="1">  1        2 0.18831978E+00 0.27540787E+03</pdfrwt>
<pdfrwt beam="2">  1       -2 0.23832525E-02 0.27540787E+03</pdfrwt>
<totfact> 0.11536496E+04</totfact>
</mgrwt>
</event>
<event>
 9    1  0.8186049E-001  0.2746729E+03  0.7818608E-02  0.1098635E+00
         -2   -1    0    0    0  501 -0.00000000000E+00  0.00000000000E+00  0.40044242861E+03  0.40044242861E+03  0.00000000000E+00 0. -1.
          2   -1    0    0  501    0  0.00000000000E+00 -0.00000000000E+00 -0.47101170588E+02  0.47101170588E+02  0.00000000000E+00 0. -1.
         35    2    1    2    0    0  0.35527136788E-14  0.10658141036E-13  0.35334125802E+03  0.44754359920E+03  0.27467294836E+03 0.  0.
         25    2    3    3    0    0  0.84007588081E+01  0.21571424067E+02  0.26118085259E+03  0.29057874212E+03  0.12523844667E+03 0.  0.
         25    2    3    3    0    0 -0.84007588081E+01 -0.21571424067E+02  0.92160405430E+02  0.15696485708E+03  0.12493409040E+03 0.  0.
          5    1    4    4  502    0 -0.28185512171E+02 -0.13841644483E+02  0.86291074817E+01  0.32902366393E+02  0.47000000000E+01 0.  1.
         -5    1    4    4    0  502  0.36586270979E+02  0.35413068550E+02  0.25255174511E+03  0.25767637572E+03  0.47000000000E+01 0.  1.
          5    1    5    5  503    0 -0.64775051349E+01 -0.73613294947E+02  0.62172198410E+02  0.96686852885E+02  0.47000000000E+01 0. -1.
         -5    1    5    5    0  503 -0.19232536733E+01  0.52041870880E+02  0.29988207020E+02  0.60278004194E+02  0.47000000000E+01 0. -1.
<mgrwt>
<rscale>  0 0.27467295E+03</rscale>
<asrwt>0</asrwt>
<pdfrwt beam="1">  1        2 0.72463342E-02 0.27467295E+03</pdfrwt>
<pdfrwt beam="2">  1       -2 0.61606525E-01 0.27467295E+03</pdfrwt>
<totfact> 0.24102267E+03</totfact>
</mgrwt>
</event>
<event>
 9    1  0.8186049E-001  0.2758636E+03  0.7818608E-02  0.1097970E+00
         -2   -1    0    0    0  501 -0.00000000000E+00  0.00000000000E+00  0.55195496302E+02  0.55195496302E+02  0.00000000000E+00 0.  1.
          2   -1    0    0  501    0  0.00000000000E+00 -0.00000000000E+00 -0.34468708609E+03  0.34468708609E+03  0.00000000000E+00 0.  1.
         35    2    1    2    0    0  0.00000000000E+00  0.00000000000E+00 -0.28949158979E+03  0.39988258239E+03  0.27586355167E+03 0.  0.
         25    2    3    3    0    0  0.39358467606E+02 -0.44939706400E+02 -0.15678655090E+03  0.20823881482E+03  0.12333983651E+03 0.  0.
         25    2    3    3    0    0 -0.39358467606E+02  0.44939706400E+02 -0.13270503888E+03  0.19164376757E+03  0.12469178048E+03 0.  0.
          5    1    4    4  502    0 -0.11216645135E+02 -0.62239367157E+02 -0.13714736340E+03  0.15109944156E+03  0.47000000000E+01 0.  1.
         -5    1    4    4    0  502  0.50575112741E+02  0.17299660757E+02 -0.19639187507E+02  0.57139373264E+02  0.47000000000E+01 0.  1.
          5    1    5    5  503    0 -0.78049190835E+01 -0.43372668339E+02 -0.40256453429E+02  0.59873008638E+02  0.47000000000E+01 0. -1.
         -5    1    5    5    0  503 -0.31553548522E+02  0.88312374739E+02 -0.92448585453E+02  0.13177075893E+03  0.47000000000E+01 0. -1.
<mgrwt>
<rscale>  0 0.27586355E+03</rscale>
<asrwt>0</asrwt>
<pdfrwt beam="1">  1        2 0.53028780E-01 0.27586355E+03</pdfrwt>
<pdfrwt beam="2">  1       -2 0.84916152E-02 0.27586355E+03</pdfrwt>
<totfact> 0.80319101E+03</totfact>
</mgrwt>
</event>
<event>
 9    1  0.8186049E-001  0.2770955E+03  0.7818608E-02  0.1097286E+00
          2   -1    0    0  501    0  0.00000000000E+00  0.00000000000E+00  0.15278300397E+03  0.15278300397E+03  0.00000000000E+00 0. -1.
         -2   -1    0    0    0  501 -0.00000000000E+00 -0.00000000000E+00 -0.12563886082E+03  0.12563886082E+03  0.00000000000E+00 0. -1.
         35    2    1    2    0    0  0.00000000000E+00 -0.71054273576E-14  0.27144143147E+02  0.27842186479E+03  0.27709552556E+03 0.  0.
         25    2    3    3    0    0 -0.34226396589E+02  0.44475245656E+02  0.75103069183E+01  0.13756500669E+03  0.12537237597E+03 0.  0.
         25    2    3    3    0    0  0.34226396589E+02 -0.44475245656E+02  0.19633836229E+02  0.14085685810E+03  0.12769366957E+03 0.  0.
          5    1    4    4  502    0  0.39472909846E+02  0.17259796016E+02  0.33397351738E+02  0.54712743244E+02  0.47000000000E+01 0.  1.
         -5    1    4    4    0  502 -0.73699306435E+02  0.27215449640E+02 -0.25887044819E+02  0.82852263442E+02  0.47000000000E+01 0.  1.
          5    1    5    5  503    0  0.70742065418E+02 -0.10334078988E+02 -0.22725569516E+02  0.75164981993E+02  0.47000000000E+01 0.  1.
         -5    1    5    5    0  503 -0.36515668830E+02 -0.34141166667E+02  0.42359405745E+02  0.65691876108E+02  0.47000000000E+01 0.  1.
<mgrwt>
<rscale>  0 0.27709553E+03</rscale>
<asrwt>0</asrwt>
<pdfrwt beam="1">  1        2 0.23505078E-01 0.27709553E+03</pdfrwt>
<pdfrwt beam="2">  1       -2 0.19329055E-01 0.27709553E+03</pdfrwt>
<totfact> 0.51092022E+03</totfact>
</mgrwt>
</event>
<event>
 9    1  0.8186049E-001  0.2746177E+03  0.7818608E-02  0.1098665E+00
          2   -1    0    0  501    0  0.00000000000E+00  0.00000000000E+00  0.30121262538E+03  0.30121262538E+03  0.00000000000E+00 0. -1.
         -2   -1    0    0    0  501 -0.00000000000E+00 -0.00000000000E+00 -0.62592728480E+02  0.62592728480E+02  0.00000000000E+00 0. -1.
         35    2    1    2    0    0  0.00000000000E+00  0.71054273576E-14  0.23861989690E+03  0.36380535386E+03  0.27461769845E+03 0.  0.
         25    2    3    3    0    0 -0.62491297918E+02  0.10924746423E+00  0.14396624994E+03  0.19545957892E+03  0.11650318287E+03 0.  0.
         25    2    3    3    0    0  0.62491297918E+02 -0.10924746423E+00  0.94653646959E+02  0.16834577494E+03  0.12440181995E+03 0.  0.
          5    1    4    4  502    0 -0.66804600232E+02  0.48638415654E+02  0.82205511050E+02  0.11665498762E+03  0.47000000000E+01 0. -1.
         -5    1    4    4    0  502  0.43133023137E+01 -0.48529168190E+02  0.61760738890E+02  0.78804591302E+02  0.47000000000E+01 0. -1.
          5    1    5    5  503    0  0.67570205931E+01  0.35957407523E+02  0.94874457504E+02  0.10179314893E+03  0.47000000000E+01 0. -1.
         -5    1    5    5    0  503  0.55734277325E+02 -0.36066654987E+02 -0.22081054422E+00  0.66552626005E+02  0.47000000000E+01 0. -1.
<mgrwt>
<rscale>  0 0.27461770E+03</rscale>
<asrwt>0</asrwt>
<pdfrwt beam="1">  1        2 0.46340403E-01 0.27461770E+03</pdfrwt>
<pdfrwt beam="2">  1       -2 0.96296507E-02 0.27461770E+03</pdfrwt>
<totfact> 0.76148600E+03</totfact>
</mgrwt>
</event>
<event>
 9    1  0.8186049E-001  0.2730968E+03  0.7818608E-02  0.1099520E+00
          1   -1    0    0  501    0  0.00000000000E+00  0.00000000000E+00  0.27910778796E+03  0.27910778796E+03  0.00000000000E+00 0. -1.
         -1   -1    0    0    0  501 -0.00000000000E+00 -0.00000000000E+00 -0.66803793066E+02  0.66803793066E+02  0.00000000000E+00 0. -1.
         35    2    1    2    0    0  0.00000000000E+00  0.00000000000E+00  0.21230399489E+03  0.34591158102E+03  0.27309675143E+03 0.  0.
         25    2    3    3    0    0 -0.16093809123E+02  0.59005213166E+02  0.11244699314E+03  0.17428523347E+03  0.11828098101E+03 0.  0.
         25    2    3    3    0    0  0.16093809123E+02 -0.59005213166E+02  0.99857001752E+02  0.17162634755E+03  0.12547332984E+03 0.  0.
          5    1    4    4  502    0 -0.47034233444E+02 -0.15041052531E+02  0.25156962638E+02  0.55618478458E+02  0.47000000000E+01 0. -1.
         -5    1    4    4    0  502  0.30940424320E+02  0.74046265697E+02  0.87290030503E+02  0.11866675502E+03  0.47000000000E+01 0. -1.
          5    1    5    5  503    0  0.25123914587E+02  0.32787819169E+02  0.99758344380E+01  0.42753472873E+02  0.47000000000E+01 0.  1.
         -5    1    5    5    0  503 -0.90301054637E+01 -0.91793032334E+02  0.89881167314E+02  0.12887287468E+03  0.47000000000E+01 0.  1.
<mgrwt>
<rscale>  0 0.27309675E+03</rscale>
<asrwt>0</asrwt>
<pdfrwt beam="1">  1        1 0.42939659E-01 0.27309675E+03</pdfrwt>
<pdfrwt beam="2">  1       -1 0.10277507E-01 0.27309675E+03</pdfrwt>
<totfact> 0.55691045E+03</totfact>
</mgrwt>
</event>
<event>
 9    1  0.8186049E-001  0.2688078E+03  0.7818608E-02  0.1101964E+00
         -2   -1    0    0    0  501 -0.00000000000E+00  0.00000000000E+00  0.18738005815E+02  0.18738005815E+02  0.00000000000E+00 0.  1.
          2   -1    0    0  501    0  0.00000000000E+00 -0.00000000000E+00 -0.96405189345E+03  0.96405189345E+03  0.00000000000E+00 0.  1.
         35    2    1    2    0    0  0.00000000000E+00 -0.35527136788E-14 -0.94531388764E+03  0.98278989927E+03  0.26880781228E+03 0.  0.
         25    2    3    3    0    0  0.38897206667E+02 -0.23506533599E+02 -0.53366901002E+03  0.54996864239E+03  0.12488933320E+03 0.  0.
         25    2    3    3    0    0 -0.38897206667E+02  0.23506533599E+02 -0.41164487762E+03  0.43282125688E+03  0.12576639189E+03 0.  0.
          5    1    4    4  502    0 -0.19370297201E+02  0.30947023655E+02 -0.31535817825E+03  0.31749928704E+03  0.47000000000E+01 0. -1.
         -5    1    4    4    0  502  0.58267503868E+02 -0.54453557254E+02 -0.21831083177E+03  0.23246935534E+03  0.47000000000E+01 0. -1.
          5    1    5    5  503    0  0.30335897831E+02  0.70594551186E+01 -0.29081264893E+03  0.29251357128E+03  0.47000000000E+01 0. -1.
         -5    1    5    5    0  503 -0.69233104498E+02  0.16447078481E+02 -0.12083222869E+03  0.14030768560E+03  0.47000000000E+01 0. -1.
<mgrwt>
<rscale>  0 0.26880781E+03</rscale>
<asrwt>0</asrwt>
<pdfrwt beam="1">  1        2 0.14831571E+00 0.26880781E+03</pdfrwt>
<pdfrwt beam="2">  1       -2 0.28827696E-02 0.26880781E+03</pdfrwt>
<totfact> 0.12381653E+04</totfact>
</mgrwt>
</event>
<event>
 9    1  0.8186049E-001  0.2727895E+03  0.7818608E-02  0.1099694E+00
         -2   -1    0    0    0  501 -0.00000000000E+00  0.00000000000E+00  0.12142247640E+02  0.12142247640E+02  0.00000000000E+00 0.  1.
          2   -1    0    0  501    0  0.00000000000E+00 -0.00000000000E+00 -0.15321326716E+04  0.15321326716E+04  0.00000000000E+00 0.  1.
         35    2    1    2    0    0  0.00000000000E+00 -0.71054273576E-14 -0.15199904239E+04  0.15442749192E+04  0.27278954757E+03 0.  0.
         25    2    3    3    0    0  0.59582153240E+00  0.40743082010E+02 -0.57820012956E+03  0.59295933039E+03  0.12500009577E+03 0.  0.
         25    2    3    3    0    0 -0.59582153240E+00 -0.40743082010E+02 -0.94179029436E+03  0.95131558881E+03  0.12795326186E+03 0.  0.
          5    1    4    4  502    0 -0.52390424561E+02  0.47772290610E+02 -0.41841621756E+03  0.42440684426E+03  0.47000000000E+01 0.  1.
         -5    1    4    4    0  502  0.52986246093E+02 -0.70292086001E+01 -0.15978391200E+03  0.16855248613E+03  0.47000000000E+01 0.  1.
          5    1    5    5  503    0  0.57605196152E+02  0.66242643696E+01 -0.35643665914E+03  0.36115290595E+03  0.47000000000E+01 0. -1.
         -5    1    5    5    0  503 -0.58201017684E+02 -0.47367346379E+02 -0.58535363522E+03  0.59016268285E+03  0.47000000000E+01 0. -1.
<mgrwt>
<rscale>  0 0.27278955E+03</rscale>
<asrwt>0</asrwt>
<pdfrwt beam="1">  1        2 0.23571281E+00 0.27278955E+03</pdfrwt>
<pdfrwt beam="2">  1       -2 0.18680374E-02 0.27278955E+03</pdfrwt>
<totfact> 0.11207867E+04</totfact>
</mgrwt>
</event>
<event>
 9    1  0.8186049E-001  0.2757485E+03  0.7818608E-02  0.1098034E+00
          2   -1    0    0  501    0  0.00000000000E+00  0.00000000000E+00  0.41813968627E+03  0.41813968627E+03  0.00000000000E+00 0.  1.
         -2   -1    0    0    0  501 -0.00000000000E+00 -0.00000000000E+00 -0.45461624290E+02  0.45461624290E+02  0.00000000000E+00 0.  1.
         35    2    1    2    0    0 -0.71054273576E-14 -0.71054273576E-14  0.37267806198E+03  0.46360131056E+03  0.27574850366E+03 0.  0.
         25    2    3    3    0    0 -0.25689302714E+02 -0.37346389493E+02  0.12384464697E+03  0.18172513701E+03  0.12502734003E+03 0.  0.
         25    2    3    3    0    0  0.25689302714E+02  0.37346389493E+02  0.24883341502E+03  0.28187617356E+03  0.12442433728E+03 0.  0.
          5    1    4    4  502    0 -0.17581993966E+02 -0.80844354086E+02  0.53993576825E+02  0.98905674447E+02  0.47000000000E+01 0.  1.
         -5    1    4    4    0  502 -0.81073087475E+01  0.43497964593E+02  0.69851070140E+02  0.82819462559E+02  0.47000000000E+01 0.  1.
          5    1    5    5  503    0 -0.41695271178E+02  0.40155512371E+01  0.15974389976E+03  0.16521145178E+03  0.47000000000E+01 0.  1.
         -5    1    5    5    0  503  0.67384573891E+02  0.33330838256E+02  0.89089515260E+02  0.11666472177E+03  0.47000000000E+01 0.  1.
<mgrwt>
<rscale>  0 0.27574850E+03</rscale>
<asrwt>0</asrwt>
<pdfrwt beam="1">  1        2 0.64329180E-01 0.27574850E+03</pdfrwt>
<pdfrwt beam="2">  1       -2 0.69940963E-02 0.27574850E+03</pdfrwt>
<totfact> 0.88144179E+03</totfact>
</mgrwt>
</event>
<event>
 9    1  0.8186049E-001  0.2737524E+03  0.7818608E-02  0.1099151E+00
         -1   -1    0    0    0  501 -0.00000000000E+00  0.00000000000E+00  0.85747565343E+02  0.85747565343E+02  0.00000000000E+00 0.  1.
          1   -1    0    0  501    0  0.00000000000E+00 -0.00000000000E+00 -0.21849129234E+03  0.21849129234E+03  0.00000000000E+00 0.  1.
         35    2    1    2    0    0  0.14210854715E-13 -0.53290705182E-14 -0.13274372699E+03  0.30423885768E+03  0.27375241637E+03 0.  0.
         25    2    3    3    0    0 -0.51020804036E+02 -0.52558555007E+01 -0.42200139928E+02  0.14162109352E+03  0.12507971801E+03 0.  0.
         25    2    3    3    0    0  0.51020804036E+02  0.52558555007E+01 -0.90543587064E+02  0.16261776416E+03  0.12496259281E+03 0.  0.
          5    1    4    4  502    0 -0.83634427860E+02 -0.80489094704E+01  0.46446018458E+01  0.84280275234E+02  0.47000000000E+01 0. -1.
         -5    1    4    4    0  502  0.32613623824E+02  0.27930539697E+01 -0.46844741774E+02  0.57340818282E+02  0.47000000000E+01 0. -1.
          5    1    5    5  503    0  0.16949877914E+02 -0.57542441575E+02 -0.23713704453E+02  0.64675039409E+02  0.47000000000E+01 0.  1.
         -5    1    5    5    0  503  0.34070926122E+02  0.62798297075E+02 -0.66829882611E+02  0.97942724754E+02  0.47000000000E+01 0.  1.
<mgrwt>
<rscale>  0 0.27375242E+03</rscale>
<asrwt>0</asrwt>
<pdfrwt beam="1">  1        1 0.33614045E-01 0.27375242E+03</pdfrwt>
<pdfrwt beam="2">  1       -1 0.13191933E-01 0.27375242E+03</pdfrwt>
<totfact> 0.51317771E+03</totfact>
</mgrwt>
</event>
<event>
 9    1  0.8186049E-001  0.2721967E+03  0.7818608E-02  0.1100029E+00
          1   -1    0    0  501    0  0.00000000000E+00  0.00000000000E+00  0.31724753601E+03  0.31724753601E+03  0.00000000000E+00 0.  1.
         -1   -1    0    0    0  501 -0.00000000000E+00 -0.00000000000E+00 -0.58385829961E+02  0.58385829961E+02  0.00000000000E+00 0.  1.
         35    2    1    2    0    0  0.71054273576E-14  0.00000000000E+00  0.25886170605E+03  0.37563336597E+03  0.27219669868E+03 0.  0.
         25    2    3    3    0    0 -0.30349482222E+02 -0.43939172993E+02  0.11259407782E+03  0.17634866584E+03  0.12477853817E+03 0.  0.
         25    2    3    3    0    0  0.30349482222E+02  0.43939172993E+02  0.14626762823E+03  0.19928470014E+03  0.12437214578E+03 0.  0.
          5    1    4    4  502    0  0.14976837055E+02 -0.62391420776E+02  0.13511234320E+02  0.65739170115E+02  0.47000000000E+01 0. -1.
         -5    1    4    4    0  502 -0.45326319277E+02  0.18452247782E+02  0.99082843502E+02  0.11060949572E+03  0.47000000000E+01 0. -1.
          5    1    5    5  503    0  0.66771661885E+02 -0.60469587224E+00  0.11642488571E+03  0.13429692663E+03  0.47000000000E+01 0.  1.
         -5    1    5    5    0  503 -0.36422179663E+02  0.44543868866E+02  0.29842742516E+02  0.64987773510E+02  0.47000000000E+01 0.  1.
<mgrwt>
<rscale>  0 0.27219670E+03</rscale>
<asrwt>0</asrwt>
<pdfrwt beam="1">  1        1 0.48807312E-01 0.27219670E+03</pdfrwt>
<pdfrwt beam="2">  1       -1 0.89824355E-02 0.27219670E+03</pdfrwt>
<totfact> 0.58343096E+03</totfact>
</mgrwt>
</event>
<event>
 9    1  0.8186049E-001  0.2763256E+03  0.7818608E-02  0.1097713E+00
         -1   -1    0    0    0  501 -0.00000000000E+00  0.00000000000E+00  0.12960585080E+02  0.12960585080E+02  0.00000000000E+00 0. -1.
          1   -1    0    0  501    0  0.00000000000E+00 -0.00000000000E+00 -0.14728475302E+04  0.14728475302E+04  0.00000000000E+00 0. -1.
         35    2    1    2    0    0 -0.35527136788E-14  0.00000000000E+00 -0.14598869451E+04  0.14858081153E+04  0.27632564647E+03 0.  0.
         25    2    3    3    0    0 -0.22434535008E+02  0.83688402059E+01 -0.45522745794E+03  0.47313375521E+03  0.12668924978E+03 0.  0.
         25    2    3    3    0    0  0.22434535008E+02 -0.83688402059E+01 -0.10046594872E+04  0.10126743601E+04  0.12488125765E+03 0.  0.
          5    1    4    4  502    0 -0.31431928173E+02  0.47233131097E+02 -0.40421803641E+03  0.40820735630E+03  0.47000000000E+01 0. -1.
         -5    1    4    4    0  502  0.89973931653E+01 -0.38864290891E+02 -0.51009421530E+02  0.64926398907E+02  0.47000000000E+01 0. -1.
          5    1    5    5  503    0 -0.28457874394E+02 -0.27961287603E+02 -0.79414380653E+03  0.79515920398E+03  0.47000000000E+01 0.  1.
         -5    1    5    5    0  503  0.50892409401E+02  0.19592447397E+02 -0.21051568064E+03  0.21751515608E+03  0.47000000000E+01 0.  1.
<mgrwt>
<rscale>  0 0.27632565E+03</rscale>
<asrwt>0</asrwt>
<pdfrwt beam="1">  1        1 0.22659185E+00 0.27632565E+03</pdfrwt>
<pdfrwt beam="2">  1       -1 0.19939369E-02 0.27632565E+03</pdfrwt>
<totfact> 0.51384061E+03</totfact>
</mgrwt>
</event>
<event>
 9    1  0.8186049E-001  0.2741100E+03  0.7818608E-02  0.1098950E+00
          2   -1    0    0  501    0  0.00000000000E+00  0.00000000000E+00  0.18263716554E+02  0.18263716554E+02  0.00000000000E+00 0. -1.
         -2   -1    0    0    0  501 -0.00000000000E+00 -0.00000000000E+00 -0.10284911797E+04  0.10284911797E+04  0.00000000000E+00 0. -1.
         35    2    1    2    0    0  0.00000000000E+00  0.71054273576E-14 -0.10102274632E+04  0.10467548963E+04  0.27410998804E+03 0.  0.
         25    2    3    3    0    0 -0.56003934323E+00 -0.37123361723E+02 -0.34412944014E+03  0.36800774822E+03  0.12500469412E+03 0.  0.
         25    2    3    3    0    0  0.56003934323E+00  0.37123361723E+02 -0.66609802306E+03  0.67874714808E+03  0.12503062456E+03 0.  0.
          5    1    4    4  502    0 -0.13651598829E+02  0.25825547629E+02 -0.26167629674E+03  0.26334369052E+03  0.47000000000E+01 0.  1.
         -5    1    4    4    0  502  0.13091559485E+02 -0.62948909352E+02 -0.82453143394E+02  0.10466405770E+03  0.47000000000E+01 0.  1.
          5    1    5    5  503    0 -0.21860852099E+02  0.70648265554E+02 -0.25217135728E+03  0.26283370733E+03  0.47000000000E+01 0. -1.
         -5    1    5    5    0  503  0.22420891442E+02 -0.33524903831E+02 -0.41392666578E+03  0.41591344075E+03  0.47000000000E+01 0. -1.
<mgrwt>
<rscale>  0 0.27410999E+03</rscale>
<asrwt>0</asrwt>
<pdfrwt beam="1">  1        2 0.28098029E-02 0.27410999E+03</pdfrwt>
<pdfrwt beam="2">  1       -2 0.15822939E+00 0.27410999E+03</pdfrwt>
<totfact> 0.94515421E+02</totfact>
</mgrwt>
</event>
<event>
 9    1  0.8186049E-001  0.2777641E+03  0.7818608E-02  0.1096916E+00
         -2   -1    0    0    0  501 -0.00000000000E+00  0.00000000000E+00  0.16528083937E+02  0.16528083937E+02  0.00000000000E+00 0. -1.
          2   -1    0    0  501    0  0.00000000000E+00 -0.00000000000E+00 -0.11669971822E+04  0.11669971822E+04  0.00000000000E+00 0. -1.
         35    2    1    2    0    0 -0.35527136788E-14  0.71054273576E-14 -0.11504690983E+04  0.11835252662E+04  0.27776412570E+03 0.  0.
         25    2    3    3    0    0 -0.70097448500E+00 -0.51039647417E+02 -0.41875864852E+03  0.44001444462E+03  0.12509344022E+03 0.  0.
         25    2    3    3    0    0  0.70097448500E+00  0.51039647417E+02 -0.73171044978E+03  0.74351082156E+03  0.12166602846E+03 0.  0.
          5    1    4    4  502    0  0.41110245519E+02 -0.75457270540E+02 -0.28349325478E+03  0.29626739185E+03  0.47000000000E+01 0. -1.
         -5    1    4    4    0  502 -0.41811220004E+02  0.24417623123E+02 -0.13526539374E+03  0.14374705277E+03  0.47000000000E+01 0. -1.
          5    1    5    5  503    0 -0.21820026848E+02  0.27651293695E+02 -0.51846892188E+02  0.62856167909E+02  0.47000000000E+01 0. -1.
         -5    1    5    5    0  503  0.22521001333E+02  0.23388353722E+02 -0.67986355759E+03  0.68065465365E+03  0.47000000000E+01 0. -1.
<mgrwt>
<rscale>  0 0.27776413E+03</rscale>
<asrwt>0</asrwt>
<pdfrwt beam="1">  1        2 0.17953808E+00 0.27776413E+03</pdfrwt>
<pdfrwt beam="2">  1       -2 0.25427814E-02 0.27776413E+03</pdfrwt>
<totfact> 0.11298858E+04</totfact>
</mgrwt>
</event>
<event>
 9    1  0.8186049E-001  0.2716687E+03  0.7818608E-02  0.1100328E+00
          1   -1    0    0  501    0  0.00000000000E+00  0.00000000000E+00  0.21842054108E+04  0.21842054108E+04  0.00000000000E+00 0.  1.
         -1   -1    0    0    0  501 -0.00000000000E+00 -0.00000000000E+00 -0.84474551391E+01  0.84474551391E+01  0.00000000000E+00 0.  1.
         35    2    1    2    0    0  0.00000000000E+00  0.00000000000E+00  0.21757579557E+04  0.21926528660E+04  0.27166874846E+03 0.  0.
         25    2    3    3    0    0 -0.44333542321E+02 -0.22154100404E+02  0.12419790588E+04  0.12493016029E+04  0.12564332600E+03 0.  0.
         25    2    3    3    0    0  0.44333542321E+02  0.22154100404E+02  0.93377889693E+03  0.94335126310E+03  0.12454842479E+03 0.  0.
          5    1    4    4  502    0 -0.71325025915E+02  0.28218653442E+02  0.63984357413E+03  0.64444196099E+03  0.47000000000E+01 0. -1.
         -5    1    4    4    0  502  0.26991483595E+02 -0.50372753847E+02  0.60213548462E+03  0.60485964187E+03  0.47000000000E+01 0. -1.
          5    1    5    5  503    0  0.68751618999E+02  0.44250671761E+02  0.38745911073E+03  0.39601964541E+03  0.47000000000E+01 0.  1.
         -5    1    5    5    0  503 -0.24418076679E+02 -0.22096571357E+02  0.54631978620E+03  0.54733161769E+03  0.47000000000E+01 0.  1.
<mgrwt>
<rscale>  0 0.27166875E+03</rscale>
<asrwt>0</asrwt>
<pdfrwt beam="1">  1        1 0.33603115E+00 0.27166875E+03</pdfrwt>
<pdfrwt beam="2">  1       -1 0.12996102E-02 0.27166875E+03</pdfrwt>
<totfact> 0.32919069E+03</totfact>
</mgrwt>
</event>
<event>
 9    1  0.8186049E-001  0.2773021E+03  0.7818608E-02  0.1097172E+00
          2   -1    0    0  501    0  0.00000000000E+00  0.00000000000E+00  0.15176921664E+04  0.15176921664E+04  0.00000000000E+00 0. -1.
         -2   -1    0    0    0  501 -0.00000000000E+00 -0.00000000000E+00 -0.12666678351E+02  0.12666678351E+02  0.00000000000E+00 0. -1.
         35    2    1    2    0    0  0.00000000000E+00  0.00000000000E+00  0.15050254881E+04  0.15303588448E+04  0.27730213492E+03 0.  0.
         25    2    3    3    0    0  0.46510190280E+02  0.19577833322E+02  0.93146357439E+03  0.94107977335E+03  0.12433929402E+03 0.  0.
         25    2    3    3    0    0 -0.46510190280E+02 -0.19577833322E+02  0.57356191369E+03  0.58927907143E+03  0.12541955921E+03 0.  0.
          5    1    4    4  502    0  0.70102346599E+02 -0.26798058090E+02  0.68656147201E+03  0.69066722795E+03  0.47000000000E+01 0.  1.
         -5    1    4    4    0  502 -0.23592156318E+02  0.46375891412E+02  0.24490210239E+03  0.25041254541E+03  0.47000000000E+01 0.  1.
          5    1    5    5  503    0  0.10666902453E+02  0.80162085024E+01  0.45053460120E+03  0.45075665196E+03  0.47000000000E+01 0. -1.
         -5    1    5    5    0  503 -0.57177092733E+02 -0.27594041825E+02  0.12302731248E+03  0.13852241947E+03  0.47000000000E+01 0. -1.
<mgrwt>
<rscale>  0 0.27730213E+03</rscale>
<asrwt>0</asrwt>
<pdfrwt beam="1">  1        2 0.23349096E+00 0.27730213E+03</pdfrwt>
<pdfrwt beam="2">  1       -2 0.19487209E-02 0.27730213E+03</pdfrwt>
<totfact> 0.10724773E+04</totfact>
</mgrwt>
</event>
<event>
 9    1  0.8186049E-001  0.2800153E+03  0.7818608E-02  0.1095681E+00
         -2   -1    0    0    0  501 -0.00000000000E+00  0.00000000000E+00  0.27752763331E+03  0.27752763331E+03  0.00000000000E+00 0.  1.
          2   -1    0    0  501    0  0.00000000000E+00 -0.00000000000E+00 -0.70631328905E+02  0.70631328905E+02  0.00000000000E+00 0.  1.
         35    2    1    2    0    0 -0.71054273576E-14  0.00000000000E+00  0.20689630440E+03  0.34815896221E+03  0.28001532492E+03 0.  0.
         25    2    3    3    0    0 -0.21507988570E+02 -0.25124381094E+02  0.36809046319E+02  0.13436628795E+03  0.12492223721E+03 0.  0.
         25    2    3    3    0    0  0.21507988570E+02  0.25124381094E+02  0.17008725808E+03  0.21379267426E+03  0.12523499554E+03 0.  0.
          5    1    4    4  502    0  0.14808942836E+02 -0.35085948994E+02  0.72653467421E+02  0.82164134104E+02  0.47000000000E+01 0. -1.
         -5    1    4    4    0  502 -0.36316931406E+02  0.99615679001E+01 -0.35844421103E+02  0.52202153844E+02  0.47000000000E+01 0. -1.
          5    1    5    5  503    0 -0.44202413859E+02  0.42333973316E+02  0.77546225169E+02  0.98901596173E+02  0.47000000000E+01 0. -1.
         -5    1    5    5    0  503  0.65710402429E+02 -0.17209592222E+02  0.92541032914E+02  0.11489107809E+03  0.47000000000E+01 0. -1.
<mgrwt>
<rscale>  0 0.28001532E+03</rscale>
<asrwt>0</asrwt>
<pdfrwt beam="1">  1        2 0.10866358E-01 0.28001532E+03</pdfrwt>
<pdfrwt beam="2">  1       -2 0.42696559E-01 0.28001532E+03</pdfrwt>
<totfact> 0.30230886E+03</totfact>
</mgrwt>
</event>
<event>
 9    1  0.8186049E-001  0.2720980E+03  0.7818608E-02  0.1100085E+00
          2   -1    0    0  501    0  0.00000000000E+00  0.00000000000E+00  0.12038725021E+03  0.12038725021E+03  0.00000000000E+00 0.  1.
         -2   -1    0    0    0  501 -0.00000000000E+00 -0.00000000000E+00 -0.15374828754E+03  0.15374828754E+03  0.00000000000E+00 0.  1.
         35    2    1    2    0    0  0.17763568394E-14  0.71054273576E-14 -0.33361037327E+02  0.27413553775E+03  0.27209802323E+03 0.  0.
         25    2    3    3    0    0 -0.11280745525E+02  0.51393868929E+02 -0.29649324649E+02  0.13894074515E+03  0.12512738800E+03 0.  0.
         25    2    3    3    0    0  0.11280745525E+02 -0.51393868929E+02 -0.37117126785E+01  0.13519479261E+03  0.12447999901E+03 0.  0.
          5    1    4    4  502    0 -0.47471565820E-01 -0.37303142077E+02  0.12986891334E+02  0.39777833135E+02  0.47000000000E+01 0.  1.
         -5    1    4    4    0  502 -0.11233273959E+02  0.88697011006E+02 -0.42636215983E+02  0.99162912011E+02  0.47000000000E+01 0.  1.
          5    1    5    5  503    0 -0.26230057583E+02 -0.61250998433E+00  0.47032097475E+02  0.54060145044E+02  0.47000000000E+01 0.  1.
         -5    1    5    5    0  503  0.37510803107E+02 -0.50781358945E+02 -0.50743810154E+02  0.81134647561E+02  0.47000000000E+01 0.  1.
<mgrwt>
<rscale>  0 0.27209802E+03</rscale>
<asrwt>0</asrwt>
<pdfrwt beam="1">  1        2 0.18521115E-01 0.27209802E+03</pdfrwt>
<pdfrwt beam="2">  1       -2 0.23653583E-01 0.27209802E+03</pdfrwt>
<totfact> 0.47279743E+03</totfact>
</mgrwt>
</event>
<event>
 9    1  0.8186049E-001  0.2775347E+03  0.7818608E-02  0.1097043E+00
          2   -1    0    0  501    0  0.00000000000E+00  0.00000000000E+00  0.11601560129E+03  0.11601560129E+03  0.00000000000E+00 0.  1.
         -2   -1    0    0    0  501 -0.00000000000E+00 -0.00000000000E+00 -0.16598087462E+03  0.16598087462E+03  0.00000000000E+00 0.  1.
         35    2    1    2    0    0  0.14210854715E-13  0.00000000000E+00 -0.49965273325E+02  0.28199647592E+03  0.27753465349E+03 0.  0.
         25    2    3    3    0    0  0.40193700160E+02 -0.52488159775E+01 -0.66674761690E+02  0.14713196804E+03  0.12473655668E+03 0.  0.
         25    2    3    3    0    0 -0.40193700160E+02  0.52488159775E+01  0.16709488364E+02  0.13486450787E+03  0.12753879755E+03 0.  0.
          5    1    4    4  502    0  0.47034097197E+02 -0.57656954051E+02 -0.55400649537E+02  0.92886234818E+02  0.47000000000E+01 0. -1.
         -5    1    4    4    0  502 -0.68403970363E+01  0.52408138074E+02 -0.11274112153E+02  0.54245733222E+02  0.47000000000E+01 0. -1.
          5    1    5    5  503    0  0.12303929526E+02 -0.50434141276E+02 -0.11118270479E+02  0.53298172825E+02  0.47000000000E+01 0.  1.
         -5    1    5    5    0  503 -0.52497629686E+02  0.55682957254E+02  0.27827758843E+02  0.81566335050E+02  0.47000000000E+01 0.  1.
<mgrwt>
<rscale>  0 0.27753465E+03</rscale>
<asrwt>0</asrwt>
<pdfrwt beam="1">  1        2 0.17848554E-01 0.27753465E+03</pdfrwt>
<pdfrwt beam="2">  1       -2 0.25535519E-01 0.27753465E+03</pdfrwt>
<totfact> 0.43157979E+03</totfact>
</mgrwt>
</event>
<event>
 9    1  0.8186049E-001  0.2699846E+03  0.7818608E-02  0.1101288E+00
         -2   -1    0    0    0  501 -0.00000000000E+00  0.00000000000E+00  0.17248427959E+02  0.17248427959E+02  0.00000000000E+00 0.  1.
          2   -1    0    0  501    0  0.00000000000E+00 -0.00000000000E+00 -0.10564974655E+04  0.10564974655E+04  0.00000000000E+00 0.  1.
         35    2    1    2    0    0  0.71054273576E-14  0.35527136788E-14 -0.10392490375E+04  0.10737458934E+04  0.26998459528E+03 0.  0.
         25    2    3    3    0    0  0.18079975599E+02 -0.19332841571E+02 -0.70155579898E+03  0.71289910606E+03  0.12387070705E+03 0.  0.
         25    2    3    3    0    0 -0.18079975599E+02  0.19332841571E+02 -0.33769323854E+03  0.36084678737E+03  0.12439066010E+03 0.  0.
          5    1    4    4  502    0 -0.31197187400E+02  0.13998521036E+02 -0.53253792559E+03  0.53365527758E+03  0.47000000000E+01 0.  1.
         -5    1    4    4    0  502  0.49277162999E+02 -0.33331362607E+02 -0.16901787339E+03  0.17924382849E+03  0.47000000000E+01 0.  1.
          5    1    5    5  503    0  0.53189711254E+02  0.14071787313E+02 -0.13410211193E+03  0.14502629764E+03  0.47000000000E+01 0.  1.
         -5    1    5    5    0  503 -0.71269686853E+02  0.52610542575E+01 -0.20359112661E+03  0.21582048973E+03  0.47000000000E+01 0.  1.
<mgrwt>
<rscale>  0 0.26998460E+03</rscale>
<asrwt>0</asrwt>
<pdfrwt beam="1">  1        2 0.16253807E+00 0.26998460E+03</pdfrwt>
<pdfrwt beam="2">  1       -2 0.26536044E-02 0.26998460E+03</pdfrwt>
<totfact> 0.12299002E+04</totfact>
</mgrwt>
</event>
<event>
 9    1  0.8186049E-001  0.2755925E+03  0.7818608E-02  0.1098121E+00
          3   -1    0    0  501    0  0.00000000000E+00  0.00000000000E+00  0.13401546625E+04  0.13401546625E+04  0.00000000000E+00 0.  1.
         -3   -1    0    0    0  501 -0.00000000000E+00 -0.00000000000E+00 -0.14168368916E+02  0.14168368916E+02  0.00000000000E+00 0.  1.
         35    2    1    2    0    0  0.00000000000E+00  0.71054273576E-14  0.13259862936E+04  0.13543230315E+04  0.27559249383E+03 0.  0.
         25    2    3    3    0    0 -0.24270607355E+01  0.54276193142E+02  0.75684309657E+03  0.76887946423E+03  0.12414653410E+03 0.  0.
         25    2    3    3    0    0  0.24270607355E+01 -0.54276193142E+02  0.56914319706E+03  0.58544356723E+03  0.12596982132E+03 0.  0.
          5    1    4    4  502    0  0.94610368855E+01 -0.36938304314E+02  0.13912355987E+03  0.14433088531E+03  0.47000000000E+01 0. -1.
         -5    1    4    4    0  502 -0.11888097621E+02  0.91214497456E+02  0.61771953670E+03  0.62454857892E+03  0.47000000000E+01 0. -1.
          5    1    5    5  503    0 -0.56233173819E+02 -0.54308610101E+02  0.32997674990E+03  0.33914353959E+03  0.47000000000E+01 0. -1.
         -5    1    5    5    0  503  0.58660234555E+02  0.32416958738E-01  0.23916644715E+03  0.24630002764E+03  0.47000000000E+01 0. -1.
<mgrwt>
<rscale>  0 0.27559249E+03</rscale>
<asrwt>0</asrwt>
<pdfrwt beam="1">  1        3 0.20617754E+00 0.27559249E+03</pdfrwt>
<pdfrwt beam="2">  1       -3 0.21797501E-02 0.27559249E+03</pdfrwt>
<totfact> 0.31144487E+02</totfact>
</mgrwt>
</event>
<event>
 9    1  0.8186049E-001  0.2817405E+03  0.7818608E-02  0.1094742E+00
         -1   -1    0    0    0  501 -0.00000000000E+00  0.00000000000E+00  0.11897278280E+04  0.11897278280E+04  0.00000000000E+00 0.  1.
          1   -1    0    0  501    0  0.00000000000E+00 -0.00000000000E+00 -0.16679801136E+02  0.16679801136E+02  0.00000000000E+00 0.  1.
         35    2    1    2    0    0  0.00000000000E+00  0.00000000000E+00  0.11730480269E+04  0.12064076291E+04  0.28174047332E+03 0.  0.
         25    2    3    3    0    0 -0.31707759853E+02 -0.15851084646E+02  0.82254225455E+03  0.83277630882E+03  0.12523570215E+03 0.  0.
         25    2    3    3    0    0  0.31707759853E+02  0.15851084646E+02  0.35050577231E+03  0.37363132031E+03  0.12445653127E+03 0.  0.
          5    1    4    4  502    0 -0.54176962132E+02 -0.30460474138E+02  0.19662615848E+03  0.20626904738E+03  0.47000000000E+01 0.  1.
         -5    1    4    4    0  502  0.22469202278E+02  0.14609389492E+02  0.62591609608E+03  0.62650726144E+03  0.47000000000E+01 0.  1.
          5    1    5    5  503    0  0.15812091338E+02  0.66149257218E+02  0.12927583902E+03  0.14615087758E+03  0.47000000000E+01 0.  1.
         -5    1    5    5    0  503  0.15895668516E+02 -0.50298172572E+02  0.22122993329E+03  0.22748044273E+03  0.47000000000E+01 0.  1.
<mgrwt>
<rscale>  0 0.28174047E+03</rscale>
<asrwt>0</asrwt>
<pdfrwt beam="1">  1        1 0.25661242E-02 0.28174047E+03</pdfrwt>
<pdfrwt beam="2">  1       -1 0.18303498E+00 0.28174047E+03</pdfrwt>
<totfact> 0.92609211E+02</totfact>
</mgrwt>
</event>
<event>
 9    1  0.8186049E-001  0.2749985E+03  0.7818608E-02  0.1098452E+00
          2   -1    0    0  501    0  0.00000000000E+00  0.00000000000E+00  0.12528101904E+04  0.12528101904E+04  0.00000000000E+00 0.  1.
         -2   -1    0    0    0  501 -0.00000000000E+00 -0.00000000000E+00 -0.15090903835E+02  0.15090903835E+02  0.00000000000E+00 0.  1.
         35    2    1    2    0    0 -0.71054273576E-14 -0.14210854715E-13  0.12377192865E+04  0.12679010942E+04  0.27499845895E+03 0.  0.
         25    2    3    3    0    0  0.40420866849E+02  0.40470654016E+02  0.60312739290E+03  0.61862338877E+03  0.12514201839E+03 0.  0.
         25    2    3    3    0    0 -0.40420866849E+02 -0.40470654016E+02  0.63459189364E+03  0.64927770543E+03  0.12483167459E+03 0.  0.
          5    1    4    4  502    0 -0.22300185251E+02 -0.28862965385E+02  0.27349152849E+03  0.27595303077E+03  0.47000000000E+01 0.  1.
         -5    1    4    4    0  502  0.62721052100E+02  0.69333619401E+02  0.32963586440E+03  0.34267035800E+03  0.47000000000E+01 0.  1.
          5    1    5    5  503    0 -0.21353854281E+02 -0.16709003432E+02  0.60783829379E+03  0.60846089380E+03  0.47000000000E+01 0.  1.
         -5    1    5    5    0  503 -0.19067012568E+02 -0.23761650584E+02  0.26753599858E+02  0.40816811636E+02  0.47000000000E+01 0.  1.
<mgrwt>
<rscale>  0 0.27499846E+03</rscale>
<asrwt>0</asrwt>
<pdfrwt beam="1">  1        2 0.19273995E+00 0.27499846E+03</pdfrwt>
<pdfrwt beam="2">  1       -2 0.23216785E-02 0.27499846E+03</pdfrwt>
<totfact> 0.11553082E+04</totfact>
</mgrwt>
</event>
<event>
 9    1  0.8186049E-001  0.3015696E+03  0.7818608E-02  0.1084459E+00
         -2   -1    0    0    0  501 -0.00000000000E+00  0.00000000000E+00  0.36465177893E+02  0.36465177893E+02  0.00000000000E+00 0. -1.
          2   -1    0    0  501    0  0.00000000000E+00 -0.00000000000E+00 -0.62350066936E+03  0.62350066936E+03  0.00000000000E+00 0. -1.
         35    2    1    2    0    0  0.00000000000E+00  0.00000000000E+00 -0.58703549146E+03  0.65996584725E+03  0.30156964585E+03 0.  0.
         25    2    3    3    0    0 -0.49102772059E+02 -0.49755566846E+02 -0.19382402749E+03  0.24167815238E+03  0.12630865785E+03 0.  0.
         25    2    3    3    0    0  0.49102772059E+02  0.49755566846E+02 -0.39321146397E+03  0.41828769487E+03  0.12434887063E+03 0.  0.
          5    1    4    4  502    0 -0.69942325562E+02 -0.59713848750E+02 -0.70106451192E+02  0.11573537548E+03  0.47000000000E+01 0. -1.
         -5    1    4    4    0  502  0.20839553503E+02  0.99582819044E+01 -0.12371757630E+03  0.12594277691E+03  0.47000000000E+01 0. -1.
          5    1    5    5  503    0 -0.20224217783E+02 -0.28193737474E+02 -0.14165678671E+03  0.14591998163E+03  0.47000000000E+01 0.  1.
         -5    1    5    5    0  503  0.69326989842E+02  0.77949304320E+02 -0.25155467726E+03  0.27236771324E+03  0.47000000000E+01 0.  1.
<mgrwt>
<rscale>  0 0.30156965E+03</rscale>
<asrwt>0</asrwt>
<pdfrwt beam="1">  1        2 0.95923174E-01 0.30156965E+03</pdfrwt>
<pdfrwt beam="2">  1       -2 0.56100277E-02 0.30156965E+03</pdfrwt>
<totfact> 0.79116603E+03</totfact>
</mgrwt>
</event>
<event>
 9    1  0.8186049E-001  0.2741022E+03  0.7818608E-02  0.1098954E+00
          1   -1    0    0  501    0  0.00000000000E+00  0.00000000000E+00  0.97423011871E+02  0.97423011871E+02  0.00000000000E+00 0. -1.
         -1   -1    0    0    0  501 -0.00000000000E+00 -0.00000000000E+00 -0.19279849679E+03  0.19279849679E+03  0.00000000000E+00 0. -1.
         35    2    1    2    0    0  0.00000000000E+00  0.71054273576E-14 -0.95375484920E+02  0.29022150866E+03  0.27410224546E+03 0.  0.
         25    2    3    3    0    0 -0.32481991849E+02  0.44541284830E+02 -0.32704011784E+02  0.14083674675E+03  0.12540506768E+03 0.  0.
         25    2    3    3    0    0  0.32481991849E+02 -0.44541284830E+02 -0.62671473137E+02  0.14938476191E+03  0.12389143512E+03 0.  0.
          5    1    4    4  502    0  0.44012425022E+02  0.16094251579E+02 -0.35598215645E+02  0.59037627386E+02  0.47000000000E+01 0.  1.
         -5    1    4    4    0  502 -0.76494416871E+02  0.28447033250E+02  0.28942038616E+01  0.81799119367E+02  0.47000000000E+01 0.  1.
          5    1    5    5  503    0  0.67208324832E+02 -0.64592710575E+01  0.54900216741E+00  0.67683620712E+02  0.47000000000E+01 0. -1.
         -5    1    5    5    0  503 -0.34726332983E+02 -0.38082013772E+02 -0.63220475304E+02  0.81701141198E+02  0.47000000000E+01 0. -1.
<mgrwt>
<rscale>  0 0.27410225E+03</rscale>
<asrwt>0</asrwt>
<pdfrwt beam="1">  1        1 0.14988156E-01 0.27410225E+03</pdfrwt>
<pdfrwt beam="2">  1       -1 0.29661307E-01 0.27410225E+03</pdfrwt>
<totfact> 0.38644207E+03</totfact>
</mgrwt>
</event>
<event>
 9    1  0.8186049E-001  0.2737678E+03  0.7818608E-02  0.1099142E+00
          1   -1    0    0  501    0  0.00000000000E+00  0.00000000000E+00  0.32140201704E+02  0.32140201704E+02  0.00000000000E+00 0. -1.
         -1   -1    0    0    0  501 -0.00000000000E+00 -0.00000000000E+00 -0.58298342669E+03  0.58298342669E+03  0.00000000000E+00 0. -1.
         35    2    1    2    0    0 -0.17763568394E-14  0.00000000000E+00 -0.55084322498E+03  0.61512362839E+03  0.27376782078E+03 0.  0.
         25    2    3    3    0    0 -0.87359525186E+01  0.68994117934E+01 -0.16496309149E+03  0.20927986291E+03  0.12830167854E+03 0.  0.
         25    2    3    3    0    0  0.87359525186E+01 -0.68994117934E+01 -0.38588013350E+03  0.40584376548E+03  0.12522685736E+03 0.  0.
          5    1    4    4  502    0 -0.24861635637E+01  0.26782579069E+02  0.12857006458E+02  0.30180791341E+02  0.47000000000E+01 0. -1.
         -5    1    4    4    0  502 -0.62497889549E+01 -0.19883167276E+02 -0.17782009795E+03  0.17909907157E+03  0.47000000000E+01 0. -1.
          5    1    5    5  503    0  0.44651626200E+02 -0.50259386558E+02 -0.24376982399E+03  0.25291419641E+03  0.47000000000E+01 0.  1.
         -5    1    5    5    0  503 -0.35915673682E+02  0.43359974765E+02 -0.14211030951E+03  0.15292956907E+03  0.47000000000E+01 0.  1.
<mgrwt>
<rscale>  0 0.27376782E+03</rscale>
<asrwt>0</asrwt>
<pdfrwt beam="1">  1        1 0.49446462E-02 0.27376782E+03</pdfrwt>
<pdfrwt beam="2">  1       -1 0.89689762E-01 0.27376782E+03</pdfrwt>
<totfact> 0.21605907E+03</totfact>
</mgrwt>
</event>
<event>
 9    1  0.8186049E-001  0.2766405E+03  0.7818608E-02  0.1097538E+00
         -3   -1    0    0    0  501 -0.00000000000E+00  0.00000000000E+00  0.47552144567E+03  0.47552144567E+03  0.00000000000E+00 0. -1.
          3   -1    0    0  501    0  0.00000000000E+00 -0.00000000000E+00 -0.40234752864E+02  0.40234752864E+02  0.00000000000E+00 0. -1.
         35    2    1    2    0    0  0.00000000000E+00  0.00000000000E+00  0.43528669280E+03  0.51575619853E+03  0.27664047316E+03 0.  0.
         25    2    3    3    0    0 -0.14855409059E+02  0.26539436929E+02  0.12288633951E+03  0.17780673536E+03  0.12485654892E+03 0.  0.
         25    2    3    3    0    0  0.14855409059E+02 -0.26539436929E+02  0.31240035329E+03  0.33794946317E+03  0.12526305934E+03 0.  0.
          5    1    4    4  502    0  0.46421925662E+01  0.63092127626E+02  0.19557707491E+02  0.66383435001E+02  0.47000000000E+01 0.  1.
         -5    1    4    4    0  502 -0.19497601626E+02 -0.36552690697E+02  0.10332863202E+03  0.11142330036E+03  0.47000000000E+01 0.  1.
          5    1    5    5  503    0  0.15148879741E+01  0.48581246209E+02  0.16258195619E+03  0.16975692872E+03  0.47000000000E+01 0. -1.
         -5    1    5    5    0  503  0.13340521085E+02 -0.75120683138E+02  0.14981839710E+03  0.16819253446E+03  0.47000000000E+01 0. -1.
<mgrwt>
<rscale>  0 0.27664047E+03</rscale>
<asrwt>0</asrwt>
<pdfrwt beam="1">  1        3 0.61899623E-02 0.27664047E+03</pdfrwt>
<pdfrwt beam="2">  1       -3 0.73157142E-01 0.27664047E+03</pdfrwt>
<totfact> 0.74488606E+02</totfact>
</mgrwt>
</event>
<event>
 9    1  0.8186049E-001  0.2750839E+03  0.7818608E-02  0.1098405E+00
          2   -1    0    0  501    0  0.00000000000E+00  0.00000000000E+00  0.18661873574E+03  0.18661873574E+03  0.00000000000E+00 0.  1.
         -2   -1    0    0    0  501 -0.00000000000E+00 -0.00000000000E+00 -0.10137129170E+03  0.10137129170E+03  0.00000000000E+00 0.  1.
         35    2    1    2    0    0 -0.71054273576E-14  0.00000000000E+00  0.85247444044E+02  0.28799002745E+03  0.27508385847E+03 0.  0.
         25    2    3    3    0    0 -0.49456374512E+02  0.95497703384E+01  0.70088673419E+02  0.15194169583E+03  0.12504689399E+03 0.  0.
         25    2    3    3    0    0  0.49456374512E+02 -0.95497703384E+01  0.15158770625E+02  0.13604833161E+03  0.12546804021E+03 0.  0.
          5    1    4    4  502    0 -0.33887069754E+02 -0.34763077303E+02 -0.18011125832E+02  0.51993227384E+02  0.47000000000E+01 0. -1.
         -5    1    4    4    0  502 -0.15569304758E+02  0.44312847641E+02  0.88099799252E+02  0.99948468447E+02  0.47000000000E+01 0. -1.
          5    1    5    5  503    0 -0.35753941960E+02 -0.26533790881E+02  0.19705639378E+02  0.48916138927E+02  0.47000000000E+01 0.  1.
         -5    1    5    5    0  503  0.85210316472E+02  0.16984020543E+02 -0.45468687528E+01  0.87132192687E+02  0.47000000000E+01 0.  1.
<mgrwt>
<rscale>  0 0.27508386E+03</rscale>
<asrwt>0</asrwt>
<pdfrwt beam="1">  1        2 0.28710575E-01 0.27508386E+03</pdfrwt>
<pdfrwt beam="2">  1       -2 0.15595583E-01 0.27508386E+03</pdfrwt>
<totfact> 0.58633954E+03</totfact>
</mgrwt>
</event>
<event>
 9    1  0.8186049E-001  0.2676650E+03  0.7818608E-02  0.1102623E+00
         -2   -1    0    0    0  501 -0.00000000000E+00  0.00000000000E+00  0.14834161387E+02  0.14834161387E+02  0.00000000000E+00 0. -1.
          2   -1    0    0  501    0  0.00000000000E+00 -0.00000000000E+00 -0.12074246188E+04  0.12074246188E+04  0.00000000000E+00 0. -1.
         35    2    1    2    0    0  0.00000000000E+00 -0.35527136788E-14 -0.11925904574E+04  0.12222587802E+04  0.26766495220E+03 0.  0.
         25    2    3    3    0    0  0.43929900032E+02  0.16153577544E+02 -0.63385100421E+03  0.64773623219E+03  0.12491739980E+03 0.  0.
         25    2    3    3    0    0 -0.43929900032E+02 -0.16153577544E+02 -0.55873945322E+03  0.57452254802E+03  0.12528211128E+03 0.  0.
          5    1    4    4  502    0  0.18485478688E+02  0.54459871107E+02 -0.54045155873E+03  0.54352329096E+03  0.47000000000E+01 0.  1.
         -5    1    4    4    0  502  0.25444421343E+02 -0.38306293563E+02 -0.93399445479E+02  0.10421294123E+03  0.47000000000E+01 0.  1.
          5    1    5    5  503    0 -0.81065716167E+02 -0.36172913008E+01 -0.24094918219E+03  0.25428986124E+03  0.47000000000E+01 0.  1.
         -5    1    5    5    0  503  0.37135816135E+02 -0.12536286243E+02 -0.31779027103E+03  0.32023268677E+03  0.47000000000E+01 0.  1.
<mgrwt>
<rscale>  0 0.26766495E+03</rscale>
<asrwt>0</asrwt>
<pdfrwt beam="1">  1        2 0.18575754E+00 0.26766495E+03</pdfrwt>
<pdfrwt beam="2">  1       -2 0.22821799E-02 0.26766495E+03</pdfrwt>
<totfact> 0.12558295E+04</totfact>
</mgrwt>
</event>
<event>
 9    1  0.8186049E-001  0.2756504E+03  0.7818608E-02  0.1098089E+00
          1   -1    0    0  501    0  0.00000000000E+00  0.00000000000E+00  0.12769409831E+03  0.12769409831E+03  0.00000000000E+00 0. -1.
         -1   -1    0    0    0  501 -0.00000000000E+00 -0.00000000000E+00 -0.14876006191E+03  0.14876006191E+03  0.00000000000E+00 0. -1.
         35    2    1    2    0    0  0.00000000000E+00  0.00000000000E+00 -0.21065963602E+02  0.27645416022E+03  0.27565037254E+03 0.  0.
         25    2    3    3    0    0  0.32398745529E+02 -0.48093863612E+02 -0.14204103493E+02  0.13778512725E+03  0.12417844542E+03 0.  0.
         25    2    3    3    0    0 -0.32398745529E+02  0.48093863612E+02 -0.68618601089E+01  0.13866903297E+03  0.12577486693E+03 0.  0.
          5    1    4    4  502    0  0.53609512572E+02 -0.25036088378E+02 -0.58492599660E+02  0.83332225306E+02  0.47000000000E+01 0. -1.
         -5    1    4    4    0  502 -0.21210767043E+02 -0.23057775235E+02  0.44288496167E+02  0.54452901944E+02  0.47000000000E+01 0. -1.
          5    1    5    5  503    0  0.45954693929E+02  0.21051631890E+02 -0.20097790164E+02  0.54598683765E+02  0.47000000000E+01 0.  1.
         -5    1    5    5    0  503 -0.78353439458E+02  0.27042231722E+02  0.13235930055E+02  0.84070349207E+02  0.47000000000E+01 0.  1.
<mgrwt>
<rscale>  0 0.27565037E+03</rscale>
<asrwt>0</asrwt>
<pdfrwt beam="1">  1        1 0.19645246E-01 0.27565037E+03</pdfrwt>
<pdfrwt beam="2">  1       -1 0.22886163E-01 0.27565037E+03</pdfrwt>
<totfact> 0.41932180E+03</totfact>
</mgrwt>
</event>
<event>
 9    1  0.8186049E-001  0.2755465E+03  0.7818608E-02  0.1098146E+00
          1   -1    0    0  501    0  0.00000000000E+00  0.00000000000E+00  0.12553876747E+04  0.12553876747E+04  0.00000000000E+00 0. -1.
         -1   -1    0    0    0  501 -0.00000000000E+00 -0.00000000000E+00 -0.15120007740E+02  0.15120007740E+02  0.00000000000E+00 0. -1.
         35    2    1    2    0    0  0.00000000000E+00  0.35527136788E-14  0.12402676670E+04  0.12705076825E+04  0.27554652136E+03 0.  0.
         25    2    3    3    0    0  0.20426239829E+02 -0.26817162547E+02  0.36244197193E+03  0.38305887168E+03  0.11930433634E+03 0.  0.
         25    2    3    3    0    0 -0.20426239829E+02  0.26817162547E+02  0.87782569504E+03  0.88744881078E+03  0.12590095073E+03 0.  0.
          5    1    4    4  502    0  0.62372962821E+02  0.84974990187E+01  0.13463539291E+03  0.14869893411E+03  0.47000000000E+01 0.  1.
         -5    1    4    4    0  502 -0.41946722992E+02 -0.35314661566E+02  0.22780657902E+03  0.23435993757E+03  0.47000000000E+01 0.  1.
          5    1    5    5  503    0 -0.21730422405E+02 -0.74280827497E+01  0.81805222403E+03  0.81838800022E+03  0.47000000000E+01 0. -1.
         -5    1    5    5    0  503  0.13041825759E+01  0.34245245297E+02  0.59773471017E+02  0.69060810559E+02  0.47000000000E+01 0. -1.
<mgrwt>
<rscale>  0 0.27554652E+03</rscale>
<asrwt>0</asrwt>
<pdfrwt beam="1">  1        1 0.19313648E+00 0.27554652E+03</pdfrwt>
<pdfrwt beam="2">  1       -1 0.23261560E-02 0.27554652E+03</pdfrwt>
<totfact> 0.57528196E+03</totfact>
</mgrwt>
</event>
<event>
 9    1  0.8186049E-001  0.2746076E+03  0.7818608E-02  0.1098671E+00
          1   -1    0    0  501    0  0.00000000000E+00  0.00000000000E+00  0.95092426520E+03  0.95092426520E+03  0.00000000000E+00 0. -1.
         -1   -1    0    0    0  501 -0.00000000000E+00 -0.00000000000E+00 -0.19825273164E+02  0.19825273164E+02  0.00000000000E+00 0. -1.
         35    2    1    2    0    0  0.00000000000E+00  0.00000000000E+00  0.93109899204E+03  0.97074953837E+03  0.27460759870E+03 0.  0.
         25    2    3    3    0    0  0.33444680235E+02  0.44962370688E+02  0.42989668807E+03  0.45110196580E+03  0.12466619317E+03 0.  0.
         25    2    3    3    0    0 -0.33444680235E+02 -0.44962370688E+02  0.50120230397E+03  0.51964757257E+03  0.12525848777E+03 0.  0.
          5    1    4    4  502    0  0.33520944522E+02  0.76509289213E+02  0.39525881431E+03  0.40401602115E+03  0.47000000000E+01 0. -1.
         -5    1    4    4    0  502 -0.76264287117E-01 -0.31546918525E+02  0.34637873764E+02  0.47085944650E+02  0.47000000000E+01 0. -1.
          5    1    5    5  503    0  0.21228548653E+02 -0.37314654046E+02  0.54569453574E+02  0.69591306554E+02  0.47000000000E+01 0. -1.
         -5    1    5    5    0  503 -0.54673228888E+02 -0.76477166411E+01  0.44663285040E+03  0.45005626602E+03  0.47000000000E+01 0. -1.
<mgrwt>
<rscale>  0 0.27460760E+03</rscale>
<asrwt>0</asrwt>
<pdfrwt beam="1">  1        1 0.14629601E+00 0.27460760E+03</pdfrwt>
<pdfrwt beam="2">  1       -1 0.30500428E-02 0.27460760E+03</pdfrwt>
<totfact> 0.64083565E+03</totfact>
</mgrwt>
</event>
<event>
 9    1  0.8186049E-001  0.2741617E+03  0.7818608E-02  0.1098921E+00
          3   -1    0    0  501    0  0.00000000000E+00  0.00000000000E+00  0.81240863579E+02  0.81240863579E+02  0.00000000000E+00 0. -1.
         -3   -1    0    0    0  501 -0.00000000000E+00 -0.00000000000E+00 -0.23130187779E+03  0.23130187779E+03  0.00000000000E+00 0. -1.
         35    2    1    2    0    0 -0.71054273576E-14 -0.88817841970E-15 -0.15006101421E+03  0.31254274137E+03  0.27416173547E+03 0.  0.
         25    2    3    3    0    0 -0.41048961979E+02 -0.62088982312E+01 -0.11981295590E+03  0.17748887458E+03  0.12419174088E+03 0.  0.
         25    2    3    3    0    0  0.41048961979E+02  0.62088982312E+01 -0.30248058309E+02  0.13505386678E+03  0.12490410003E+03 0.  0.
          5    1    4    4  502    0 -0.55261191287E+02 -0.21646063064E+01 -0.14082900645E+03  0.15137167450E+03  0.47000000000E+01 0. -1.
         -5    1    4    4    0  502  0.14212229309E+02 -0.40442919248E+01  0.21016050555E+02  0.26117200080E+02  0.47000000000E+01 0. -1.
          5    1    5    5  503    0  0.47172304945E+02 -0.12958701653E+02 -0.72750531346E+02  0.87794556286E+02  0.47000000000E+01 0. -1.
         -5    1    5    5    0  503 -0.61233429663E+01  0.19167599885E+02  0.42502473037E+02  0.47259310497E+02  0.47000000000E+01 0. -1.
<mgrwt>
<rscale>  0 0.27416174E+03</rscale>
<asrwt>0</asrwt>
<pdfrwt beam="1">  1        3 0.12498595E-01 0.27416174E+03</pdfrwt>
<pdfrwt beam="2">  1       -3 0.35584904E-01 0.27416174E+03</pdfrwt>
<totfact> 0.10028692E+03</totfact>
</mgrwt>
</event>
<event>
 9    1  0.8186049E-001  0.2726278E+03  0.7818608E-02  0.1099785E+00
          1   -1    0    0  501    0  0.00000000000E+00  0.00000000000E+00  0.50095281134E+02  0.50095281134E+02  0.00000000000E+00 0.  1.
         -1   -1    0    0    0  501 -0.00000000000E+00 -0.00000000000E+00 -0.37092283144E+03  0.37092283144E+03  0.00000000000E+00 0.  1.
         35    2    1    2    0    0  0.00000000000E+00  0.71054273576E-14 -0.32082755031E+03  0.42101811258E+03  0.27262783072E+03 0.  0.
         25    2    3    3    0    0 -0.24142267525E+02  0.96674668109E+01 -0.87681380768E+02  0.15502227353E+03  0.12517017121E+03 0.  0.
         25    2    3    3    0    0  0.24142267525E+02 -0.96674668109E+01 -0.23314616954E+03  0.26599583905E+03  0.12538078411E+03 0.  0.
          5    1    4    4  502    0 -0.61239954313E+02  0.32931571130E+02 -0.16986604011E+02  0.71731827645E+02  0.47000000000E+01 0.  1.
         -5    1    4    4    0  502  0.37097686789E+02 -0.23264104319E+02 -0.70694776757E+02  0.83290445884E+02  0.47000000000E+01 0.  1.
          5    1    5    5  503    0  0.32560745189E+02  0.39682047816E+02 -0.36853093441E+02  0.63364876251E+02  0.47000000000E+01 0.  1.
         -5    1    5    5    0  503 -0.84184776643E+01 -0.49349514626E+02 -0.19629307610E+03  0.20263096280E+03  0.47000000000E+01 0.  1.
<mgrwt>
<rscale>  0 0.27262783E+03</rscale>
<asrwt>0</asrwt>
<pdfrwt beam="1">  1        1 0.77069662E-02 0.27262783E+03</pdfrwt>
<pdfrwt beam="2">  1       -1 0.57065052E-01 0.27262783E+03</pdfrwt>
<totfact> 0.29187333E+03</totfact>
</mgrwt>
</event>
<event>
 9    1  0.8186049E-001  0.2669201E+03  0.7818608E-02  0.1103055E+00
          1   -1    0    0  501    0  0.00000000000E+00  0.00000000000E+00  0.16728622908E+04  0.16728622908E+04  0.00000000000E+00 0.  1.
         -1   -1    0    0    0  501 -0.00000000000E+00 -0.00000000000E+00 -0.10647370717E+02  0.10647370717E+02  0.00000000000E+00 0.  1.
         35    2    1    2    0    0  0.00000000000E+00  0.00000000000E+00  0.16622149200E+04  0.16835096615E+04  0.26692010017E+03 0.  0.
         25    2    3    3    0    0 -0.43532116914E+02 -0.14253794124E+02  0.72053108429E+03  0.73254083059E+03  0.12390645346E+03 0.  0.
         25    2    3    3    0    0  0.43532116914E+02  0.14253794124E+02  0.94168383576E+03  0.95096883089E+03  0.12439877388E+03 0.  0.
          5    1    4    4  502    0 -0.27419437470E+02  0.22683222048E+02  0.65136700855E+03  0.65235528965E+03  0.47000000000E+01 0. -1.
         -5    1    4    4    0  502 -0.16112679444E+02 -0.36937016172E+02  0.69164075737E+02  0.80185540936E+02  0.47000000000E+01 0. -1.
          5    1    5    5  503    0  0.16154782251E+02 -0.52834791815E+02  0.53380115840E+03  0.53667332608E+03  0.47000000000E+01 0. -1.
         -5    1    5    5    0  503  0.27377334663E+02  0.67088585939E+02  0.40788267736E+03  0.41429550481E+03  0.47000000000E+01 0. -1.
<mgrwt>
<rscale>  0 0.26692010E+03</rscale>
<asrwt>0</asrwt>
<pdfrwt beam="1">  1        1 0.25736322E+00 0.26692010E+03</pdfrwt>
<pdfrwt beam="2">  1       -1 0.16380584E-02 0.26692010E+03</pdfrwt>
<totfact> 0.50540365E+03</totfact>
</mgrwt>
</event>
<event>
 9    1  0.8186049E-001  0.2754182E+03  0.7818608E-02  0.1098218E+00
          1   -1    0    0  501    0  0.00000000000E+00  0.00000000000E+00  0.28631327939E+03  0.28631327939E+03  0.00000000000E+00 0.  1.
         -1   -1    0    0    0  501 -0.00000000000E+00 -0.00000000000E+00 -0.66234431674E+02  0.66234431674E+02  0.00000000000E+00 0.  1.
         35    2    1    2    0    0  0.71054273576E-14  0.17763568394E-14  0.22007884772E+03  0.35254771106E+03  0.27541820812E+03 0.  0.
         25    2    3    3    0    0  0.53900914221E+02  0.97300642979E+01  0.14156361803E+03  0.19536336837E+03  0.12299026403E+03 0.  0.
         25    2    3    3    0    0 -0.53900914221E+02 -0.97300642979E+01  0.78515229683E+02  0.15718434269E+03  0.12466873541E+03 0.  0.
          5    1    4    4  502    0  0.87857587496E+02  0.12887119944E+02  0.61229386953E+02  0.10796370394E+03  0.47000000000E+01 0.  1.
         -5    1    4    4    0  502 -0.33956673275E+02 -0.31570556464E+01  0.80334231082E+02  0.87399664437E+02  0.47000000000E+01 0.  1.
          5    1    5    5  503    0 -0.50558499942E+02 -0.62589132705E+02  0.32629678570E+02  0.86950258037E+02  0.47000000000E+01 0.  1.
         -5    1    5    5    0  503 -0.33424142790E+01  0.52859068407E+02  0.45885551113E+02  0.70234084653E+02  0.47000000000E+01 0.  1.
<mgrwt>
<rscale>  0 0.27541821E+03</rscale>
<asrwt>0</asrwt>
<pdfrwt beam="1">  1        1 0.44048196E-01 0.27541821E+03</pdfrwt>
<pdfrwt beam="2">  1       -1 0.10189913E-01 0.27541821E+03</pdfrwt>
<totfact> 0.54671472E+03</totfact>
</mgrwt>
</event>
<event>
 8    1  0.8186049E-001  0.3397229E+03  0.7818608E-02  0.1066914E+00
          1   -1    0    0  501    0  0.00000000000E+00  0.00000000000E+00  0.50849689001E+02  0.50849689001E+02  0.00000000000E+00 0. -1.
         -1   -1    0    0    0  501 -0.00000000000E+00 -0.00000000000E+00 -0.56741558043E+03  0.56741558043E+03  0.00000000000E+00 0. -1.
         25    2    1    2    0    0  0.23287293240E+02  0.36024836913E+02 -0.45379359363E+03  0.47232136413E+03  0.12376897224E+03 0.  0.
         25    2    1    2    0    0 -0.23287293240E+02 -0.36024836913E+02 -0.62772297797E+02  0.14594390530E+03  0.12457598173E+03 0.  0.
          5    1    3    3  502    0 -0.87320789705E+01  0.66759586887E+02 -0.38102318184E+03  0.38695457970E+03  0.47000000000E+01 0. -1.
         -5    1    3    3    0  502  0.32019372211E+02 -0.30734749974E+02 -0.72770411785E+02  0.85366784431E+02  0.47000000000E+01 0. -1.
          5    1    4    4  503    0 -0.37484992042E+01  0.41611902879E+02 -0.49015273044E+02  0.64576998220E+02  0.47000000000E+01 0. -1.
         -5    1    4    4    0  503 -0.19538794036E+02 -0.77636739793E+02 -0.13757024753E+02  0.81366907082E+02  0.47000000000E+01 0. -1.
<mgrwt>
<rscale>  0 0.33972286E+03</rscale>
<asrwt>0</asrwt>
<pdfrwt beam="1">  1        1 0.78230292E-02 0.33972286E+03</pdfrwt>
<pdfrwt beam="2">  1       -1 0.87294703E-01 0.33972286E+03</pdfrwt>
<totfact> 0.12199031E+03</totfact>
</mgrwt>
</event>
<event>
 9    1  0.8186049E-001  0.2753395E+03  0.7818608E-02  0.1098262E+00
         -2   -1    0    0    0  501 -0.00000000000E+00  0.00000000000E+00  0.41033435027E+02  0.41033435027E+02  0.00000000000E+00 0. -1.
          2   -1    0    0  501    0  0.00000000000E+00 -0.00000000000E+00 -0.46189050133E+03  0.46189050133E+03  0.00000000000E+00 0. -1.
         35    2    1    2    0    0  0.00000000000E+00  0.35527136788E-14 -0.42085706630E+03  0.50292393636E+03  0.27533945504E+03 0.  0.
         25    2    3    3    0    0 -0.37942588041E+02  0.48104076600E+00 -0.13584021349E+03  0.18949176196E+03  0.12654917172E+03 0.  0.
         25    2    3    3    0    0  0.37942588041E+02 -0.48104076600E+00 -0.28501685282E+03  0.31343217440E+03  0.12476077176E+03 0.  0.
          5    1    4    4  502    0 -0.65602702703E+02 -0.40228446162E+01 -0.18048212570E+02  0.68320757151E+02  0.47000000000E+01 0.  1.
         -5    1    4    4    0  502  0.27660114662E+02  0.45038853822E+01 -0.11779200091E+03  0.12117100481E+03  0.47000000000E+01 0.  1.
          5    1    5    5  503    0  0.16156416807E+02  0.57845018104E+02 -0.19336999448E+03  0.20253671442E+03  0.47000000000E+01 0. -1.
         -5    1    5    5    0  503  0.21786171234E+02 -0.58326058870E+02 -0.91646858335E+02  0.11089545997E+03  0.47000000000E+01 0. -1.
<mgrwt>
<rscale>  0 0.27533946E+03</rscale>
<asrwt>0</asrwt>
<pdfrwt beam="1">  1        2 0.71060076E-01 0.27533946E+03</pdfrwt>
<pdfrwt beam="2">  1       -2 0.63128363E-02 0.27533946E+03</pdfrwt>
<totfact> 0.92559357E+03</totfact>
</mgrwt>
</event>
<event>
 9    1  0.8186049E-001  0.2603763E+03  0.7818608E-02  0.1106917E+00
         -1   -1    0    0    0  501 -0.00000000000E+00  0.00000000000E+00  0.84578632611E+02  0.84578632611E+02  0.00000000000E+00 0.  1.
          1   -1    0    0  501    0  0.00000000000E+00 -0.00000000000E+00 -0.20039283423E+03  0.20039283423E+03  0.00000000000E+00 0.  1.
         35    2    1    2    0    0 -0.35527136788E-14  0.00000000000E+00 -0.11581420162E+03  0.28497146684E+03  0.26037628083E+03 0.  0.
         25    2    3    3    0    0 -0.13181689610E+02  0.29018179291E+02 -0.36578796087E+02  0.13351638568E+03  0.12438973130E+03 0.  0.
         25    2    3    3    0    0  0.13181689610E+02 -0.29018179291E+02 -0.79235405534E+02  0.15145508116E+03  0.12507829727E+03 0.  0.
          5    1    4    4  502    0 -0.43107730090E+02  0.62641906167E+02 -0.43504044043E+02  0.87732415046E+02  0.47000000000E+01 0. -1.
         -5    1    4    4    0  502  0.29926040480E+02 -0.33623726876E+02  0.69252479566E+01  0.45783970635E+02  0.47000000000E+01 0. -1.
          5    1    5    5  503    0 -0.25469416422E+02 -0.63548880113E+00 -0.96772303487E+02  0.10018015642E+03  0.47000000000E+01 0.  1.
         -5    1    5    5    0  503  0.38651106032E+02 -0.28382690490E+02  0.17536897953E+02  0.51274924737E+02  0.47000000000E+01 0.  1.
<mgrwt>
<rscale>  0 0.26037628E+03</rscale>
<asrwt>0</asrwt>
<pdfrwt beam="1">  1        1 0.30829667E-01 0.26037628E+03</pdfrwt>
<pdfrwt beam="2">  1       -1 0.13012097E-01 0.26037628E+03</pdfrwt>
<totfact> 0.58361138E+03</totfact>
</mgrwt>
</event>
<event>
 9    1  0.8186049E-001  0.2753977E+03  0.7818608E-02  0.1098229E+00
          2   -1    0    0  501    0  0.00000000000E+00  0.00000000000E+00  0.14416954686E+04  0.14416954686E+04  0.00000000000E+00 0.  1.
         -2   -1    0    0    0  501 -0.00000000000E+00 -0.00000000000E+00 -0.13151859200E+02  0.13151859200E+02  0.00000000000E+00 0.  1.
         35    2    1    2    0    0 -0.71054273576E-14  0.71054273576E-14  0.14285436094E+04  0.14548473278E+04  0.27539771832E+03 0.  0.
         25    2    3    3    0    0 -0.39996474706E+02  0.33811874698E+02  0.85108948285E+03  0.86177711675E+03  0.12475387880E+03 0.  0.
         25    2    3    3    0    0  0.39996474706E+02 -0.33811874698E+02  0.57745412658E+03  0.59307021108E+03  0.12464367657E+03 0.  0.
          5    1    4    4  502    0 -0.50196529694E+01  0.77935233691E+02  0.45488138523E+03  0.46156068095E+03  0.47000000000E+01 0. -1.
         -5    1    4    4    0  502 -0.34976821737E+02 -0.44123358993E+02  0.39620809762E+03  0.40021643580E+03  0.47000000000E+01 0. -1.
          5    1    5    5  503    0  0.54852794048E+02 -0.71918810106E+02  0.32949464127E+03  0.34171618763E+03  0.47000000000E+01 0.  1.
         -5    1    5    5    0  503 -0.14856319341E+02  0.38106935408E+02  0.24795948531E+03  0.25135402345E+03  0.47000000000E+01 0.  1.
<mgrwt>
<rscale>  0 0.27539772E+03</rscale>
<asrwt>0</asrwt>
<pdfrwt beam="1">  1        2 0.22179918E+00 0.27539772E+03</pdfrwt>
<pdfrwt beam="2">  1       -2 0.20233641E-02 0.27539772E+03</pdfrwt>
<totfact> 0.11145669E+04</totfact>
</mgrwt>
</event>
<event>
 9    1  0.8186049E-001  0.2756883E+03  0.7818608E-02  0.1098067E+00
          2   -1    0    0  501    0  0.00000000000E+00  0.00000000000E+00  0.15391327958E+04  0.15391327958E+04  0.00000000000E+00 0.  1.
         -2   -1    0    0    0  501 -0.00000000000E+00 -0.00000000000E+00 -0.12345273028E+02  0.12345273028E+02  0.00000000000E+00 0.  1.
         35    2    1    2    0    0  0.71054273576E-14  0.71054273576E-14  0.15267875228E+04  0.15514780689E+04  0.27568833557E+03 0.  0.
         25    2    3    3    0    0  0.45875981533E+02  0.48721590965E+01  0.95920605808E+03  0.96846870715E+03  0.12540746090E+03 0.  0.
         25    2    3    3    0    0 -0.45875981533E+02 -0.48721590965E+01  0.56758146474E+03  0.58300936173E+03  0.12499141223E+03 0.  0.
          5    1    4    4  502    0 -0.27738764361E+02 -0.38700245086E+02  0.32548889134E+03  0.32898671159E+03  0.47000000000E+01 0. -1.
         -5    1    4    4    0  502  0.73614745894E+02  0.43572404183E+02  0.63371716674E+03  0.63948199556E+03  0.47000000000E+01 0. -1.
          5    1    5    5  503    0 -0.36292296429E+02  0.55903104252E+02  0.21750782077E+03  0.22753907344E+03  0.47000000000E+01 0.  1.
         -5    1    5    5    0  503 -0.95836851048E+01 -0.60775263349E+02  0.35007364397E+03  0.35547028829E+03  0.47000000000E+01 0.  1.
<mgrwt>
<rscale>  0 0.27568834E+03</rscale>
<asrwt>0</asrwt>
<pdfrwt beam="1">  1        2 0.23678951E+00 0.27568834E+03</pdfrwt>
<pdfrwt beam="2">  1       -2 0.18992740E-02 0.27568834E+03</pdfrwt>
<totfact> 0.10846891E+04</totfact>
</mgrwt>
</event>
<event>
 9    1  0.8186049E-001  0.2735493E+03  0.7818608E-02  0.1099265E+00
         -1   -1    0    0    0  501 -0.00000000000E+00  0.00000000000E+00  0.28665804974E+02  0.28665804974E+02  0.00000000000E+00 0. -1.
          1   -1    0    0  501    0  0.00000000000E+00 -0.00000000000E+00 -0.65260006976E+03  0.65260006976E+03  0.00000000000E+00 0. -1.
         35    2    1    2    0    0  0.35527136788E-14  0.00000000000E+00 -0.62393426478E+03  0.68126587473E+03  0.27354931055E+03 0.  0.
         25    2    3    3    0    0  0.69469808855E+01  0.50060787499E+02 -0.36591526488E+03  0.39000645592E+03  0.12512678211E+03 0.  0.
         25    2    3    3    0    0 -0.69469808855E+01 -0.50060787499E+02 -0.25801899990E+03  0.29125941881E+03  0.12531520955E+03 0.  0.
          5    1    4    4  502    0  0.41946008450E+02 -0.25989729448E+02 -0.16533471217E+03  0.17260530325E+03  0.47000000000E+01 0. -1.
         -5    1    4    4    0  502 -0.34999027565E+02  0.76050516947E+02 -0.20058055270E+03  0.21740115267E+03  0.47000000000E+01 0. -1.
          5    1    5    5  503    0 -0.19177720547E+02 -0.44606209428E+02 -0.26895446641E+03  0.27334244802E+03  0.47000000000E+01 0.  1.
         -5    1    5    5    0  503  0.12230739662E+02 -0.54545780717E+01  0.10935466508E+02  0.17916970792E+02  0.47000000000E+01 0.  1.
<mgrwt>
<rscale>  0 0.27354931E+03</rscale>
<asrwt>0</asrwt>
<pdfrwt beam="1">  1        1 0.10040001E+00 0.27354931E+03</pdfrwt>
<pdfrwt beam="2">  1       -1 0.44101238E-02 0.27354931E+03</pdfrwt>
<totfact> 0.66115862E+03</totfact>
</mgrwt>
</event>
<event>
 9    1  0.8186049E-001  0.2801514E+03  0.7818608E-02  0.1095606E+00
          1   -1    0    0  501    0  0.00000000000E+00  0.00000000000E+00  0.89126874746E+03  0.89126874746E+03  0.00000000000E+00 0.  1.
         -1   -1    0    0    0  501 -0.00000000000E+00 -0.00000000000E+00 -0.22014906496E+02  0.22014906496E+02  0.00000000000E+00 0.  1.
         35    2    1    2    0    0 -0.71054273576E-14  0.71054273576E-14  0.86925384096E+03  0.91328365396E+03  0.28015137436E+03 0.  0.
         25    2    3    3    0    0 -0.25734884927E+02 -0.15102584430E+02  0.25967790114E+03  0.28954707750E+03  0.12455731769E+03 0.  0.
         25    2    3    3    0    0  0.25734884927E+02  0.15102584430E+02  0.60957593982E+03  0.62373657645E+03  0.12874050659E+03 0.  0.
          5    1    4    4  502    0 -0.56954551350E+02  0.21383751597E+02  0.65723842472E+02  0.89681654875E+02  0.47000000000E+01 0.  1.
         -5    1    4    4    0  502  0.31219666423E+02 -0.36486336027E+02  0.19395405867E+03  0.19986542263E+03  0.47000000000E+01 0.  1.
          5    1    5    5  503    0  0.72896162262E+02  0.33607126669E+02  0.40719654498E+03  0.41505952064E+03  0.47000000000E+01 0. -1.
         -5    1    5    5    0  503 -0.47161277335E+02 -0.18504542239E+02  0.20237939484E+03  0.20867705581E+03  0.47000000000E+01 0. -1.
<mgrwt>
<rscale>  0 0.28015137E+03</rscale>
<asrwt>0</asrwt>
<pdfrwt beam="1">  1        1 0.13711824E+00 0.28015137E+03</pdfrwt>
<pdfrwt beam="2">  1       -1 0.33869094E-02 0.28015137E+03</pdfrwt>
<totfact> 0.61100616E+03</totfact>
</mgrwt>
</event>
<event>
 9    1  0.8186049E-001  0.2749281E+03  0.7818608E-02  0.1098492E+00
         -2   -1    0    0    0  501 -0.00000000000E+00  0.00000000000E+00  0.52844536550E+01  0.52844536550E+01  0.00000000000E+00 0. -1.
          2   -1    0    0  501    0  0.00000000000E+00 -0.00000000000E+00 -0.35758400375E+04  0.35758400375E+04  0.00000000000E+00 0. -1.
         35    2    1    2    0    0  0.71054273576E-14 -0.35527136788E-14 -0.35705555838E+04  0.35811244911E+04  0.27492807027E+03 0.  0.
         25    2    3    3    0    0 -0.32623298383E+02  0.14644548567E+01 -0.23312984591E+04  0.23352145614E+04  0.13117971690E+03 0.  0.
         25    2    3    3    0    0  0.32623298383E+02 -0.14644548567E+01 -0.12392571247E+04  0.12459099297E+04  0.12436602276E+03 0.  0.
          5    1    4    4  502    0 -0.32941847279E+02  0.25380329406E+02 -0.22488250524E+04  0.22492144257E+04  0.47000000000E+01 0. -1.
         -5    1    4    4    0  502  0.31854889616E+00 -0.23915874550E+02 -0.82473406694E+02  0.86000135701E+02  0.47000000000E+01 0. -1.
          5    1    5    5  503    0  0.57758416643E+02  0.44136775029E+02 -0.85768941605E+03  0.86077715700E+03  0.47000000000E+01 0.  1.
         -5    1    5    5    0  503 -0.25135118261E+02 -0.45601229886E+02 -0.38156770865E+03  0.38513277272E+03  0.47000000000E+01 0.  1.
<mgrwt>
<rscale>  0 0.27492807E+03</rscale>
<asrwt>0</asrwt>
<pdfrwt beam="1">  1        2 0.55013143E+00 0.27492807E+03</pdfrwt>
<pdfrwt beam="2">  1       -2 0.81298962E-03 0.27492807E+03</pdfrwt>
<totfact> 0.25980355E+03</totfact>
</mgrwt>
</event>
<event>
 9    1  0.8186049E-001  0.2741517E+03  0.7818608E-02  0.1098927E+00
          2   -1    0    0  501    0  0.00000000000E+00  0.00000000000E+00  0.16933327317E+04  0.16933327317E+04  0.00000000000E+00 0. -1.
         -2   -1    0    0    0  501 -0.00000000000E+00 -0.00000000000E+00 -0.11096336889E+02  0.11096336889E+02  0.00000000000E+00 0. -1.
         35    2    1    2    0    0  0.00000000000E+00  0.00000000000E+00  0.16822363948E+04  0.17044290686E+04  0.27415171315E+03 0.  0.
         25    2    3    3    0    0  0.21961225997E+02  0.39770665132E+02  0.71505782968E+03  0.72806509184E+03  0.12925585832E+03 0.  0.
         25    2    3    3    0    0 -0.21961225997E+02 -0.39770665132E+02  0.96717856512E+03  0.97636397675E+03  0.12565125149E+03 0.  0.
          5    1    4    4  502    0 -0.41344139737E+02  0.52985059337E+02  0.45936186089E+03  0.46427595635E+03  0.47000000000E+01 0. -1.
         -5    1    4    4    0  502  0.63305365734E+02 -0.13214394205E+02  0.25569596879E+03  0.26378913549E+03  0.47000000000E+01 0. -1.
          5    1    5    5  503    0 -0.67643086093E+02  0.68016584193E+01  0.47886387172E+03  0.48368848166E+03  0.47000000000E+01 0. -1.
         -5    1    5    5    0  503  0.45681860096E+02 -0.46572323551E+02  0.48831469340E+03  0.49267549508E+03  0.47000000000E+01 0. -1.
<mgrwt>
<rscale>  0 0.27415171E+03</rscale>
<asrwt>0</asrwt>
<pdfrwt beam="1">  1        2 0.26051252E+00 0.27415171E+03</pdfrwt>
<pdfrwt beam="2">  1       -2 0.17071301E-02 0.27415171E+03</pdfrwt>
<totfact> 0.10510106E+04</totfact>
</mgrwt>
</event>
<event>
 9    1  0.8186049E-001  0.2749824E+03  0.7818608E-02  0.1098461E+00
         -1   -1    0    0    0  501 -0.00000000000E+00  0.00000000000E+00  0.28491454407E+02  0.28491454407E+02  0.00000000000E+00 0.  1.
          1   -1    0    0  501    0  0.00000000000E+00 -0.00000000000E+00 -0.66349133781E+03  0.66349133781E+03  0.00000000000E+00 0.  1.
         35    2    1    2    0    0  0.00000000000E+00 -0.35527136788E-14 -0.63499988340E+03  0.69198279222E+03  0.27498242272E+03 0.  0.
         25    2    3    3    0    0 -0.33776014622E+01 -0.50442691705E+01 -0.16398702755E+03  0.20552309525E+03  0.12373821007E+03 0.  0.
         25    2    3    3    0    0  0.33776014622E+01  0.50442691705E+01 -0.47101285585E+03  0.48645969697E+03  0.12146223099E+03 0.  0.
          5    1    4    4  502    0 -0.41596175552E+02 -0.40075454844E+02 -0.38251865757E+02  0.69437591659E+02  0.47000000000E+01 0. -1.
         -5    1    4    4    0  502  0.38218574090E+02  0.35031185674E+02 -0.12573516180E+03  0.13608550359E+03  0.47000000000E+01 0. -1.
          5    1    5    5  503    0 -0.54394289440E+02  0.24677489930E+02 -0.25509248857E+03  0.26203432019E+03  0.47000000000E+01 0.  1.
         -5    1    5    5    0  503  0.57771890903E+02 -0.19633220760E+02 -0.21592036728E+03  0.22442537678E+03  0.47000000000E+01 0.  1.
<mgrwt>
<rscale>  0 0.27498242E+03</rscale>
<asrwt>0</asrwt>
<pdfrwt beam="1">  1        1 0.10207560E+00 0.27498242E+03</pdfrwt>
<pdfrwt beam="2">  1       -1 0.43833005E-02 0.27498242E+03</pdfrwt>
<totfact> 0.65170241E+03</totfact>
</mgrwt>
</event>
<event>
 9    1  0.8186049E-001  0.2721531E+03  0.7818608E-02  0.1100054E+00
         -1   -1    0    0    0  501 -0.00000000000E+00  0.00000000000E+00  0.54508034806E+02  0.54508034806E+02  0.00000000000E+00 0. -1.
          1   -1    0    0  501    0  0.00000000000E+00 -0.00000000000E+00 -0.33970826585E+03  0.33970826585E+03  0.00000000000E+00 0. -1.
         35    2    1    2    0    0  0.00000000000E+00  0.71054273576E-14 -0.28520023104E+03  0.39421630066E+03  0.27215311851E+03 0.  0.
         25    2    3    3    0    0 -0.43338962482E+02 -0.22421888834E+02 -0.17566059990E+03  0.22098885864E+03  0.12489364483E+03 0.  0.
         25    2    3    3    0    0  0.43338962482E+02  0.22421888834E+02 -0.10953963115E+03  0.17322744201E+03  0.12501123592E+03 0.  0.
          5    1    4    4  502    0 -0.11976403812E+02 -0.68911353394E+02 -0.59636232145E+02  0.92036835339E+02  0.47000000000E+01 0.  1.
         -5    1    4    4    0  502 -0.31362558670E+02  0.46489464560E+02 -0.11602436775E+03  0.12895202330E+03  0.47000000000E+01 0.  1.
          5    1    5    5  503    0 -0.16139422814E+00 -0.49640734797E+02 -0.42443343978E+02  0.65480959426E+02  0.47000000000E+01 0. -1.
         -5    1    5    5    0  503  0.43500356710E+02  0.72062623630E+02 -0.67096287169E+02  0.10774648259E+03  0.47000000000E+01 0. -1.
<mgrwt>
<rscale>  0 0.27215312E+03</rscale>
<asrwt>0</asrwt>
<pdfrwt beam="1">  1        1 0.52262809E-01 0.27215312E+03</pdfrwt>
<pdfrwt beam="2">  1       -1 0.83858517E-02 0.27215312E+03</pdfrwt>
<totfact> 0.59462406E+03</totfact>
</mgrwt>
</event>
<event>
 9    1  0.8186049E-001  0.2790882E+03  0.7818608E-02  0.1096188E+00
          2   -1    0    0  501    0  0.00000000000E+00  0.00000000000E+00  0.10376687905E+03  0.10376687905E+03  0.00000000000E+00 0.  1.
         -2   -1    0    0    0  501 -0.00000000000E+00 -0.00000000000E+00 -0.18765680993E+03  0.18765680993E+03  0.00000000000E+00 0.  1.
         35    2    1    2    0    0  0.14210854715E-13  0.71054273576E-14 -0.83889930878E+02  0.29142368897E+03  0.27908824051E+03 0.  0.
         25    2    3    3    0    0 -0.40981648040E+02 -0.43786149185E+02 -0.25416752441E+02  0.14144626174E+03  0.12555600869E+03 0.  0.
         25    2    3    3    0    0  0.40981648040E+02  0.43786149185E+02 -0.58473178437E+02  0.14997742723E+03  0.12440817395E+03 0.  0.
          5    1    4    4  502    0  0.46210593610E+01 -0.16401133351E+01  0.46110950973E+02  0.46608518116E+02  0.47000000000E+01 0.  1.
         -5    1    4    4    0  502 -0.45602707401E+02 -0.42146035850E+02 -0.71527703414E+02  0.94837743625E+02  0.47000000000E+01 0.  1.
          5    1    5    5  503    0  0.28639996627E+02  0.52500530686E+02  0.25020726821E+02  0.64997553029E+02  0.47000000000E+01 0.  1.
         -5    1    5    5    0  503  0.12341651414E+02 -0.87143815009E+01 -0.83493905258E+02  0.84979874204E+02  0.47000000000E+01 0.  1.
<mgrwt>
<rscale>  0 0.27908824E+03</rscale>
<asrwt>0</asrwt>
<pdfrwt beam="1">  1        2 0.15964135E-01 0.27908824E+03</pdfrwt>
<pdfrwt beam="2">  1       -2 0.28870278E-01 0.27908824E+03</pdfrwt>
<totfact> 0.39491911E+03</totfact>
</mgrwt>
</event>
<event>
 9    1  0.8186049E-001  0.2749274E+03  0.7818608E-02  0.1098492E+00
          2   -1    0    0  501    0  0.00000000000E+00  0.00000000000E+00  0.30588734936E+03  0.30588734936E+03  0.00000000000E+00 0. -1.
         -2   -1    0    0    0  501 -0.00000000000E+00 -0.00000000000E+00 -0.61775240889E+02  0.61775240889E+02  0.00000000000E+00 0. -1.
         35    2    1    2    0    0 -0.35527136788E-14 -0.14210854715E-13  0.24411210847E+03  0.36766259025E+03  0.27492736998E+03 0.  0.
         25    2    3    3    0    0 -0.27283245669E+02 -0.43214280995E+02  0.90469675390E+02  0.16285407612E+03  0.12539871756E+03 0.  0.
         25    2    3    3    0    0  0.27283245669E+02  0.43214280995E+02  0.15364243308E+03  0.20480851413E+03  0.12541403686E+03 0.  0.
          5    1    4    4  502    0 -0.36210302632E+02  0.38408257311E+02  0.39510145809E+02  0.66102359021E+02  0.47000000000E+01 0. -1.
         -5    1    4    4    0  502  0.89270569630E+01 -0.81622538306E+02  0.50959529581E+02  0.96751717094E+02  0.47000000000E+01 0. -1.
          5    1    5    5  503    0 -0.35174723245E+02 -0.22391200559E+02  0.68935122318E+02  0.80701723072E+02  0.47000000000E+01 0. -1.
         -5    1    5    5    0  503  0.62457968913E+02  0.65605481554E+02  0.84707310760E+02  0.12410679106E+03  0.47000000000E+01 0. -1.
<mgrwt>
<rscale>  0 0.27492737E+03</rscale>
<asrwt>0</asrwt>
<pdfrwt beam="1">  1        2 0.47059592E-01 0.27492737E+03</pdfrwt>
<pdfrwt beam="2">  1       -2 0.95038833E-02 0.27492737E+03</pdfrwt>
<totfact> 0.76476879E+03</totfact>
</mgrwt>
</event>
<event>
 9    1  0.8186049E-001  0.2823314E+03  0.7818608E-02  0.1094422E+00
         -2   -1    0    0    0  501 -0.00000000000E+00  0.00000000000E+00  0.13480469341E+02  0.13480469341E+02  0.00000000000E+00 0. -1.
          2   -1    0    0  501    0  0.00000000000E+00 -0.00000000000E+00 -0.14782683074E+04  0.14782683074E+04  0.00000000000E+00 0. -1.
         35    2    1    2    0    0 -0.17763568394E-14  0.71054273576E-14 -0.14647878380E+04  0.14917487767E+04  0.28233136982E+03 0.  0.
         25    2    3    3    0    0 -0.13186256522E+02  0.55694936467E+02 -0.56203614321E+03  0.57853414430E+03  0.12466485688E+03 0.  0.
         25    2    3    3    0    0  0.13186256522E+02 -0.55694936467E+02 -0.90275169481E+03  0.91321463240E+03  0.12539752404E+03 0.  0.
          5    1    4    4  502    0  0.14407746157E+02  0.63400500022E+02 -0.53469499696E+03  0.53865391146E+03  0.47000000000E+01 0. -1.
         -5    1    4    4    0  502 -0.27594002680E+02 -0.77055635545E+01 -0.27341146244E+02  0.39880232841E+02  0.47000000000E+01 0. -1.
          5    1    5    5  503    0 -0.53024059763E+02 -0.36559824808E+02 -0.32549145649E+03  0.33183572736E+03  0.47000000000E+01 0.  1.
         -5    1    5    5    0  503  0.66210316285E+02 -0.19135111660E+02 -0.57726023832E+03  0.58137890504E+03  0.47000000000E+01 0.  1.
<mgrwt>
<rscale>  0 0.28233137E+03</rscale>
<asrwt>0</asrwt>
<pdfrwt beam="1">  1        2 0.22742589E+00 0.28233137E+03</pdfrwt>
<pdfrwt beam="2">  1       -2 0.20739184E-02 0.28233137E+03</pdfrwt>
<totfact> 0.10276665E+04</totfact>
</mgrwt>
</event>
<event>
 9    1  0.8186049E-001  0.2767388E+03  0.7818608E-02  0.1097484E+00
         -2   -1    0    0    0  501 -0.00000000000E+00  0.00000000000E+00  0.87850843305E+02  0.87850843305E+02  0.00000000000E+00 0.  1.
          2   -1    0    0  501    0  0.00000000000E+00 -0.00000000000E+00 -0.21793863600E+03  0.21793863600E+03  0.00000000000E+00 0.  1.
         35    2    1    2    0    0  0.35527136788E-14  0.14210854715E-13 -0.13008779269E+03  0.30578947930E+03  0.27673881521E+03 0.  0.
         25    2    3    3    0    0 -0.13436670606E+02 -0.20412219802E+02 -0.71144204452E+01  0.12723683525E+03  0.12466512917E+03 0.  0.
         25    2    3    3    0    0  0.13436670606E+02  0.20412219802E+02 -0.12297337225E+03  0.17855264406E+03  0.12712746982E+03 0.  0.
          5    1    4    4  502    0 -0.66174548273E+02 -0.29503395998E+02 -0.10725980025E+02  0.73393854389E+02  0.47000000000E+01 0.  1.
         -5    1    4    4    0  502  0.52737877666E+02  0.90911761963E+01  0.36115595794E+01  0.53842980861E+02  0.47000000000E+01 0.  1.
          5    1    5    5  503    0 -0.14318989486E+02 -0.45490256618E+02 -0.84681400737E+02  0.97300701631E+02  0.47000000000E+01 0.  1.
         -5    1    5    5    0  503  0.27755660093E+02  0.65902476420E+02 -0.38291971512E+02  0.81251942424E+02  0.47000000000E+01 0.  1.
<mgrwt>
<rscale>  0 0.27673882E+03</rscale>
<asrwt>0</asrwt>
<pdfrwt beam="1">  1        2 0.33529020E-01 0.27673882E+03</pdfrwt>
<pdfrwt beam="2">  1       -2 0.13515515E-01 0.27673882E+03</pdfrwt>
<totfact> 0.62637917E+03</totfact>
</mgrwt>
</event>
<event>
 9    1  0.8186049E-001  0.2651120E+03  0.7818608E-02  0.1104110E+00
         -2   -1    0    0    0  501 -0.00000000000E+00  0.00000000000E+00  0.44952805287E+02  0.44952805287E+02  0.00000000000E+00 0.  1.
          2   -1    0    0  501    0  0.00000000000E+00 -0.00000000000E+00 -0.39087856582E+03  0.39087856582E+03  0.00000000000E+00 0.  1.
         35    2    1    2    0    0 -0.71054273576E-14  0.00000000000E+00 -0.34592576054E+03  0.43583137111E+03  0.26511196171E+03 0.  0.
         25    2    3    3    0    0  0.26329609802E+02  0.31897616727E+02 -0.15173720771E+03  0.20100389246E+03  0.12517059668E+03 0.  0.
         25    2    3    3    0    0 -0.26329609802E+02 -0.31897616727E+02 -0.19418855282E+03  0.23482747865E+03  0.12539555166E+03 0.  0.
          5    1    4    4  502    0  0.64485311381E+02 -0.19507059122E+02 -0.73842644821E+02  0.10006851120E+03  0.47000000000E+01 0. -1.
         -5    1    4    4    0  502 -0.38155701579E+02  0.51404675849E+02 -0.77894562893E+02  0.10093538126E+03  0.47000000000E+01 0. -1.
          5    1    5    5  503    0 -0.44911141835E+02 -0.10724080070E+02 -0.20031172059E+03  0.20561831620E+03  0.47000000000E+01 0. -1.
         -5    1    5    5    0  503  0.18581532033E+02 -0.21173536657E+02  0.61231677638E+01  0.29209162445E+02  0.47000000000E+01 0. -1.
<mgrwt>
<rscale>  0 0.26511196E+03</rscale>
<asrwt>0</asrwt>
<pdfrwt beam="1">  1        2 0.60135162E-01 0.26511196E+03</pdfrwt>
<pdfrwt beam="2">  1       -2 0.69158164E-02 0.26511196E+03</pdfrwt>
<totfact> 0.96364590E+03</totfact>
</mgrwt>
</event>
<event>
 9    1  0.8186049E-001  0.2699049E+03  0.7818608E-02  0.1101334E+00
         -1   -1    0    0    0  501 -0.00000000000E+00  0.00000000000E+00  0.22641042029E+02  0.22641042029E+02  0.00000000000E+00 0.  1.
          1   -1    0    0  501    0  0.00000000000E+00 -0.00000000000E+00 -0.80438736489E+03  0.80438736489E+03  0.00000000000E+00 0.  1.
         35    2    1    2    0    0 -0.71054273576E-14  0.71054273576E-14 -0.78174632286E+03  0.82702840692E+03  0.26990493242E+03 0.  0.
         25    2    3    3    0    0  0.31342532794E+02  0.34762608456E+02 -0.45384338007E+03  0.47374928510E+03  0.12756871950E+03 0.  0.
         25    2    3    3    0    0 -0.31342532794E+02 -0.34762608456E+02 -0.32790294280E+03  0.35327912182E+03  0.12286173005E+03 0.  0.
          5    1    4    4  502    0  0.76612357368E+02  0.15952663989E+02 -0.19330361890E+03  0.20859606868E+03  0.47000000000E+01 0. -1.
         -5    1    4    4    0  502 -0.45269824574E+02  0.18809944467E+02 -0.26053976117E+03  0.26515321642E+03  0.47000000000E+01 0. -1.
          5    1    5    5  503    0 -0.95051785178E+00 -0.15029051587E+02 -0.31366757647E+03  0.31406402915E+03  0.47000000000E+01 0.  1.
         -5    1    5    5    0  503 -0.30392014942E+02 -0.19733556868E+02 -0.14235366325E+02  0.39215092673E+02  0.47000000000E+01 0.  1.
<mgrwt>
<rscale>  0 0.26990493E+03</rscale>
<asrwt>0</asrwt>
<pdfrwt beam="1">  1        1 0.12375187E+00 0.26990493E+03</pdfrwt>
<pdfrwt beam="2">  1       -1 0.34832381E-02 0.26990493E+03</pdfrwt>
<totfact> 0.68869092E+03</totfact>
</mgrwt>
</event>
<event>
 9    1  0.8186049E-001  0.2944521E+03  0.7818608E-02  0.1088047E+00
          2   -1    0    0  501    0  0.00000000000E+00  0.00000000000E+00  0.22322850872E+03  0.22322850872E+03  0.00000000000E+00 0.  1.
         -2   -1    0    0    0  501 -0.00000000000E+00 -0.00000000000E+00 -0.97100069157E+02  0.97100069157E+02  0.00000000000E+00 0.  1.
         35    2    1    2    0    0  0.35527136788E-14  0.71054273576E-14  0.12612843956E+03  0.32032857787E+03  0.29445205813E+03 0.  0.
         25    2    3    3    0    0  0.10821434611E+02  0.53760038976E+02  0.12066320879E+03  0.18308789362E+03  0.12631041761E+03 0.  0.
         25    2    3    3    0    0 -0.10821434611E+02 -0.53760038976E+02  0.54652307749E+01  0.13724068426E+03  0.12568966318E+03 0.  0.
          5    1    4    4  502    0 -0.26059027131E+02  0.81971380287E+02  0.10017213502E+03  0.13211709471E+03  0.47000000000E+01 0.  1.
         -5    1    4    4    0  502  0.36880461741E+02 -0.28211341310E+02  0.20491073764E+02  0.50970798903E+02  0.47000000000E+01 0.  1.
          5    1    5    5  503    0  0.17598457733E+02 -0.79101556932E+02 -0.28470138194E+02  0.86019769777E+02  0.47000000000E+01 0. -1.
         -5    1    5    5    0  503 -0.28419892343E+02  0.25341517956E+02  0.33935368969E+02  0.51220914480E+02  0.47000000000E+01 0. -1.
<mgrwt>
<rscale>  0 0.29445206E+03</rscale>
<asrwt>0</asrwt>
<pdfrwt beam="1">  1        2 0.34342847E-01 0.29445206E+03</pdfrwt>
<pdfrwt beam="2">  1       -2 0.14938472E-01 0.29445206E+03</pdfrwt>
<totfact> 0.51867068E+03</totfact>
</mgrwt>
</event>
<event>
 9    1  0.8186049E-001  0.2761334E+03  0.7818608E-02  0.1097820E+00
          2   -1    0    0  501    0  0.00000000000E+00  0.00000000000E+00  0.15732092446E+04  0.15732092446E+04  0.00000000000E+00 0. -1.
         -2   -1    0    0    0  501 -0.00000000000E+00 -0.00000000000E+00 -0.12116897111E+02  0.12116897111E+02  0.00000000000E+00 0. -1.
         35    2    1    2    0    0  0.00000000000E+00  0.00000000000E+00  0.15610923475E+04  0.15853261418E+04  0.27613340654E+03 0.  0.
         25    2    3    3    0    0 -0.13476364518E+02  0.53817886981E+02  0.65595604861E+03  0.66988714710E+03  0.12406641279E+03 0.  0.
         25    2    3    3    0    0  0.13476364518E+02 -0.53817886981E+02  0.90513629892E+03  0.91543899465E+03  0.12521523848E+03 0.  0.
          5    1    4    4  502    0  0.28388881694E+02 -0.36239227935E+01  0.37821088563E+02  0.47661159871E+02  0.47000000000E+01 0. -1.
         -5    1    4    4    0  502 -0.41865246211E+02  0.57441809774E+02  0.61813496005E+03  0.62222598723E+03  0.47000000000E+01 0. -1.
          5    1    5    5  503    0 -0.22732742430E+02 -0.57867604018E+02  0.20340201964E+03  0.21274376316E+03  0.47000000000E+01 0. -1.
         -5    1    5    5    0  503  0.36209106948E+02  0.40497170376E+01  0.70173427928E+03  0.70269523149E+03  0.47000000000E+01 0. -1.
<mgrwt>
<rscale>  0 0.27613341E+03</rscale>
<asrwt>0</asrwt>
<pdfrwt beam="1">  1        2 0.24203203E+00 0.27613341E+03</pdfrwt>
<pdfrwt beam="2">  1       -2 0.18641393E-02 0.27613341E+03</pdfrwt>
<totfact> 0.10693050E+04</totfact>
</mgrwt>
</event>
<event>
 9    1  0.8186049E-001  0.2748057E+03  0.7818608E-02  0.1098560E+00
         -2   -1    0    0    0  501 -0.00000000000E+00  0.00000000000E+00  0.38176836220E+02  0.38176836220E+02  0.00000000000E+00 0.  1.
          2   -1    0    0  501    0  0.00000000000E+00 -0.00000000000E+00 -0.49452861932E+03  0.49452861932E+03  0.00000000000E+00 0.  1.
         35    2    1    2    0    0 -0.14210854715E-13 -0.35527136788E-14 -0.45635178310E+03  0.53270545554E+03  0.27480566301E+03 0.  0.
         25    2    3    3    0    0 -0.41581826086E+02 -0.16753413803E+02 -0.15937824938E+03  0.20752680776E+03  0.12512483539E+03 0.  0.
         25    2    3    3    0    0  0.41581826086E+02  0.16753413803E+02 -0.29697353372E+03  0.32517864778E+03  0.12465210830E+03 0.  0.
          5    1    4    4  502    0 -0.51534941425E+02 -0.62472315171E+02 -0.72781845522E+02  0.10898590454E+03  0.47000000000E+01 0.  1.
         -5    1    4    4    0  502  0.99531153391E+01  0.45718901369E+02 -0.86596403855E+02  0.98540903223E+02  0.47000000000E+01 0.  1.
          5    1    5    5  503    0 -0.66032523222E+01 -0.23161059541E+02 -0.31612184781E+01  0.24741077636E+02  0.47000000000E+01 0. -1.
         -5    1    5    5    0  503  0.48185078408E+02  0.39914473344E+02 -0.29381231524E+03  0.30043757014E+03  0.47000000000E+01 0. -1.
<mgrwt>
<rscale>  0 0.27480566E+03</rscale>
<asrwt>0</asrwt>
<pdfrwt beam="1">  1        2 0.76081321E-01 0.27480566E+03</pdfrwt>
<pdfrwt beam="2">  1       -2 0.58733598E-02 0.27480566E+03</pdfrwt>
<totfact> 0.95845847E+03</totfact>
</mgrwt>
</event>
<event>
 9    1  0.8186049E-001  0.2750322E+03  0.7818608E-02  0.1098434E+00
          2   -1    0    0  501    0  0.00000000000E+00  0.00000000000E+00  0.15401138404E+04  0.15401138404E+04  0.00000000000E+00 0. -1.
         -2   -1    0    0    0  501 -0.00000000000E+00 -0.00000000000E+00 -0.12278755886E+02  0.12278755886E+02  0.00000000000E+00 0. -1.
         35    2    1    2    0    0  0.71054273576E-14 -0.35527136788E-14  0.15278350845E+04  0.15523925963E+04  0.27503222998E+03 0.  0.
         25    2    3    3    0    0  0.50861958992E+02 -0.12556076379E+02  0.81587327228E+03  0.82774413848E+03  0.12948578476E+03 0.  0.
         25    2    3    3    0    0 -0.50861958992E+02  0.12556076379E+02  0.71196181224E+03  0.72464845781E+03  0.12442335545E+03 0.  0.
          5    1    4    4  502    0  0.42045889319E+02 -0.58674123320E+02  0.68145953262E+03  0.68528803736E+03  0.47000000000E+01 0.  1.
         -5    1    4    4    0  502  0.88160696730E+01  0.46118046941E+02  0.13441373966E+03  0.14245610112E+03  0.47000000000E+01 0.  1.
          5    1    5    5  503    0 -0.17942342333E+02 -0.16678585967E+02  0.63770811991E+03  0.63819576861E+03  0.47000000000E+01 0. -1.
         -5    1    5    5    0  503 -0.32919616659E+02  0.29234662345E+02  0.74253692337E+02  0.86452689196E+02  0.47000000000E+01 0. -1.
<mgrwt>
<rscale>  0 0.27503223E+03</rscale>
<asrwt>0</asrwt>
<pdfrwt beam="1">  1        2 0.23694044E+00 0.27503223E+03</pdfrwt>
<pdfrwt beam="2">  1       -2 0.18890406E-02 0.27503223E+03</pdfrwt>
<totfact> 0.10919672E+04</totfact>
</mgrwt>
</event>
<event>
 9    1  0.8186049E-001  0.2757872E+03  0.7818608E-02  0.1098012E+00
          2   -1    0    0  501    0  0.00000000000E+00  0.00000000000E+00  0.18296904606E+03  0.18296904606E+03  0.00000000000E+00 0. -1.
         -2   -1    0    0    0  501 -0.00000000000E+00 -0.00000000000E+00 -0.10392276222E+03  0.10392276222E+03  0.00000000000E+00 0. -1.
         35    2    1    2    0    0  0.00000000000E+00 -0.71054273576E-14  0.79046283843E+02  0.28689180828E+03  0.27578722717E+03 0.  0.
         25    2    3    3    0    0 -0.43334996603E+02  0.28996281666E+02  0.70535120152E+02  0.15217081540E+03  0.12434648207E+03 0.  0.
         25    2    3    3    0    0  0.43334996603E+02 -0.28996281666E+02  0.85111636910E+01  0.13472099288E+03  0.12392981778E+03 0.  0.
          5    1    4    4  502    0 -0.72707848733E+02 -0.18992634342E+02  0.24067320077E+02  0.79047310659E+02  0.47000000000E+01 0. -1.
         -5    1    4    4    0  502  0.29372852130E+02  0.47988916009E+02  0.46467800075E+02  0.73123504742E+02  0.47000000000E+01 0. -1.
          5    1    5    5  503    0  0.32818543412E+02  0.46993701333E+02  0.13094154855E+01  0.57526249013E+02  0.47000000000E+01 0.  1.
         -5    1    5    5    0  503  0.10516453192E+02 -0.75989982999E+02  0.72017482055E+01  0.77194743870E+02  0.47000000000E+01 0.  1.
<mgrwt>
<rscale>  0 0.27578723E+03</rscale>
<asrwt>0</asrwt>
<pdfrwt beam="1">  1        2 0.28149084E-01 0.27578723E+03</pdfrwt>
<pdfrwt beam="2">  1       -2 0.15988117E-01 0.27578723E+03</pdfrwt>
<totfact> 0.57505526E+03</totfact>
</mgrwt>
</event>
<event>
 9    1  0.8186049E-001  0.2761991E+03  0.7818608E-02  0.1097783E+00
          2   -1    0    0  501    0  0.00000000000E+00  0.00000000000E+00  0.23690739324E+04  0.23690739324E+04  0.00000000000E+00 0.  1.
         -2   -1    0    0    0  501 -0.00000000000E+00 -0.00000000000E+00 -0.80501865445E+01  0.80501865445E+01  0.00000000000E+00 0.  1.
         35    2    1    2    0    0  0.00000000000E+00  0.00000000000E+00  0.23610237459E+04  0.23771241190E+04  0.27619911002E+03 0.  0.
         25    2    3    3    0    0  0.25444134636E+02  0.32305368935E+02  0.80731713374E+03  0.81789485882E+03  0.12449901527E+03 0.  0.
         25    2    3    3    0    0 -0.25444134636E+02 -0.32305368935E+02  0.15537066122E+04  0.15592292602E+04  0.12450143876E+03 0.  0.
          5    1    4    4  502    0  0.11456925208E+01  0.76493907715E+02  0.57742842735E+03  0.58249318386E+03  0.47000000000E+01 0.  1.
         -5    1    4    4    0  502  0.24298442115E+02 -0.44188538780E+02  0.22988870638E+03  0.23540167495E+03  0.47000000000E+01 0.  1.
          5    1    5    5  503    0  0.49600316849E+02 -0.81291076612E+01  0.48966192831E+03  0.49225721717E+03  0.47000000000E+01 0.  1.
         -5    1    5    5    0  503 -0.75044451485E+02 -0.24176261274E+02  0.10640446839E+04  0.10669720430E+04  0.47000000000E+01 0.  1.
<mgrwt>
<rscale>  0 0.27619911E+03</rscale>
<asrwt>0</asrwt>
<pdfrwt beam="1">  1        2 0.36447236E+00 0.27619911E+03</pdfrwt>
<pdfrwt beam="2">  1       -2 0.12384921E-02 0.27619911E+03</pdfrwt>
<totfact> 0.73782842E+03</totfact>
</mgrwt>
</event>
<event>
 9    1  0.8186049E-001  0.2749225E+03  0.7818608E-02  0.1098495E+00
          1   -1    0    0  501    0  0.00000000000E+00  0.00000000000E+00  0.28744729057E+03  0.28744729057E+03  0.00000000000E+00 0.  1.
         -1   -1    0    0    0  501 -0.00000000000E+00 -0.00000000000E+00 -0.65735847870E+02  0.65735847870E+02  0.00000000000E+00 0.  1.
         35    2    1    2    0    0 -0.35527136788E-14  0.00000000000E+00  0.22171144270E+03  0.35318313844E+03  0.27492247171E+03 0.  0.
         25    2    3    3    0    0 -0.14245752929E+02  0.52757032447E+02  0.10319676257E+03  0.17227007140E+03  0.12665370008E+03 0.  0.
         25    2    3    3    0    0  0.14245752929E+02 -0.52757032447E+02  0.11851468013E+03  0.18091306704E+03  0.12528991369E+03 0.  0.
          5    1    4    4  502    0 -0.25013557986E+02  0.90883340537E+02  0.89556152664E+02  0.13010708724E+03  0.47000000000E+01 0.  1.
         -5    1    4    4    0  502  0.10767805056E+02 -0.38126308090E+02  0.13640609904E+02  0.42162984155E+02  0.47000000000E+01 0.  1.
          5    1    5    5  503    0 -0.29546713700E+02 -0.74077058372E+02  0.42449871824E+02  0.90468229149E+02  0.47000000000E+01 0.  1.
         -5    1    5    5    0  503  0.43792466629E+02  0.21320025925E+02  0.76064808307E+02  0.90444837894E+02  0.47000000000E+01 0.  1.
<mgrwt>
<rscale>  0 0.27492247E+03</rscale>
<asrwt>0</asrwt>
<pdfrwt beam="1">  1        1 0.44222660E-01 0.27492247E+03</pdfrwt>
<pdfrwt beam="2">  1       -1 0.10113207E-01 0.27492247E+03</pdfrwt>
<totfact> 0.55037000E+03</totfact>
</mgrwt>
</event>
<event>
 9    1  0.8186049E-001  0.2706835E+03  0.7818608E-02  0.1100889E+00
         -2   -1    0    0    0  501 -0.00000000000E+00  0.00000000000E+00  0.43558224578E+03  0.43558224578E+03  0.00000000000E+00 0.  1.
          2   -1    0    0  501    0  0.00000000000E+00 -0.00000000000E+00 -0.42052649623E+02  0.42052649623E+02  0.00000000000E+00 0.  1.
         35    2    1    2    0    0  0.71054273576E-14  0.71054273576E-14  0.39352959615E+03  0.47763489540E+03  0.27068348722E+03 0.  0.
         25    2    3    3    0    0  0.58488466436E+01 -0.43910856429E+02  0.24371394332E+03  0.27821788586E+03  0.12667412335E+03 0.  0.
         25    2    3    3    0    0 -0.58488466436E+01  0.43910856429E+02  0.14981565283E+03  0.19941700954E+03  0.12393563466E+03 0.  0.
          5    1    4    4  502    0 -0.56765637457E+02 -0.42088479622E+02  0.14173117691E+03  0.15844113804E+03  0.47000000000E+01 0. -1.
         -5    1    4    4    0  502  0.62614484101E+02 -0.18223768072E+01  0.10198276641E+03  0.11977674783E+03  0.47000000000E+01 0. -1.
          5    1    5    5  503    0 -0.49232837351E+02  0.52181583290E+01  0.14085698713E+02  0.51687506790E+02  0.47000000000E+01 0.  1.
         -5    1    5    5    0  503  0.43383990707E+02  0.38692698100E+02  0.13572995412E+03  0.14772950275E+03  0.47000000000E+01 0.  1.
<mgrwt>
<rscale>  0 0.27068349E+03</rscale>
<asrwt>0</asrwt>
<pdfrwt beam="1">  1        2 0.64696387E-02 0.27068349E+03</pdfrwt>
<pdfrwt beam="2">  1       -2 0.67012650E-01 0.27068349E+03</pdfrwt>
<totfact> 0.23366329E+03</totfact>
</mgrwt>
</event>
<event>
 9    1  0.8186049E-001  0.2961907E+03  0.7818608E-02  0.1087161E+00
         -2   -1    0    0    0  501 -0.00000000000E+00  0.00000000000E+00  0.18628691085E+03  0.18628691085E+03  0.00000000000E+00 0.  1.
          2   -1    0    0  501    0  0.00000000000E+00 -0.00000000000E+00 -0.11773359571E+03  0.11773359571E+03  0.00000000000E+00 0.  1.
         35    2    1    2    0    0 -0.71054273576E-14 -0.35527136788E-14  0.68553315139E+02  0.30402050655E+03  0.29619066729E+03 0.  0.
         25    2    3    3    0    0  0.38942881828E+02  0.36801676053E+01 -0.37182843655E+02  0.13603299078E+03  0.12486920773E+03 0.  0.
         25    2    3    3    0    0 -0.38942881828E+02 -0.36801676053E+01  0.10573615879E+03  0.16798751578E+03  0.12453745823E+03 0.  0.
          5    1    4    4  502    0 -0.23539029642E+02 -0.15643933436E+02 -0.60094151350E+02  0.66574887129E+02  0.47000000000E+01 0.  1.
         -5    1    4    4    0  502  0.62481911470E+02  0.19324101041E+02  0.22911307694E+02  0.69458103647E+02  0.47000000000E+01 0.  1.
          5    1    5    5  503    0 -0.29724128767E+00  0.49281258056E+02  0.86218479839E+02  0.99420556293E+02  0.47000000000E+01 0.  1.
         -5    1    5    5    0  503 -0.38645640540E+02 -0.52961425661E+02  0.19517678955E+02  0.68566959482E+02  0.47000000000E+01 0.  1.
<mgrwt>
<rscale>  0 0.29619067E+03</rscale>
<asrwt>0</asrwt>
<pdfrwt beam="1">  1        2 0.18112861E-01 0.29619067E+03</pdfrwt>
<pdfrwt beam="2">  1       -2 0.28659525E-01 0.29619067E+03</pdfrwt>
<totfact> 0.34581331E+03</totfact>
</mgrwt>
</event>
<event>
 9    1  0.8186049E-001  0.2728452E+03  0.7818608E-02  0.1099662E+00
         -1   -1    0    0    0  501 -0.00000000000E+00  0.00000000000E+00  0.75397981884E+02  0.75397981884E+02  0.00000000000E+00 0.  1.
          1   -1    0    0  501    0  0.00000000000E+00 -0.00000000000E+00 -0.24683852912E+03  0.24683852912E+03  0.00000000000E+00 0.  1.
         35    2    1    2    0    0  0.00000000000E+00  0.71054273576E-14 -0.17144054724E+03  0.32223651100E+03  0.27284520847E+03 0.  0.
         25    2    3    3    0    0  0.94213176297E+01  0.28645029446E+02 -0.13982889012E+03  0.18982270542E+03  0.12478478290E+03 0.  0.
         25    2    3    3    0    0 -0.94213176297E+01 -0.28645029446E+02 -0.31611657119E+02  0.13241380558E+03  0.12499928042E+03 0.  0.
          5    1    4    4  502    0  0.56752860723E+02 -0.36242163995E+00 -0.25003269348E+02  0.62195434139E+02  0.47000000000E+01 0.  1.
         -5    1    4    4    0  502 -0.47331543093E+02  0.29007451086E+02 -0.11482562077E+03  0.12762727128E+03  0.47000000000E+01 0.  1.
          5    1    5    5  503    0  0.58300698347E+01 -0.52023454834E+02  0.32870783800E+02  0.61991999441E+02  0.47000000000E+01 0.  1.
         -5    1    5    5    0  503 -0.15251387464E+02  0.23378425388E+02 -0.64482440919E+02  0.70421806140E+02  0.47000000000E+01 0.  1.
<mgrwt>
<rscale>  0 0.27284521E+03</rscale>
<asrwt>0</asrwt>
<pdfrwt beam="1">  1        1 0.37975157E-01 0.27284521E+03</pdfrwt>
<pdfrwt beam="2">  1       -1 0.11599690E-01 0.27284521E+03</pdfrwt>
<totfact> 0.53838757E+03</totfact>
</mgrwt>
</event>
<event>
 9    1  0.8186049E-001  0.2739285E+03  0.7818608E-02  0.1099052E+00
          2   -1    0    0  501    0  0.00000000000E+00  0.00000000000E+00  0.18001675814E+04  0.18001675814E+04  0.00000000000E+00 0. -1.
         -2   -1    0    0    0  501 -0.00000000000E+00 -0.00000000000E+00 -0.10420812848E+02  0.10420812848E+02  0.00000000000E+00 0. -1.
         35    2    1    2    0    0  0.00000000000E+00  0.00000000000E+00  0.17897467685E+04  0.18105883942E+04  0.27392852688E+03 0.  0.
         25    2    3    3    0    0 -0.32238449898E+02 -0.38328004243E+02  0.10626639195E+04  0.10711551853E+04  0.12494187299E+03 0.  0.
         25    2    3    3    0    0  0.32238449898E+02  0.38328004243E+02  0.72708284901E+03  0.73943320890E+03  0.12491456099E+03 0.  0.
          5    1    4    4  502    0 -0.17853026790E+02 -0.78083217310E+02  0.45627293571E+03  0.46327400235E+03  0.47000000000E+01 0. -1.
         -5    1    4    4    0  502 -0.14385423108E+02  0.39755213067E+02  0.60639098380E+03  0.60788118296E+03  0.47000000000E+01 0. -1.
          5    1    5    5  503    0  0.61470749317E+02  0.62919139765E+02  0.60631770031E+03  0.61268320924E+03  0.47000000000E+01 0. -1.
         -5    1    5    5    0  503 -0.29232299420E+02 -0.24591135522E+02  0.12076514869E+03  0.12674999966E+03  0.47000000000E+01 0. -1.
<mgrwt>
<rscale>  0 0.27392853E+03</rscale>
<asrwt>0</asrwt>
<pdfrwt beam="1">  1        2 0.27694861E+00 0.27392853E+03</pdfrwt>
<pdfrwt beam="2">  1       -2 0.16032034E-02 0.27392853E+03</pdfrwt>
<totfact> 0.10125310E+04</totfact>
</mgrwt>
</event>
<event>
 9    1  0.8186049E-001  0.2758854E+03  0.7818608E-02  0.1097958E+00
          2   -1    0    0  501    0  0.00000000000E+00  0.00000000000E+00  0.86217507173E+03  0.86217507173E+03  0.00000000000E+00 0.  1.
         -2   -1    0    0    0  501 -0.00000000000E+00 -0.00000000000E+00 -0.22069988736E+02  0.22069988736E+02  0.00000000000E+00 0.  1.
         35    2    1    2    0    0 -0.71054273576E-14  0.00000000000E+00  0.84010508300E+03  0.88424506047E+03  0.27588544087E+03 0.  0.
         25    2    3    3    0    0 -0.65169421326E+01 -0.56321842218E+02  0.45056729524E+03  0.47092163373E+03  0.12466626301E+03 0.  0.
         25    2    3    3    0    0  0.65169421326E+01  0.56321842218E+02  0.38953778776E+03  0.41332342673E+03  0.12602359521E+03 0.  0.
          5    1    4    4  502    0 -0.52815616904E+02  0.64262623396E+01  0.12173889635E+03  0.13294072033E+03  0.47000000000E+01 0. -1.
         -5    1    4    4    0  502  0.46298674771E+02 -0.62748104558E+02  0.32882839889E+03  0.33798091341E+03  0.47000000000E+01 0. -1.
          5    1    5    5  503    0 -0.46760976350E+02  0.18376299545E+02  0.28842971109E+03  0.29281063084E+03  0.47000000000E+01 0. -1.
         -5    1    5    5    0  503  0.53277918482E+02  0.37945542673E+02  0.10110807667E+03  0.12051279589E+03  0.47000000000E+01 0. -1.
<mgrwt>
<rscale>  0 0.27588544E+03</rscale>
<asrwt>0</asrwt>
<pdfrwt beam="1">  1        2 0.13264229E+00 0.27588544E+03</pdfrwt>
<pdfrwt beam="2">  1       -2 0.33953835E-02 0.27588544E+03</pdfrwt>
<totfact> 0.11286967E+04</totfact>
</mgrwt>
</event>
<event>
 9    1  0.8186049E-001  0.2754670E+03  0.7818608E-02  0.1098191E+00
         -2   -1    0    0    0  501 -0.00000000000E+00  0.00000000000E+00  0.13379998319E+02  0.13379998319E+02  0.00000000000E+00 0.  1.
          2   -1    0    0  501    0  0.00000000000E+00 -0.00000000000E+00 -0.14178269843E+04  0.14178269843E+04  0.00000000000E+00 0.  1.
         35    2    1    2    0    0 -0.71054273576E-14  0.17763568394E-14 -0.14044469860E+04  0.14312069827E+04  0.27546704098E+03 0.  0.
         25    2    3    3    0    0  0.30679637691E+02 -0.89850214733E+01 -0.94190397026E+03  0.95075846626E+03  0.12544561047E+03 0.  0.
         25    2    3    3    0    0 -0.30679637691E+02  0.89850214733E+01 -0.46254301576E+03  0.48044851640E+03  0.12594746804E+03 0.  0.
          5    1    4    4  502    0  0.71973739472E+02 -0.29098040677E+02 -0.71407069469E+03  0.71829378541E+03  0.47000000000E+01 0. -1.
         -5    1    4    4    0  502 -0.41294101781E+02  0.20113019204E+02 -0.22783327557E+03  0.23246468085E+03  0.47000000000E+01 0. -1.
          5    1    5    5  503    0 -0.27480531353E+02  0.19473047522E+02 -0.23717090763E+02  0.41460457999E+02  0.47000000000E+01 0. -1.
         -5    1    5    5    0  503 -0.31991063387E+01 -0.10488026048E+02 -0.43882592500E+03  0.43898805840E+03  0.47000000000E+01 0. -1.
<mgrwt>
<rscale>  0 0.27546704E+03</rscale>
<asrwt>0</asrwt>
<pdfrwt beam="1">  1        2 0.21812718E+00 0.27546704E+03</pdfrwt>
<pdfrwt beam="2">  1       -2 0.20584618E-02 0.27546704E+03</pdfrwt>
<totfact> 0.11194743E+04</totfact>
</mgrwt>
</event>
<event>
 9    1  0.8186049E-001  0.2715889E+03  0.7818608E-02  0.1100374E+00
          4   -1    0    0  501    0  0.00000000000E+00  0.00000000000E+00  0.11257469951E+04  0.11257469951E+04  0.00000000000E+00 0.  1.
         -4   -1    0    0    0  501 -0.00000000000E+00 -0.00000000000E+00 -0.16380357008E+02  0.16380357008E+02  0.00000000000E+00 0.  1.
         35    2    1    2    0    0 -0.53290705182E-14  0.35527136788E-14  0.11093666381E+04  0.11421273521E+04  0.27158893704E+03 0.  0.
         25    2    3    3    0    0 -0.10041393000E+02 -0.93738912977E+01  0.75336764665E+03  0.76436529965E+03  0.12846322773E+03 0.  0.
         25    2    3    3    0    0  0.10041393000E+02  0.93738912977E+01  0.35599899146E+03  0.37776205248E+03  0.12561921413E+03 0.  0.
          5    1    4    4  502    0 -0.60134593441E+02 -0.18610261244E+02  0.23003978519E+03  0.23854329570E+03  0.47000000000E+01 0.  1.
         -5    1    4    4    0  502  0.50093200441E+02  0.92363699466E+01  0.52332786146E+03  0.52582200395E+03  0.47000000000E+01 0.  1.
          5    1    5    5  503    0  0.19666031357E+02  0.28208274412E+02  0.18050949859E+02  0.39120152421E+02  0.47000000000E+01 0. -1.
         -5    1    5    5    0  503 -0.96246383568E+01 -0.18834383115E+02  0.33794804160E+03  0.33864190005E+03  0.47000000000E+01 0. -1.
<mgrwt>
<rscale>  0 0.27158894E+03</rscale>
<asrwt>0</asrwt>
<pdfrwt beam="1">  1        4 0.17319178E+00 0.27158894E+03</pdfrwt>
<pdfrwt beam="2">  1       -4 0.25200558E-02 0.27158894E+03</pdfrwt>
<totfact> 0.28618783E+02</totfact>
</mgrwt>
</event>
<event>
 9    1  0.8186049E-001  0.2769414E+03  0.7818608E-02  0.1097371E+00
         -2   -1    0    0    0  501 -0.00000000000E+00  0.00000000000E+00  0.57193082391E+01  0.57193082391E+01  0.00000000000E+00 0.  1.
          2   -1    0    0  501    0  0.00000000000E+00 -0.00000000000E+00 -0.33525271006E+04  0.33525271006E+04  0.00000000000E+00 0.  1.
         35    2    1    2    0    0  0.17763568394E-14 -0.71054273576E-14 -0.33468077924E+04  0.33582464089E+04  0.27694140802E+03 0.  0.
         25    2    3    3    0    0  0.60914393532E+01 -0.49036552488E+02 -0.19882106443E+04  0.19928185191E+04  0.12610469881E+03 0.  0.
         25    2    3    3    0    0 -0.60914393532E+01  0.49036552488E+02 -0.13585971481E+04  0.13654278897E+04  0.12714331322E+03 0.  0.
          5    1    4    4  502    0 -0.54572279409E+01  0.36379577227E+02 -0.28233594030E+03  0.28476117741E+03  0.47000000000E+01 0.  1.
         -5    1    4    4    0  502  0.11548667294E+02 -0.85416129716E+02 -0.17058747040E+04  0.17080573417E+04  0.47000000000E+01 0.  1.
          5    1    5    5  503    0  0.19195037389E+02  0.97275650994E+00 -0.11387937476E+04  0.11389656208E+04  0.47000000000E+01 0.  1.
         -5    1    5    5    0  503 -0.25286476742E+02  0.48063795978E+02 -0.21980340050E+03  0.22646226895E+03  0.47000000000E+01 0.  1.
<mgrwt>
<rscale>  0 0.27694141E+03</rscale>
<asrwt>0</asrwt>
<pdfrwt beam="1">  1        2 0.51577259E+00 0.27694141E+03</pdfrwt>
<pdfrwt beam="2">  1       -2 0.87989496E-03 0.27694141E+03</pdfrwt>
<totfact> 0.32467285E+03</totfact>
</mgrwt>
</event>
<event>
 9    1  0.8186049E-001  0.2716050E+03  0.7818608E-02  0.1100365E+00
         -2   -1    0    0    0  501 -0.00000000000E+00  0.00000000000E+00  0.53096448155E+03  0.53096448155E+03  0.00000000000E+00 0.  1.
          2   -1    0    0  501    0  0.00000000000E+00 -0.00000000000E+00 -0.34733622577E+02  0.34733622577E+02  0.00000000000E+00 0.  1.
         35    2    1    2    0    0  0.00000000000E+00  0.00000000000E+00  0.49623085897E+03  0.56569810413E+03  0.27160500661E+03 0.  0.
         25    2    3    3    0    0  0.45348819651E+02 -0.32334275726E+02  0.26730242506E+03  0.30037240443E+03  0.12518376122E+03 0.  0.
         25    2    3    3    0    0 -0.45348819651E+02  0.32334275726E+02  0.22892843391E+03  0.26532569969E+03  0.12201425422E+03 0.  0.
          5    1    4    4  502    0 -0.35436298013E+01  0.47820661090E+01  0.22624731656E+03  0.22637438839E+03  0.47000000000E+01 0. -1.
         -5    1    4    4    0  502  0.48892449453E+02 -0.37116341835E+02  0.41055108504E+02  0.73998016047E+02  0.47000000000E+01 0. -1.
          5    1    5    5  503    0 -0.68661520844E+02  0.27300100979E+02  0.61809107433E+02  0.96447683849E+02  0.47000000000E+01 0. -1.
         -5    1    5    5    0  503  0.23312701193E+02  0.50341747464E+01  0.16711932648E+03  0.16887801584E+03  0.47000000000E+01 0. -1.
<mgrwt>
<rscale>  0 0.27160501E+03</rscale>
<asrwt>0</asrwt>
<pdfrwt beam="1">  1        2 0.53436346E-02 0.27160501E+03</pdfrwt>
<pdfrwt beam="2">  1       -2 0.81686837E-01 0.27160501E+03</pdfrwt>
<totfact> 0.19527130E+03</totfact>
</mgrwt>
</event>
<event>
 9    1  0.8186049E-001  0.2687867E+03  0.7818608E-02  0.1101976E+00
          1   -1    0    0  501    0  0.00000000000E+00  0.00000000000E+00  0.34363982567E+03  0.34363982567E+03  0.00000000000E+00 0. -1.
         -1   -1    0    0    0  501 -0.00000000000E+00 -0.00000000000E+00 -0.52559602608E+02  0.52559602608E+02  0.00000000000E+00 0. -1.
         35    2    1    2    0    0  0.35527136788E-14  0.17763568394E-14  0.29108022306E+03  0.39619942827E+03  0.26878670114E+03 0.  0.
         25    2    3    3    0    0  0.14950386597E+02  0.14162536558E+02  0.82024848769E+02  0.15175879631E+03  0.12601017793E+03 0.  0.
         25    2    3    3    0    0 -0.14950386597E+02 -0.14162536558E+02  0.20905537429E+03  0.24444063196E+03  0.12499192587E+03 0.  0.
          5    1    4    4  502    0  0.10787626644E+02  0.69547739893E+02  0.34559664598E+02  0.78547574310E+02  0.47000000000E+01 0. -1.
         -5    1    4    4    0  502  0.41627599536E+01 -0.55385203335E+02  0.47465184171E+02  0.73211222004E+02  0.47000000000E+01 0. -1.
          5    1    5    5  503    0 -0.40377488154E+02 -0.12200356724E+02  0.98696879801E+01  0.43573971527E+02  0.47000000000E+01 0.  1.
         -5    1    5    5    0  503  0.25427101557E+02 -0.19621798338E+01  0.19918568631E+03  0.20086666043E+03  0.47000000000E+01 0.  1.
<mgrwt>
<rscale>  0 0.26878670E+03</rscale>
<asrwt>0</asrwt>
<pdfrwt beam="1">  1        1 0.52867664E-01 0.26878670E+03</pdfrwt>
<pdfrwt beam="2">  1       -1 0.80860929E-02 0.26878670E+03</pdfrwt>
<totfact> 0.61930987E+03</totfact>
</mgrwt>
</event>
<event>
 9    1  0.8186049E-001  0.2727123E+03  0.7818608E-02  0.1099737E+00
         -2   -1    0    0    0  501 -0.00000000000E+00  0.00000000000E+00  0.47163867136E+02  0.47163867136E+02  0.00000000000E+00 0.  1.
          2   -1    0    0  501    0  0.00000000000E+00 -0.00000000000E+00 -0.39422136123E+03  0.39422136123E+03  0.00000000000E+00 0.  1.
         35    2    1    2    0    0 -0.35527136788E-14  0.35527136788E-14 -0.34705749410E+03  0.44138522837E+03  0.27271233125E+03 0.  0.
         25    2    3    3    0    0  0.26433545306E+02 -0.15235778543E+02 -0.25111636075E+03  0.28057128711E+03  0.12136704349E+03 0.  0.
         25    2    3    3    0    0 -0.26433545306E+02  0.15235778543E+02 -0.95941133344E+02  0.16081394126E+03  0.12540160036E+03 0.  0.
          5    1    4    4  502    0 -0.32344672878E+02  0.15873979984E+02 -0.23214463265E+02  0.43118005622E+02  0.47000000000E+01 0.  1.
         -5    1    4    4    0  502  0.58778218185E+02 -0.31109758527E+02 -0.22790189749E+03  0.23745328148E+03  0.47000000000E+01 0.  1.
          5    1    5    5  503    0  0.18938685100E+02 -0.24797944390E+02  0.14552977206E+02  0.34748970989E+02  0.47000000000E+01 0. -1.
         -5    1    5    5    0  503 -0.45372230406E+02  0.40033722933E+02 -0.11049411055E+03  0.12606497027E+03  0.47000000000E+01 0. -1.
<mgrwt>
<rscale>  0 0.27271233E+03</rscale>
<asrwt>0</asrwt>
<pdfrwt beam="1">  1        2 0.60649443E-01 0.27271233E+03</pdfrwt>
<pdfrwt beam="2">  1       -2 0.72559792E-02 0.27271233E+03</pdfrwt>
<totfact> 0.88736320E+03</totfact>
</mgrwt>
</event>
<event>
 9    1  0.8186049E-001  0.2746280E+03  0.7818608E-02  0.1098660E+00
          1   -1    0    0  501    0  0.00000000000E+00  0.00000000000E+00  0.14336962475E+04  0.14336962475E+04  0.00000000000E+00 0. -1.
         -1   -1    0    0    0  501 -0.00000000000E+00 -0.00000000000E+00 -0.13151418514E+02  0.13151418514E+02  0.00000000000E+00 0. -1.
         35    2    1    2    0    0  0.17763568394E-14  0.71054273576E-14  0.14205448290E+04  0.14468476660E+04  0.27462803479E+03 0.  0.
         25    2    3    3    0    0 -0.11217195740E+02  0.36712215071E+02  0.92364303675E+03  0.93284459718E+03  0.12493586723E+03 0.  0.
         25    2    3    3    0    0  0.11217195740E+02 -0.36712215071E+02  0.49690179226E+03  0.51400306887E+03  0.12575432969E+03 0.  0.
          5    1    4    4  502    0 -0.22109300267E+02  0.55357795946E+02  0.89334122108E+03  0.89534012197E+03  0.47000000000E+01 0.  1.
         -5    1    4    4    0  502  0.10892104528E+02 -0.18645580875E+02  0.30301815671E+02  0.37504475202E+02  0.47000000000E+01 0.  1.
          5    1    5    5  503    0 -0.22108226675E+02  0.30157955146E+02  0.60879463256E+02  0.71600803010E+02  0.47000000000E+01 0.  1.
         -5    1    5    5    0  503  0.33325422415E+02 -0.66870170218E+02  0.43602232901E+03  0.44240226586E+03  0.47000000000E+01 0.  1.
<mgrwt>
<rscale>  0 0.27462803E+03</rscale>
<asrwt>0</asrwt>
<pdfrwt beam="1">  1        1 0.22056853E+00 0.27462803E+03</pdfrwt>
<pdfrwt beam="2">  1       -1 0.20232963E-02 0.27462803E+03</pdfrwt>
<totfact> 0.53410280E+03</totfact>
</mgrwt>
</event>
<event>
 9    1  0.8186049E-001  0.2757061E+03  0.7818608E-02  0.1098058E+00
         -3   -1    0    0    0  501 -0.00000000000E+00  0.00000000000E+00  0.12776841647E+04  0.12776841647E+04  0.00000000000E+00 0. -1.
          3   -1    0    0  501    0  0.00000000000E+00 -0.00000000000E+00 -0.14873364908E+02  0.14873364908E+02  0.00000000000E+00 0. -1.
         35    2    1    2    0    0 -0.71054273576E-14 -0.71054273576E-14  0.12628107998E+04  0.12925575296E+04  0.27570609583E+03 0.  0.
         25    2    3    3    0    0 -0.37350130133E+02 -0.45084378879E+02  0.57500121594E+03  0.59134400939E+03  0.12503481783E+03 0.  0.
         25    2    3    3    0    0  0.37350130133E+02  0.45084378879E+02  0.68780958383E+03  0.70121352019E+03  0.12325073573E+03 0.  0.
          5    1    4    4  502    0 -0.44859883647E+02 -0.26658288213E+02  0.56695760446E+03  0.56937341767E+03  0.47000000000E+01 0.  1.
         -5    1    4    4    0  502  0.75097535141E+01 -0.18426090666E+02  0.80436114829E+01  0.21970591725E+02  0.47000000000E+01 0.  1.
          5    1    5    5  503    0  0.74708462563E+01 -0.13620212159E+02  0.78039569483E+01  0.18008760842E+02  0.47000000000E+01 0. -1.
         -5    1    5    5    0  503  0.29879283877E+02  0.58704591037E+02  0.68000562688E+03  0.68320475935E+03  0.47000000000E+01 0. -1.
<mgrwt>
<rscale>  0 0.27570610E+03</rscale>
<asrwt>0</asrwt>
<pdfrwt beam="1">  1        3 0.22882110E-02 0.27570610E+03</pdfrwt>
<pdfrwt beam="2">  1       -3 0.19656671E+00 0.27570610E+03</pdfrwt>
<totfact> 0.32840034E+02</totfact>
</mgrwt>
</event>
<event>
 9    1  0.8186049E-001  0.2728924E+03  0.7818608E-02  0.1099636E+00
          1   -1    0    0  501    0  0.00000000000E+00  0.00000000000E+00  0.43432736293E+03  0.43432736293E+03  0.00000000000E+00 0.  1.
         -1   -1    0    0    0  501 -0.00000000000E+00 -0.00000000000E+00 -0.42865277407E+02  0.42865277407E+02  0.00000000000E+00 0.  1.
         35    2    1    2    0    0  0.71054273576E-14 -0.71054273576E-14  0.39146208552E+03  0.47719264034E+03  0.27289238097E+03 0.  0.
         25    2    3    3    0    0  0.45826314295E+02 -0.29764166256E+02  0.17944379104E+03  0.22542859829E+03  0.12502808528E+03 0.  0.
         25    2    3    3    0    0 -0.45826314295E+02  0.29764166256E+02  0.21201829448E+03  0.25176404204E+03  0.12428764620E+03 0.  0.
          5    1    4    4  502    0  0.54531937152E+02 -0.65934007083E+02  0.16367365397E+03  0.18474896607E+03  0.47000000000E+01 0. -1.
         -5    1    4    4    0  502 -0.87056228566E+01  0.36169840827E+02  0.15770137076E+02  0.40679632228E+02  0.47000000000E+01 0. -1.
          5    1    5    5  503    0 -0.76537828679E+02  0.56075605583E+02  0.15175690378E+03  0.17903843332E+03  0.47000000000E+01 0. -1.
         -5    1    5    5    0  503  0.30711514383E+02 -0.26311439328E+02  0.60261390702E+02  0.72725608726E+02  0.47000000000E+01 0. -1.
<mgrwt>
<rscale>  0 0.27289238E+03</rscale>
<asrwt>0</asrwt>
<pdfrwt beam="1">  1        1 0.66819592E-01 0.27289238E+03</pdfrwt>
<pdfrwt beam="2">  1       -1 0.65946583E-02 0.27289238E+03</pdfrwt>
<totfact> 0.62617278E+03</totfact>
</mgrwt>
</event>
<event>
 9    1  0.8186049E-001  0.2746938E+03  0.7818608E-02  0.1098623E+00
         -2   -1    0    0    0  501 -0.00000000000E+00  0.00000000000E+00  0.61144738170E+02  0.61144738170E+02  0.00000000000E+00 0. -1.
          2   -1    0    0  501    0  0.00000000000E+00 -0.00000000000E+00 -0.30851661470E+03  0.30851661470E+03  0.00000000000E+00 0. -1.
         35    2    1    2    0    0  0.00000000000E+00  0.35527136788E-14 -0.24737187653E+03  0.36966135287E+03  0.27469377588E+03 0.  0.
         25    2    3    3    0    0  0.55150910112E+02 -0.19828702724E+02 -0.13537661942E+03  0.19176121083E+03  0.12251829479E+03 0.  0.
         25    2    3    3    0    0 -0.55150910112E+02  0.19828702724E+02 -0.11199525711E+03  0.17790014203E+03  0.12518275673E+03 0.  0.
          5    1    4    4  502    0  0.91474369168E+02 -0.28727128898E+02 -0.81019656631E+02  0.12561481963E+03  0.47000000000E+01 0. -1.
         -5    1    4    4    0  502 -0.36323459056E+02  0.88984261736E+01 -0.54356962787E+02  0.66146391207E+02  0.47000000000E+01 0. -1.
          5    1    5    5  503    0 -0.70293156087E+02  0.32256355048E+02 -0.12969912808E+03  0.15108128295E+03  0.47000000000E+01 0.  1.
         -5    1    5    5    0  503  0.15142245975E+02 -0.12427652323E+02  0.17703870967E+02  0.26818859086E+02  0.47000000000E+01 0.  1.
<mgrwt>
<rscale>  0 0.27469378E+03</rscale>
<asrwt>0</asrwt>
<pdfrwt beam="1">  1        2 0.47464094E-01 0.27469378E+03</pdfrwt>
<pdfrwt beam="2">  1       -2 0.94068830E-02 0.27469378E+03</pdfrwt>
<totfact> 0.77013659E+03</totfact>
</mgrwt>
</event>
<event>
 9    1  0.8186049E-001  0.2615731E+03  0.7818608E-02  0.1106202E+00
         -2   -1    0    0    0  501 -0.00000000000E+00  0.00000000000E+00  0.10169175652E+03  0.10169175652E+03  0.00000000000E+00 0. -1.
          2   -1    0    0  501    0  0.00000000000E+00 -0.00000000000E+00 -0.16820552362E+03  0.16820552362E+03  0.00000000000E+00 0. -1.
         35    2    1    2    0    0  0.10658141036E-13  0.35527136788E-14 -0.66513767104E+02  0.26989728014E+03  0.26157305024E+03 0.  0.
         25    2    3    3    0    0  0.26954862953E+02  0.17616700189E+02 -0.53048692694E+02  0.13931266186E+03  0.12472746769E+03 0.  0.
         25    2    3    3    0    0 -0.26954862953E+02 -0.17616700189E+02 -0.13465074410E+02  0.13058461828E+03  0.12583370590E+03 0.  0.
          5    1    4    4  502    0  0.57718927341E+02  0.47574839982E+02 -0.56139991548E+01  0.75156150508E+02  0.47000000000E+01 0.  1.
         -5    1    4    4    0  502 -0.30764064388E+02 -0.29958139793E+02 -0.47434693539E+02  0.64156511351E+02  0.47000000000E+01 0.  1.
          5    1    5    5  503    0  0.34283311907E+02 -0.11749961724E+02  0.36156512409E+02  0.51408077823E+02  0.47000000000E+01 0. -1.
         -5    1    5    5    0  503 -0.61238174860E+02 -0.58667384644E+01 -0.49621586820E+02  0.79176540458E+02  0.47000000000E+01 0. -1.
<mgrwt>
<rscale>  0 0.26157305E+03</rscale>
<asrwt>0</asrwt>
<pdfrwt beam="1">  1        2 0.25877772E-01 0.26157305E+03</pdfrwt>
<pdfrwt beam="2">  1       -2 0.15644886E-01 0.26157305E+03</pdfrwt>
<totfact> 0.65310180E+03</totfact>
</mgrwt>
</event>
<event>
 9    1  0.8186049E-001  0.2739414E+03  0.7818608E-02  0.1099045E+00
          2   -1    0    0  501    0  0.00000000000E+00  0.00000000000E+00  0.24741623458E+04  0.24741623458E+04  0.00000000000E+00 0. -1.
         -2   -1    0    0    0  501 -0.00000000000E+00 -0.00000000000E+00 -0.75827600440E+01  0.75827600440E+01  0.00000000000E+00 0. -1.
         35    2    1    2    0    0  0.00000000000E+00  0.14210854715E-13  0.24665795858E+04  0.24817451059E+04  0.27394144906E+03 0.  0.
         25    2    3    3    0    0 -0.50666749311E+02 -0.28767848866E+02  0.12745712890E+04  0.12819211321E+04  0.12407703007E+03 0.  0.
         25    2    3    3    0    0  0.50666749311E+02  0.28767848866E+02  0.11920082968E+04  0.11998239738E+04  0.12368944978E+03 0.  0.
          5    1    4    4  502    0 -0.93496475449E+01  0.12981563455E+02  0.10375842212E+04  0.10377181906E+04  0.47000000000E+01 0.  1.
         -5    1    4    4    0  502 -0.41317101766E+02 -0.41749412322E+02  0.23698706780E+03  0.24420294149E+03  0.47000000000E+01 0.  1.
          5    1    5    5  503    0  0.46065762252E+02  0.69043259604E+02  0.10040911670E+04  0.10075267677E+04  0.47000000000E+01 0. -1.
         -5    1    5    5    0  503  0.46009870584E+01 -0.40275410738E+02  0.18791712980E+03  0.19229720607E+03  0.47000000000E+01 0. -1.
<mgrwt>
<rscale>  0 0.27394145E+03</rscale>
<asrwt>0</asrwt>
<pdfrwt beam="1">  1        2 0.38063972E+00 0.27394145E+03</pdfrwt>
<pdfrwt beam="2">  1       -2 0.11665804E-02 0.27394145E+03</pdfrwt>
<totfact> 0.70589976E+03</totfact>
</mgrwt>
</event>
<event>
 9    1  0.8186049E-001  0.2803887E+03  0.7818608E-02  0.1095477E+00
         -1   -1    0    0    0  501 -0.00000000000E+00  0.00000000000E+00  0.27445707607E+02  0.27445707607E+02  0.00000000000E+00 0.  1.
          1   -1    0    0  501    0  0.00000000000E+00 -0.00000000000E+00 -0.71612111327E+03  0.71612111327E+03  0.00000000000E+00 0.  1.
         35    2    1    2    0    0  0.00000000000E+00 -0.35527136788E-14 -0.68867540567E+03  0.74356682088E+03  0.28038866372E+03 0.  0.
         25    2    3    3    0    0  0.50203515380E+02 -0.18030843640E+02 -0.43015202442E+03  0.45117658665E+03  0.12523595310E+03 0.  0.
         25    2    3    3    0    0 -0.50203515380E+02  0.18030843640E+02 -0.25852338124E+03  0.29239023423E+03  0.12574659496E+03 0.  0.
          5    1    4    4  502    0 -0.36682535282E+02 -0.14549162243E+02 -0.68553228876E+02  0.79239647311E+02  0.47000000000E+01 0.  1.
         -5    1    4    4    0  502  0.86886050662E+02 -0.34816813966E+01 -0.36159879555E+03  0.37193693934E+03  0.47000000000E+01 0.  1.
          5    1    5    5  503    0  0.50461415409E+01  0.34227480032E+02 -0.22046749796E+03  0.22321512401E+03  0.47000000000E+01 0.  1.
         -5    1    5    5    0  503 -0.55249656921E+02 -0.16196636391E+02 -0.38055883287E+02  0.69175110213E+02  0.47000000000E+01 0.  1.
<mgrwt>
<rscale>  0 0.28038866E+03</rscale>
<asrwt>0</asrwt>
<pdfrwt beam="1">  1        1 0.11017247E+00 0.28038866E+03</pdfrwt>
<pdfrwt beam="2">  1       -1 0.42224169E-02 0.28038866E+03</pdfrwt>
<totfact> 0.61708057E+03</totfact>
</mgrwt>
</event>
<event>
 9    1  0.8186049E-001  0.2734546E+03  0.7818608E-02  0.1099319E+00
         -2   -1    0    0    0  501 -0.00000000000E+00  0.00000000000E+00  0.31781646345E+02  0.31781646345E+02  0.00000000000E+00 0.  1.
          2   -1    0    0  501    0  0.00000000000E+00 -0.00000000000E+00 -0.58821206473E+03  0.58821206473E+03  0.00000000000E+00 0.  1.
         35    2    1    2    0    0  0.71054273576E-14  0.00000000000E+00 -0.55643041838E+03  0.61999371107E+03  0.27345455064E+03 0.  0.
         25    2    3    3    0    0 -0.53523461995E+02  0.10949950509E+02 -0.25794234414E+03  0.29183694788E+03  0.12509951577E+03 0.  0.
         25    2    3    3    0    0  0.53523461995E+02 -0.10949950509E+02 -0.29848807425E+03  0.32815676320E+03  0.12492825287E+03 0.  0.
          5    1    4    4  502    0 -0.41971296744E+02  0.56501713238E+02 -0.75271900414E+02  0.10315998420E+03  0.47000000000E+01 0. -1.
         -5    1    4    4    0  502 -0.11552165251E+02 -0.45551762729E+02 -0.18267044372E+03  0.18867696367E+03  0.47000000000E+01 0. -1.
          5    1    5    5  503    0 -0.26922859404E+02  0.34143572274E+02 -0.10586915375E+03  0.11454689696E+03  0.47000000000E+01 0. -1.
         -5    1    5    5    0  503  0.80446321399E+02 -0.45093522783E+02 -0.19261892050E+03  0.21360986624E+03  0.47000000000E+01 0. -1.
<mgrwt>
<rscale>  0 0.27345455E+03</rscale>
<asrwt>0</asrwt>
<pdfrwt beam="1">  1        2 0.90494161E-01 0.27345455E+03</pdfrwt>
<pdfrwt beam="2">  1       -2 0.48894842E-02 0.27345455E+03</pdfrwt>
<totfact> 0.10408871E+04</totfact>
</mgrwt>
</event>
<event>
 9    1  0.8186049E-001  0.2660814E+03  0.7818608E-02  0.1103543E+00
         -2   -1    0    0    0  501 -0.00000000000E+00  0.00000000000E+00  0.60232490001E+01  0.60232490001E+01  0.00000000000E+00 0.  1.
          2   -1    0    0  501    0  0.00000000000E+00 -0.00000000000E+00 -0.29385846161E+04  0.29385846161E+04  0.00000000000E+00 0.  1.
         35    2    1    2    0    0 -0.35527136788E-14  0.00000000000E+00 -0.29325613671E+04  0.29446078651E+04  0.26608139244E+03 0.  0.
         25    2    3    3    0    0  0.42061535706E+01  0.18661088880E+02 -0.91568836528E+03  0.92377953732E+03  0.12048868531E+03 0.  0.
         25    2    3    3    0    0 -0.42061535706E+01 -0.18661088880E+02 -0.20168730018E+04  0.20208283278E+04  0.12491796084E+03 0.  0.
          5    1    4    4  502    0 -0.36812233698E+02  0.54916360498E+02 -0.44845747154E+03  0.45332895449E+03  0.47000000000E+01 0. -1.
         -5    1    4    4    0  502  0.41018387269E+02 -0.36255271618E+02 -0.46723089374E+03  0.47045058282E+03  0.47000000000E+01 0. -1.
          5    1    5    5  503    0 -0.30859452965E+02 -0.48123344102E+02 -0.47711721544E+03  0.48055289964E+03  0.47000000000E+01 0.  1.
         -5    1    5    5    0  503  0.26653299394E+02  0.29462255221E+02 -0.15397557864E+04  0.15402754281E+04  0.47000000000E+01 0.  1.
<mgrwt>
<rscale>  0 0.26608139E+03</rscale>
<asrwt>0</asrwt>
<pdfrwt beam="1">  1        2 0.45208950E+00 0.26608139E+03</pdfrwt>
<pdfrwt beam="2">  1       -2 0.92665460E-03 0.26608139E+03</pdfrwt>
<totfact> 0.53963761E+03</totfact>
</mgrwt>
</event>
<event>
 9    1  0.8186049E-001  0.2754380E+03  0.7818608E-02  0.1098207E+00
         -2   -1    0    0    0  501 -0.00000000000E+00  0.00000000000E+00  0.72966919418E+03  0.72966919418E+03  0.00000000000E+00 0.  1.
          2   -1    0    0  501    0  0.00000000000E+00 -0.00000000000E+00 -0.25993319857E+02  0.25993319857E+02  0.00000000000E+00 0.  1.
         35    2    1    2    0    0 -0.71054273576E-14  0.14210854715E-13  0.70367587433E+03  0.75566251404E+03  0.27543801302E+03 0.  0.
         25    2    3    3    0    0 -0.34038598949E+02 -0.46551655988E+02  0.34089003562E+03  0.36776455301E+03  0.12537570405E+03 0.  0.
         25    2    3    3    0    0  0.34038598949E+02  0.46551655988E+02  0.36278583870E+03  0.38789796103E+03  0.12460168746E+03 0.  0.
          5    1    4    4  502    0 -0.51168589772E+02  0.29882371922E+02  0.14036386816E+03  0.15243125078E+03  0.47000000000E+01 0.  1.
         -5    1    4    4    0  502  0.17129990823E+02 -0.76434027910E+02  0.20052616747E+03  0.21533330223E+03  0.47000000000E+01 0.  1.
          5    1    5    5  503    0  0.19560700384E+02  0.71404707015E+02  0.10552589287E+03  0.12899246974E+03  0.47000000000E+01 0. -1.
         -5    1    5    5    0  503  0.14477898565E+02 -0.24853051027E+02  0.25725994583E+03  0.25890549130E+03  0.47000000000E+01 0. -1.
<mgrwt>
<rscale>  0 0.27543801E+03</rscale>
<asrwt>0</asrwt>
<pdfrwt beam="1">  1        2 0.39989728E-02 0.27543801E+03</pdfrwt>
<pdfrwt beam="2">  1       -2 0.11225678E+00 0.27543801E+03</pdfrwt>
<totfact> 0.13825619E+03</totfact>
</mgrwt>
</event>
<event>
 9    1  0.8186049E-001  0.2686611E+03  0.7818608E-02  0.1102048E+00
          2   -1    0    0  501    0  0.00000000000E+00  0.00000000000E+00  0.10205583741E+04  0.10205583741E+04  0.00000000000E+00 0.  1.
         -2   -1    0    0    0  501 -0.00000000000E+00 -0.00000000000E+00 -0.17681199396E+02  0.17681199396E+02  0.00000000000E+00 0.  1.
         35    2    1    2    0    0  0.00000000000E+00  0.62172489379E-14  0.10028771747E+04  0.10382395735E+04  0.26866109587E+03 0.  0.
         25    2    3    3    0    0  0.32251015774E+02 -0.27319529413E+01  0.34494205090E+03  0.36783078452E+03  0.12355920031E+03 0.  0.
         25    2    3    3    0    0 -0.32251015774E+02  0.27319529413E+01  0.65793512383E+03  0.67040878900E+03  0.12458621757E+03 0.  0.
          5    1    4    4  502    0  0.69286772409E+02  0.46427589279E+01  0.11246587167E+03  0.13226063032E+03  0.47000000000E+01 0. -1.
         -5    1    4    4    0  502 -0.37035756636E+02 -0.73747118692E+01  0.23247617923E+03  0.23557015421E+03  0.47000000000E+01 0. -1.
          5    1    5    5  503    0  0.13024744974E+02  0.53055476677E+02  0.39814370084E+03  0.40190175927E+03  0.47000000000E+01 0.  1.
         -5    1    5    5    0  503 -0.45275760748E+02 -0.50323523735E+02  0.25979142299E+03  0.26850702972E+03  0.47000000000E+01 0.  1.
<mgrwt>
<rscale>  0 0.26866110E+03</rscale>
<asrwt>0</asrwt>
<pdfrwt beam="1">  1        2 0.15700893E+00 0.26866110E+03</pdfrwt>
<pdfrwt beam="2">  1       -2 0.27201853E-02 0.26866110E+03</pdfrwt>
<totfact> 0.12458572E+04</totfact>
</mgrwt>
</event>
<event>
 9    1  0.8186049E-001  0.2748867E+03  0.7818608E-02  0.1098515E+00
         -1   -1    0    0    0  501 -0.00000000000E+00  0.00000000000E+00  0.12672870834E+03  0.12672870834E+03  0.00000000000E+00 0. -1.
          1   -1    0    0  501    0  0.00000000000E+00 -0.00000000000E+00 -0.14906386425E+03  0.14906386425E+03  0.00000000000E+00 0. -1.
         35    2    1    2    0    0  0.00000000000E+00  0.35527136788E-14 -0.22335155910E+02  0.27579257258E+03  0.27488667465E+03 0.  0.
         25    2    3    3    0    0  0.19296344317E+01  0.26130105585E+02 -0.59296722072E+02  0.14299622104E+03  0.12745709897E+03 0.  0.
         25    2    3    3    0    0 -0.19296344317E+01 -0.26130105585E+02  0.36961566161E+02  0.13279635154E+03  0.12482871345E+03 0.  0.
          5    1    4    4  502    0 -0.49821235530E+02  0.21407318776E+02 -0.71058639894E+02  0.89508933133E+02  0.47000000000E+01 0. -1.
         -5    1    4    4    0  502  0.51750869962E+02  0.47227868089E+01  0.11761917822E+02  0.53487287910E+02  0.47000000000E+01 0. -1.
          5    1    5    5  503    0  0.57742494047E+02  0.13341014688E+01  0.33305469985E+02  0.66838011463E+02  0.47000000000E+01 0.  1.
         -5    1    5    5    0  503 -0.59672128478E+02 -0.27464207054E+02  0.36560961767E+01  0.65958340075E+02  0.47000000000E+01 0.  1.
<mgrwt>
<rscale>  0 0.27488667E+03</rscale>
<asrwt>0</asrwt>
<pdfrwt beam="1">  1        1 0.22932902E-01 0.27488667E+03</pdfrwt>
<pdfrwt beam="2">  1       -1 0.19496724E-01 0.27488667E+03</pdfrwt>
<totfact> 0.44667447E+03</totfact>
</mgrwt>
</event>
<event>
 9    1  0.8186049E-001  0.2758424E+03  0.7818608E-02  0.1097982E+00
          2   -1    0    0  501    0  0.00000000000E+00  0.00000000000E+00  0.21244580158E+03  0.21244580158E+03  0.00000000000E+00 0.  1.
         -2   -1    0    0    0  501 -0.00000000000E+00 -0.00000000000E+00 -0.89539358132E+02  0.89539358132E+02  0.00000000000E+00 0.  1.
         35    2    1    2    0    0 -0.35527136788E-14  0.71054273576E-14  0.12290644344E+03  0.30198515971E+03  0.27584242394E+03 0.  0.
         25    2    3    3    0    0  0.24437359080E+01 -0.48119190364E+02  0.31661061140E+02  0.13802069397E+03  0.12540279441E+03 0.  0.
         25    2    3    3    0    0 -0.24437359080E+01  0.48119190364E+02  0.91245382302E+02  0.16396446574E+03  0.12742526401E+03 0.  0.
          5    1    4    4  502    0  0.30530624225E+02 -0.20236133237E+02 -0.40980277147E+02  0.55164238588E+02  0.47000000000E+01 0. -1.
         -5    1    4    4    0  502 -0.28086888317E+02 -0.27883057127E+02  0.72641338288E+02  0.82856455381E+02  0.47000000000E+01 0. -1.
          5    1    5    5  503    0  0.25994883507E+02 -0.37461833301E+02  0.33498007437E+02  0.56774372961E+02  0.47000000000E+01 0.  1.
         -5    1    5    5    0  503 -0.28438619415E+02  0.85581023665E+02  0.57747374865E+02  0.10719009278E+03  0.47000000000E+01 0.  1.
<mgrwt>
<rscale>  0 0.27584242E+03</rscale>
<asrwt>0</asrwt>
<pdfrwt beam="1">  1        2 0.32683969E-01 0.27584242E+03</pdfrwt>
<pdfrwt beam="2">  1       -2 0.13775286E-01 0.27584242E+03</pdfrwt>
<totfact> 0.62422433E+03</totfact>
</mgrwt>
</event>
<event>
 9    1  0.8186049E-001  0.2747470E+03  0.7818608E-02  0.1098593E+00
         -1   -1    0    0    0  501 -0.00000000000E+00  0.00000000000E+00  0.73499024822E+02  0.73499024822E+02  0.00000000000E+00 0.  1.
          1   -1    0    0  501    0  0.00000000000E+00 -0.00000000000E+00 -0.25675815122E+03  0.25675815122E+03  0.00000000000E+00 0.  1.
         35    2    1    2    0    0  0.00000000000E+00  0.00000000000E+00 -0.18325912640E+03  0.33025717604E+03  0.27474696526E+03 0.  0.
         25    2    3    3    0    0 -0.26166482013E+02 -0.44935466480E+02 -0.63336501598E+02  0.14943090119E+03  0.12495679600E+03 0.  0.
         25    2    3    3    0    0  0.26166482013E+02  0.44935466480E+02 -0.11992262480E+03  0.18082627486E+03  0.12495128975E+03 0.  0.
          5    1    4    4  502    0 -0.42775596216E+02 -0.75324729134E+02 -0.72770360246E+02  0.11323065743E+03  0.47000000000E+01 0. -1.
         -5    1    4    4    0  502  0.16609114203E+02  0.30389262654E+02  0.94338586480E+01  0.36200243760E+02  0.47000000000E+01 0. -1.
          5    1    5    5  503    0  0.19430447166E+02  0.88635335648E+02 -0.81665660860E+02  0.12216847043E+03  0.47000000000E+01 0. -1.
         -5    1    5    5    0  503  0.67360348472E+01 -0.43699869168E+02 -0.38256963943E+02  0.58657804433E+02  0.47000000000E+01 0. -1.
<mgrwt>
<rscale>  0 0.27474697E+03</rscale>
<asrwt>0</asrwt>
<pdfrwt beam="1">  1        1 0.39501254E-01 0.27474697E+03</pdfrwt>
<pdfrwt beam="2">  1       -1 0.11307542E-01 0.27474697E+03</pdfrwt>
<totfact> 0.53329438E+03</totfact>
</mgrwt>
</event>
<event>
 9    1  0.8186049E-001  0.2713029E+03  0.7818608E-02  0.1100536E+00
          2   -1    0    0  501    0  0.00000000000E+00  0.00000000000E+00  0.86329343702E+03  0.86329343702E+03  0.00000000000E+00 0.  1.
         -2   -1    0    0    0  501 -0.00000000000E+00 -0.00000000000E+00 -0.21315255701E+02  0.21315255701E+02  0.00000000000E+00 0.  1.
         35    2    1    2    0    0  0.00000000000E+00  0.10658141036E-13  0.84197818131E+03  0.88460869272E+03  0.27130293294E+03 0.  0.
         25    2    3    3    0    0 -0.40864540322E+02  0.27768455460E+02  0.37314589993E+03  0.39690779738E+03  0.12592433923E+03 0.  0.
         25    2    3    3    0    0  0.40864540322E+02 -0.27768455460E+02  0.46883228139E+03  0.48770089534E+03  0.12492981018E+03 0.  0.
          5    1    4    4  502    0 -0.36891746627E+02  0.14211995384E+02  0.22078910935E+02  0.45525268698E+02  0.47000000000E+01 0.  1.
         -5    1    4    4    0  502 -0.39727936951E+01  0.13556460075E+02  0.35106698899E+03  0.35138252868E+03  0.47000000000E+01 0.  1.
          5    1    5    5  503    0  0.62377426403E+02 -0.11378550417E+02  0.10440472389E+03  0.12224095510E+03  0.47000000000E+01 0. -1.
         -5    1    5    5    0  503 -0.21512886081E+02 -0.16389905043E+02  0.36442755750E+03  0.36545994024E+03  0.47000000000E+01 0. -1.
<mgrwt>
<rscale>  0 0.27130293E+03</rscale>
<asrwt>0</asrwt>
<pdfrwt beam="1">  1        2 0.13281435E+00 0.27130293E+03</pdfrwt>
<pdfrwt beam="2">  1       -2 0.32792708E-02 0.27130293E+03</pdfrwt>
<totfact> 0.11862010E+04</totfact>
</mgrwt>
</event>
<event>
 9    1  0.8186049E-001  0.2726808E+03  0.7818608E-02  0.1099755E+00
          1   -1    0    0  501    0  0.00000000000E+00  0.00000000000E+00  0.25101004926E+03  0.25101004926E+03  0.00000000000E+00 0.  1.
         -1   -1    0    0    0  501 -0.00000000000E+00 -0.00000000000E+00 -0.74055605838E+02  0.74055605838E+02  0.00000000000E+00 0.  1.
         35    2    1    2    0    0  0.00000000000E+00 -0.71054273576E-14  0.17695444342E+03  0.32506565510E+03  0.27268077504E+03 0.  0.
         25    2    3    3    0    0 -0.20692161484E+02 -0.43513389105E+02  0.11763778895E+03  0.17840740878E+03  0.12517577057E+03 0.  0.
         25    2    3    3    0    0  0.20692161484E+02  0.43513389105E+02  0.59316654473E+02  0.14665824632E+03  0.12517425909E+03 0.  0.
          5    1    4    4  502    0 -0.33303693850E+02  0.23700624328E+02 -0.12600415865E+01  0.41164709673E+02  0.47000000000E+01 0.  1.
         -5    1    4    4    0  502  0.12611532366E+02 -0.67214013433E+02  0.11889783054E+03  0.13724269910E+03  0.47000000000E+01 0.  1.
          5    1    5    5  503    0 -0.50488874024E+02  0.63840948517E+00  0.26234452052E+02  0.57095275123E+02  0.47000000000E+01 0. -1.
         -5    1    5    5    0  503  0.71181035508E+02  0.42874979620E+02  0.33082202420E+02  0.89562971201E+02  0.47000000000E+01 0. -1.
<mgrwt>
<rscale>  0 0.27268078E+03</rscale>
<asrwt>0</asrwt>
<pdfrwt beam="1">  1        1 0.38616930E-01 0.27268078E+03</pdfrwt>
<pdfrwt beam="2">  1       -1 0.11393170E-01 0.27268078E+03</pdfrwt>
<totfact> 0.54212908E+03</totfact>
</mgrwt>
</event>
<event>
 9    1  0.8186049E-001  0.2719874E+03  0.7818608E-02  0.1100148E+00
          2   -1    0    0  501    0  0.00000000000E+00  0.00000000000E+00  0.12396573025E+03  0.12396573025E+03  0.00000000000E+00 0. -1.
         -2   -1    0    0    0  501 -0.00000000000E+00 -0.00000000000E+00 -0.14918872895E+03  0.14918872895E+03  0.00000000000E+00 0. -1.
         35    2    1    2    0    0  0.00000000000E+00 -0.71054273576E-14 -0.25222998697E+02  0.27315445920E+03  0.27198742419E+03 0.  0.
         25    2    3    3    0    0  0.63589224381E+01  0.52498299828E+02 -0.12583662099E+02  0.13687741777E+03  0.12562074495E+03 0.  0.
         25    2    3    3    0    0 -0.63589224381E+01 -0.52498299828E+02 -0.12639336598E+02  0.13627704144E+03  0.12496068107E+03 0.  0.
          5    1    4    4  502    0  0.39800372945E+02 -0.94122933958E+01 -0.43486510875E+02  0.59881780047E+02  0.47000000000E+01 0. -1.
         -5    1    4    4    0  502 -0.33441450507E+02  0.61910593224E+02  0.30902848776E+02  0.76995637719E+02  0.47000000000E+01 0. -1.
          5    1    5    5  503    0 -0.55409350233E+02 -0.57564822915E+02  0.12034499543E+02  0.80937161488E+02  0.47000000000E+01 0. -1.
         -5    1    5    5    0  503  0.49050427794E+02  0.50665230866E+01 -0.24673836141E+02  0.55339879950E+02  0.47000000000E+01 0. -1.
<mgrwt>
<rscale>  0 0.27198742E+03</rscale>
<asrwt>0</asrwt>
<pdfrwt beam="1">  1        2 0.19071651E-01 0.27198742E+03</pdfrwt>
<pdfrwt beam="2">  1       -2 0.22952112E-01 0.27198742E+03</pdfrwt>
<totfact> 0.48175537E+03</totfact>
</mgrwt>
</event>
<event>
 9    1  0.8186049E-001  0.2743148E+03  0.7818608E-02  0.1098835E+00
         -4   -1    0    0    0  501 -0.00000000000E+00  0.00000000000E+00  0.73568883583E+03  0.73568883583E+03  0.00000000000E+00 0. -1.
          4   -1    0    0  501    0  0.00000000000E+00 -0.00000000000E+00 -0.25570801714E+02  0.25570801714E+02  0.00000000000E+00 0. -1.
         35    2    1    2    0    0  0.00000000000E+00 -0.71054273576E-14  0.71011803412E+03  0.76125963755E+03  0.27431480707E+03 0.  0.
         25    2    3    3    0    0  0.31389167063E+02  0.23147053829E+02  0.24152650086E+03  0.27483804339E+03  0.12521914218E+03 0.  0.
         25    2    3    3    0    0 -0.31389167063E+02 -0.23147053829E+02  0.46859153326E+03  0.48642159416E+03  0.12452660883E+03 0.  0.
          5    1    4    4  502    0  0.99089677961E+01 -0.51603457179E+02  0.86166271787E+02  0.10103376084E+03  0.47000000000E+01 0.  1.
         -5    1    4    4    0  502  0.21480199267E+02  0.74750511008E+02  0.15536022907E+03  0.17380428255E+03  0.47000000000E+01 0.  1.
          5    1    5    5  503    0  0.24755228910E+02 -0.58164210117E+02  0.20270143236E+03  0.21238139603E+03  0.47000000000E+01 0.  1.
         -5    1    5    5    0  503 -0.56144395973E+02  0.35017156289E+02  0.26589010090E+03  0.27404019813E+03  0.47000000000E+01 0.  1.
<mgrwt>
<rscale>  0 0.27431481E+03</rscale>
<asrwt>0</asrwt>
<pdfrwt beam="1">  1        4 0.39339701E-02 0.27431481E+03</pdfrwt>
<pdfrwt beam="2">  1       -4 0.11318288E+00 0.27431481E+03</pdfrwt>
<totfact> 0.41849536E+02</totfact>
</mgrwt>
</event>
<event>
 9    1  0.8186049E-001  0.2766999E+03  0.7818608E-02  0.1097505E+00
         -2   -1    0    0    0  501 -0.00000000000E+00  0.00000000000E+00  0.14976522415E+02  0.14976522415E+02  0.00000000000E+00 0.  1.
          2   -1    0    0  501    0  0.00000000000E+00 -0.00000000000E+00 -0.12780478561E+04  0.12780478561E+04  0.00000000000E+00 0.  1.
         35    2    1    2    0    0  0.35527136788E-14  0.00000000000E+00 -0.12630713337E+04  0.12930243786E+04  0.27669992674E+03 0.  0.
         25    2    3    3    0    0  0.12288420443E+02 -0.51207884845E+02 -0.50594364207E+03  0.52365503336E+03  0.12434778751E+03 0.  0.
         25    2    3    3    0    0 -0.12288420443E+02  0.51207884845E+02 -0.75712769165E+03  0.76936934520E+03  0.12614909876E+03 0.  0.
          5    1    4    4  502    0  0.63466847428E+02 -0.15152915235E+02 -0.17540980205E+03  0.18721201943E+03  0.47000000000E+01 0. -1.
         -5    1    4    4    0  502 -0.51178426985E+02 -0.36054969610E+02 -0.33053384002E+03  0.33644301393E+03  0.47000000000E+01 0. -1.
          5    1    5    5  503    0 -0.28334100751E+02  0.21109939157E+01 -0.34751151780E+02  0.45133248395E+02  0.47000000000E+01 0.  1.
         -5    1    5    5    0  503  0.16045680308E+02  0.49096890929E+02 -0.72237653987E+03  0.72423609680E+03  0.47000000000E+01 0.  1.
<mgrwt>
<rscale>  0 0.27669993E+03</rscale>
<asrwt>0</asrwt>
<pdfrwt beam="1">  1        2 0.19662273E+00 0.27669993E+03</pdfrwt>
<pdfrwt beam="2">  1       -2 0.23040805E-02 0.27669993E+03</pdfrwt>
<totfact> 0.11312387E+04</totfact>
</mgrwt>
</event>
<event>
 9    1  0.8186049E-001  0.2753146E+03  0.7818608E-02  0.1098276E+00
         -2   -1    0    0    0  501 -0.00000000000E+00  0.00000000000E+00  0.16514875087E+02  0.16514875087E+02  0.00000000000E+00 0. -1.
          2   -1    0    0  501    0  0.00000000000E+00 -0.00000000000E+00 -0.11474220299E+04  0.11474220299E+04  0.00000000000E+00 0. -1.
         35    2    1    2    0    0 -0.71054273576E-14  0.35527136788E-14 -0.11309071548E+04  0.11639369050E+04  0.27531459457E+03 0.  0.
         25    2    3    3    0    0 -0.59800344773E+02  0.10385371313E+02 -0.55719730597E+03  0.57417568889E+03  0.12459914433E+03 0.  0.
         25    2    3    3    0    0  0.59800344773E+02 -0.10385371313E+02 -0.57370984881E+03  0.58976121606E+03  0.12243922644E+03 0.  0.
          5    1    4    4  502    0  0.25678687057E+02  0.28663501389E+02 -0.78632648533E+02  0.87670831502E+02  0.47000000000E+01 0.  1.
         -5    1    4    4    0  502 -0.85479031829E+02 -0.18278130077E+02 -0.47856465743E+03  0.48650485739E+03  0.47000000000E+01 0.  1.
          5    1    5    5  503    0  0.29242354851E+02 -0.64081763535E+02 -0.37599166662E+03  0.38256164354E+03  0.47000000000E+01 0. -1.
         -5    1    5    5    0  503  0.30557989922E+02  0.53696392223E+02 -0.19771818219E+03  0.20719957252E+03  0.47000000000E+01 0. -1.
<mgrwt>
<rscale>  0 0.27531459E+03</rscale>
<asrwt>0</asrwt>
<pdfrwt beam="1">  1        2 0.17652647E+00 0.27531459E+03</pdfrwt>
<pdfrwt beam="2">  1       -2 0.25407499E-02 0.27531459E+03</pdfrwt>
<totfact> 0.11606855E+04</totfact>
</mgrwt>
</event>
<event>
 9    1  0.8186049E-001  0.2802528E+03  0.7818608E-02  0.1095551E+00
         -2   -1    0    0    0  501 -0.00000000000E+00  0.00000000000E+00  0.21584902887E+02  0.21584902887E+02  0.00000000000E+00 0. -1.
          2   -1    0    0  501    0  0.00000000000E+00 -0.00000000000E+00 -0.90968248391E+03  0.90968248391E+03  0.00000000000E+00 0. -1.
         35    2    1    2    0    0  0.17763568394E-14 -0.71054273576E-14 -0.88809758103E+03  0.93126738680E+03  0.28025280069E+03 0.  0.
         25    2    3    3    0    0  0.19533165524E+01  0.48610667321E+02 -0.57734079545E+03  0.59277981300E+03  0.12529445389E+03 0.  0.
         25    2    3    3    0    0 -0.19533165524E+01 -0.48610667321E+02 -0.31075678557E+03  0.33848757381E+03  0.12504897208E+03 0.  0.
          5    1    4    4  502    0 -0.14988206046E+02 -0.38925537036E+02 -0.24913715875E+03  0.25264848629E+03  0.47000000000E+01 0.  1.
         -5    1    4    4    0  502  0.16941522599E+02  0.87536204357E+02 -0.32820363671E+03  0.34013132671E+03  0.47000000000E+01 0.  1.
          5    1    5    5  503    0 -0.28781532418E+02 -0.77743401917E+02 -0.26542390112E+03  0.27810852276E+03  0.47000000000E+01 0.  1.
         -5    1    5    5    0  503  0.26828215866E+02  0.29132734595E+02 -0.45332884457E+02  0.60379051042E+02  0.47000000000E+01 0.  1.
<mgrwt>
<rscale>  0 0.28025280E+03</rscale>
<asrwt>0</asrwt>
<pdfrwt beam="1">  1        2 0.13995115E+00 0.28025280E+03</pdfrwt>
<pdfrwt beam="2">  1       -2 0.33207544E-02 0.28025280E+03</pdfrwt>
<totfact> 0.10870608E+04</totfact>
</mgrwt>
</event>
<event>
 9    1  0.8186049E-001  0.2759763E+03  0.7818608E-02  0.1097907E+00
          2   -1    0    0  501    0  0.00000000000E+00  0.00000000000E+00  0.11397097642E+04  0.11397097642E+04  0.00000000000E+00 0.  1.
         -2   -1    0    0    0  501 -0.00000000000E+00 -0.00000000000E+00 -0.16706643229E+02  0.16706643229E+02  0.00000000000E+00 0.  1.
         35    2    1    2    0    0  0.00000000000E+00  0.00000000000E+00  0.11230031210E+04  0.11564164075E+04  0.27597626286E+03 0.  0.
         25    2    3    3    0    0 -0.25410346387E+02 -0.52374396071E+02  0.58052558899E+03  0.59675141190E+03  0.12535360015E+03 0.  0.
         25    2    3    3    0    0  0.25410346387E+02  0.52374396071E+02  0.54247753201E+03  0.55966499556E+03  0.12471676489E+03 0.  0.
          5    1    4    4  502    0  0.50141591939E+02 -0.31767481644E+02  0.23414481341E+03  0.24159725946E+03  0.47000000000E+01 0. -1.
         -5    1    4    4    0  502 -0.75551938326E+02 -0.20606914427E+02  0.34638077558E+03  0.35515415244E+03  0.47000000000E+01 0. -1.
          5    1    5    5  503    0 -0.43078430757E+02  0.12598878063E+02  0.32594804853E+03  0.32905729480E+03  0.47000000000E+01 0. -1.
         -5    1    5    5    0  503  0.68488777145E+02  0.39775518008E+02  0.21652948349E+03  0.23060770075E+03  0.47000000000E+01 0. -1.
<mgrwt>
<rscale>  0 0.27597626E+03</rscale>
<asrwt>0</asrwt>
<pdfrwt beam="1">  1        2 0.17533990E+00 0.27597626E+03</pdfrwt>
<pdfrwt beam="2">  1       -2 0.25702537E-02 0.27597626E+03</pdfrwt>
<totfact> 0.11528698E+04</totfact>
</mgrwt>
</event>
<event>
 9    1  0.8186049E-001  0.2708735E+03  0.7818608E-02  0.1100781E+00
          1   -1    0    0  501    0  0.00000000000E+00  0.00000000000E+00  0.37764850809E+03  0.37764850809E+03  0.00000000000E+00 0. -1.
         -1   -1    0    0    0  501 -0.00000000000E+00 -0.00000000000E+00 -0.48571917988E+02  0.48571917988E+02  0.00000000000E+00 0. -1.
         35    2    1    2    0    0  0.00000000000E+00  0.00000000000E+00  0.32907659010E+03  0.42622042607E+03  0.27087349345E+03 0.  0.
         25    2    3    3    0    0  0.34842774985E+02 -0.38786965839E+01  0.22825214167E+03  0.26216816883E+03  0.12411303441E+03 0.  0.
         25    2    3    3    0    0 -0.34842774985E+02  0.38786965839E+01  0.10082444842E+03  0.16405225725E+03  0.12457331356E+03 0.  0.
          5    1    4    4  502    0 -0.23743890521E+02 -0.48925588453E+02  0.87654466918E+02  0.10326122754E+03  0.47000000000E+01 0. -1.
         -5    1    4    4    0  502  0.58586665505E+02  0.45046891869E+02  0.14059767476E+03  0.15890694129E+03  0.47000000000E+01 0. -1.
          5    1    5    5  503    0 -0.92521051632E+01  0.19385094763E+02  0.12398718456E+03  0.12592178240E+03  0.47000000000E+01 0.  1.
         -5    1    5    5    0  503 -0.25590669821E+02 -0.15506398179E+02 -0.23162736136E+02  0.38130474842E+02  0.47000000000E+01 0.  1.
<mgrwt>
<rscale>  0 0.27087349E+03</rscale>
<asrwt>0</asrwt>
<pdfrwt beam="1">  1        1 0.58099769E-01 0.27087349E+03</pdfrwt>
<pdfrwt beam="2">  1       -1 0.74726030E-02 0.27087349E+03</pdfrwt>
<totfact> 0.61973892E+03</totfact>
</mgrwt>
</event>
<event>
 9    1  0.8186049E-001  0.2873143E+03  0.7818608E-02  0.1091760E+00
         -2   -1    0    0    0  501 -0.00000000000E+00  0.00000000000E+00  0.15957075044E+02  0.15957075044E+02  0.00000000000E+00 0. -1.
          2   -1    0    0  501    0  0.00000000000E+00 -0.00000000000E+00 -0.12933054526E+04  0.12933054526E+04  0.00000000000E+00 0. -1.
         35    2    1    2    0    0 -0.17763568394E-14  0.00000000000E+00 -0.12773483776E+04  0.13092625276E+04  0.28731426809E+03 0.  0.
         25    2    3    3    0    0 -0.91943473032E+01  0.64246777001E+02 -0.78719476448E+03  0.79980528722E+03  0.12570089842E+03 0.  0.
         25    2    3    3    0    0  0.91943473032E+01 -0.64246777001E+02 -0.49015361308E+03  0.50945724043E+03  0.12281665617E+03 0.  0.
          5    1    4    4  502    0  0.10397447805E+02  0.18398735808E+02 -0.69114388781E+03  0.69148288775E+03  0.47000000000E+01 0.  1.
         -5    1    4    4    0  502 -0.19591795108E+02  0.45848041193E+02 -0.96050876669E+02  0.10832239946E+03  0.47000000000E+01 0.  1.
          5    1    5    5  503    0 -0.34145608196E+02 -0.65507703817E+02 -0.15831855432E+03  0.17476852251E+03  0.47000000000E+01 0.  1.
         -5    1    5    5    0  503  0.43339955499E+02  0.12609268163E+01 -0.33183505876E+03  0.33468871792E+03  0.47000000000E+01 0.  1.
<mgrwt>
<rscale>  0 0.28731427E+03</rscale>
<asrwt>0</asrwt>
<pdfrwt beam="1">  1        2 0.19897008E+00 0.28731427E+03</pdfrwt>
<pdfrwt beam="2">  1       -2 0.24549345E-02 0.28731427E+03</pdfrwt>
<totfact> 0.10109244E+04</totfact>
</mgrwt>
</event>
<event>
 9    1  0.8186049E-001  0.2745346E+03  0.7818608E-02  0.1098712E+00
          2   -1    0    0  501    0  0.00000000000E+00  0.00000000000E+00  0.71707262193E+03  0.71707262193E+03  0.00000000000E+00 0. -1.
         -2   -1    0    0    0  501 -0.00000000000E+00 -0.00000000000E+00 -0.26276717210E+02  0.26276717210E+02  0.00000000000E+00 0. -1.
         35    2    1    2    0    0  0.00000000000E+00  0.00000000000E+00  0.69079590472E+03  0.74334933914E+03  0.27453462081E+03 0.  0.
         25    2    3    3    0    0  0.21561143054E+02  0.45783785035E+02  0.39643037980E+03  0.41889193228E+03  0.12550843412E+03 0.  0.
         25    2    3    3    0    0 -0.21561143054E+02 -0.45783785035E+02  0.29436552491E+03  0.32445740686E+03  0.12673006252E+03 0.  0.
          5    1    4    4  502    0  0.32934800743E+02 -0.32759056859E+02  0.80006663796E+02  0.92633758199E+02  0.47000000000E+01 0.  1.
         -5    1    4    4    0  502 -0.11373657689E+02  0.78542841894E+02  0.31642371601E+03  0.32625817408E+03  0.47000000000E+01 0.  1.
          5    1    5    5  503    0  0.42941853133E+02  0.16817695610E+02  0.10586639865E+03  0.11557085272E+03  0.47000000000E+01 0.  1.
         -5    1    5    5    0  503 -0.64502996188E+02 -0.62601480645E+02  0.18849912627E+03  0.20888655414E+03  0.47000000000E+01 0.  1.
<mgrwt>
<rscale>  0 0.27453462E+03</rscale>
<asrwt>0</asrwt>
<pdfrwt beam="1">  1        2 0.11031885E+00 0.27453462E+03</pdfrwt>
<pdfrwt beam="2">  1       -2 0.40425724E-02 0.27453462E+03</pdfrwt>
<totfact> 0.10968923E+04</totfact>
</mgrwt>
</event>
<event>
 9    1  0.8186049E-001  0.2738580E+03  0.7818608E-02  0.1099092E+00
         -1   -1    0    0    0  501 -0.00000000000E+00  0.00000000000E+00  0.10184450345E+03  0.10184450345E+03  0.00000000000E+00 0. -1.
          1   -1    0    0  501    0  0.00000000000E+00 -0.00000000000E+00 -0.18409982940E+03  0.18409982940E+03  0.00000000000E+00 0. -1.
         35    2    1    2    0    0 -0.71054273576E-14  0.00000000000E+00 -0.82255325945E+02  0.28594433285E+03  0.27385803410E+03 0.  0.
         25    2    3    3    0    0  0.23474467565E+02 -0.14307379070E+01 -0.91652091259E+02  0.15879920437E+03  0.12753032517E+03 0.  0.
         25    2    3    3    0    0 -0.23474467565E+02  0.14307379070E+01  0.93967653136E+01  0.12714512848E+03  0.12459729877E+03 0.  0.
          5    1    4    4  502    0 -0.24814907934E+02  0.15963872108E+02 -0.10195086190E+03  0.10623884934E+03  0.47000000000E+01 0.  1.
         -5    1    4    4    0  502  0.48289375498E+02 -0.17394610015E+02  0.10298770638E+02  0.52560355024E+02  0.47000000000E+01 0.  1.
          5    1    5    5  503    0  0.26307744596E+01 -0.49831603829E+02  0.37837364742E+02  0.62800206091E+02  0.47000000000E+01 0.  1.
         -5    1    5    5    0  503 -0.26105242024E+02  0.51262341736E+02 -0.28440599429E+02  0.64344922390E+02  0.47000000000E+01 0.  1.
<mgrwt>
<rscale>  0 0.27385803E+03</rscale>
<asrwt>0</asrwt>
<pdfrwt beam="1">  1        1 0.28323050E-01 0.27385803E+03</pdfrwt>
<pdfrwt beam="2">  1       -1 0.15668385E-01 0.27385803E+03</pdfrwt>
<totfact> 0.48513258E+03</totfact>
</mgrwt>
</event>
<event>
 9    1  0.8186049E-001  0.2696514E+03  0.7818608E-02  0.1101479E+00
          2   -1    0    0  501    0  0.00000000000E+00  0.00000000000E+00  0.97769555401E+03  0.97769555401E+03  0.00000000000E+00 0.  1.
         -2   -1    0    0    0  501 -0.00000000000E+00 -0.00000000000E+00 -0.18592672421E+02  0.18592672421E+02  0.00000000000E+00 0.  1.
         35    2    1    2    0    0 -0.21316282073E-13 -0.35527136788E-14  0.95910288159E+03  0.99628822643E+03  0.26965142806E+03 0.  0.
         25    2    3    3    0    0 -0.37220281228E+02 -0.17717527771E+02  0.37838131139E+03  0.40079479717E+03  0.12555792489E+03 0.  0.
         25    2    3    3    0    0  0.37220281228E+02  0.17717527771E+02  0.58072157020E+03  0.59549342926E+03  0.12520232457E+03 0.  0.
          5    1    4    4  502    0  0.40671604982E+02  0.11043373292E+01  0.21372484353E+03  0.21761387307E+03  0.47000000000E+01 0.  1.
         -5    1    4    4    0  502 -0.77891886210E+02 -0.18821865100E+02  0.16465646786E+03  0.18318092409E+03  0.47000000000E+01 0.  1.
          5    1    5    5  503    0  0.45636806917E+02 -0.36726397301E+02  0.14779281423E+03  0.15904827048E+03  0.47000000000E+01 0.  1.
         -5    1    5    5    0  503 -0.84165256891E+01  0.54443925072E+02  0.43292875597E+03  0.43644515878E+03  0.47000000000E+01 0.  1.
<mgrwt>
<rscale>  0 0.26965143E+03</rscale>
<asrwt>0</asrwt>
<pdfrwt beam="1">  1        2 0.15041466E+00 0.26965143E+03</pdfrwt>
<pdfrwt beam="2">  1       -2 0.28604119E-02 0.26965143E+03</pdfrwt>
<totfact> 0.12285037E+04</totfact>
</mgrwt>
</event>
<event>
 9    1  0.8186049E-001  0.2749653E+03  0.7818608E-02  0.1098471E+00
          1   -1    0    0  501    0  0.00000000000E+00  0.00000000000E+00  0.36401383714E+02  0.36401383714E+02  0.00000000000E+00 0. -1.
         -1   -1    0    0    0  501 -0.00000000000E+00 -0.00000000000E+00 -0.51925158386E+03  0.51925158386E+03  0.00000000000E+00 0. -1.
         35    2    1    2    0    0  0.71054273576E-14  0.00000000000E+00 -0.48285020014E+03  0.55565296757E+03  0.27496527889E+03 0.  0.
         25    2    3    3    0    0 -0.58275486592E+02  0.56458998806E+01 -0.24335100271E+03  0.27958744343E+03  0.12458539033E+03 0.  0.
         25    2    3    3    0    0  0.58275486592E+02 -0.56458998806E+01 -0.23949919743E+03  0.27606552414E+03  0.12419500603E+03 0.  0.
          5    1    4    4  502    0 -0.66414255482E+02 -0.51540822456E+01 -0.44559596134E+02  0.80281165305E+02  0.47000000000E+01 0.  1.
         -5    1    4    4    0  502  0.81387688900E+01  0.10799982126E+02 -0.19879140658E+03  0.19930627813E+03  0.47000000000E+01 0.  1.
          5    1    5    5  503    0  0.34617924565E+02 -0.97757971268E+01 -0.24763457385E+03  0.25027772389E+03  0.47000000000E+01 0.  1.
         -5    1    5    5    0  503  0.23657562027E+02  0.41298972461E+01  0.81353764132E+01  0.25787800250E+02  0.47000000000E+01 0.  1.
<mgrwt>
<rscale>  0 0.27496528E+03</rscale>
<asrwt>0</asrwt>
<pdfrwt beam="1">  1        1 0.56002135E-02 0.27496528E+03</pdfrwt>
<pdfrwt beam="2">  1       -1 0.79884850E-01 0.27496528E+03</pdfrwt>
<totfact> 0.23219294E+03</totfact>
</mgrwt>
</event>
<event>
 9    1  0.8186049E-001  0.2734693E+03  0.7818608E-02  0.1099310E+00
         -1   -1    0    0    0  501 -0.00000000000E+00  0.00000000000E+00  0.26771859805E+02  0.26771859805E+02  0.00000000000E+00 0.  1.
          1   -1    0    0  501    0  0.00000000000E+00 -0.00000000000E+00 -0.69835885628E+03  0.69835885628E+03  0.00000000000E+00 0.  1.
         35    2    1    2    0    0  0.00000000000E+00  0.71054273576E-14 -0.67158699648E+03  0.72513071609E+03  0.27346930646E+03 0.  0.
         25    2    3    3    0    0  0.38017564497E+01 -0.50520074546E+02 -0.39075152172E+03  0.41340948057E+03  0.12511560902E+03 0.  0.
         25    2    3    3    0    0 -0.38017564497E+01  0.50520074546E+02 -0.28083547476E+03  0.31172123552E+03  0.12543856465E+03 0.  0.
          5    1    4    4  502    0 -0.22960979959E+02 -0.79895736183E+02 -0.33230167547E+03  0.34257412159E+03  0.47000000000E+01 0.  1.
         -5    1    4    4    0  502  0.26762736409E+02  0.29375661637E+02 -0.58449846248E+02  0.70835358989E+02  0.47000000000E+01 0.  1.
          5    1    5    5  503    0 -0.60928541001E+02  0.36850171659E+02 -0.11106009809E+03  0.13201006647E+03  0.47000000000E+01 0.  1.
         -5    1    5    5    0  503  0.57126784551E+02  0.13669902887E+02 -0.16977537667E+03  0.17971116905E+03  0.47000000000E+01 0.  1.
<mgrwt>
<rscale>  0 0.27346931E+03</rscale>
<asrwt>0</asrwt>
<pdfrwt beam="1">  1        1 0.10743983E+00 0.27346931E+03</pdfrwt>
<pdfrwt beam="2">  1       -1 0.41187473E-02 0.27346931E+03</pdfrwt>
<totfact> 0.66391782E+03</totfact>
</mgrwt>
</event>
<event>
 9    1  0.8186049E-001  0.2548734E+03  0.7818608E-02  0.1110263E+00
          2   -1    0    0  501    0  0.00000000000E+00  0.00000000000E+00  0.36745416595E+02  0.36745416595E+02  0.00000000000E+00 0. -1.
         -2   -1    0    0    0  501 -0.00000000000E+00 -0.00000000000E+00 -0.44196283799E+03  0.44196283799E+03  0.00000000000E+00 0. -1.
         35    2    1    2    0    0  0.00000000000E+00  0.00000000000E+00 -0.40521742140E+03  0.47870825459E+03  0.25487336935E+03 0.  0.
         25    2    3    3    0    0 -0.19787475052E+02  0.18864730434E+02 -0.19609072218E+03  0.23422402351E+03  0.12514751152E+03 0.  0.
         25    2    3    3    0    0  0.19787475052E+02 -0.18864730434E+02 -0.20912669921E+03  0.24448423108E+03  0.12365735197E+03 0.  0.
          5    1    4    4  502    0  0.12832745101E+02 -0.49877575478E+02 -0.84835572898E+02  0.99356007928E+02  0.47000000000E+01 0. -1.
         -5    1    4    4    0  502 -0.32620220153E+02  0.68742305912E+02 -0.11125514929E+03  0.13486801558E+03  0.47000000000E+01 0. -1.
          5    1    5    5  503    0  0.26080237511E+02  0.48794403251E+02 -0.12075185882E+03  0.13290663635E+03  0.47000000000E+01 0. -1.
         -5    1    5    5    0  503 -0.62927624584E+01 -0.67659133685E+02 -0.88374840397E+02  0.11157759473E+03  0.47000000000E+01 0. -1.
<mgrwt>
<rscale>  0 0.25487337E+03</rscale>
<asrwt>0</asrwt>
<pdfrwt beam="1">  1        2 0.56531412E-02 0.25487337E+03</pdfrwt>
<pdfrwt beam="2">  1       -2 0.67994280E-01 0.25487337E+03</pdfrwt>
<totfact> 0.26953800E+03</totfact>
</mgrwt>
</event>
<event>
 9    1  0.8186049E-001  0.2685086E+03  0.7818608E-02  0.1102136E+00
          1   -1    0    0  501    0  0.00000000000E+00  0.00000000000E+00  0.16371930071E+03  0.16371930071E+03  0.00000000000E+00 0. -1.
         -1   -1    0    0    0  501 -0.00000000000E+00 -0.00000000000E+00 -0.11009216013E+03  0.11009216013E+03  0.00000000000E+00 0. -1.
         35    2    1    2    0    0 -0.88817841970E-14  0.71054273576E-14  0.53627140578E+02  0.27381146084E+03  0.26850855830E+03 0.  0.
         25    2    3    3    0    0  0.11751647936E+02 -0.37728203286E+02 -0.41380485806E+01  0.13053079370E+03  0.12433682522E+03 0.  0.
         25    2    3    3    0    0 -0.11751647936E+02  0.37728203286E+02  0.57765189158E+02  0.14328066713E+03  0.12502405346E+03 0.  0.
          5    1    4    4  502    0  0.20494085077E+02 -0.29795395180E+02  0.57229986475E+02  0.67861140935E+02  0.47000000000E+01 0. -1.
         -5    1    4    4    0  502 -0.87424371402E+01 -0.79328081061E+01 -0.61368035056E+02  0.62669652769E+02  0.47000000000E+01 0. -1.
          5    1    5    5  503    0 -0.64651911548E+02 -0.83225983154E+00  0.21520336716E+02  0.68306494681E+02  0.47000000000E+01 0. -1.
         -5    1    5    5    0  503  0.52900263612E+02  0.38560463117E+02  0.36244852443E+02  0.74974172450E+02  0.47000000000E+01 0. -1.
<mgrwt>
<rscale>  0 0.26850856E+03</rscale>
<asrwt>0</asrwt>
<pdfrwt beam="1">  1        1 0.25187585E-01 0.26850856E+03</pdfrwt>
<pdfrwt beam="2">  1       -1 0.16937255E-01 0.26850856E+03</pdfrwt>
<totfact> 0.49682733E+03</totfact>
</mgrwt>
</event>
<event>
 9    1  0.8186049E-001  0.2798516E+03  0.7818608E-02  0.1095770E+00
          2   -1    0    0  501    0  0.00000000000E+00  0.00000000000E+00  0.41263622226E+02  0.41263622226E+02  0.00000000000E+00 0. -1.
         -2   -1    0    0    0  501 -0.00000000000E+00 -0.00000000000E+00 -0.47449144478E+03  0.47449144478E+03  0.00000000000E+00 0. -1.
         35    2    1    2    0    0  0.00000000000E+00  0.71054273576E-14 -0.43322782255E+03  0.51575506701E+03  0.27985164446E+03 0.  0.
         25    2    3    3    0    0 -0.32037956984E+02  0.21009889049E+02 -0.13916729954E+03  0.19378914984E+03  0.12930139678E+03 0.  0.
         25    2    3    3    0    0  0.32037956984E+02 -0.21009889049E+02 -0.29406052302E+03  0.32196591717E+03  0.12538985004E+03 0.  0.
          5    1    4    4  502    0 -0.57266912873E+01 -0.33213424862E+02 -0.12783057792E+03  0.13228255076E+03  0.47000000000E+01 0.  1.
         -5    1    4    4    0  502 -0.26311265697E+02  0.54223313911E+02 -0.11336721623E+02  0.61506599086E+02  0.47000000000E+01 0.  1.
          5    1    5    5  503    0  0.70549725528E+02 -0.46456071494E+02 -0.19621363819E+03  0.21367571730E+03  0.47000000000E+01 0. -1.
         -5    1    5    5    0  503 -0.38511768544E+02  0.25446182445E+02 -0.97846884822E+02  0.10829019987E+03  0.47000000000E+01 0. -1.
<mgrwt>
<rscale>  0 0.27985164E+03</rscale>
<asrwt>0</asrwt>
<pdfrwt beam="1">  1        2 0.63482498E-02 0.27985164E+03</pdfrwt>
<pdfrwt beam="2">  1       -2 0.72998682E-01 0.27985164E+03</pdfrwt>
<totfact> 0.19957526E+03</totfact>
</mgrwt>
</event>
<event>
 9    1  0.8186049E-001  0.2832495E+03  0.7818608E-02  0.1093927E+00
          2   -1    0    0  501    0  0.00000000000E+00  0.00000000000E+00  0.38102728441E+02  0.38102728441E+02  0.00000000000E+00 0.  1.
         -2   -1    0    0    0  501 -0.00000000000E+00 -0.00000000000E+00 -0.52640787320E+03  0.52640787320E+03  0.00000000000E+00 0.  1.
         35    2    1    2    0    0  0.00000000000E+00 -0.21316282073E-13 -0.48830514476E+03  0.56451060164E+03  0.28324954540E+03 0.  0.
         25    2    3    3    0    0 -0.15268564456E+02  0.56218861476E+02 -0.29808320968E+03  0.32911640327E+03  0.12676875625E+03 0.  0.
         25    2    3    3    0    0  0.15268564456E+02 -0.56218861476E+02 -0.19022193508E+03  0.23539419837E+03  0.12582668475E+03 0.  0.
          5    1    4    4  502    0  0.28926325085E+02  0.70235456928E+02 -0.10022826872E+03  0.12584731838E+03  0.47000000000E+01 0.  1.
         -5    1    4    4    0  502 -0.44194889542E+02 -0.14016595452E+02 -0.19785494096E+03  0.20326908489E+03  0.47000000000E+01 0.  1.
          5    1    5    5  503    0  0.14946728643E+02 -0.96019975923E+02 -0.11940389977E+03  0.15402149770E+03  0.47000000000E+01 0. -1.
         -5    1    5    5    0  503  0.32183581263E+00  0.39801114447E+02 -0.70818035310E+02  0.81372700672E+02  0.47000000000E+01 0. -1.
<mgrwt>
<rscale>  0 0.28324955E+03</rscale>
<asrwt>0</asrwt>
<pdfrwt beam="1">  1        2 0.58619582E-02 0.28324955E+03</pdfrwt>
<pdfrwt beam="2">  1       -2 0.80985827E-01 0.28324955E+03</pdfrwt>
<totfact> 0.17647703E+03</totfact>
</mgrwt>
</event>
<event>
 9    1  0.8186049E-001  0.2740611E+03  0.7818608E-02  0.1098978E+00
         -1   -1    0    0    0  501 -0.00000000000E+00  0.00000000000E+00  0.11216608548E+03  0.11216608548E+03  0.00000000000E+00 0. -1.
          1   -1    0    0  501    0  0.00000000000E+00 -0.00000000000E+00 -0.16740686094E+03  0.16740686094E+03  0.00000000000E+00 0. -1.
         35    2    1    2    0    0  0.00000000000E+00  0.00000000000E+00 -0.55240775461E+02  0.27957294642E+03  0.27406110467E+03 0.  0.
         25    2    3    3    0    0  0.42092458044E+02 -0.22099108680E+02 -0.56993502039E+02  0.14589130638E+03  0.12560202377E+03 0.  0.
         25    2    3    3    0    0 -0.42092458044E+02  0.22099108680E+02  0.17527265781E+01  0.13368164003E+03  0.12493023334E+03 0.  0.
          5    1    4    4  502    0  0.84646818980E+02 -0.29996058091E+02 -0.45903404119E+02  0.10096563759E+03  0.47000000000E+01 0.  1.
         -5    1    4    4    0  502 -0.42554360936E+02  0.78969494114E+01 -0.11090097921E+02  0.44925668794E+02  0.47000000000E+01 0.  1.
          5    1    5    5  503    0 -0.17435250622E+02 -0.90087721747E+01  0.59850636698E+02  0.63161179957E+02  0.47000000000E+01 0. -1.
         -5    1    5    5    0  503 -0.24657207422E+02  0.31107880855E+02 -0.58097910120E+02  0.70520460077E+02  0.47000000000E+01 0. -1.
<mgrwt>
<rscale>  0 0.27406110E+03</rscale>
<asrwt>0</asrwt>
<pdfrwt beam="1">  1        1 0.25754901E-01 0.27406110E+03</pdfrwt>
<pdfrwt beam="2">  1       -1 0.17256321E-01 0.27406110E+03</pdfrwt>
<totfact> 0.46903895E+03</totfact>
</mgrwt>
</event>
<event>
 9    1  0.8186049E-001  0.2750281E+03  0.7818608E-02  0.1098436E+00
         -2   -1    0    0    0  501 -0.00000000000E+00  0.00000000000E+00  0.53116392346E+01  0.53116392346E+01  0.00000000000E+00 0. -1.
          2   -1    0    0  501    0  0.00000000000E+00 -0.00000000000E+00 -0.35601287030E+04  0.35601287030E+04  0.00000000000E+00 0. -1.
         35    2    1    2    0    0  0.00000000000E+00 -0.35527136788E-14 -0.35548170637E+04  0.35654403422E+04  0.27502813892E+03 0.  0.
         25    2    3    3    0    0 -0.60068249305E+02  0.22707803560E+02 -0.16934626238E+04  0.16993466193E+04  0.12585481906E+03 0.  0.
         25    2    3    3    0    0  0.60068249305E+02 -0.22707803560E+02 -0.18613544399E+04  0.18660937229E+04  0.11636834876E+03 0.  0.
          5    1    4    4  502    0  0.24013841593E+02  0.71845791113E+00 -0.10186576157E+04  0.10189517205E+04  0.47000000000E+01 0. -1.
         -5    1    4    4    0  502 -0.84082090898E+02  0.21989345649E+02 -0.67480500813E+03  0.68039489881E+03  0.47000000000E+01 0. -1.
          5    1    5    5  503    0  0.92159200645E+02 -0.31202372474E+01 -0.14745757112E+04  0.14774635942E+04  0.47000000000E+01 0. -1.
         -5    1    5    5    0  503 -0.32090951339E+02 -0.19587566313E+02 -0.38677872868E+03  0.38863012862E+03  0.47000000000E+01 0. -1.
<mgrwt>
<rscale>  0 0.27502814E+03</rscale>
<asrwt>0</asrwt>
<pdfrwt beam="1">  1        2 0.54771069E+00 0.27502814E+03</pdfrwt>
<pdfrwt beam="2">  1       -2 0.81717739E-03 0.27502814E+03</pdfrwt>
<totfact> 0.26425107E+03</totfact>
</mgrwt>
</event>
<event>
 9    1  0.8186049E-001  0.2805972E+03  0.7818608E-02  0.1095363E+00
          2   -1    0    0  501    0  0.00000000000E+00  0.00000000000E+00  0.55181762485E+02  0.55181762485E+02  0.00000000000E+00 0.  1.
         -2   -1    0    0    0  501 -0.00000000000E+00 -0.00000000000E+00 -0.35670647812E+03  0.35670647812E+03  0.00000000000E+00 0.  1.
         35    2    1    2    0    0  0.00000000000E+00  0.00000000000E+00 -0.30152471563E+03  0.41188824061E+03  0.28059716430E+03 0.  0.
         25    2    3    3    0    0  0.19915165461E+02  0.41784218268E+02 -0.86425763399E+02  0.15874404264E+03  0.12485080610E+03 0.  0.
         25    2    3    3    0    0 -0.19915165461E+02 -0.41784218268E+02 -0.21509895224E+03  0.25314419796E+03  0.12518742348E+03 0.  0.
          5    1    4    4  502    0  0.95337869052E+01 -0.32986637528E+02 -0.74511614626E+02  0.82177138319E+02  0.47000000000E+01 0. -1.
         -5    1    4    4    0  502  0.10381378555E+02  0.74770855795E+02 -0.11914148773E+02  0.76566904326E+02  0.47000000000E+01 0. -1.
          5    1    5    5  503    0 -0.45044342790E+02 -0.60082827178E+02 -0.63904935157E+02  0.98716106470E+02  0.47000000000E+01 0.  1.
         -5    1    5    5    0  503  0.25129177329E+02  0.18298608910E+02 -0.15119401708E+03  0.15442809149E+03  0.47000000000E+01 0.  1.
<mgrwt>
<rscale>  0 0.28059716E+03</rscale>
<asrwt>0</asrwt>
<pdfrwt beam="1">  1        2 0.84895018E-02 0.28059716E+03</pdfrwt>
<pdfrwt beam="2">  1       -2 0.54877921E-01 0.28059716E+03</pdfrwt>
<totfact> 0.25009355E+03</totfact>
</mgrwt>
</event>
<event>
 9    1  0.8186049E-001  0.2712202E+03  0.7818608E-02  0.1100583E+00
          1   -1    0    0  501    0  0.00000000000E+00  0.00000000000E+00  0.56464238897E+03  0.56464238897E+03  0.00000000000E+00 0. -1.
         -1   -1    0    0    0  501 -0.00000000000E+00 -0.00000000000E+00 -0.32569457516E+02  0.32569457516E+02  0.00000000000E+00 0. -1.
         35    2    1    2    0    0  0.00000000000E+00  0.00000000000E+00  0.53207293146E+03  0.59721184649E+03  0.27122017845E+03 0.  0.
         25    2    3    3    0    0 -0.19753497440E+02 -0.30580664966E+02  0.18640934532E+03  0.22749744379E+03  0.12522485846E+03 0.  0.
         25    2    3    3    0    0  0.19753497440E+02  0.30580664966E+02  0.34566358614E+03  0.36971440270E+03  0.12601605871E+03 0.  0.
          5    1    4    4  502    0  0.40361821616E+02 -0.41650412998E+02  0.45622167616E+02  0.73941231563E+02  0.47000000000E+01 0. -1.
         -5    1    4    4    0  502 -0.60115319056E+02  0.11069748032E+02  0.14078717770E+03  0.15355621222E+03  0.47000000000E+01 0. -1.
          5    1    5    5  503    0  0.34777993773E+02 -0.36923552215E+02  0.77540847326E+02  0.92776778146E+02  0.47000000000E+01 0.  1.
         -5    1    5    5    0  503 -0.15024496333E+02  0.67504217180E+02  0.26812273881E+03  0.27693762456E+03  0.47000000000E+01 0.  1.
<mgrwt>
<rscale>  0 0.27122018E+03</rscale>
<asrwt>0</asrwt>
<pdfrwt beam="1">  1        1 0.86868053E-01 0.27122018E+03</pdfrwt>
<pdfrwt beam="2">  1       -1 0.50106862E-02 0.27122018E+03</pdfrwt>
<totfact> 0.66826141E+03</totfact>
</mgrwt>
</event>
<event>
 9    1  0.8186049E-001  0.2753793E+03  0.7818608E-02  0.1098240E+00
         -2   -1    0    0    0  501 -0.00000000000E+00  0.00000000000E+00  0.13524325192E+02  0.13524325192E+02  0.00000000000E+00 0. -1.
          2   -1    0    0  501    0  0.00000000000E+00 -0.00000000000E+00 -0.14018032376E+04  0.14018032376E+04  0.00000000000E+00 0. -1.
         35    2    1    2    0    0  0.00000000000E+00 -0.14210854715E-13 -0.13882789124E+04  0.14153275628E+04  0.27537932269E+03 0.  0.
         25    2    3    3    0    0 -0.14298907304E+02 -0.52544320084E+02 -0.75846014030E+03  0.77054395749E+03  0.12454252958E+03 0.  0.
         25    2    3    3    0    0  0.14298907304E+02  0.52544320084E+02 -0.62981877211E+03  0.64478360530E+03  0.12692063523E+03 0.  0.
          5    1    4    4  502    0  0.19646075154E+02  0.31310281176E+02 -0.11893915489E+03  0.12463913728E+03  0.47000000000E+01 0.  1.
         -5    1    4    4    0  502 -0.33944982458E+02 -0.83854601260E+02 -0.63952098542E+03  0.64590482021E+03  0.47000000000E+01 0.  1.
          5    1    5    5  503    0 -0.48501523026E+02  0.55618881397E+01 -0.13228634931E+03  0.14108543705E+03  0.47000000000E+01 0.  1.
         -5    1    5    5    0  503  0.62800430331E+02  0.46982431944E+02 -0.49753242280E+03  0.50369816825E+03  0.47000000000E+01 0.  1.
<mgrwt>
<rscale>  0 0.27537932E+03</rscale>
<asrwt>0</asrwt>
<pdfrwt beam="1">  1        2 0.21566203E+00 0.27537932E+03</pdfrwt>
<pdfrwt beam="2">  1       -2 0.20806654E-02 0.27537932E+03</pdfrwt>
<totfact> 0.11241834E+04</totfact>
</mgrwt>
</event>
<event>
 9    1  0.8186049E-001  0.2717764E+03  0.7818608E-02  0.1100267E+00
         -2   -1    0    0    0  501 -0.00000000000E+00  0.00000000000E+00  0.32964220240E+02  0.32964220240E+02  0.00000000000E+00 0. -1.
          2   -1    0    0  501    0  0.00000000000E+00 -0.00000000000E+00 -0.56017123107E+03  0.56017123107E+03  0.00000000000E+00 0. -1.
         35    2    1    2    0    0  0.00000000000E+00 -0.71054273576E-14 -0.52720701083E+03  0.59313545131E+03  0.27177643631E+03 0.  0.
         25    2    3    3    0    0 -0.27419646290E+02  0.39370726618E+02 -0.22537309830E+03  0.26226353982E+03  0.12524871162E+03 0.  0.
         25    2    3    3    0    0  0.27419646290E+02 -0.39370726618E+02 -0.30183391253E+03  0.33087191149E+03  0.12676994890E+03 0.  0.
          5    1    4    4  502    0 -0.20394341298E+02 -0.24475610713E+02 -0.18150361289E+03  0.18433837410E+03  0.47000000000E+01 0.  1.
         -5    1    4    4    0  502 -0.70253049913E+01  0.63846337331E+02 -0.43869485411E+02  0.77925165710E+02  0.47000000000E+01 0.  1.
          5    1    5    5  503    0 -0.20390332324E+02  0.38513974982E+02 -0.89401058716E+02  0.99567721782E+02  0.47000000000E+01 0. -1.
         -5    1    5    5    0  503  0.47809978614E+02 -0.77884701600E+02 -0.21243285381E+03  0.23130418971E+03  0.47000000000E+01 0. -1.
<mgrwt>
<rscale>  0 0.27177644E+03</rscale>
<asrwt>0</asrwt>
<pdfrwt beam="1">  1        2 0.86180196E-01 0.27177644E+03</pdfrwt>
<pdfrwt beam="2">  1       -2 0.50714181E-02 0.27177644E+03</pdfrwt>
<totfact> 0.10412920E+04</totfact>
</mgrwt>
</event>
<event>
 9    1  0.8186049E-001  0.2759145E+03  0.7818608E-02  0.1097942E+00
          1   -1    0    0  501    0  0.00000000000E+00  0.00000000000E+00  0.17519182767E+04  0.17519182767E+04  0.00000000000E+00 0.  1.
         -1   -1    0    0    0  501 -0.00000000000E+00 -0.00000000000E+00 -0.10863634975E+02  0.10863634975E+02  0.00000000000E+00 0.  1.
         35    2    1    2    0    0  0.00000000000E+00  0.71054273576E-14  0.17410546417E+04  0.17627819116E+04  0.27591448432E+03 0.  0.
         25    2    3    3    0    0 -0.22822055465E+02  0.49597024291E+02  0.74760279354E+03  0.75997741762E+03  0.12519994950E+03 0.  0.
         25    2    3    3    0    0  0.22822055465E+02 -0.49597024291E+02  0.99345184815E+03  0.10028044940E+04  0.12525800410E+03 0.  0.
          5    1    4    4  502    0  0.15434236153E+02  0.66927556681E+02  0.21619353223E+03  0.22689038513E+03  0.47000000000E+01 0.  1.
         -5    1    4    4    0  502 -0.38256291619E+02 -0.17330532390E+02  0.53140926131E+03  0.53308703249E+03  0.47000000000E+01 0.  1.
          5    1    5    5  503    0  0.24998416427E+02  0.39573793279E+02  0.31313188160E+03  0.31664597141E+03  0.47000000000E+01 0.  1.
         -5    1    5    5    0  503 -0.21763609616E+01 -0.89170817570E+02  0.68031996655E+03  0.68615852261E+03  0.47000000000E+01 0.  1.
<mgrwt>
<rscale>  0 0.27591448E+03</rscale>
<asrwt>0</asrwt>
<pdfrwt beam="1">  1        1 0.26952566E+00 0.27591448E+03</pdfrwt>
<pdfrwt beam="2">  1       -1 0.16713298E-02 0.27591448E+03</pdfrwt>
<totfact> 0.43595167E+03</totfact>
</mgrwt>
</event>
<event>
 9    1  0.8186049E-001  0.2655615E+03  0.7818608E-02  0.1103847E+00
          1   -1    0    0  501    0  0.00000000000E+00  0.00000000000E+00  0.29904458369E+03  0.29904458369E+03  0.00000000000E+00 0.  1.
         -1   -1    0    0    0  501 -0.00000000000E+00 -0.00000000000E+00 -0.58956834001E+02  0.58956834001E+02  0.00000000000E+00 0.  1.
         35    2    1    2    0    0 -0.71054273576E-14  0.35527136788E-14  0.24008774969E+03  0.35800141769E+03  0.26556145714E+03 0.  0.
         25    2    3    3    0    0 -0.22746643094E+02  0.94643151339E+01  0.65727879431E+02  0.14205762318E+03  0.12350397215E+03 0.  0.
         25    2    3    3    0    0  0.22746643094E+02 -0.94643151339E+01  0.17435987026E+03  0.21594379451E+03  0.12499349982E+03 0.  0.
          5    1    4    4  502    0 -0.45763551092E+02  0.52161440234E+02  0.13916563490E+02  0.70928690917E+02  0.47000000000E+01 0.  1.
         -5    1    4    4    0  502  0.23016907998E+02 -0.42697125100E+02  0.51811315941E+02  0.71128932265E+02  0.47000000000E+01 0.  1.
          5    1    5    5  503    0  0.62743435005E+02 -0.25759468094E+02  0.15322589708E+03  0.16763219967E+03  0.47000000000E+01 0. -1.
         -5    1    5    5    0  503 -0.39996791911E+02  0.16295152961E+02  0.21133973185E+02  0.48311594838E+02  0.47000000000E+01 0. -1.
<mgrwt>
<rscale>  0 0.26556146E+03</rscale>
<asrwt>0</asrwt>
<pdfrwt beam="1">  1        1 0.46006858E-01 0.26556146E+03</pdfrwt>
<pdfrwt beam="2">  1       -1 0.90702823E-02 0.26556146E+03</pdfrwt>
<totfact> 0.61860882E+03</totfact>
</mgrwt>
</event>
<event>
 9    1  0.8186049E-001  0.2746998E+03  0.7818608E-02  0.1098620E+00
          1   -1    0    0  501    0  0.00000000000E+00  0.00000000000E+00  0.19042557614E+03  0.19042557614E+03  0.00000000000E+00 0.  1.
         -1   -1    0    0    0  501 -0.00000000000E+00 -0.00000000000E+00 -0.99067543202E+02  0.99067543202E+02  0.00000000000E+00 0.  1.
         35    2    1    2    0    0  0.71054273576E-14  0.00000000000E+00  0.91358032938E+02  0.28949311934E+03  0.27469979244E+03 0.  0.
         25    2    3    3    0    0  0.27189192814E+02  0.30431256686E+02  0.44810304866E+01  0.13111368975E+03  0.12452070677E+03 0.  0.
         25    2    3    3    0    0 -0.27189192814E+02 -0.30431256686E+02  0.86877002451E+02  0.15837942959E+03  0.12598061984E+03 0.  0.
          5    1    4    4  502    0 -0.65428227241E+01  0.59130003599E+02  0.41922129872E+02  0.72929560727E+02  0.47000000000E+01 0.  1.
         -5    1    4    4    0  502  0.33732015538E+02 -0.28698746913E+02 -0.37441099385E+02  0.58184129020E+02  0.47000000000E+01 0.  1.
          5    1    5    5  503    0 -0.26221888356E+01 -0.24029237657E+01 -0.32603742900E+02  0.33132219485E+02  0.47000000000E+01 0.  1.
         -5    1    5    5    0  503 -0.24567003979E+02 -0.28028332920E+02  0.11948074535E+03  0.12524721011E+03  0.47000000000E+01 0.  1.
<mgrwt>
<rscale>  0 0.27469979E+03</rscale>
<asrwt>0</asrwt>
<pdfrwt beam="1">  1        1 0.29296242E-01 0.27469979E+03</pdfrwt>
<pdfrwt beam="2">  1       -1 0.15241160E-01 0.27469979E+03</pdfrwt>
<totfact> 0.48579759E+03</totfact>
</mgrwt>
</event>
<event>
 9    1  0.8186049E-001  0.2691756E+03  0.7818608E-02  0.1101752E+00
         -4   -1    0    0    0  501 -0.00000000000E+00  0.00000000000E+00  0.50257902085E+02  0.50257902085E+02  0.00000000000E+00 0. -1.
          4   -1    0    0  501    0  0.00000000000E+00 -0.00000000000E+00 -0.36041850284E+03  0.36041850284E+03  0.00000000000E+00 0. -1.
         35    2    1    2    0    0  0.00000000000E+00 -0.71054273576E-14 -0.31016060076E+03  0.41067640493E+03  0.26917561424E+03 0.  0.
         25    2    3    3    0    0 -0.40611896685E+02 -0.30717531513E+02 -0.15402059035E+03  0.20435152371E+03  0.12427513869E+03 0.  0.
         25    2    3    3    0    0  0.40611896685E+02  0.30717531513E+02 -0.15614001041E+03  0.20632488122E+03  0.12488939452E+03 0.  0.
          5    1    4    4  502    0 -0.79929252676E+01  0.23235623389E+02 -0.13646231027E+03  0.13873656033E+03  0.47000000000E+01 0. -1.
         -5    1    4    4    0  502 -0.32618971418E+02 -0.53953154903E+02 -0.17558280081E+02  0.65614963383E+02  0.47000000000E+01 0. -1.
          5    1    5    5  503    0  0.31935538630E+02  0.32493320028E+02  0.39035127854E+01  0.45967617799E+02  0.47000000000E+01 0.  1.
         -5    1    5    5    0  503  0.86763580549E+01 -0.17757885150E+01 -0.16004352320E+03  0.16035726342E+03  0.47000000000E+01 0.  1.
<mgrwt>
<rscale>  0 0.26917561E+03</rscale>
<asrwt>0</asrwt>
<pdfrwt beam="1">  1        4 0.55449001E-01 0.26917561E+03</pdfrwt>
<pdfrwt beam="2">  1       -4 0.77319849E-02 0.26917561E+03</pdfrwt>
<totfact> 0.68394698E+02</totfact>
</mgrwt>
</event>
<event>
 9    1  0.8186049E-001  0.2749934E+03  0.7818608E-02  0.1098455E+00
         -3   -1    0    0    0  501 -0.00000000000E+00  0.00000000000E+00  0.56681448713E+02  0.56681448713E+02  0.00000000000E+00 0. -1.
          3   -1    0    0  501    0  0.00000000000E+00 -0.00000000000E+00 -0.33353667670E+03  0.33353667670E+03  0.00000000000E+00 0. -1.
         35    2    1    2    0    0  0.00000000000E+00  0.00000000000E+00 -0.27685522799E+03  0.39021812541E+03  0.27499339653E+03 0.  0.
         25    2    3    3    0    0  0.55242753640E+02 -0.18443941483E+02 -0.14299557739E+03  0.19849161153E+03  0.12473669824E+03 0.  0.
         25    2    3    3    0    0 -0.55242753640E+02  0.18443941483E+02 -0.13385965060E+03  0.19172651389E+03  0.12429283672E+03 0.  0.
          5    1    4    4  502    0  0.40293851446E+01 -0.61040130817E+02 -0.10513440788E+03  0.12172701933E+03  0.47000000000E+01 0.  1.
         -5    1    4    4    0  502  0.51213368496E+02  0.42596189334E+02 -0.37861169502E+02  0.76764592193E+02  0.47000000000E+01 0.  1.
          5    1    5    5  503    0 -0.13510673560E+02  0.51067334402E+02 -0.12759873899E+03  0.13818082043E+03  0.47000000000E+01 0.  1.
         -5    1    5    5    0  503 -0.41732080080E+02 -0.32623392920E+02 -0.62609116103E+01  0.53545693455E+02  0.47000000000E+01 0.  1.
<mgrwt>
<rscale>  0 0.27499340E+03</rscale>
<asrwt>0</asrwt>
<pdfrwt beam="1">  1        3 0.51313335E-01 0.27499340E+03</pdfrwt>
<pdfrwt beam="2">  1       -3 0.87202229E-02 0.27499340E+03</pdfrwt>
<totfact> 0.89285362E+02</totfact>
</mgrwt>
</event>
<event>
 9    1  0.8186049E-001  0.2756470E+03  0.7818608E-02  0.1098090E+00
          2   -1    0    0  501    0  0.00000000000E+00  0.00000000000E+00  0.34467535602E+04  0.34467535602E+04  0.00000000000E+00 0.  1.
         -2   -1    0    0    0  501 -0.00000000000E+00 -0.00000000000E+00 -0.55110757222E+01  0.55110757222E+01  0.00000000000E+00 0.  1.
         35    2    1    2    0    0  0.00000000000E+00  0.35527136788E-14  0.34412424845E+04  0.34522646359E+04  0.27564701969E+03 0.  0.
         25    2    3    3    0    0 -0.50193194213E+02  0.64349772773E+00  0.13371880375E+04  0.13439113567E+04  0.12452355755E+03 0.  0.
         25    2    3    3    0    0  0.50193194213E+02 -0.64349772773E+00  0.21040544470E+04  0.21083532792E+04  0.12485456753E+03 0.  0.
          5    1    4    4  502    0 -0.52022466782E+02  0.57182645332E+02  0.75375730315E+03  0.75772577759E+03  0.47000000000E+01 0. -1.
         -5    1    4    4    0  502  0.18292725689E+01 -0.56539147604E+02  0.58343073430E+03  0.58618557913E+03  0.47000000000E+01 0. -1.
          5    1    5    5  503    0  0.50551948135E+02  0.29832786035E+02  0.42983894728E+03  0.43385378318E+03  0.47000000000E+01 0. -1.
         -5    1    5    5    0  503 -0.35875392196E+00 -0.30476283762E+02  0.16742154998E+04  0.16744994960E+04  0.47000000000E+01 0. -1.
<mgrwt>
<rscale>  0 0.27564702E+03</rscale>
<asrwt>0</asrwt>
<pdfrwt beam="1">  1        2 0.53026806E+00 0.27564702E+03</pdfrwt>
<pdfrwt beam="2">  1       -2 0.84786056E-03 0.27564702E+03</pdfrwt>
<totfact> 0.29783321E+03</totfact>
</mgrwt>
</event>
<event>
 9    1  0.8186049E-001  0.2877167E+03  0.7818608E-02  0.1091547E+00
          2   -1    0    0  501    0  0.00000000000E+00  0.00000000000E+00  0.10132267515E+03  0.10132267515E+03  0.00000000000E+00 0. -1.
         -2   -1    0    0    0  501 -0.00000000000E+00 -0.00000000000E+00 -0.20425066472E+03  0.20425066472E+03  0.00000000000E+00 0. -1.
         35    2    1    2    0    0  0.00000000000E+00  0.71054273576E-14 -0.10292798957E+03  0.30557333986E+03  0.28771669225E+03 0.  0.
         25    2    3    3    0    0 -0.39222252254E+02 -0.12354732974E+02  0.85313070163E+01  0.13310121188E+03  0.12630172170E+03 0.  0.
         25    2    3    3    0    0  0.39222252254E+02  0.12354732974E+02 -0.11145929659E+03  0.17247212799E+03  0.12502973901E+03 0.  0.
          5    1    4    4  502    0 -0.80386174089E+02 -0.32386597255E+02  0.65329943458E+01  0.87037915196E+02  0.47000000000E+01 0.  1.
         -5    1    4    4    0  502  0.41163921836E+02  0.20031864281E+02  0.19983126704E+01  0.46063296680E+02  0.47000000000E+01 0.  1.
          5    1    5    5  503    0 -0.18713197828E+02  0.51623364154E+02 -0.75980539418E+02  0.93863133709E+02  0.47000000000E+01 0.  1.
         -5    1    5    5    0  503  0.57935450082E+02 -0.39268631179E+02 -0.35478757169E+02  0.78608994276E+02  0.47000000000E+01 0.  1.
<mgrwt>
<rscale>  0 0.28771669E+03</rscale>
<asrwt>0</asrwt>
<pdfrwt beam="1">  1        2 0.15588104E-01 0.28771669E+03</pdfrwt>
<pdfrwt beam="2">  1       -2 0.31423179E-01 0.28771669E+03</pdfrwt>
<totfact> 0.34847461E+03</totfact>
</mgrwt>
</event>
<event>
 9    1  0.8186049E-001  0.2764623E+03  0.7818608E-02  0.1097637E+00
          2   -1    0    0  501    0  0.00000000000E+00  0.00000000000E+00  0.18708460287E+04  0.18708460287E+04  0.00000000000E+00 0.  1.
         -2   -1    0    0    0  501 -0.00000000000E+00 -0.00000000000E+00 -0.10213484014E+02  0.10213484014E+02  0.00000000000E+00 0.  1.
         35    2    1    2    0    0 -0.35527136788E-14  0.00000000000E+00  0.18606325447E+04  0.18810595127E+04  0.27646233744E+03 0.  0.
         25    2    3    3    0    0  0.28581143332E+02  0.52317499197E+02  0.10330067138E+04  0.10420683134E+04  0.12348885153E+03 0.  0.
         25    2    3    3    0    0 -0.28581143332E+02 -0.52317499197E+02  0.82762583085E+03  0.83899119932E+03  0.12404722562E+03 0.  0.
          5    1    4    4  502    0 -0.39045717814E+02  0.46229614173E+01  0.14858441414E+03  0.15377047174E+03  0.47000000000E+01 0. -1.
         -5    1    4    4    0  502  0.67626861145E+02  0.47694537780E+02  0.88442229967E+03  0.88829784163E+03  0.47000000000E+01 0. -1.
          5    1    5    5  503    0 -0.17097869491E+02 -0.30810716819E+02  0.52125824371E+02  0.63093810936E+02  0.47000000000E+01 0.  1.
         -5    1    5    5    0  503 -0.11483273841E+02 -0.21506782378E+02  0.77550000647E+03  0.77589738839E+03  0.47000000000E+01 0.  1.
<mgrwt>
<rscale>  0 0.27646234E+03</rscale>
<asrwt>0</asrwt>
<pdfrwt beam="1">  1        2 0.28782219E+00 0.27646234E+03</pdfrwt>
<pdfrwt beam="2">  1       -2 0.15713067E-02 0.27646234E+03</pdfrwt>
<totfact> 0.95750894E+03</totfact>
</mgrwt>
</event>
<event>
 9    1  0.8186049E-001  0.2768938E+03  0.7818608E-02  0.1097398E+00
          4   -1    0    0  501    0  0.00000000000E+00  0.00000000000E+00  0.12633981786E+03  0.12633981786E+03  0.00000000000E+00 0.  1.
         -4   -1    0    0    0  501 -0.00000000000E+00 -0.00000000000E+00 -0.15171422399E+03  0.15171422399E+03  0.00000000000E+00 0.  1.
         35    2    1    2    0    0 -0.71054273576E-14  0.71054273576E-14 -0.25374406129E+02  0.27805404185E+03  0.27689382388E+03 0.  0.
         25    2    3    3    0    0 -0.25869207000E+02  0.52886975705E+02 -0.54237211777E+01  0.13834775403E+03  0.12507772073E+03 0.  0.
         25    2    3    3    0    0  0.25869207000E+02 -0.52886975705E+02 -0.19950684951E+02  0.13970628783E+03  0.12511422365E+03 0.  0.
          5    1    4    4  502    0 -0.38622194587E+02  0.75613320732E+02 -0.40670943661E+02  0.94261677500E+02  0.47000000000E+01 0. -1.
         -5    1    4    4    0  502  0.12752987587E+02 -0.22726345028E+02  0.35247222483E+02  0.44086076526E+02  0.47000000000E+01 0. -1.
          5    1    5    5  503    0 -0.10712681641E+02  0.19242267615E+02  0.35140516374E+02  0.41736941694E+02  0.47000000000E+01 0. -1.
         -5    1    5    5    0  503  0.36581888641E+02 -0.72129243320E+02 -0.55091201325E+02  0.97969346134E+02  0.47000000000E+01 0. -1.
<mgrwt>
<rscale>  0 0.27689382E+03</rscale>
<asrwt>0</asrwt>
<pdfrwt beam="1">  1        4 0.19436895E-01 0.27689382E+03</pdfrwt>
<pdfrwt beam="2">  1       -4 0.23340650E-01 0.27689382E+03</pdfrwt>
<totfact> 0.75875266E+02</totfact>
</mgrwt>
</event>
<event>
 9    1  0.8186049E-001  0.2730773E+03  0.7818608E-02  0.1099531E+00
          1   -1    0    0  501    0  0.00000000000E+00  0.00000000000E+00  0.24562674155E+04  0.24562674155E+04  0.00000000000E+00 0.  1.
         -1   -1    0    0    0  501 -0.00000000000E+00 -0.00000000000E+00 -0.75898936925E+01  0.75898936925E+01  0.00000000000E+00 0.  1.
         35    2    1    2    0    0  0.00000000000E+00 -0.35527136788E-14  0.24486775218E+04  0.24638573092E+04  0.27307734116E+03 0.  0.
         25    2    3    3    0    0  0.49240603712E+02 -0.20945513728E+02  0.13274167102E+04  0.13343861242E+04  0.12525116496E+03 0.  0.
         25    2    3    3    0    0 -0.49240603712E+02  0.20945513728E+02  0.11212608116E+04  0.11294711849E+04  0.12496398879E+03 0.  0.
          5    1    4    4  502    0 -0.17152646475E+02 -0.57553824415E+02  0.58442296129E+03  0.58751931344E+03  0.47000000000E+01 0.  1.
         -5    1    4    4    0  502  0.66393250188E+02  0.36608310686E+02  0.74299374894E+03  0.74686681078E+03  0.47000000000E+01 0.  1.
          5    1    5    5  503    0 -0.84510334959E+02  0.35300664438E+02  0.62020842371E+03  0.62695192198E+03  0.47000000000E+01 0. -1.
         -5    1    5    5    0  503  0.35269731246E+02 -0.14355150710E+02  0.50105238784E+03  0.50251926297E+03  0.47000000000E+01 0. -1.
<mgrwt>
<rscale>  0 0.27307734E+03</rscale>
<asrwt>0</asrwt>
<pdfrwt beam="1">  1        1 0.37788666E+00 0.27307734E+03</pdfrwt>
<pdfrwt beam="2">  1       -1 0.11676779E-02 0.27307734E+03</pdfrwt>
<totfact> 0.25474225E+03</totfact>
</mgrwt>
</event>
<event>
 9    1  0.8186049E-001  0.2670145E+03  0.7818608E-02  0.1103001E+00
         -2   -1    0    0    0  501 -0.00000000000E+00  0.00000000000E+00  0.13211927771E+02  0.13211927771E+02  0.00000000000E+00 0.  1.
          2   -1    0    0  501    0  0.00000000000E+00 -0.00000000000E+00 -0.13490983219E+04  0.13490983219E+04  0.00000000000E+00 0.  1.
         35    2    1    2    0    0 -0.35527136788E-14 -0.35527136788E-14 -0.13358863941E+04  0.13623102496E+04  0.26701452833E+03 0.  0.
         25    2    3    3    0    0 -0.65829793468E+01  0.16304674109E+02 -0.86702334275E+03  0.87622096798E+03  0.12539748737E+03 0.  0.
         25    2    3    3    0    0  0.65829793468E+01 -0.16304674109E+02 -0.46886305135E+03  0.48608928166E+03  0.12704743528E+03 0.  0.
          5    1    4    4  502    0  0.51603279364E+02  0.29851248302E+02 -0.57571927012E+03  0.57881669245E+03  0.47000000000E+01 0.  1.
         -5    1    4    4    0  502 -0.58186258711E+02 -0.13546574193E+02 -0.29130407263E+03  0.29740427553E+03  0.47000000000E+01 0.  1.
          5    1    5    5  503    0 -0.28210729748E+02  0.39792499779E+02 -0.10028853427E+03  0.11162064512E+03  0.47000000000E+01 0. -1.
         -5    1    5    5    0  503  0.34793709095E+02 -0.56097173888E+02 -0.36857451708E+03  0.37446863654E+03  0.47000000000E+01 0. -1.
<mgrwt>
<rscale>  0 0.26701453E+03</rscale>
<asrwt>0</asrwt>
<pdfrwt beam="1">  1        2 0.20755346E+00 0.26701453E+03</pdfrwt>
<pdfrwt beam="2">  1       -2 0.20326056E-02 0.26701453E+03</pdfrwt>
<totfact> 0.12421474E+04</totfact>
</mgrwt>
</event>
<event>
 8    1  0.8186049E-001  0.3572849E+03  0.7818608E-02  0.1059664E+00
         -2   -1    0    0    0  501 -0.00000000000E+00  0.00000000000E+00  0.14562160913E+03  0.14562160913E+03  0.00000000000E+00 0.  1.
          2   -1    0    0  501    0  0.00000000000E+00 -0.00000000000E+00 -0.21915102536E+03  0.21915102536E+03  0.00000000000E+00 0.  1.
         25    2    1    2    0    0 -0.14072766108E+02 -0.12445190363E+03 -0.71410318649E+01  0.17579706257E+03  0.12315556752E+03 0.  0.
         25    2    1    2    0    0  0.14072766108E+02  0.12445190363E+03 -0.66388384363E+02  0.18897557192E+03  0.12497211746E+03 0.  0.
          5    1    3    3  502    0  0.15274505098E+02 -0.20805935936E+02 -0.52602389459E+02  0.58781790148E+02  0.47000000000E+01 0.  1.
         -5    1    3    3    0  502 -0.29347271206E+02 -0.10364596769E+03  0.45461357594E+02  0.11701527242E+03  0.47000000000E+01 0.  1.
          5    1    4    4  503    0 -0.20955130179E+02  0.87376042984E+02  0.16558867024E+02  0.91487575361E+02  0.47000000000E+01 0.  1.
         -5    1    4    4    0  503  0.35027896287E+02  0.37075860642E+02 -0.82947251386E+02  0.97487996559E+02  0.47000000000E+01 0.  1.
<mgrwt>
<rscale>  0 0.35728490E+03</rscale>
<asrwt>0</asrwt>
<pdfrwt beam="1">  1        2 0.33715542E-01 0.35728490E+03</pdfrwt>
<pdfrwt beam="2">  1       -2 0.22403325E-01 0.35728490E+03</pdfrwt>
<totfact> 0.26711810E+03</totfact>
</mgrwt>
</event>
<event>
 9    1  0.8186049E-001  0.2806934E+03  0.7818608E-02  0.1095311E+00
         -1   -1    0    0    0  501 -0.00000000000E+00  0.00000000000E+00  0.37868439256E+02  0.37868439256E+02  0.00000000000E+00 0. -1.
          1   -1    0    0  501    0  0.00000000000E+00 -0.00000000000E+00 -0.52014817710E+03  0.52014817710E+03  0.00000000000E+00 0. -1.
         35    2    1    2    0    0  0.35527136788E-14  0.00000000000E+00 -0.48227973784E+03  0.55801661635E+03  0.28069342457E+03 0.  0.
         25    2    3    3    0    0  0.20381521418E+02  0.24871232580E+02 -0.13515254248E+03  0.18704362665E+03  0.12524026472E+03 0.  0.
         25    2    3    3    0    0 -0.20381521418E+02 -0.24871232580E+02 -0.34712719535E+03  0.37097298970E+03  0.12684512093E+03 0.  0.
          5    1    4    4  502    0  0.40704015759E+02  0.61139774959E+02 -0.41556261513E+02  0.84521605828E+02  0.47000000000E+01 0. -1.
         -5    1    4    4    0  502 -0.20322494341E+02 -0.36268542379E+02 -0.93596280972E+02  0.10252202083E+03  0.47000000000E+01 0. -1.
          5    1    5    5  503    0  0.23520639677E+02  0.40422424163E+02 -0.83564126592E+02  0.95876202047E+02  0.47000000000E+01 0. -1.
         -5    1    5    5    0  503 -0.43902161095E+02 -0.65293656743E+02 -0.26356306876E+03  0.27509678765E+03  0.47000000000E+01 0. -1.
<mgrwt>
<rscale>  0 0.28069342E+03</rscale>
<asrwt>0</asrwt>
<pdfrwt beam="1">  1        1 0.80022791E-01 0.28069342E+03</pdfrwt>
<pdfrwt beam="2">  1       -1 0.58259141E-02 0.28069342E+03</pdfrwt>
<totfact> 0.59601208E+03</totfact>
</mgrwt>
</event>
<event>
 9    1  0.8186049E-001  0.2721810E+03  0.7818608E-02  0.1100038E+00
         -1   -1    0    0    0  501 -0.00000000000E+00  0.00000000000E+00  0.13306066117E+03  0.13306066117E+03  0.00000000000E+00 0. -1.
          1   -1    0    0  501    0  0.00000000000E+00 -0.00000000000E+00 -0.13918934387E+03  0.13918934387E+03  0.00000000000E+00 0. -1.
         35    2    1    2    0    0  0.00000000000E+00  0.00000000000E+00 -0.61286827017E+01  0.27225000505E+03  0.27218101421E+03 0.  0.
         25    2    3    3    0    0 -0.22531180027E+02  0.43552428251E+02 -0.26163253263E+02  0.13729128530E+03  0.12553849258E+03 0.  0.
         25    2    3    3    0    0  0.22531180027E+02 -0.43552428251E+02  0.20034570561E+02  0.13495871974E+03  0.12412898105E+03 0.  0.
          5    1    4    4  502    0  0.38957849664E+02  0.59259921798E+02 -0.11695793231E+02  0.72030090665E+02  0.47000000000E+01 0. -1.
         -5    1    4    4    0  502 -0.61489029691E+02 -0.15707493547E+02 -0.14467460032E+02  0.65261194638E+02  0.47000000000E+01 0. -1.
          5    1    5    5  503    0 -0.39276888297E+01 -0.72828236653E+02 -0.22770686932E+02  0.76550460331E+02  0.47000000000E+01 0.  1.
         -5    1    5    5    0  503  0.26458868856E+02  0.29275808402E+02  0.42805257493E+02  0.58408259414E+02  0.47000000000E+01 0.  1.
<mgrwt>
<rscale>  0 0.27218101E+03</rscale>
<asrwt>0</asrwt>
<pdfrwt beam="1">  1        1 0.21413745E-01 0.27218101E+03</pdfrwt>
<pdfrwt beam="2">  1       -1 0.20470871E-01 0.27218101E+03</pdfrwt>
<totfact> 0.45036326E+03</totfact>
</mgrwt>
</event>
<event>
 9    1  0.8186049E-001  0.3057553E+03  0.7818608E-02  0.1082398E+00
         -2   -1    0    0    0  501 -0.00000000000E+00  0.00000000000E+00  0.43928200450E+02  0.43928200450E+02  0.00000000000E+00 0. -1.
          2   -1    0    0  501    0  0.00000000000E+00 -0.00000000000E+00 -0.53204034282E+03  0.53204034282E+03  0.00000000000E+00 0. -1.
         35    2    1    2    0    0  0.00000000000E+00 -0.71054273576E-14 -0.48811214237E+03  0.57596854327E+03  0.30575529318E+03 0.  0.
         25    2    3    3    0    0  0.64058577660E+02 -0.37837017799E+02 -0.16103729725E+03  0.21715926858E+03  0.12525971235E+03 0.  0.
         25    2    3    3    0    0 -0.64058577660E+02  0.37837017799E+02 -0.32707484512E+03  0.35880927468E+03  0.12740094193E+03 0.  0.
          5    1    4    4  502    0 -0.21258519141E+02  0.14550091126E+02 -0.91496002154E+02  0.95169523472E+02  0.47000000000E+01 0. -1.
         -5    1    4    4    0  502  0.85317096801E+02 -0.52387108925E+02 -0.69541295098E+02  0.12198974511E+03  0.47000000000E+01 0. -1.
          5    1    5    5  503    0  0.22468760728E+02  0.79481021353E+00 -0.53741636117E+01  0.23589162055E+02  0.47000000000E+01 0. -1.
         -5    1    5    5    0  503 -0.86527338388E+02  0.37042207585E+02 -0.32170068150E+03  0.33522011263E+03  0.47000000000E+01 0. -1.
<mgrwt>
<rscale>  0 0.30575529E+03</rscale>
<asrwt>0</asrwt>
<pdfrwt beam="1">  1        2 0.81852361E-01 0.30575529E+03</pdfrwt>
<pdfrwt beam="2">  1       -2 0.67581847E-02 0.30575529E+03</pdfrwt>
<totfact> 0.71358873E+03</totfact>
</mgrwt>
</event>
<event>
 9    1  0.8186049E-001  0.2755750E+03  0.7818608E-02  0.1098131E+00
         -2   -1    0    0    0  501 -0.00000000000E+00  0.00000000000E+00  0.25575234162E+02  0.25575234162E+02  0.00000000000E+00 0.  1.
          2   -1    0    0  501    0  0.00000000000E+00 -0.00000000000E+00 -0.74233533549E+03  0.74233533549E+03  0.00000000000E+00 0.  1.
         35    2    1    2    0    0  0.00000000000E+00  0.00000000000E+00 -0.71676010133E+03  0.76791056965E+03  0.27557503538E+03 0.  0.
         25    2    3    3    0    0  0.46896913028E+02 -0.22824752531E+02 -0.40718206376E+03  0.42989688381E+03  0.12764720084E+03 0.  0.
         25    2    3    3    0    0 -0.46896913028E+02  0.22824752531E+02 -0.30957803757E+03  0.33801368585E+03  0.12527729520E+03 0.  0.
          5    1    4    4  502    0 -0.37853586877E+01 -0.21670887010E+02 -0.35930630498E+03  0.36000981526E+03  0.47000000000E+01 0. -1.
         -5    1    4    4    0  502  0.50682271716E+02 -0.11538655217E+01 -0.47875758782E+02  0.69887068553E+02  0.47000000000E+01 0. -1.
          5    1    5    5  503    0 -0.66179085454E+01  0.43102529237E+02 -0.28103671768E+03  0.28443866021E+03  0.47000000000E+01 0. -1.
         -5    1    5    5    0  503 -0.40279004483E+02 -0.20277776706E+02 -0.28541319891E+02  0.53575025631E+02  0.47000000000E+01 0. -1.
<mgrwt>
<rscale>  0 0.27557504E+03</rscale>
<asrwt>0</asrwt>
<pdfrwt beam="1">  1        2 0.11420544E+00 0.27557504E+03</pdfrwt>
<pdfrwt beam="2">  1       -2 0.39346511E-02 0.27557504E+03</pdfrwt>
<totfact> 0.10949576E+04</totfact>
</mgrwt>
</event>
<event>
 9    1  0.8186049E-001  0.2751663E+03  0.7818608E-02  0.1098359E+00
         -2   -1    0    0    0  501 -0.00000000000E+00  0.00000000000E+00  0.79274750210E+01  0.79274750210E+01  0.00000000000E+00 0.  1.
          2   -1    0    0  501    0  0.00000000000E+00 -0.00000000000E+00 -0.23877870877E+04  0.23877870877E+04  0.00000000000E+00 0.  1.
         35    2    1    2    0    0  0.71054273576E-14 -0.71054273576E-14 -0.23798596127E+04  0.23957145627E+04  0.27516629513E+03 0.  0.
         25    2    3    3    0    0 -0.24776093503E+02 -0.44285122511E+02 -0.11435294288E+04  0.11520202109E+04  0.13006146608E+03 0.  0.
         25    2    3    3    0    0  0.24776093503E+02  0.44285122511E+02 -0.12363301839E+04  0.12436943518E+04  0.12525290511E+03 0.  0.
          5    1    4    4  502    0 -0.66741299173E+02 -0.35342208241E+02 -0.39103119261E+03  0.39828501892E+03  0.47000000000E+01 0.  1.
         -5    1    4    4    0  502  0.41965205670E+02 -0.89429142702E+01 -0.75249823616E+03  0.75373519198E+03  0.47000000000E+01 0.  1.
          5    1    5    5  503    0 -0.69973253694E+01  0.31811199361E+02 -0.11536821217E+04  0.11541513952E+04  0.47000000000E+01 0. -1.
         -5    1    5    5    0  503  0.31773418872E+02  0.12473923150E+02 -0.82648062186E+02  0.89542956667E+02  0.47000000000E+01 0. -1.
<mgrwt>
<rscale>  0 0.27516630E+03</rscale>
<asrwt>0</asrwt>
<pdfrwt beam="1">  1        2 0.36735232E+00 0.27516630E+03</pdfrwt>
<pdfrwt beam="2">  1       -2 0.12196100E-02 0.27516630E+03</pdfrwt>
<totfact> 0.73716440E+03</totfact>
</mgrwt>
</event>
<event>
 9    1  0.8186049E-001  0.2671510E+03  0.7818608E-02  0.1102921E+00
         -1   -1    0    0    0  501 -0.00000000000E+00  0.00000000000E+00  0.25715568415E+02  0.25715568415E+02  0.00000000000E+00 0.  1.
          1   -1    0    0  501    0  0.00000000000E+00 -0.00000000000E+00 -0.69383694899E+03  0.69383694899E+03  0.00000000000E+00 0.  1.
         35    2    1    2    0    0 -0.71054273576E-14 -0.71054273576E-14 -0.66812138058E+03  0.71955251741E+03  0.26715098002E+03 0.  0.
         25    2    3    3    0    0  0.41100324841E+02  0.17693339059E+02 -0.37656040677E+03  0.39909590998E+03  0.12440865914E+03 0.  0.
         25    2    3    3    0    0 -0.41100324841E+02 -0.17693339059E+02 -0.29156097381E+03  0.32045660742E+03  0.12522916931E+03 0.  0.
          5    1    4    4  502    0  0.24288878840E+02 -0.23939986058E+02 -0.33793019812E+03  0.33967923305E+03  0.47000000000E+01 0. -1.
         -5    1    4    4    0  502  0.16811446001E+02  0.41633325118E+02 -0.38630208653E+02  0.59416676931E+02  0.47000000000E+01 0. -1.
          5    1    5    5  503    0  0.25255367635E+02 -0.25635920339E+02 -0.21783887951E+03  0.22084134901E+03  0.47000000000E+01 0.  1.
         -5    1    5    5    0  503 -0.66355692476E+02  0.79425812798E+01 -0.73722094294E+02  0.99615258412E+02  0.47000000000E+01 0.  1.
<mgrwt>
<rscale>  0 0.26715098E+03</rscale>
<asrwt>0</asrwt>
<pdfrwt beam="1">  1        1 0.10674415E+00 0.26715098E+03</pdfrwt>
<pdfrwt beam="2">  1       -1 0.39562410E-02 0.26715098E+03</pdfrwt>
<totfact> 0.71109172E+03</totfact>
</mgrwt>
</event>
<event>
 9    1  0.8186049E-001  0.2820870E+03  0.7818608E-02  0.1094554E+00
          2   -1    0    0  501    0  0.00000000000E+00  0.00000000000E+00  0.55516099796E+03  0.55516099796E+03  0.00000000000E+00 0.  1.
         -2   -1    0    0    0  501 -0.00000000000E+00 -0.00000000000E+00 -0.35833337834E+02  0.35833337834E+02  0.00000000000E+00 0.  1.
         35    2    1    2    0    0 -0.71054273576E-14  0.00000000000E+00  0.51932766013E+03  0.59099433580E+03  0.28208701914E+03 0.  0.
         25    2    3    3    0    0  0.21560021028E+02  0.36443876484E+02  0.16029363660E+03  0.20786125401E+03  0.12537647444E+03 0.  0.
         25    2    3    3    0    0 -0.21560021028E+02 -0.36443876484E+02  0.35903402353E+03  0.38313308179E+03  0.12685636630E+03 0.  0.
          5    1    4    4  502    0  0.72462854842E+02  0.10083411657E+02  0.74080358154E+02  0.10422346179E+03  0.47000000000E+01 0.  1.
         -5    1    4    4    0  502 -0.50902833814E+02  0.26360464828E+02  0.86213278448E+02  0.10363779222E+03  0.47000000000E+01 0.  1.
          5    1    5    5  503    0  0.16254766986E+02  0.29140613262E+02  0.28884749273E+02  0.44382558867E+02  0.47000000000E+01 0.  1.
         -5    1    5    5    0  503 -0.37814788014E+02 -0.65584489746E+02  0.33014927425E+03  0.33875052292E+03  0.47000000000E+01 0.  1.
<mgrwt>
<rscale>  0 0.28208702E+03</rscale>
<asrwt>0</asrwt>
<pdfrwt beam="1">  1        2 0.85409378E-01 0.28208702E+03</pdfrwt>
<pdfrwt beam="2">  1       -2 0.55128216E-02 0.28208702E+03</pdfrwt>
<totfact> 0.92767187E+03</totfact>
</mgrwt>
</event>
<event>
 9    1  0.8186049E-001  0.2983174E+03  0.7818608E-02  0.1086085E+00
         -2   -1    0    0    0  501 -0.00000000000E+00  0.00000000000E+00  0.48922150513E+03  0.48922150513E+03  0.00000000000E+00 0. -1.
          2   -1    0    0  501    0  0.00000000000E+00 -0.00000000000E+00 -0.45476967344E+02  0.45476967344E+02  0.00000000000E+00 0. -1.
         35    2    1    2    0    0 -0.14210854715E-13  0.35527136788E-14  0.44374453778E+03  0.53469847247E+03  0.29831735057E+03 0.  0.
         25    2    3    3    0    0  0.45318494155E+02 -0.21727556337E+01  0.10255021320E+03  0.16855571722E+03  0.12584115702E+03 0.  0.
         25    2    3    3    0    0 -0.45318494155E+02  0.21727556337E+01  0.34119432458E+03  0.36614275525E+03  0.12485376773E+03 0.  0.
          5    1    4    4  502    0 -0.21696369689E+02  0.45251315480E+02  0.28539098625E+02  0.57922225102E+02  0.47000000000E+01 0. -1.
         -5    1    4    4    0  502  0.67014863845E+02 -0.47424071114E+02  0.74011114573E+02  0.11063349212E+03  0.47000000000E+01 0. -1.
          5    1    5    5  503    0 -0.24648379798E+02 -0.43349968389E+01  0.34295474855E+03  0.34389879962E+03  0.47000000000E+01 0. -1.
         -5    1    5    5    0  503 -0.20670114357E+02  0.65077524727E+01 -0.17604239677E+01  0.22243955636E+02  0.47000000000E+01 0. -1.
<mgrwt>
<rscale>  0 0.29831735E+03</rscale>
<asrwt>0</asrwt>
<pdfrwt beam="1">  1        2 0.69964568E-02 0.29831735E+03</pdfrwt>
<pdfrwt beam="2">  1       -2 0.75264843E-01 0.29831735E+03</pdfrwt>
<totfact> 0.16491425E+03</totfact>
</mgrwt>
</event>
<event>
 9    1  0.8186049E-001  0.3298194E+03  0.7818608E-02  0.1071217E+00
         -2   -1    0    0    0  501 -0.00000000000E+00  0.00000000000E+00  0.23850904899E+03  0.23850904899E+03  0.00000000000E+00 0. -1.
          2   -1    0    0  501    0  0.00000000000E+00 -0.00000000000E+00 -0.11402172188E+03  0.11402172188E+03  0.00000000000E+00 0. -1.
         35    2    1    2    0    0  0.00000000000E+00 -0.35527136788E-14  0.12448732711E+03  0.35253077087E+03  0.32981941998E+03 0.  0.
         25    2    3    3    0    0 -0.10032112603E+03 -0.51010934521E+01  0.99446849132E+02  0.18891677137E+03  0.12533762891E+03 0.  0.
         25    2    3    3    0    0  0.10032112603E+03  0.51010934521E+01  0.25040477973E+02  0.16361399949E+03  0.12669714208E+03 0.  0.
          5    1    4    4  502    0 -0.63756073596E+02  0.30461378656E+02 -0.66248661755E+01  0.71124618535E+02  0.47000000000E+01 0.  1.
         -5    1    4    4    0  502 -0.36565052437E+02 -0.35562472108E+02  0.10607171531E+03  0.11779215284E+03  0.47000000000E+01 0.  1.
          5    1    5    5  503    0 -0.14920815795E+02  0.31346322660E+02 -0.15860575203E+02  0.38456085787E+02  0.47000000000E+01 0. -1.
         -5    1    5    5    0  503  0.11524194183E+03 -0.26245229208E+02  0.40901053177E+02  0.12515791371E+03  0.47000000000E+01 0. -1.
<mgrwt>
<rscale>  0 0.32981942E+03</rscale>
<asrwt>0</asrwt>
<pdfrwt beam="1">  1        2 0.17541803E-01 0.32981942E+03</pdfrwt>
<pdfrwt beam="2">  1       -2 0.36693700E-01 0.32981942E+03</pdfrwt>
<totfact> 0.22806520E+03</totfact>
</mgrwt>
</event>
<event>
 9    1  0.8186049E-001  0.2805577E+03  0.7818608E-02  0.1095385E+00
         -2   -1    0    0    0  501 -0.00000000000E+00  0.00000000000E+00  0.53858976869E+01  0.53858976869E+01  0.00000000000E+00 0. -1.
          2   -1    0    0  501    0  0.00000000000E+00 -0.00000000000E+00 -0.36536440127E+04  0.36536440127E+04  0.00000000000E+00 0. -1.
         35    2    1    2    0    0  0.71054273576E-14  0.00000000000E+00 -0.36482581150E+04  0.36590299104E+04  0.28055767918E+03 0.  0.
         25    2    3    3    0    0 -0.24396523603E+02  0.58928548585E+02 -0.17266036406E+04  0.17323062522E+04  0.12512815614E+03 0.  0.
         25    2    3    3    0    0  0.24396523603E+02 -0.58928548585E+02 -0.19216544744E+04  0.19267236582E+04  0.12425929262E+03 0.  0.
          5    1    4    4  502    0 -0.85341611245E+01 -0.26499345103E+02 -0.11722957832E+03  0.12058155427E+03  0.47000000000E+01 0. -1.
         -5    1    4    4    0  502 -0.15862362478E+02  0.85427893688E+02 -0.16093740623E+04  0.16117246979E+04  0.47000000000E+01 0. -1.
          5    1    5    5  503    0 -0.38913603046E+02 -0.38068924889E+02 -0.41416106314E+03  0.41774991055E+03  0.47000000000E+01 0.  1.
         -5    1    5    5    0  503  0.63310126649E+02 -0.20859623696E+02 -0.15074934113E+04  0.15089737476E+04  0.47000000000E+01 0.  1.
<mgrwt>
<rscale>  0 0.28055768E+03</rscale>
<asrwt>0</asrwt>
<pdfrwt beam="1">  1        2 0.56210109E+00 0.28055768E+03</pdfrwt>
<pdfrwt beam="2">  1       -2 0.82859669E-03 0.28055768E+03</pdfrwt>
<totfact> 0.22342764E+03</totfact>
</mgrwt>
</event>
<event>
 9    1  0.8186049E-001  0.2989917E+03  0.7818608E-02  0.1085746E+00
         -2   -1    0    0    0  501 -0.00000000000E+00  0.00000000000E+00  0.53975490130E+02  0.53975490130E+02  0.00000000000E+00 0. -1.
          2   -1    0    0  501    0  0.00000000000E+00 -0.00000000000E+00 -0.41405837227E+03  0.41405837227E+03  0.00000000000E+00 0. -1.
         35    2    1    2    0    0  0.14210854715E-13  0.00000000000E+00 -0.36008288214E+03  0.46803386240E+03  0.29899166266E+03 0.  0.
         25    2    3    3    0    0 -0.59309248681E+02  0.42934127859E+01 -0.91807732914E+02  0.16570899673E+03  0.12447807599E+03 0.  0.
         25    2    3    3    0    0  0.59309248681E+02 -0.42934127859E+01 -0.26827514922E+03  0.30232486567E+03  0.12606644414E+03 0.  0.
          5    1    4    4  502    0  0.30113482404E+02  0.26062072112E+02 -0.74769570038E+01  0.40792748269E+02  0.47000000000E+01 0.  1.
         -5    1    4    4    0  502 -0.89422731085E+02 -0.21768659326E+02 -0.84330775911E+02  0.12491624846E+03  0.47000000000E+01 0.  1.
          5    1    5    5  503    0  0.41593010926E+02 -0.21692079043E+02 -0.17512794320E+02  0.50292273919E+02  0.47000000000E+01 0. -1.
         -5    1    5    5    0  503  0.17716237755E+02  0.17398666257E+02 -0.25076235490E+03  0.25203259175E+03  0.47000000000E+01 0. -1.
<mgrwt>
<rscale>  0 0.29899166E+03</rscale>
<asrwt>0</asrwt>
<pdfrwt beam="1">  1        2 0.63701285E-01 0.29899166E+03</pdfrwt>
<pdfrwt beam="2">  1       -2 0.83039220E-02 0.29899166E+03</pdfrwt>
<totfact> 0.68363030E+03</totfact>
</mgrwt>
</event>
<event>
 9    1  0.8186049E-001  0.2706503E+03  0.7818608E-02  0.1100908E+00
          2   -1    0    0  501    0  0.00000000000E+00  0.00000000000E+00  0.53559136599E+02  0.53559136599E+02  0.00000000000E+00 0.  1.
         -2   -1    0    0    0  501 -0.00000000000E+00 -0.00000000000E+00 -0.34191929472E+03  0.34191929472E+03  0.00000000000E+00 0.  1.
         35    2    1    2    0    0  0.00000000000E+00  0.00000000000E+00 -0.28836015813E+03  0.39547843132E+03  0.27065034426E+03 0.  0.
         25    2    3    3    0    0  0.18936961175E+02  0.46716373628E+02 -0.15980038185E+03  0.20923790678E+03  0.12531285462E+03 0.  0.
         25    2    3    3    0    0 -0.18936961175E+02 -0.46716373628E+02 -0.12855977628E+03  0.18624052454E+03  0.12496755115E+03 0.  0.
          5    1    4    4  502    0  0.68664696365E+02  0.56259574014E+01 -0.67782962578E+02  0.96763174501E+02  0.47000000000E+01 0.  1.
         -5    1    4    4    0  502 -0.49727735190E+02  0.41090416227E+02 -0.92017419272E+02  0.11247473228E+03  0.47000000000E+01 0.  1.
          5    1    5    5  503    0 -0.61652096630E+02 -0.26131132953E+01 -0.27106611307E+02  0.67562324978E+02  0.47000000000E+01 0. -1.
         -5    1    5    5    0  503  0.42715135455E+02 -0.44103260333E+02 -0.10145316497E+03  0.11867819956E+03  0.47000000000E+01 0. -1.
<mgrwt>
<rscale>  0 0.27065034E+03</rscale>
<asrwt>0</asrwt>
<pdfrwt beam="1">  1        2 0.82398674E-02 0.27065034E+03</pdfrwt>
<pdfrwt beam="2">  1       -2 0.52602967E-01 0.27065034E+03</pdfrwt>
<totfact> 0.28266998E+03</totfact>
</mgrwt>
</event>
<event>
 9    1  0.8186049E-001  0.2851472E+03  0.7818608E-02  0.1092910E+00
          1   -1    0    0  501    0  0.00000000000E+00  0.00000000000E+00  0.24654694130E+04  0.24654694130E+04  0.00000000000E+00 0. -1.
         -1   -1    0    0    0  501 -0.00000000000E+00 -0.00000000000E+00 -0.82447713320E+01  0.82447713320E+01  0.00000000000E+00 0. -1.
         35    2    1    2    0    0  0.00000000000E+00  0.71054273576E-14  0.24572246416E+04  0.24737141843E+04  0.28514720083E+03 0.  0.
         25    2    3    3    0    0  0.49610619769E+02  0.27054094850E+02  0.15646025783E+04  0.15707402947E+04  0.12669138796E+03 0.  0.
         25    2    3    3    0    0 -0.49610619769E+02 -0.27054094850E+02  0.89262206330E+03  0.90297388955E+03  0.12407481481E+03 0.  0.
          5    1    4    4  502    0  0.61980261834E+02 -0.34291038569E+02  0.10351730056E+04  0.10376042935E+04  0.47000000000E+01 0.  1.
         -5    1    4    4    0  502 -0.12369642065E+02  0.61345133419E+02  0.52942957268E+03  0.53313600129E+03  0.47000000000E+01 0.  1.
          5    1    5    5  503    0  0.12271471173E+02  0.41021095906E+02  0.23264475220E+03  0.23659879552E+03  0.47000000000E+01 0. -1.
         -5    1    5    5    0  503 -0.61882090942E+02 -0.68075190756E+02  0.65997731110E+03  0.66637509403E+03  0.47000000000E+01 0. -1.
<mgrwt>
<rscale>  0 0.28514720E+03</rscale>
<asrwt>0</asrwt>
<pdfrwt beam="1">  1        1 0.37930240E+00 0.28514720E+03</pdfrwt>
<pdfrwt beam="2">  1       -1 0.12684283E-02 0.28514720E+03</pdfrwt>
<totfact> 0.22259056E+03</totfact>
</mgrwt>
</event>
<event>
 9    1  0.8186049E-001  0.2748465E+03  0.7818608E-02  0.1098537E+00
         -2   -1    0    0    0  501 -0.00000000000E+00  0.00000000000E+00  0.12682749137E+02  0.12682749137E+02  0.00000000000E+00 0. -1.
          2   -1    0    0  501    0  0.00000000000E+00 -0.00000000000E+00 -0.14890419134E+04  0.14890419134E+04  0.00000000000E+00 0. -1.
         35    2    1    2    0    0 -0.14210854715E-13 -0.71054273576E-14 -0.14763591643E+04  0.15017246626E+04  0.27484646654E+03 0.  0.
         25    2    3    3    0    0  0.39133874210E+02  0.16449768013E+02 -0.96390425084E+03  0.97291295065E+03  0.12508457051E+03 0.  0.
         25    2    3    3    0    0 -0.39133874210E+02 -0.16449768013E+02 -0.51245491344E+03  0.52881171190E+03  0.12340880584E+03 0.  0.
          5    1    4    4  502    0  0.70500989843E+02 -0.28207132313E+02 -0.49339368702E+03  0.49922485142E+03  0.47000000000E+01 0. -1.
         -5    1    4    4    0  502 -0.31367115633E+02  0.44656900326E+02 -0.47051056381E+03  0.47368809923E+03  0.47000000000E+01 0. -1.
          5    1    5    5  503    0 -0.41281339611E+02 -0.67437041625E+02 -0.30403278779E+03  0.31418136424E+03  0.47000000000E+01 0. -1.
         -5    1    5    5    0  503  0.21474654017E+01  0.50987273612E+02 -0.20842212565E+03  0.21463034766E+03  0.47000000000E+01 0. -1.
<mgrwt>
<rscale>  0 0.27484647E+03</rscale>
<asrwt>0</asrwt>
<pdfrwt beam="1">  1        2 0.22908320E+00 0.27484647E+03</pdfrwt>
<pdfrwt beam="2">  1       -2 0.19511936E-02 0.27484647E+03</pdfrwt>
<totfact> 0.11087438E+04</totfact>
</mgrwt>
</event>
<event>
 9    1  0.8186049E-001  0.2729108E+03  0.7818608E-02  0.1099625E+00
          2   -1    0    0  501    0  0.00000000000E+00  0.00000000000E+00  0.87595543234E+02  0.87595543234E+02  0.00000000000E+00 0.  1.
         -2   -1    0    0    0  501 -0.00000000000E+00 -0.00000000000E+00 -0.21256879246E+03  0.21256879246E+03  0.00000000000E+00 0.  1.
         35    2    1    2    0    0  0.00000000000E+00  0.10658141036E-13 -0.12497324923E+03  0.30016433569E+03  0.27291081950E+03 0.  0.
         25    2    3    3    0    0 -0.18709530526E+02 -0.28390432145E+02 -0.11187539475E+03  0.17016162050E+03  0.12362366266E+03 0.  0.
         25    2    3    3    0    0  0.18709530526E+02  0.28390432145E+02 -0.13097854472E+02  0.13000271519E+03  0.12479218323E+03 0.  0.
          5    1    4    4  502    0 -0.13586998537E+02 -0.65721381647E+02 -0.11373591679E+03  0.13214331350E+03  0.47000000000E+01 0. -1.
         -5    1    4    4    0  502 -0.51225319886E+01  0.37330949502E+02  0.18605220374E+01  0.38018306997E+02  0.47000000000E+01 0. -1.
          5    1    5    5  503    0 -0.31428167746E+01  0.29938254828E+02  0.52491025827E+02  0.60692455806E+02  0.47000000000E+01 0.  1.
         -5    1    5    5    0  503  0.21852347301E+02 -0.15478226830E+01 -0.65588880299E+02  0.69310259388E+02  0.47000000000E+01 0.  1.
<mgrwt>
<rscale>  0 0.27291082E+03</rscale>
<asrwt>0</asrwt>
<pdfrwt beam="1">  1        2 0.13476237E-01 0.27291082E+03</pdfrwt>
<pdfrwt beam="2">  1       -2 0.32702891E-01 0.27291082E+03</pdfrwt>
<totfact> 0.38453747E+03</totfact>
</mgrwt>
</event>
<event>
 9    1  0.8186049E-001  0.2729650E+03  0.7818608E-02  0.1099595E+00
          2   -1    0    0  501    0  0.00000000000E+00  0.00000000000E+00  0.54498489674E+03  0.54498489674E+03  0.00000000000E+00 0.  1.
         -2   -1    0    0    0  501 -0.00000000000E+00 -0.00000000000E+00 -0.34179805909E+02  0.34179805909E+02  0.00000000000E+00 0.  1.
         35    2    1    2    0    0  0.17763568394E-14 -0.71054273576E-14  0.51080509083E+03  0.57916470265E+03  0.27296503801E+03 0.  0.
         25    2    3    3    0    0 -0.10313061501E+02 -0.42075884495E+02  0.33081657725E+03  0.35644179587E+03  0.12543686366E+03 0.  0.
         25    2    3    3    0    0  0.10313061501E+02  0.42075884495E+02  0.17998851358E+03  0.22272290678E+03  0.12382604286E+03 0.  0.
          5    1    4    4  502    0 -0.50067418160E+02 -0.67511589059E+02  0.23280514420E+03  0.24755784412E+03  0.47000000000E+01 0.  1.
         -5    1    4    4    0  502  0.39754356659E+02  0.25435704564E+02  0.98011433052E+02  0.10888395175E+03  0.47000000000E+01 0.  1.
          5    1    5    5  503    0 -0.53931318239E-01  0.68278616374E+02  0.18164088588E+03  0.19410686177E+03  0.47000000000E+01 0.  1.
         -5    1    5    5    0  503  0.10366992819E+02 -0.26202731879E+02 -0.16523722984E+01  0.28616045014E+02  0.47000000000E+01 0.  1.
<mgrwt>
<rscale>  0 0.27296504E+03</rscale>
<asrwt>0</asrwt>
<pdfrwt beam="1">  1        2 0.83843824E-01 0.27296504E+03</pdfrwt>
<pdfrwt beam="2">  1       -2 0.52584321E-02 0.27296504E+03</pdfrwt>
<totfact> 0.10169823E+04</totfact>
</mgrwt>
</event>
<event>
 9    1  0.8186049E-001  0.2745233E+03  0.7818608E-02  0.1098718E+00
          2   -1    0    0  501    0  0.00000000000E+00  0.00000000000E+00  0.95464663562E+03  0.95464663562E+03  0.00000000000E+00 0. -1.
         -2   -1    0    0    0  501 -0.00000000000E+00 -0.00000000000E+00 -0.19735844002E+02  0.19735844002E+02  0.00000000000E+00 0. -1.
         35    2    1    2    0    0  0.00000000000E+00  0.00000000000E+00  0.93491079162E+03  0.97438247962E+03  0.27452327462E+03 0.  0.
         25    2    3    3    0    0 -0.19823373647E+02 -0.41333088080E+02  0.35286404855E+03  0.37727909297E+03  0.12539970862E+03 0.  0.
         25    2    3    3    0    0  0.19823373647E+02  0.41333088080E+02  0.58204674307E+03  0.59710338665E+03  0.12511056278E+03 0.  0.
          5    1    4    4  502    0 -0.62945104125E+02  0.15651526904E+01  0.24846289044E+03  0.25635996911E+03  0.47000000000E+01 0.  1.
         -5    1    4    4    0  502  0.43121730478E+02 -0.42898240770E+02  0.10440115810E+03  0.12091912385E+03  0.47000000000E+01 0.  1.
          5    1    5    5  503    0  0.56836020340E+02  0.66596970849E+02  0.35911161080E+03  0.36966028830E+03  0.47000000000E+01 0. -1.
         -5    1    5    5    0  503 -0.37012646693E+02 -0.25263882769E+02  0.22293513227E+03  0.22744309836E+03  0.47000000000E+01 0. -1.
<mgrwt>
<rscale>  0 0.27452327E+03</rscale>
<asrwt>0</asrwt>
<pdfrwt beam="1">  1        2 0.14686868E+00 0.27452327E+03</pdfrwt>
<pdfrwt beam="2">  1       -2 0.30362844E-02 0.27452327E+03</pdfrwt>
<totfact> 0.11626490E+04</totfact>
</mgrwt>
</event>
<event>
 9    1  0.8186049E-001  0.2672386E+03  0.7818608E-02  0.1102871E+00
          2   -1    0    0  501    0  0.00000000000E+00  0.00000000000E+00  0.18271263455E+04  0.18271263455E+04  0.00000000000E+00 0.  1.
         -2   -1    0    0    0  501 -0.00000000000E+00 -0.00000000000E+00 -0.97716923845E+01  0.97716923845E+01  0.00000000000E+00 0.  1.
         35    2    1    2    0    0  0.00000000000E+00  0.35527136788E-14  0.18173546531E+04  0.18368980378E+04  0.26723859448E+03 0.  0.
         25    2    3    3    0    0  0.44839116643E+02  0.63472160136E+01  0.10091563058E+04  0.10178261055E+04  0.12459012010E+03 0.  0.
         25    2    3    3    0    0 -0.44839116643E+02 -0.63472160136E+01  0.80819834725E+03  0.81907193229E+03  0.12507369123E+03 0.  0.
          5    1    4    4  502    0 -0.40558474882E+02  0.20739604142E+02  0.36078919426E+03  0.36368400261E+03  0.47000000000E+01 0. -1.
         -5    1    4    4    0  502  0.85397591525E+02 -0.14392388129E+02  0.64836711156E+03  0.65414210293E+03  0.47000000000E+01 0. -1.
          5    1    5    5  503    0 -0.51805978219E+02  0.16875221835E+02  0.13832015335E+03  0.14873865440E+03  0.47000000000E+01 0.  1.
         -5    1    5    5    0  503  0.69668615758E+01 -0.23222437849E+02  0.66987819390E+03  0.67033327789E+03  0.47000000000E+01 0.  1.
<mgrwt>
<rscale>  0 0.26723859E+03</rscale>
<asrwt>0</asrwt>
<pdfrwt beam="1">  1        2 0.28109609E+00 0.26723859E+03</pdfrwt>
<pdfrwt beam="2">  1       -2 0.15033387E-02 0.26723859E+03</pdfrwt>
<totfact> 0.10763807E+04</totfact>
</mgrwt>
</event>
<event>
 9    1  0.8186049E-001  0.2819370E+03  0.7818608E-02  0.1094636E+00
         -1   -1    0    0    0  501 -0.00000000000E+00  0.00000000000E+00  0.55562082203E+02  0.55562082203E+02  0.00000000000E+00 0. -1.
          1   -1    0    0  501    0  0.00000000000E+00 -0.00000000000E+00 -0.35765614903E+03  0.35765614903E+03  0.00000000000E+00 0. -1.
         35    2    1    2    0    0 -0.71054273576E-14  0.00000000000E+00 -0.30209406683E+03  0.41321823124E+03  0.28193701675E+03 0.  0.
         25    2    3    3    0    0  0.21186863089E+02  0.73458671656E+02 -0.13944239481E+03  0.20147527040E+03  0.12370547079E+03 0.  0.
         25    2    3    3    0    0 -0.21186863089E+02 -0.73458671656E+02 -0.16265167202E+03  0.21174296083E+03  0.11195738227E+03 0.  0.
          5    1    4    4  502    0 -0.94136933655E+01  0.86714006854E+02 -0.39229436691E+02  0.95754766516E+02  0.47000000000E+01 0. -1.
         -5    1    4    4    0  502  0.30600556455E+02 -0.13255335199E+02 -0.10021295812E+03  0.10572050389E+03  0.47000000000E+01 0. -1.
          5    1    5    5  503    0 -0.36722325254E+02 -0.25894853499E+02 -0.40398738874E+01  0.45359488432E+02  0.47000000000E+01 0.  1.
         -5    1    5    5    0  503  0.15535462165E+02 -0.47563818157E+02 -0.15861179813E+03  0.16638347240E+03  0.47000000000E+01 0.  1.
<mgrwt>
<rscale>  0 0.28193702E+03</rscale>
<asrwt>0</asrwt>
<pdfrwt beam="1">  1        1 0.55024023E-01 0.28193702E+03</pdfrwt>
<pdfrwt beam="2">  1       -1 0.85480127E-02 0.28193702E+03</pdfrwt>
<totfact> 0.54154136E+03</totfact>
</mgrwt>
</event>
<event>
 9    1  0.8186049E-001  0.2793311E+03  0.7818608E-02  0.1096055E+00
          1   -1    0    0  501    0  0.00000000000E+00  0.00000000000E+00  0.58446231816E+03  0.58446231816E+03  0.00000000000E+00 0.  1.
         -1   -1    0    0    0  501 -0.00000000000E+00 -0.00000000000E+00 -0.33375063787E+02  0.33375063787E+02  0.00000000000E+00 0.  1.
         35    2    1    2    0    0 -0.53290705182E-14  0.71054273576E-14  0.55108725437E+03  0.61783738195E+03  0.27933110926E+03 0.  0.
         25    2    3    3    0    0  0.14781470259E+02 -0.53900356890E+02  0.19661146781E+03  0.23771723958E+03  0.12136587816E+03 0.  0.
         25    2    3    3    0    0 -0.14781470259E+02  0.53900356890E+02  0.35447578656E+03  0.38012014237E+03  0.12535748498E+03 0.  0.
          5    1    4    4  502    0  0.18125574214E+02 -0.50633680426E+02  0.21316021899E+03  0.21989014301E+03  0.47000000000E+01 0.  1.
         -5    1    4    4    0  502 -0.33441039547E+01 -0.32666764644E+01 -0.16548751180E+02  0.17827096566E+02  0.47000000000E+01 0.  1.
          5    1    5    5  503    0  0.51660515023E+02  0.32655661875E+02  0.11094091171E+03  0.12674847911E+03  0.47000000000E+01 0. -1.
         -5    1    5    5    0  503 -0.66441985282E+02  0.21244695015E+02  0.24353487485E+03  0.25337166326E+03  0.47000000000E+01 0. -1.
<mgrwt>
<rscale>  0 0.27933111E+03</rscale>
<asrwt>0</asrwt>
<pdfrwt beam="1">  1        1 0.89917272E-01 0.27933111E+03</pdfrwt>
<pdfrwt beam="2">  1       -1 0.51346257E-02 0.27933111E+03</pdfrwt>
<totfact> 0.61496617E+03</totfact>
</mgrwt>
</event>
<event>
 9    1  0.8186049E-001  0.2717407E+03  0.7818608E-02  0.1100287E+00
         -2   -1    0    0    0  501 -0.00000000000E+00  0.00000000000E+00  0.77331673092E+03  0.77331673092E+03  0.00000000000E+00 0. -1.
          2   -1    0    0  501    0  0.00000000000E+00 -0.00000000000E+00 -0.23872169477E+02  0.23872169477E+02  0.00000000000E+00 0. -1.
         35    2    1    2    0    0  0.17763568394E-14 -0.14210854715E-13  0.74944456144E+03  0.79718890039E+03  0.27174067093E+03 0.  0.
         25    2    3    3    0    0  0.71375767565E+01 -0.49804001301E+02  0.33051024942E+03  0.35714935979E+03  0.12564735047E+03 0.  0.
         25    2    3    3    0    0 -0.71375767565E+01  0.49804001301E+02  0.41893431202E+03  0.44003954060E+03  0.12488977524E+03 0.  0.
          5    1    4    4  502    0 -0.52958778855E+02 -0.50701561751E+02  0.15397084169E+03  0.17060009001E+03  0.47000000000E+01 0. -1.
         -5    1    4    4    0  502  0.60096355612E+02  0.89756044973E+00  0.17653940773E+03  0.18654926978E+03  0.47000000000E+01 0. -1.
          5    1    5    5  503    0 -0.48677483942E+01  0.91611162516E+02  0.26637624375E+03  0.28177063954E+03  0.47000000000E+01 0. -1.
         -5    1    5    5    0  503 -0.22698283623E+01 -0.41807161215E+02  0.15255806827E+03  0.15826890106E+03  0.47000000000E+01 0. -1.
<mgrwt>
<rscale>  0 0.27174067E+03</rscale>
<asrwt>0</asrwt>
<pdfrwt beam="1">  1        2 0.36726421E-02 0.27174067E+03</pdfrwt>
<pdfrwt beam="2">  1       -2 0.11897179E+00 0.27174067E+03</pdfrwt>
<totfact> 0.13481763E+03</totfact>
</mgrwt>
</event>
<event>
 9    1  0.8186049E-001  0.2782805E+03  0.7818608E-02  0.1096632E+00
          1   -1    0    0  501    0  0.00000000000E+00  0.00000000000E+00  0.46495715943E+03  0.46495715943E+03  0.00000000000E+00 0.  1.
         -1   -1    0    0    0  501 -0.00000000000E+00 -0.00000000000E+00 -0.41638249520E+02  0.41638249520E+02  0.00000000000E+00 0.  1.
         35    2    1    2    0    0 -0.35527136788E-14  0.14210854715E-13  0.42331890991E+03  0.50659540895E+03  0.27828045005E+03 0.  0.
         25    2    3    3    0    0 -0.23889881638E+02  0.53271511339E+02  0.21213302171E+03  0.25351092675E+03  0.12593169068E+03 0.  0.
         25    2    3    3    0    0  0.23889881638E+02 -0.53271511339E+02  0.21118588820E+03  0.25308448220E+03  0.12666370984E+03 0.  0.
          5    1    4    4  502    0  0.21855650297E+01 -0.16284034941E+02  0.16396564890E+03  0.16485378524E+03  0.47000000000E+01 0.  1.
         -5    1    4    4    0  502 -0.26075446668E+02  0.69555546280E+02  0.48167372808E+02  0.88657141508E+02  0.47000000000E+01 0.  1.
          5    1    5    5  503    0  0.52381148041E+02 -0.79248986751E+02  0.11426333503E+03  0.14866871326E+03  0.47000000000E+01 0. -1.
         -5    1    5    5    0  503 -0.28491266403E+02  0.25977475412E+02  0.96922553166E+02  0.10441576894E+03  0.47000000000E+01 0. -1.
<mgrwt>
<rscale>  0 0.27828045E+03</rscale>
<asrwt>0</asrwt>
<pdfrwt beam="1">  1        1 0.71531867E-01 0.27828045E+03</pdfrwt>
<pdfrwt beam="2">  1       -1 0.64058849E-02 0.27828045E+03</pdfrwt>
<totfact> 0.59905672E+03</totfact>
</mgrwt>
</event>
<event>
 9    1  0.8186049E-001  0.2758550E+03  0.7818608E-02  0.1097975E+00
          2   -1    0    0  501    0  0.00000000000E+00  0.00000000000E+00  0.90231148502E+02  0.90231148502E+02  0.00000000000E+00 0. -1.
         -2   -1    0    0    0  501 -0.00000000000E+00 -0.00000000000E+00 -0.21083616359E+03  0.21083616359E+03  0.00000000000E+00 0. -1.
         35    2    1    2    0    0 -0.71054273576E-14  0.00000000000E+00 -0.12060501509E+03  0.30106731209E+03  0.27585495599E+03 0.  0.
         25    2    3    3    0    0  0.53141946420E+02  0.35592223816E+00 -0.34263782369E+02  0.13987537739E+03  0.12476746879E+03 0.  0.
         25    2    3    3    0    0 -0.53141946420E+02 -0.35592223816E+00 -0.86341232720E+02  0.16119193470E+03  0.12531495599E+03 0.  0.
          5    1    4    4  502    0  0.55857833960E+02  0.53377310204E+02 -0.17120030004E+01  0.77422579482E+02  0.47000000000E+01 0.  1.
         -5    1    4    4    0  502 -0.27158875398E+01 -0.53021387966E+02 -0.32551779369E+02  0.62452797912E+02  0.47000000000E+01 0.  1.
          5    1    5    5  503    0 -0.37673267967E+01  0.50640988925E+02 -0.22511590104E+01  0.51047627050E+02  0.47000000000E+01 0.  1.
         -5    1    5    5    0  503 -0.49374619624E+02 -0.50996911163E+02 -0.84090073710E+02  0.11014430765E+03  0.47000000000E+01 0.  1.
<mgrwt>
<rscale>  0 0.27585496E+03</rscale>
<asrwt>0</asrwt>
<pdfrwt beam="1">  1        2 0.13881715E-01 0.27585496E+03</pdfrwt>
<pdfrwt beam="2">  1       -2 0.32436332E-01 0.27585496E+03</pdfrwt>
<totfact> 0.37687986E+03</totfact>
</mgrwt>
</event>
<event>
 9    1  0.8186049E-001  0.2901612E+03  0.7818608E-02  0.1090265E+00
          2   -1    0    0  501    0  0.00000000000E+00  0.00000000000E+00  0.10665136049E+04  0.10665136049E+04  0.00000000000E+00 0. -1.
         -2   -1    0    0    0  501 -0.00000000000E+00 -0.00000000000E+00 -0.19735693427E+02  0.19735693427E+02  0.00000000000E+00 0. -1.
         35    2    1    2    0    0  0.35527136788E-14  0.00000000000E+00  0.10467779115E+04  0.10862492983E+04  0.29016123478E+03 0.  0.
         25    2    3    3    0    0 -0.88071289509E+01  0.71710568925E+02  0.45772576750E+03  0.47986322024E+03  0.12464293274E+03 0.  0.
         25    2    3    3    0    0  0.88071289509E+01 -0.71710568925E+02  0.58905214397E+03  0.60638607809E+03  0.12450572746E+03 0.  0.
          5    1    4    4  502    0 -0.31561230823E+02  0.88301012443E+02  0.42976780134E+03  0.43990411814E+03  0.47000000000E+01 0. -1.
         -5    1    4    4    0  502  0.22754101872E+02 -0.16590443518E+02  0.27957966164E+02  0.39959102094E+02  0.47000000000E+01 0. -1.
          5    1    5    5  503    0  0.33360927249E+02 -0.11177126810E+02  0.40151519214E+02  0.53592108802E+02  0.47000000000E+01 0.  1.
         -5    1    5    5    0  503 -0.24553798298E+02 -0.60533442115E+02  0.54890062476E+03  0.55279396929E+03  0.47000000000E+01 0.  1.
<mgrwt>
<rscale>  0 0.29016123E+03</rscale>
<asrwt>0</asrwt>
<pdfrwt beam="1">  1        2 0.16407897E+00 0.29016123E+03</pdfrwt>
<pdfrwt beam="2">  1       -2 0.30362614E-02 0.29016123E+03</pdfrwt>
<totfact> 0.99502790E+03</totfact>
</mgrwt>
</event>
<event>
 9    1  0.8186049E-001  0.2754495E+03  0.7818608E-02  0.1098201E+00
          3   -1    0    0  501    0  0.00000000000E+00  0.00000000000E+00  0.36978752723E+03  0.36978752723E+03  0.00000000000E+00 0.  1.
         -3   -1    0    0    0  501 -0.00000000000E+00 -0.00000000000E+00 -0.51294601852E+02  0.51294601852E+02  0.00000000000E+00 0.  1.
         35    2    1    2    0    0 -0.71054273576E-14  0.44408920985E-14  0.31849292538E+03  0.42108212908E+03  0.27544947979E+03 0.  0.
         25    2    3    3    0    0  0.55723333493E+02 -0.23410298988E+01  0.13619022349E+03  0.19355495227E+03  0.12571862335E+03 0.  0.
         25    2    3    3    0    0 -0.55723333493E+02  0.23410298988E+01  0.18230270189E+03  0.22752717681E+03  0.12419247463E+03 0.  0.
          5    1    4    4  502    0  0.46368172061E+02 -0.12434396616E-02 -0.94215564649E+01  0.47548534236E+02  0.47000000000E+01 0.  1.
         -5    1    4    4    0  502  0.93551614322E+01 -0.23397864592E+01  0.14561177995E+03  0.14600641803E+03  0.47000000000E+01 0.  1.
          5    1    5    5  503    0 -0.45682102318E+01 -0.48165408972E+02  0.12916607171E+03  0.13800992445E+03  0.47000000000E+01 0. -1.
         -5    1    5    5    0  503 -0.51155123261E+02  0.50506438871E+02  0.53136630180E+02  0.89517252361E+02  0.47000000000E+01 0. -1.
<mgrwt>
<rscale>  0 0.27544948E+03</rscale>
<asrwt>0</asrwt>
<pdfrwt beam="1">  1        3 0.56890387E-01 0.27544948E+03</pdfrwt>
<pdfrwt beam="2">  1       -3 0.78914774E-02 0.27544948E+03</pdfrwt>
<totfact> 0.85265160E+02</totfact>
</mgrwt>
</event>
<event>
 9    1  0.8186049E-001  0.2744818E+03  0.7818608E-02  0.1098742E+00
          4   -1    0    0  501    0  0.00000000000E+00  0.00000000000E+00  0.45883753460E+03  0.45883753460E+03  0.00000000000E+00 0.  1.
         -4   -1    0    0    0  501 -0.00000000000E+00 -0.00000000000E+00 -0.41049514129E+02  0.41049514129E+02  0.00000000000E+00 0.  1.
         35    2    1    2    0    0  0.21316282073E-13 -0.35527136788E-14  0.41778802047E+03  0.49988704873E+03  0.27448175064E+03 0.  0.
         25    2    3    3    0    0 -0.52466530474E+02 -0.14081194148E+02  0.23697607586E+03  0.27295597012E+03  0.12408176436E+03 0.  0.
         25    2    3    3    0    0  0.52466530474E+02  0.14081194148E+02  0.18081194461E+03  0.22693107860E+03  0.12591162883E+03 0.  0.
          5    1    4    4  502    0  0.39375517004E+02  0.89324197228E+01  0.69993994474E+02  0.80941143579E+02  0.47000000000E+01 0. -1.
         -5    1    4    4    0  502 -0.91842047478E+02 -0.23013613870E+02  0.16698208139E+03  0.19201482654E+03  0.47000000000E+01 0. -1.
          5    1    5    5  503    0 -0.27402575427E+02 -0.18856373382E+02  0.93421492129E+01  0.34868749749E+02  0.47000000000E+01 0. -1.
         -5    1    5    5    0  503  0.79869105900E+02  0.32937567530E+02  0.17146979539E+03  0.19206232885E+03  0.47000000000E+01 0. -1.
<mgrwt>
<rscale>  0 0.27448175E+03</rscale>
<asrwt>0</asrwt>
<pdfrwt beam="1">  1        4 0.70590387E-01 0.27448175E+03</pdfrwt>
<pdfrwt beam="2">  1       -4 0.63153102E-02 0.27448175E+03</pdfrwt>
<totfact> 0.57229114E+02</totfact>
</mgrwt>
</event>
<event>
 9    1  0.8186049E-001  0.2712185E+03  0.7818608E-02  0.1100584E+00
         -2   -1    0    0    0  501 -0.00000000000E+00  0.00000000000E+00  0.19238803274E+02  0.19238803274E+02  0.00000000000E+00 0. -1.
          2   -1    0    0  501    0  0.00000000000E+00 -0.00000000000E+00 -0.95587411639E+03  0.95587411639E+03  0.00000000000E+00 0. -1.
         35    2    1    2    0    0  0.14210854715E-13 -0.71054273576E-14 -0.93663531312E+03  0.97511291967E+03  0.27121853978E+03 0.  0.
         25    2    3    3    0    0  0.40212592641E+02 -0.35984694549E+02 -0.49095033848E+03  0.50944781451E+03  0.12487149396E+03 0.  0.
         25    2    3    3    0    0 -0.40212592641E+02  0.35984694549E+02 -0.44568497464E+03  0.46566510516E+03  0.12368080973E+03 0.  0.
          5    1    4    4  502    0  0.27043929521E+01 -0.44439967723E+02 -0.45304376136E+03  0.45525044117E+03  0.47000000000E+01 0.  1.
         -5    1    4    4    0  502  0.37508199689E+02  0.84552731735E+01 -0.37906577116E+02  0.54197373341E+02  0.47000000000E+01 0.  1.
          5    1    5    5  503    0 -0.24287958221E+02  0.80030333822E+02 -0.22677171040E+03  0.24174833584E+03  0.47000000000E+01 0. -1.
         -5    1    5    5    0  503 -0.15924634420E+02 -0.44045639273E+02 -0.21891326424E+03  0.22391676932E+03  0.47000000000E+01 0. -1.
<mgrwt>
<rscale>  0 0.27121854E+03</rscale>
<asrwt>0</asrwt>
<pdfrwt beam="1">  1        2 0.14705754E+00 0.27121854E+03</pdfrwt>
<pdfrwt beam="2">  1       -2 0.29598161E-02 0.27121854E+03</pdfrwt>
<totfact> 0.12050096E+04</totfact>
</mgrwt>
</event>
<event>
 9    1  0.8186049E-001  0.2749595E+03  0.7818608E-02  0.1098474E+00
          1   -1    0    0  501    0  0.00000000000E+00  0.00000000000E+00  0.17427725151E+02  0.17427725151E+02  0.00000000000E+00 0.  1.
         -3   -1    0    0    0  501 -0.00000000000E+00 -0.00000000000E+00 -0.10845178796E+04  0.10845178796E+04  0.00000000000E+00 0.  1.
         35    2    1    2    0    0  0.00000000000E+00  0.71054273576E-14 -0.10670901544E+04  0.11019456047E+04  0.27495948448E+03 0.  0.
         25    2    3    3    0    0 -0.42389370420E+02  0.27073227368E+02 -0.64265800577E+03  0.65669100515E+03  0.12531538412E+03 0.  0.
         25    2    3    3    0    0  0.42389370420E+02 -0.27073227368E+02 -0.42443214864E+03  0.44525459956E+03  0.12481663058E+03 0.  0.
          5    1    4    4  502    0 -0.47737186707E+01  0.58445727721E+02 -0.53612639289E+03  0.53934431547E+03  0.47000000000E+01 0.  1.
         -5    1    4    4    0  502 -0.37615651749E+02 -0.31372500353E+02 -0.10653161288E+03  0.11734668968E+03  0.47000000000E+01 0.  1.
          5    1    5    5  503    0  0.77774047320E+01  0.43391033942E+02 -0.75362389199E+02  0.87434830341E+02  0.47000000000E+01 0.  1.
         -5    1    5    5    0  503  0.34611965688E+02 -0.70464261310E+02 -0.34906975944E+03  0.35781976922E+03  0.47000000000E+01 0.  1.
<mgrwt>
<rscale>  0 0.27495948E+03</rscale>
<asrwt>0</asrwt>
<pdfrwt beam="1">  1        1 0.26811881E-02 0.27495948E+03</pdfrwt>
<pdfrwt beam="2">  1       -3 0.16684893E+00 0.27495948E+03</pdfrwt>
<totfact> 0.55133387E+02</totfact>
</mgrwt>
</event>
<event>
 9    1  0.8186049E-001  0.2727409E+03  0.7818608E-02  0.1099721E+00
         -2   -1    0    0    0  501 -0.00000000000E+00  0.00000000000E+00  0.40852311270E+02  0.40852311270E+02  0.00000000000E+00 0. -1.
          2   -1    0    0  501    0  0.00000000000E+00 -0.00000000000E+00 -0.45522262838E+03  0.45522262838E+03  0.00000000000E+00 0. -1.
         35    2    1    2    0    0  0.71054273576E-14 -0.71054273576E-14 -0.41437031710E+03  0.49607493965E+03  0.27274087711E+03 0.  0.
         25    2    3    3    0    0 -0.40716625548E+02 -0.24212800125E+02 -0.25602699016E+03  0.28893043343E+03  0.12524724502E+03 0.  0.
         25    2    3    3    0    0  0.40716625548E+02  0.24212800125E+02 -0.15834332695E+03  0.20714450622E+03  0.12486846672E+03 0.  0.
          5    1    4    4  502    0  0.98795307094E+00 -0.68811210555E+02 -0.10159394925E+03  0.12279812406E+03  0.47000000000E+01 0. -1.
         -5    1    4    4    0  502 -0.41704578619E+02  0.44598410430E+02 -0.15443304091E+03  0.16613230937E+03  0.47000000000E+01 0. -1.
          5    1    5    5  503    0 -0.34444431579E+02 -0.78431363167E+01 -0.10128647330E+03  0.10737305680E+03  0.47000000000E+01 0.  1.
         -5    1    5    5    0  503  0.75161057127E+02  0.32055936442E+02 -0.57056853646E+02  0.99771449412E+02  0.47000000000E+01 0.  1.
<mgrwt>
<rscale>  0 0.27274088E+03</rscale>
<asrwt>0</asrwt>
<pdfrwt beam="1">  1        2 0.70034252E-01 0.27274088E+03</pdfrwt>
<pdfrwt beam="2">  1       -2 0.62849709E-02 0.27274088E+03</pdfrwt>
<totfact> 0.94664462E+03</totfact>
</mgrwt>
</event>
<event>
 9    1  0.8186049E-001  0.2695893E+03  0.7818608E-02  0.1101515E+00
          2   -1    0    0  501    0  0.00000000000E+00  0.00000000000E+00  0.30089605979E+03  0.30089605979E+03  0.00000000000E+00 0. -1.
         -2   -1    0    0    0  501 -0.00000000000E+00 -0.00000000000E+00 -0.60384955206E+02  0.60384955206E+02  0.00000000000E+00 0. -1.
         35    2    1    2    0    0  0.00000000000E+00  0.00000000000E+00  0.24051110459E+03  0.36128101500E+03  0.26958928089E+03 0.  0.
         25    2    3    3    0    0  0.49500171297E+02 -0.14703472951E+02  0.11495346356E+03  0.17733472952E+03  0.12476717691E+03 0.  0.
         25    2    3    3    0    0 -0.49500171297E+02  0.14703472951E+02  0.12555764103E+03  0.18394628548E+03  0.12411710456E+03 0.  0.
          5    1    4    4  502    0  0.47062086036E+02 -0.78953495994E+00 -0.12570625409E+02  0.48944600628E+02  0.47000000000E+01 0.  1.
         -5    1    4    4    0  502  0.24380852616E+01 -0.13913937991E+02  0.12752408897E+03  0.12839012889E+03  0.47000000000E+01 0.  1.
          5    1    5    5  503    0 -0.20467712682E+02  0.19770370066E+02 -0.20169229303E+02  0.35194923010E+02  0.47000000000E+01 0. -1.
         -5    1    5    5    0  503 -0.29032458616E+02 -0.50668971156E+01  0.14572687033E+03  0.14875136247E+03  0.47000000000E+01 0. -1.
<mgrwt>
<rscale>  0 0.26958928E+03</rscale>
<asrwt>0</asrwt>
<pdfrwt beam="1">  1        2 0.46291701E-01 0.26958928E+03</pdfrwt>
<pdfrwt beam="2">  1       -2 0.92899933E-02 0.26958928E+03</pdfrwt>
<totfact> 0.80632511E+03</totfact>
</mgrwt>
</event>
<event>
 9    1  0.8186049E-001  0.2713991E+03  0.7818608E-02  0.1100482E+00
          2   -1    0    0  501    0  0.00000000000E+00  0.00000000000E+00  0.36126075507E+03  0.36126075507E+03  0.00000000000E+00 0. -1.
         -2   -1    0    0    0  501 -0.00000000000E+00 -0.00000000000E+00 -0.50972500368E+02  0.50972500368E+02  0.00000000000E+00 0. -1.
         35    2    1    2    0    0  0.71054273576E-14  0.00000000000E+00  0.31028825470E+03  0.41223325543E+03  0.27139907126E+03 0.  0.
         25    2    3    3    0    0 -0.42910403779E+02  0.21419544614E+01  0.21119624640E+03  0.24849223514E+03  0.12368769425E+03 0.  0.
         25    2    3    3    0    0  0.42910403779E+02 -0.21419544614E+01  0.99092008294E+02  0.16374102029E+03  0.12306910619E+03 0.  0.
          5    1    4    4  502    0  0.24209859875E+01  0.56976154723E+02  0.11806910418E+03  0.13120421770E+03  0.47000000000E+01 0.  1.
         -5    1    4    4    0  502 -0.45331389767E+02 -0.54834200261E+02  0.93127142221E+02  0.11728801744E+03  0.47000000000E+01 0.  1.
          5    1    5    5  503    0  0.32635454266E+02  0.52162852784E+02  0.15852632681E+02  0.63713672384E+02  0.47000000000E+01 0. -1.
         -5    1    5    5    0  503  0.10274949513E+02 -0.54304807246E+02  0.83239375614E+02  0.10002734791E+03  0.47000000000E+01 0. -1.
<mgrwt>
<rscale>  0 0.27139907E+03</rscale>
<asrwt>0</asrwt>
<pdfrwt beam="1">  1        2 0.55578576E-01 0.27139907E+03</pdfrwt>
<pdfrwt beam="2">  1       -2 0.78419234E-02 0.27139907E+03</pdfrwt>
<totfact> 0.86416351E+03</totfact>
</mgrwt>
</event>
<event>
 9    1  0.8186049E-001  0.2785489E+03  0.7818608E-02  0.1096484E+00
         -1   -1    0    0    0  501 -0.00000000000E+00  0.00000000000E+00  0.13561748579E+02  0.13561748579E+02  0.00000000000E+00 0. -1.
          1   -1    0    0  501    0  0.00000000000E+00 -0.00000000000E+00 -0.14303006601E+04  0.14303006601E+04  0.00000000000E+00 0. -1.
         35    2    1    2    0    0  0.00000000000E+00  0.00000000000E+00 -0.14167389115E+04  0.14438624086E+04  0.27854893965E+03 0.  0.
         25    2    3    3    0    0  0.15808435205E+02  0.48786527004E+02 -0.54318526693E+03  0.55979793120E+03  0.12527353160E+03 0.  0.
         25    2    3    3    0    0 -0.15808435205E+02 -0.48786527004E+02 -0.87355364456E+03  0.88406447745E+03  0.12587294599E+03 0.  0.
          5    1    4    4  502    0 -0.22752300510E+02 -0.18344610663E+02 -0.35533241034E+03  0.35656332363E+03  0.47000000000E+01 0.  1.
         -5    1    4    4    0  502  0.38560735716E+02  0.67131137667E+02 -0.18785285659E+03  0.20323460757E+03  0.47000000000E+01 0.  1.
          5    1    5    5  503    0  0.40313973551E+02 -0.40454216250E+02 -0.67729809058E+03  0.67971799563E+03  0.47000000000E+01 0. -1.
         -5    1    5    5    0  503 -0.56122408757E+02 -0.83323107537E+01 -0.19625555398E+03  0.20434648182E+03  0.47000000000E+01 0. -1.
<mgrwt>
<rscale>  0 0.27854894E+03</rscale>
<asrwt>0</asrwt>
<pdfrwt beam="1">  1        1 0.22004612E+00 0.27854894E+03</pdfrwt>
<pdfrwt beam="2">  1       -1 0.20864242E-02 0.27854894E+03</pdfrwt>
<totfact> 0.51336720E+03</totfact>
</mgrwt>
</event>
<event>
 9    1  0.8186049E-001  0.2757151E+03  0.7818608E-02  0.1098053E+00
         -2   -1    0    0    0  501 -0.00000000000E+00  0.00000000000E+00  0.15714001445E+02  0.15714001445E+02  0.00000000000E+00 0.  1.
          2   -1    0    0  501    0  0.00000000000E+00 -0.00000000000E+00 -0.12094124418E+04  0.12094124418E+04  0.00000000000E+00 0.  1.
         35    2    1    2    0    0 -0.71054273576E-14  0.00000000000E+00 -0.11936984404E+04  0.12251264433E+04  0.27571513457E+03 0.  0.
         25    2    3    3    0    0  0.54977090282E+02  0.17767573480E+01 -0.51537477858E+03  0.53314679491E+03  0.12493480380E+03 0.  0.
         25    2    3    3    0    0 -0.54977090282E+02 -0.17767573480E+01 -0.67832366179E+03  0.69197964835E+03  0.12524857791E+03 0.  0.
          5    1    4    4  502    0  0.33635327274E+02 -0.60620309733E+02 -0.29471189211E+03  0.30279258007E+03  0.47000000000E+01 0. -1.
         -5    1    4    4    0  502  0.21341763008E+02  0.62397067081E+02 -0.22066288647E+03  0.23035421484E+03  0.47000000000E+01 0. -1.
          5    1    5    5  503    0 -0.83570078410E+02  0.29994455104E+02 -0.36265852872E+03  0.37339914809E+03  0.47000000000E+01 0.  1.
         -5    1    5    5    0  503  0.28592988128E+02 -0.31771212452E+02 -0.31566513307E+03  0.31858050026E+03  0.47000000000E+01 0.  1.
<mgrwt>
<rscale>  0 0.27571513E+03</rscale>
<asrwt>0</asrwt>
<pdfrwt beam="1">  1        2 0.18606341E+00 0.27571513E+03</pdfrwt>
<pdfrwt beam="2">  1       -2 0.24175392E-02 0.27571513E+03</pdfrwt>
<totfact> 0.11513622E+04</totfact>
</mgrwt>
</event>
<event>
 9    1  0.8186049E-001  0.2753717E+03  0.7818608E-02  0.1098244E+00
         -1   -1    0    0    0  501 -0.00000000000E+00  0.00000000000E+00  0.51072032584E+02  0.51072032584E+02  0.00000000000E+00 0. -1.
          1   -1    0    0  501    0  0.00000000000E+00 -0.00000000000E+00 -0.37118925853E+03  0.37118925853E+03  0.00000000000E+00 0. -1.
         35    2    1    2    0    0  0.00000000000E+00  0.71054273576E-14 -0.32011722595E+03  0.42226129111E+03  0.27537167542E+03 0.  0.
         25    2    3    3    0    0 -0.22472865581E+02 -0.25376923845E+02 -0.93325029539E+02  0.16120849684E+03  0.12700236362E+03 0.  0.
         25    2    3    3    0    0  0.22472865581E+02  0.25376923845E+02 -0.22679219641E+03  0.26105279427E+03  0.12475914032E+03 0.  0.
          5    1    4    4  502    0 -0.30410489641E+01 -0.38564368028E+02 -0.11952175436E+03  0.12571395399E+03  0.47000000000E+01 0.  1.
         -5    1    4    4    0  502 -0.19431816617E+02  0.13187444183E+02  0.26196724826E+02  0.35494542858E+02  0.47000000000E+01 0.  1.
          5    1    5    5  503    0  0.67803238528E+02 -0.10416496108E+02 -0.14851232173E+03  0.16365751511E+03  0.47000000000E+01 0. -1.
         -5    1    5    5    0  503 -0.45330372946E+02  0.35793419953E+02 -0.78279874677E+02  0.97395279161E+02  0.47000000000E+01 0. -1.
<mgrwt>
<rscale>  0 0.27537168E+03</rscale>
<asrwt>0</asrwt>
<pdfrwt beam="1">  1        1 0.57106039E-01 0.27537168E+03</pdfrwt>
<pdfrwt beam="2">  1       -1 0.78572359E-02 0.27537168E+03</pdfrwt>
<totfact> 0.58717114E+03</totfact>
</mgrwt>
</event>
<event>
 9    1  0.8186049E-001  0.2755937E+03  0.7818608E-02  0.1098120E+00
          1   -1    0    0  501    0  0.00000000000E+00  0.00000000000E+00  0.16297587559E+03  0.16297587559E+03  0.00000000000E+00 0.  1.
         -1   -1    0    0    0  501 -0.00000000000E+00 -0.00000000000E+00 -0.11650786181E+03  0.11650786181E+03  0.00000000000E+00 0.  1.
         35    2    1    2    0    0 -0.71054273576E-14  0.00000000000E+00  0.46468013790E+02  0.27948373740E+03  0.27559369217E+03 0.  0.
         25    2    3    3    0    0  0.50429879278E+01  0.87803964985E+01  0.80325012262E+02  0.14914850386E+03  0.12526229089E+03 0.  0.
         25    2    3    3    0    0 -0.50429879278E+01 -0.87803964985E+01 -0.33856998473E+02  0.13033523354E+03  0.12545297791E+03 0.  0.
          5    1    4    4  502    0 -0.31998600392E+02  0.14026125633E+02 -0.21001435725E+02  0.41034045985E+02  0.47000000000E+01 0.  1.
         -5    1    4    4    0  502  0.37041588320E+02 -0.52457291348E+01  0.10132644799E+03  0.10811445787E+03  0.47000000000E+01 0.  1.
          5    1    5    5  503    0  0.35736134008E+02  0.52604324340E+01  0.33978271522E+02  0.49813214701E+02  0.47000000000E+01 0. -1.
         -5    1    5    5    0  503 -0.40779121936E+02 -0.14040828933E+02 -0.67835269995E+02  0.80522018841E+02  0.47000000000E+01 0. -1.
<mgrwt>
<rscale>  0 0.27559369E+03</rscale>
<asrwt>0</asrwt>
<pdfrwt beam="1">  1        1 0.25073212E-01 0.27559369E+03</pdfrwt>
<pdfrwt beam="2">  1       -1 0.17924286E-01 0.27559369E+03</pdfrwt>
<totfact> 0.45666630E+03</totfact>
</mgrwt>
</event>
<event>
 9    1  0.8186049E-001  0.2759240E+03  0.7818608E-02  0.1097936E+00
         -1   -1    0    0    0  501 -0.00000000000E+00  0.00000000000E+00  0.21899267708E+04  0.21899267708E+04  0.00000000000E+00 0.  1.
          1   -1    0    0  501    0  0.00000000000E+00 -0.00000000000E+00 -0.86913902072E+01  0.86913902072E+01  0.00000000000E+00 0.  1.
         35    2    1    2    0    0  0.00000000000E+00 -0.35527136788E-14  0.21812353806E+04  0.21986181610E+04  0.27592396120E+03 0.  0.
         25    2    3    3    0    0  0.27030095111E+02  0.19644811228E+02  0.69039561064E+03  0.70219932628E+03  0.12377903697E+03 0.  0.
         25    2    3    3    0    0 -0.27030095111E+02 -0.19644811228E+02  0.14908397700E+04  0.14964188348E+04  0.12469789330E+03 0.  0.
          5    1    4    4  502    0 -0.78010694464E+01 -0.30500684170E+02  0.52277734801E+03  0.52374554319E+03  0.47000000000E+01 0. -1.
         -5    1    4    4    0  502  0.34831164558E+02  0.50145495398E+02  0.16761826262E+03  0.17845378309E+03  0.47000000000E+01 0. -1.
          5    1    5    5  503    0  0.74026324000E+01 -0.67344294239E+02  0.65970224331E+03  0.66318865549E+03  0.47000000000E+01 0. -1.
         -5    1    5    5    0  503 -0.34432727511E+02  0.47699483011E+02  0.83113752668E+03  0.83323017928E+03  0.47000000000E+01 0. -1.
<mgrwt>
<rscale>  0 0.27592396E+03</rscale>
<asrwt>0</asrwt>
<pdfrwt beam="1">  1        1 0.13371387E-02 0.27592396E+03</pdfrwt>
<pdfrwt beam="2">  1       -1 0.33691137E+00 0.27592396E+03</pdfrwt>
<totfact> 0.24231255E+02</totfact>
</mgrwt>
</event>
<event>
 9    1  0.8186049E-001  0.2511511E+03  0.7818608E-02  0.1112580E+00
          2   -1    0    0  501    0  0.00000000000E+00  0.00000000000E+00  0.73061362750E+03  0.73061362750E+03  0.00000000000E+00 0. -1.
         -2   -1    0    0    0  501 -0.00000000000E+00 -0.00000000000E+00 -0.21583525494E+02  0.21583525494E+02  0.00000000000E+00 0. -1.
         35    2    1    2    0    0  0.13322676296E-14  0.00000000000E+00  0.70903010200E+03  0.75219715299E+03  0.25115109281E+03 0.  0.
         25    2    3    3    0    0  0.82983771685E+00 -0.13066506566E+02  0.36277661135E+03  0.38497895397E+03  0.12818152377E+03 0.  0.
         25    2    3    3    0    0 -0.82983771685E+00  0.13066506566E+02  0.34625349065E+03  0.36721819902E+03  0.12159894603E+03 0.  0.
          5    1    4    4  502    0 -0.17434902273E+01  0.27907666356E+02  0.33260973660E+03  0.33381612376E+03  0.47000000000E+01 0. -1.
         -5    1    4    4    0  502  0.25733279442E+01 -0.40974172922E+02  0.30166874750E+02  0.51162830214E+02  0.47000000000E+01 0. -1.
          5    1    5    5  503    0  0.29388982729E+02 -0.45835039555E+02  0.13030149902E+03  0.14129803185E+03  0.47000000000E+01 0.  1.
         -5    1    5    5    0  503 -0.30218820445E+02  0.58901546121E+02  0.21595199163E+03  0.22592016717E+03  0.47000000000E+01 0.  1.
<mgrwt>
<rscale>  0 0.25115109E+03</rscale>
<asrwt>0</asrwt>
<pdfrwt beam="1">  1        2 0.11240208E+00 0.25115109E+03</pdfrwt>
<pdfrwt beam="2">  1       -2 0.33205429E-02 0.25115109E+03</pdfrwt>
<totfact> 0.14342509E+04</totfact>
</mgrwt>
</event>
<event>
 9    1  0.8186049E-001  0.2754897E+03  0.7818608E-02  0.1098178E+00
         -1   -1    0    0    0  501 -0.00000000000E+00  0.00000000000E+00  0.10077951301E+03  0.10077951301E+03  0.00000000000E+00 0.  1.
          1   -1    0    0  501    0  0.00000000000E+00 -0.00000000000E+00 -0.18826885703E+03  0.18826885703E+03  0.00000000000E+00 0.  1.
         35    2    1    2    0    0 -0.17763568394E-14  0.71054273576E-14 -0.87489344024E+02  0.28904837004E+03  0.27548970018E+03 0.  0.
         25    2    3    3    0    0 -0.11331302490E+02 -0.47697468294E+02 -0.40782167397E+01  0.13074486509E+03  0.12113686887E+03 0.  0.
         25    2    3    3    0    0  0.11331302490E+02  0.47697468294E+02 -0.83411127284E+02  0.15830350495E+03  0.12529619558E+03 0.  0.
          5    1    4    4  502    0  0.63251214666E+01 -0.88971324734E+01 -0.59495360828E+02  0.60670866879E+02  0.47000000000E+01 0.  1.
         -5    1    4    4    0  502 -0.17656423957E+02 -0.38800335821E+02  0.55417144088E+02  0.70073998214E+02  0.47000000000E+01 0.  1.
          5    1    5    5  503    0  0.27640260549E+02 -0.35216215439E+01  0.24664136455E+02  0.37507271942E+02  0.47000000000E+01 0.  1.
         -5    1    5    5    0  503 -0.16308958058E+02  0.51219089838E+02 -0.10807526374E+03  0.12079623301E+03  0.47000000000E+01 0.  1.
<mgrwt>
<rscale>  0 0.27548970E+03</rscale>
<asrwt>0</asrwt>
<pdfrwt beam="1">  1        1 0.28964439E-01 0.27548970E+03</pdfrwt>
<pdfrwt beam="2">  1       -1 0.15504541E-01 0.27548970E+03</pdfrwt>
<totfact> 0.47964013E+03</totfact>
</mgrwt>
</event>
<event>
 9    1  0.8186049E-001  0.2810630E+03  0.7818608E-02  0.1095110E+00
          1   -1    0    0  501    0  0.00000000000E+00  0.00000000000E+00  0.10749754634E+04  0.10749754634E+04  0.00000000000E+00 0. -1.
         -1   -1    0    0    0  501 -0.00000000000E+00 -0.00000000000E+00 -0.18371679093E+02  0.18371679093E+02  0.00000000000E+00 0. -1.
         35    2    1    2    0    0  0.10658141036E-13  0.71054273576E-14  0.10566037843E+04  0.10933471425E+04  0.28106301249E+03 0.  0.
         25    2    3    3    0    0  0.20688646077E+02 -0.21867523101E+02  0.29693661168E+03  0.32298765414E+03  0.12346442696E+03 0.  0.
         25    2    3    3    0    0 -0.20688646077E+02  0.21867523101E+02  0.75966717265E+03  0.77035948838E+03  0.12431138119E+03 0.  0.
          5    1    4    4  502    0 -0.18455111304E+02 -0.65496738281E+02  0.15415383946E+03  0.16857019333E+03  0.47000000000E+01 0.  1.
         -5    1    4    4    0  502  0.39143757381E+02  0.43629215180E+02  0.14278277222E+03  0.15441746081E+03  0.47000000000E+01 0.  1.
          5    1    5    5  503    0  0.48446358224E+02  0.31450036097E+02  0.34422322212E+03  0.34906714403E+03  0.47000000000E+01 0. -1.
         -5    1    5    5    0  503 -0.69135004301E+02 -0.95825129963E+01  0.41544395053E+03  0.42129234435E+03  0.47000000000E+01 0. -1.
<mgrwt>
<rscale>  0 0.28106301E+03</rscale>
<asrwt>0</asrwt>
<pdfrwt beam="1">  1        1 0.16538079E+00 0.28106301E+03</pdfrwt>
<pdfrwt beam="2">  1       -1 0.28264130E-02 0.28106301E+03</pdfrwt>
<totfact> 0.57977939E+03</totfact>
</mgrwt>
</event>
<event>
 9    1  0.8186049E-001  0.2727658E+03  0.7818608E-02  0.1099707E+00
         -2   -1    0    0    0  501 -0.00000000000E+00  0.00000000000E+00  0.33336358661E+02  0.33336358661E+02  0.00000000000E+00 0.  1.
          2   -1    0    0  501    0  0.00000000000E+00 -0.00000000000E+00 -0.55795831831E+03  0.55795831831E+03  0.00000000000E+00 0.  1.
         35    2    1    2    0    0  0.00000000000E+00 -0.71054273576E-14 -0.52462195965E+03  0.59129467697E+03  0.27276582350E+03 0.  0.
         25    2    3    3    0    0  0.35696097416E+02 -0.27644080852E+02 -0.30456559691E+03  0.33243771046E+03  0.12536435671E+03 0.  0.
         25    2    3    3    0    0 -0.35696097416E+02  0.27644080852E+02 -0.22005636274E+03  0.25885696652E+03  0.12862239213E+03 0.  0.
          5    1    4    4  502    0 -0.12041741520E+02  0.34811693431E+02 -0.32980806267E+02  0.49665693596E+02  0.47000000000E+01 0. -1.
         -5    1    4    4    0  502  0.47737838936E+02 -0.62455774283E+02 -0.27158479065E+03  0.28277201686E+03  0.47000000000E+01 0. -1.
          5    1    5    5  503    0 -0.30594697461E+02  0.37716656613E+02 -0.11743583924E+02  0.50185490554E+02  0.47000000000E+01 0. -1.
         -5    1    5    5    0  503 -0.51013999550E+01 -0.10072575761E+02 -0.20831277881E+03  0.20867147596E+03  0.47000000000E+01 0. -1.
<mgrwt>
<rscale>  0 0.27276582E+03</rscale>
<asrwt>0</asrwt>
<pdfrwt beam="1">  1        2 0.85839734E-01 0.27276582E+03</pdfrwt>
<pdfrwt beam="2">  1       -2 0.51286710E-02 0.27276582E+03</pdfrwt>
<totfact> 0.10284497E+04</totfact>
</mgrwt>
</event>
<event>
 9    1  0.8186049E-001  0.2725051E+03  0.7818608E-02  0.1099854E+00
         -2   -1    0    0    0  501 -0.00000000000E+00  0.00000000000E+00  0.99223004326E+01  0.99223004326E+01  0.00000000000E+00 0.  1.
          2   -1    0    0  501    0  0.00000000000E+00 -0.00000000000E+00 -0.18710130586E+04  0.18710130586E+04  0.00000000000E+00 0.  1.
         35    2    1    2    0    0  0.00000000000E+00  0.71054273576E-14 -0.18610907582E+04  0.18809353591E+04  0.27250507284E+03 0.  0.
         25    2    3    3    0    0  0.47231251128E+02 -0.81756828747E+01 -0.97467542096E+03  0.98446265558E+03  0.12991116638E+03 0.  0.
         25    2    3    3    0    0 -0.47231251128E+02  0.81756828747E+01 -0.88641533725E+03  0.89647270349E+03  0.12503409580E+03 0.  0.
          5    1    4    4  502    0  0.35365983620E+02 -0.35036167832E+02 -0.92649666165E+03  0.92784505166E+03  0.47000000000E+01 0. -1.
         -5    1    4    4    0  502  0.11865267509E+02  0.26860484957E+02 -0.48178759311E+02  0.56617603922E+02  0.47000000000E+01 0. -1.
          5    1    5    5  503    0 -0.76880027214E+02 -0.31060935114E+02 -0.61712028154E+03  0.62268358912E+03  0.47000000000E+01 0.  1.
         -5    1    5    5    0  503  0.29648776086E+02  0.39236617989E+02 -0.26929505571E+03  0.27378911437E+03  0.47000000000E+01 0.  1.
<mgrwt>
<rscale>  0 0.27250507E+03</rscale>
<asrwt>0</asrwt>
<pdfrwt beam="1">  1        2 0.28784800E+00 0.27250507E+03</pdfrwt>
<pdfrwt beam="2">  1       -2 0.15265086E-02 0.27250507E+03</pdfrwt>
<totfact> 0.99852926E+03</totfact>
</mgrwt>
</event>
<event>
 9    1  0.8186049E-001  0.2777617E+03  0.7818608E-02  0.1096918E+00
          2   -1    0    0  501    0  0.00000000000E+00  0.00000000000E+00  0.22953214369E+03  0.22953214369E+03  0.00000000000E+00 0.  1.
         -2   -1    0    0    0  501 -0.00000000000E+00 -0.00000000000E+00 -0.84031328603E+02  0.84031328603E+02  0.00000000000E+00 0.  1.
         35    2    1    2    0    0 -0.17763568394E-14  0.71054273576E-14  0.14550081509E+03  0.31356347229E+03  0.27776170356E+03 0.  0.
         25    2    3    3    0    0 -0.11717659673E+02  0.22170711535E+02  0.10870173466E+02  0.12830275003E+03  0.12535785175E+03 0.  0.
         25    2    3    3    0    0  0.11717659673E+02 -0.22170711535E+02  0.13463064162E+03  0.18526072226E+03  0.12476891260E+03 0.  0.
          5    1    4    4  502    0  0.46657717907E-01  0.59371348034E+02  0.46264187328E+02  0.75415012918E+02  0.47000000000E+01 0.  1.
         -5    1    4    4    0  502 -0.11764317391E+02 -0.37200636499E+02 -0.35394013862E+02  0.52887737112E+02  0.47000000000E+01 0.  1.
          5    1    5    5  503    0  0.17781039367E+02  0.87480547954E+01  0.14894870906E+03  0.15033463259E+03  0.47000000000E+01 0. -1.
         -5    1    5    5    0  503 -0.60633796940E+01 -0.30918766330E+02 -0.14318067442E+02  0.34926089675E+02  0.47000000000E+01 0. -1.
<mgrwt>
<rscale>  0 0.27776170E+03</rscale>
<asrwt>0</asrwt>
<pdfrwt beam="1">  1        2 0.35312637E-01 0.27776170E+03</pdfrwt>
<pdfrwt beam="2">  1       -2 0.12927897E-01 0.27776170E+03</pdfrwt>
<totfact> 0.63665793E+03</totfact>
</mgrwt>
</event>
<event>
 9    1  0.8186049E-001  0.2750213E+03  0.7818608E-02  0.1098440E+00
          1   -1    0    0  501    0  0.00000000000E+00  0.00000000000E+00  0.11746412326E+03  0.11746412326E+03  0.00000000000E+00 0. -1.
         -1   -1    0    0    0  501 -0.00000000000E+00 -0.00000000000E+00 -0.16097828319E+03  0.16097828319E+03  0.00000000000E+00 0. -1.
         35    2    1    2    0    0  0.00000000000E+00  0.00000000000E+00 -0.43514159924E+02  0.27844240645E+03  0.27502125663E+03 0.  0.
         25    2    3    3    0    0  0.29962066338E+01  0.49400021682E+02 -0.53832642194E+02  0.14340211034E+03  0.12335668806E+03 0.  0.
         25    2    3    3    0    0 -0.29962066338E+01 -0.49400021682E+02  0.10318482270E+02  0.13504029611E+03  0.12522009064E+03 0.  0.
          5    1    4    4  502    0  0.57591424247E+02  0.49919638943E+02 -0.42683647011E+02  0.87479861803E+02  0.47000000000E+01 0.  1.
         -5    1    4    4    0  502 -0.54595217613E+02 -0.51961726075E+00 -0.11148995183E+02  0.55922248541E+02  0.47000000000E+01 0.  1.
          5    1    5    5  503    0 -0.40284856819E+02  0.21046956387E+02  0.27549796778E+02  0.53356586890E+02  0.47000000000E+01 0. -1.
         -5    1    5    5    0  503  0.37288650186E+02 -0.70446978069E+02 -0.17231314508E+02  0.81683709217E+02  0.47000000000E+01 0. -1.
<mgrwt>
<rscale>  0 0.27502126E+03</rscale>
<asrwt>0</asrwt>
<pdfrwt beam="1">  1        1 0.18071404E-01 0.27502126E+03</pdfrwt>
<pdfrwt beam="2">  1       -1 0.24765890E-01 0.27502126E+03</pdfrwt>
<totfact> 0.40992879E+03</totfact>
</mgrwt>
</event>
<event>
 9    1  0.8186049E-001  0.2833950E+03  0.7818608E-02  0.1093849E+00
          4   -1    0    0  501    0  0.00000000000E+00  0.00000000000E+00  0.81923572930E+03  0.81923572930E+03  0.00000000000E+00 0. -1.
         -4   -1    0    0    0  501 -0.00000000000E+00 -0.00000000000E+00 -0.24508434147E+02  0.24508434147E+02  0.00000000000E+00 0. -1.
         35    2    1    2    0    0 -0.14210854715E-13  0.00000000000E+00  0.79472729515E+03  0.84374416344E+03  0.28339502411E+03 0.  0.
         25    2    3    3    0    0  0.42337472627E+02 -0.19301719863E+02  0.25557585842E+03  0.28828943860E+03  0.12500705190E+03 0.  0.
         25    2    3    3    0    0 -0.42337472627E+02  0.19301719863E+02  0.53915143673E+03  0.55545472484E+03  0.12522244864E+03 0.  0.
          5    1    4    4  502    0  0.70999956979E+02 -0.53100157823E+02  0.16693502551E+03  0.18907673943E+03  0.47000000000E+01 0. -1.
         -5    1    4    4    0  502 -0.28662484351E+02  0.33798437960E+02  0.88640832913E+02  0.99212699173E+02  0.47000000000E+01 0. -1.
          5    1    5    5  503    0  0.18864468061E+02  0.53382986473E+02  0.15830587013E+03  0.16819170585E+03  0.47000000000E+01 0.  1.
         -5    1    5    5    0  503 -0.61201940689E+02 -0.34081266610E+02  0.38084556660E+03  0.38726301899E+03  0.47000000000E+01 0.  1.
<mgrwt>
<rscale>  0 0.28339502E+03</rscale>
<asrwt>0</asrwt>
<pdfrwt beam="1">  1        4 0.12603625E+00 0.28339502E+03</pdfrwt>
<pdfrwt beam="2">  1       -4 0.37705290E-02 0.28339502E+03</pdfrwt>
<totfact> 0.34601857E+02</totfact>
</mgrwt>
</event>
<event>
 9    1  0.8186049E-001  0.2711634E+03  0.7818608E-02  0.1100616E+00
         -1   -1    0    0    0  501 -0.00000000000E+00  0.00000000000E+00  0.20497724165E+03  0.20497724165E+03  0.00000000000E+00 0.  1.
          1   -1    0    0  501    0  0.00000000000E+00 -0.00000000000E+00 -0.89680202042E+02  0.89680202042E+02  0.00000000000E+00 0.  1.
         35    2    1    2    0    0  0.00000000000E+00 -0.71054273576E-14  0.11529703961E+03  0.29465744369E+03  0.27116342264E+03 0.  0.
         25    2    3    3    0    0  0.29530586051E+02 -0.33184657997E+02  0.26814195107E+02  0.13512661382E+03  0.12476747839E+03 0.  0.
         25    2    3    3    0    0 -0.29530586051E+02  0.33184657997E+02  0.88482844500E+02  0.15953082987E+03  0.12509034683E+03 0.  0.
          5    1    4    4  502    0 -0.25157567235E+00  0.45461584079E+02  0.22099552671E+02  0.50767106925E+02  0.47000000000E+01 0. -1.
         -5    1    4    4    0  502  0.29782161723E+02 -0.78646242076E+02  0.47146424365E+01  0.84359506891E+02  0.47000000000E+01 0. -1.
          5    1    5    5  503    0 -0.24349120189E+02 -0.36725705337E+02  0.76282406794E+02  0.88219910864E+02  0.47000000000E+01 0. -1.
         -5    1    5    5    0  503 -0.51814658619E+01  0.69910363334E+02  0.12200437706E+02  0.71310919011E+02  0.47000000000E+01 0. -1.
<mgrwt>
<rscale>  0 0.27116342E+03</rscale>
<asrwt>0</asrwt>
<pdfrwt beam="1">  1        1 0.13796954E-01 0.27116342E+03</pdfrwt>
<pdfrwt beam="2">  1       -1 0.31534960E-01 0.27116342E+03</pdfrwt>
<totfact> 0.38805007E+03</totfact>
</mgrwt>
</event>
<event>
 9    1  0.8186049E-001  0.2745783E+03  0.7818608E-02  0.1098688E+00
         -1   -1    0    0    0  501 -0.00000000000E+00  0.00000000000E+00  0.94011632521E+01  0.94011632521E+01  0.00000000000E+00 0. -1.
          1   -1    0    0  501    0  0.00000000000E+00 -0.00000000000E+00 -0.20048912228E+04  0.20048912228E+04  0.00000000000E+00 0. -1.
         35    2    1    2    0    0  0.35527136788E-14 -0.71054273576E-14 -0.19954900596E+04  0.20142923861E+04  0.27457829258E+03 0.  0.
         25    2    3    3    0    0 -0.45023608318E+01 -0.25556514531E+02 -0.13598096908E+04  0.13658527256E+04  0.12568956218E+03 0.  0.
         25    2    3    3    0    0  0.45023608318E+01  0.25556514531E+02 -0.63568036879E+03  0.64843966053E+03  0.12534374894E+03 0.  0.
          5    1    4    4  502    0 -0.47942794138E+02 -0.41134274869E+02 -0.40565370903E+03  0.41056980128E+03  0.47000000000E+01 0. -1.
         -5    1    4    4    0  502  0.43440433307E+02  0.15577760338E+02 -0.95415598178E+03  0.95528292428E+03  0.47000000000E+01 0. -1.
          5    1    5    5  503    0  0.33944794006E+02  0.47892532572E+02 -0.14723195666E+03  0.15857264196E+03  0.47000000000E+01 0.  1.
         -5    1    5    5    0  503 -0.29442433174E+02 -0.22336018041E+02 -0.48844841213E+03  0.48986701857E+03  0.47000000000E+01 0.  1.
<mgrwt>
<rscale>  0 0.27457829E+03</rscale>
<asrwt>0</asrwt>
<pdfrwt beam="1">  1        1 0.30844501E+00 0.27457829E+03</pdfrwt>
<pdfrwt beam="2">  1       -1 0.14463319E-02 0.27457829E+03</pdfrwt>
<totfact> 0.36861231E+03</totfact>
</mgrwt>
</event>
<event>
 9    1  0.8186049E-001  0.2827794E+03  0.7818608E-02  0.1094181E+00
          1   -1    0    0  501    0  0.00000000000E+00  0.00000000000E+00  0.35010305565E+03  0.35010305565E+03  0.00000000000E+00 0. -1.
         -1   -1    0    0    0  501 -0.00000000000E+00 -0.00000000000E+00 -0.57100459709E+02  0.57100459709E+02  0.00000000000E+00 0. -1.
         35    2    1    2    0    0  0.71054273576E-14 -0.71054273576E-14  0.29300259594E+03  0.40720351536E+03  0.28277938697E+03 0.  0.
         25    2    3    3    0    0  0.62250815226E+02  0.22198974117E+02  0.16568178317E+03  0.21760893689E+03  0.12464043362E+03 0.  0.
         25    2    3    3    0    0 -0.62250815226E+02 -0.22198974117E+02  0.12732081278E+03  0.18959457847E+03  0.12396594844E+03 0.  0.
          5    1    4    4  502    0  0.36657089587E+02 -0.19979579344E+02  0.16261518362E+03  0.16795449905E+03  0.47000000000E+01 0. -1.
         -5    1    4    4    0  502  0.25593725639E+02  0.42178553461E+02  0.30665995474E+01  0.49654437837E+02  0.47000000000E+01 0. -1.
          5    1    5    5  503    0 -0.53365908710E+02  0.38828650835E+02  0.10446819286E+03  0.12365790576E+03  0.47000000000E+01 0. -1.
         -5    1    5    5    0  503 -0.88849065162E+01 -0.61027624952E+02  0.22852619916E+02  0.65936672710E+02  0.47000000000E+01 0. -1.
<mgrwt>
<rscale>  0 0.28277939E+03</rscale>
<asrwt>0</asrwt>
<pdfrwt beam="1">  1        1 0.53862007E-01 0.28277939E+03</pdfrwt>
<pdfrwt beam="2">  1       -1 0.87846863E-02 0.28277939E+03</pdfrwt>
<totfact> 0.53363353E+03</totfact>
</mgrwt>
</event>
<event>
 9    1  0.8186049E-001  0.2745851E+03  0.7818608E-02  0.1098684E+00
          1   -1    0    0  501    0  0.00000000000E+00  0.00000000000E+00  0.18609688527E+04  0.18609688527E+04  0.00000000000E+00 0.  1.
         -1   -1    0    0    0  501 -0.00000000000E+00 -0.00000000000E+00 -0.10128726094E+02  0.10128726094E+02  0.00000000000E+00 0.  1.
         35    2    1    2    0    0  0.00000000000E+00 -0.71054273576E-14  0.18508401266E+04  0.18710975788E+04  0.27458509631E+03 0.  0.
         25    2    3    3    0    0 -0.38848166329E+02 -0.40012551845E+02  0.10406911205E+04  0.10494970676E+04  0.12367660344E+03 0.  0.
         25    2    3    3    0    0  0.38848166329E+02  0.40012551845E+02  0.81014900611E+03  0.82160051122E+03  0.12480305926E+03 0.  0.
          5    1    4    4  502    0 -0.33611391135E+01  0.15462217906E+02  0.17057678997E+02  0.23736719476E+02  0.47000000000E+01 0.  1.
         -5    1    4    4    0  502 -0.35487027216E+02 -0.55474769751E+02  0.10236334415E+04  0.10257603481E+04  0.47000000000E+01 0.  1.
          5    1    5    5  503    0 -0.37846899107E+02  0.31557891079E+02  0.47887972249E+03  0.48143137296E+03  0.47000000000E+01 0.  1.
         -5    1    5    5    0  503  0.76695065436E+02  0.84546607661E+01  0.33126928363E+03  0.34016913826E+03  0.47000000000E+01 0.  1.
<mgrwt>
<rscale>  0 0.27458510E+03</rscale>
<asrwt>0</asrwt>
<pdfrwt beam="1">  1        1 0.28630263E+00 0.27458510E+03</pdfrwt>
<pdfrwt beam="2">  1       -1 0.15582670E-02 0.27458510E+03</pdfrwt>
<totfact> 0.41008452E+03</totfact>
</mgrwt>
</event>
<event>
 9    1  0.8186049E-001  0.2733420E+03  0.7818608E-02  0.1099382E+00
         -1   -1    0    0    0  501 -0.00000000000E+00  0.00000000000E+00  0.28456076568E+03  0.28456076568E+03  0.00000000000E+00 0.  1.
          1   -1    0    0  501    0  0.00000000000E+00 -0.00000000000E+00 -0.65641370647E+02  0.65641370647E+02  0.00000000000E+00 0.  1.
         35    2    1    2    0    0 -0.71054273576E-14  0.00000000000E+00  0.21891939503E+03  0.35020213632E+03  0.27334197403E+03 0.  0.
         25    2    3    3    0    0  0.50307142545E+02 -0.52763075468E+01  0.81708459570E+02  0.15766217230E+03  0.12498976037E+03 0.  0.
         25    2    3    3    0    0 -0.50307142545E+02  0.52763075468E+01  0.13721093546E+03  0.19253996402E+03  0.12524435685E+03 0.  0.
          5    1    4    4  502    0  0.72093722614E+02 -0.39426192503E+02  0.21714190623E+02  0.85120653017E+02  0.47000000000E+01 0.  1.
         -5    1    4    4    0  502 -0.21786580069E+02  0.34149884956E+02  0.59994268947E+02  0.72541519285E+02  0.47000000000E+01 0.  1.
          5    1    5    5  503    0  0.17407582412E+00 -0.55071828714E+02  0.68146565072E+02  0.87743837113E+02  0.47000000000E+01 0. -1.
         -5    1    5    5    0  503 -0.50481218369E+02  0.60348136260E+02  0.69064370389E+02  0.10479612691E+03  0.47000000000E+01 0. -1.
<mgrwt>
<rscale>  0 0.27334197E+03</rscale>
<asrwt>0</asrwt>
<pdfrwt beam="1">  1        1 0.10098673E-01 0.27334197E+03</pdfrwt>
<pdfrwt beam="2">  1       -1 0.43778579E-01 0.27334197E+03</pdfrwt>
<totfact> 0.33063982E+03</totfact>
</mgrwt>
</event>
<event>
 9    1  0.8186049E-001  0.2739844E+03  0.7818608E-02  0.1099021E+00
         -2   -1    0    0    0  501 -0.00000000000E+00  0.00000000000E+00  0.42074769772E+01  0.42074769772E+01  0.00000000000E+00 0. -1.
          2   -1    0    0  501    0  0.00000000000E+00 -0.00000000000E+00 -0.44603610697E+04  0.44603610697E+04  0.00000000000E+00 0. -1.
         35    2    1    2    0    0 -0.35527136788E-14  0.31086244690E-14 -0.44561535927E+04  0.44645685467E+04  0.27398442664E+03 0.  0.
         25    2    3    3    0    0  0.13335155157E+02 -0.21861691214E+01 -0.13330663958E+04  0.13389962482E+04  0.12514923596E+03 0.  0.
         25    2    3    3    0    0 -0.13335155157E+02  0.21861691214E+01 -0.31230871969E+04  0.31255722985E+04  0.12387876337E+03 0.  0.
          5    1    4    4  502    0  0.41979379503E+02 -0.51891554499E+02 -0.81497280818E+03  0.81771496855E+03  0.47000000000E+01 0.  1.
         -5    1    4    4    0  502 -0.28644224346E+02  0.49705385378E+02 -0.51809358767E+03  0.52128127964E+03  0.47000000000E+01 0.  1.
          5    1    5    5  503    0  0.40171906944E+02  0.61781664768E+01 -0.42898442733E+03  0.43093117865E+03  0.47000000000E+01 0.  1.
         -5    1    5    5    0  503 -0.53507062101E+02 -0.39919973554E+01 -0.26941027696E+04  0.26946411198E+04  0.47000000000E+01 0.  1.
<mgrwt>
<rscale>  0 0.27398443E+03</rscale>
<asrwt>0</asrwt>
<pdfrwt beam="1">  1        2 0.68621454E+00 0.27398443E+03</pdfrwt>
<pdfrwt beam="2">  1       -2 0.64729930E-03 0.27398443E+03</pdfrwt>
<totfact> 0.73956540E+02</totfact>
</mgrwt>
</event>
<event>
 9    1  0.8186049E-001  0.2721851E+03  0.7818608E-02  0.1100035E+00
         -1   -1    0    0    0  501 -0.00000000000E+00  0.00000000000E+00  0.44459773198E+02  0.44459773198E+02  0.00000000000E+00 0.  1.
          1   -1    0    0  501    0  0.00000000000E+00 -0.00000000000E+00 -0.41658293599E+03  0.41658293599E+03  0.00000000000E+00 0.  1.
         35    2    1    2    0    0  0.71054273576E-14  0.00000000000E+00 -0.37212316280E+03  0.46104270919E+03  0.27218510505E+03 0.  0.
         25    2    3    3    0    0 -0.14769069839E+02 -0.16465928388E+02 -0.26857772898E+03  0.29734388562E+03  0.12565881420E+03 0.  0.
         25    2    3    3    0    0  0.14769069839E+02  0.16465928388E+02 -0.10354543381E+03  0.16369882358E+03  0.12484548752E+03 0.  0.
          5    1    4    4  502    0 -0.66022467724E+02 -0.31270410602E+02 -0.17157236026E+03  0.18653677822E+03  0.47000000000E+01 0.  1.
         -5    1    4    4    0  502  0.51253397885E+02  0.14804482214E+02 -0.97005368723E+02  0.11080710740E+03  0.47000000000E+01 0.  1.
          5    1    5    5  503    0  0.54063556196E+02 -0.24907719704E+02 -0.21110961790E+02  0.63332656009E+02  0.47000000000E+01 0.  1.
         -5    1    5    5    0  503 -0.39294486357E+02  0.41373648092E+02 -0.82434472023E+02  0.10036616757E+03  0.47000000000E+01 0.  1.
<mgrwt>
<rscale>  0 0.27218511E+03</rscale>
<asrwt>0</asrwt>
<pdfrwt beam="1">  1        1 0.64089682E-01 0.27218511E+03</pdfrwt>
<pdfrwt beam="2">  1       -1 0.68399651E-02 0.27218511E+03</pdfrwt>
<totfact> 0.62522988E+03</totfact>
</mgrwt>
</event>
<event>
 9    1  0.8186049E-001  0.2779403E+03  0.7818608E-02  0.1096819E+00
          2   -1    0    0  501    0  0.00000000000E+00  0.00000000000E+00  0.37302221408E+04  0.37302221408E+04  0.00000000000E+00 0.  1.
         -2   -1    0    0    0  501 -0.00000000000E+00 -0.00000000000E+00 -0.51773591133E+01  0.51773591133E+01  0.00000000000E+00 0.  1.
         35    2    1    2    0    0  0.00000000000E+00  0.71054273576E-14  0.37250447817E+04  0.37353994999E+04  0.27794027844E+03 0.  0.
         25    2    3    3    0    0  0.57748952245E+02 -0.18658375233E+02  0.19522683510E+04  0.19571999329E+04  0.12488709416E+03 0.  0.
         25    2    3    3    0    0 -0.57748952245E+02  0.18658375233E+02  0.17727764307E+04  0.17781995671E+04  0.12479723850E+03 0.  0.
          5    1    4    4  502    0  0.10423011527E+02  0.45137497370E+02  0.11627219616E+04  0.11636539360E+04  0.47000000000E+01 0. -1.
         -5    1    4    4    0  502  0.47325940718E+02 -0.63795872603E+02  0.78954638942E+03  0.79354599683E+03  0.47000000000E+01 0. -1.
          5    1    5    5  503    0 -0.71192090781E+02 -0.36327044213E+02  0.88806322818E+03  0.89166493437E+03  0.47000000000E+01 0. -1.
         -5    1    5    5    0  503  0.13443138537E+02  0.54985419445E+02  0.88471320250E+03  0.88653463271E+03  0.47000000000E+01 0. -1.
<mgrwt>
<rscale>  0 0.27794028E+03</rscale>
<asrwt>0</asrwt>
<pdfrwt beam="1">  1        2 0.57387818E+00 0.27794028E+03</pdfrwt>
<pdfrwt beam="2">  1       -2 0.79651977E-03 0.27794028E+03</pdfrwt>
<totfact> 0.20929200E+03</totfact>
</mgrwt>
</event>
<event>
 9    1  0.8186049E-001  0.2690328E+03  0.7818608E-02  0.1101834E+00
         -2   -1    0    0    0  501 -0.00000000000E+00  0.00000000000E+00  0.23516664260E+02  0.23516664260E+02  0.00000000000E+00 0.  1.
          2   -1    0    0  501    0  0.00000000000E+00 -0.00000000000E+00 -0.76943998455E+03  0.76943998455E+03  0.00000000000E+00 0.  1.
         35    2    1    2    0    0 -0.35527136788E-14  0.00000000000E+00 -0.74592332029E+03  0.79295664881E+03  0.26903279937E+03 0.  0.
         25    2    3    3    0    0 -0.26541082023E+02  0.33322545500E+02 -0.28043901186E+03  0.30989406146E+03  0.12479370531E+03 0.  0.
         25    2    3    3    0    0  0.26541082023E+02 -0.33322545500E+02 -0.46548430843E+03  0.48306258735E+03  0.12189750130E+03 0.  0.
          5    1    4    4  502    0 -0.36185862445E+01  0.73655893443E+02 -0.22822535768E+03  0.23988995122E+03  0.47000000000E+01 0. -1.
         -5    1    4    4    0  502 -0.22922495779E+02 -0.40333347943E+02 -0.52213654171E+02  0.70004110243E+02  0.47000000000E+01 0. -1.
          5    1    5    5  503    0  0.53280244517E+02  0.21226807327E+02 -0.32316081549E+03  0.32824436701E+03  0.47000000000E+01 0.  1.
         -5    1    5    5    0  503 -0.26739162494E+02 -0.54549352828E+02 -0.14232349294E+03  0.15481822033E+03  0.47000000000E+01 0.  1.
<mgrwt>
<rscale>  0 0.26903280E+03</rscale>
<asrwt>0</asrwt>
<pdfrwt beam="1">  1        2 0.11837539E+00 0.26903280E+03</pdfrwt>
<pdfrwt beam="2">  1       -2 0.36179482E-02 0.26903280E+03</pdfrwt>
<totfact> 0.11865889E+04</totfact>
</mgrwt>
</event>
<event>
 9    1  0.8186049E-001  0.2681665E+03  0.7818608E-02  0.1102334E+00
          2   -1    0    0  501    0  0.00000000000E+00  0.00000000000E+00  0.27842196903E+02  0.27842196903E+02  0.00000000000E+00 0. -1.
         -2   -1    0    0    0  501 -0.00000000000E+00 -0.00000000000E+00 -0.64572187465E+03  0.64572187465E+03  0.00000000000E+00 0. -1.
         35    2    1    2    0    0 -0.71054273576E-14  0.00000000000E+00 -0.61787967774E+03  0.67356407155E+03  0.26816648246E+03 0.  0.
         25    2    3    3    0    0  0.18371718148E+02 -0.16095415201E+02 -0.17707469768E+03  0.21479543863E+03  0.11910100538E+03 0.  0.
         25    2    3    3    0    0 -0.18371718148E+02  0.16095415201E+02 -0.44080498007E+03  0.45876863292E+03  0.12475193657E+03 0.  0.
          5    1    4    4  502    0 -0.49405495522E+02 -0.15075387702E+02 -0.58927326251E+02  0.78502803015E+02  0.47000000000E+01 0.  1.
         -5    1    4    4    0  502  0.67777213670E+02 -0.10200274984E+01 -0.11814737143E+03  0.13629263562E+03  0.47000000000E+01 0.  1.
          5    1    5    5  503    0  0.30855388911E+02 -0.26610494863E+02 -0.30844264839E+03  0.31115772658E+03  0.47000000000E+01 0. -1.
         -5    1    5    5    0  503 -0.49227107059E+02  0.42705910064E+02 -0.13236233167E+03  0.14761090634E+03  0.47000000000E+01 0. -1.
<mgrwt>
<rscale>  0 0.26816648E+03</rscale>
<asrwt>0</asrwt>
<pdfrwt beam="1">  1        2 0.42834150E-02 0.26816648E+03</pdfrwt>
<pdfrwt beam="2">  1       -2 0.99341824E-01 0.26816648E+03</pdfrwt>
<totfact> 0.16803387E+03</totfact>
</mgrwt>
</event>
<event>
 9    1  0.8186049E-001  0.2915274E+03  0.7818608E-02  0.1089554E+00
         -3   -1    0    0    0  501 -0.00000000000E+00  0.00000000000E+00  0.47139783415E+03  0.47139783415E+03  0.00000000000E+00 0. -1.
          3   -1    0    0  501    0  0.00000000000E+00 -0.00000000000E+00 -0.45072438736E+02  0.45072438736E+02  0.00000000000E+00 0. -1.
         35    2    1    2    0    0  0.00000000000E+00  0.00000000000E+00  0.42632539542E+03  0.51647027289E+03  0.29152735721E+03 0.  0.
         25    2    3    3    0    0  0.92855687607E+01 -0.52242374221E+02  0.30849590233E+03  0.33652966599E+03  0.12355973003E+03 0.  0.
         25    2    3    3    0    0 -0.92855687607E+01  0.52242374221E+02  0.11782949309E+03  0.17994060690E+03  0.12521719179E+03 0.  0.
          5    1    4    4  502    0  0.62947302569E+02 -0.10379577441E+02  0.18028948555E+03  0.19130208344E+03  0.47000000000E+01 0.  1.
         -5    1    4    4    0  502 -0.53661733808E+02 -0.41862796780E+02  0.12820641678E+03  0.14522758255E+03  0.47000000000E+01 0.  1.
          5    1    5    5  503    0  0.34299225572E+02 -0.27287668701E+02  0.49573896250E+02  0.66337884556E+02  0.47000000000E+01 0.  1.
         -5    1    5    5    0  503 -0.43584794332E+02  0.79530042923E+02  0.68255596840E+02  0.11360272235E+03  0.47000000000E+01 0.  1.
<mgrwt>
<rscale>  0 0.29152736E+03</rscale>
<asrwt>0</asrwt>
<pdfrwt beam="1">  1        3 0.69342216E-02 0.29152736E+03</pdfrwt>
<pdfrwt beam="2">  1       -3 0.72522741E-01 0.29152736E+03</pdfrwt>
<totfact> 0.63445711E+02</totfact>
</mgrwt>
</event>
<event>
 9    1  0.8186049E-001  0.2783226E+03  0.7818608E-02  0.1096609E+00
         -2   -1    0    0    0  501 -0.00000000000E+00  0.00000000000E+00  0.88374332353E+02  0.88374332353E+02  0.00000000000E+00 0. -1.
          2   -1    0    0  501    0  0.00000000000E+00 -0.00000000000E+00 -0.21913446487E+03  0.21913446487E+03  0.00000000000E+00 0. -1.
         35    2    1    2    0    0  0.00000000000E+00  0.00000000000E+00 -0.13076013252E+03  0.30750879722E+03  0.27832256127E+03 0.  0.
         25    2    3    3    0    0  0.15189083418E+02  0.16842685171E+02 -0.11131314499E+03  0.17864176604E+03  0.13786906842E+03 0.  0.
         25    2    3    3    0    0 -0.15189083418E+02 -0.16842685171E+02 -0.19446987525E+02  0.12886703118E+03  0.12535606129E+03 0.  0.
          5    1    4    4  502    0  0.56066221243E+02 -0.40079977947E+02 -0.48391333734E+02  0.84342379485E+02  0.47000000000E+01 0.  1.
         -5    1    4    4    0  502 -0.40877137824E+02  0.56922663118E+02 -0.62921811258E+02  0.94299386558E+02  0.47000000000E+01 0.  1.
          5    1    5    5  503    0 -0.16097555016E+02 -0.43691408277E+02  0.41212455896E+02  0.62358856274E+02  0.47000000000E+01 0. -1.
         -5    1    5    5    0  503  0.90847159753E+00  0.26848723106E+02 -0.60659443422E+02  0.66508174906E+02  0.47000000000E+01 0. -1.
<mgrwt>
<rscale>  0 0.27832256E+03</rscale>
<asrwt>0</asrwt>
<pdfrwt beam="1">  1        2 0.33712995E-01 0.27832256E+03</pdfrwt>
<pdfrwt beam="2">  1       -2 0.13596051E-01 0.27832256E+03</pdfrwt>
<totfact> 0.61676710E+03</totfact>
</mgrwt>
</event>
<event>
 9    1  0.8186049E-001  0.2756725E+03  0.7818608E-02  0.1098076E+00
          1   -1    0    0  501    0  0.00000000000E+00  0.00000000000E+00  0.39707855667E+03  0.39707855667E+03  0.00000000000E+00 0.  1.
         -1   -1    0    0    0  501 -0.00000000000E+00 -0.00000000000E+00 -0.47846544935E+02  0.47846544935E+02  0.00000000000E+00 0.  1.
         35    2    1    2    0    0  0.71054273576E-14  0.00000000000E+00  0.34923201173E+03  0.44492510160E+03  0.27567253765E+03 0.  0.
         25    2    3    3    0    0  0.38131259284E+02 -0.34526724374E+00  0.10384528207E+03  0.16670272647E+03  0.12470703373E+03 0.  0.
         25    2    3    3    0    0 -0.38131259284E+02  0.34526724374E+00  0.24538672966E+03  0.27822237513E+03  0.12545489542E+03 0.  0.
          5    1    4    4  502    0 -0.13915799745E+02 -0.51744484967E+02  0.62824830758E+02  0.82705444601E+02  0.47000000000E+01 0. -1.
         -5    1    4    4    0  502  0.52047059029E+02  0.51399217723E+02  0.41020451314E+02  0.83997281873E+02  0.47000000000E+01 0. -1.
          5    1    5    5  503    0 -0.18662199716E+02  0.16205172526E+02 -0.57350895899E+01  0.25804390468E+02  0.47000000000E+01 0. -1.
         -5    1    5    5    0  503 -0.19469059568E+02 -0.15859905282E+02  0.25112181925E+03  0.25241798466E+03  0.47000000000E+01 0. -1.
<mgrwt>
<rscale>  0 0.27567254E+03</rscale>
<asrwt>0</asrwt>
<pdfrwt beam="1">  1        1 0.61089006E-01 0.27567254E+03</pdfrwt>
<pdfrwt beam="2">  1       -1 0.73610072E-02 0.27567254E+03</pdfrwt>
<totfact> 0.59504989E+03</totfact>
</mgrwt>
</event>
<event>
 9    1  0.8186049E-001  0.2777768E+03  0.7818608E-02  0.1096909E+00
         -1   -1    0    0    0  501 -0.00000000000E+00  0.00000000000E+00  0.47037540344E+02  0.47037540344E+02  0.00000000000E+00 0.  1.
          1   -1    0    0  501    0  0.00000000000E+00 -0.00000000000E+00 -0.41009784508E+03  0.41009784508E+03  0.00000000000E+00 0.  1.
         35    2    1    2    0    0  0.17763568394E-14 -0.14210854715E-13 -0.36306030473E+03  0.45713538542E+03  0.27777684520E+03 0.  0.
         25    2    3    3    0    0 -0.65639970651E+00  0.58813076857E+02 -0.21439742601E+03  0.25488087488E+03  0.12465390179E+03 0.  0.
         25    2    3    3    0    0  0.65639970651E+00 -0.58813076857E+02 -0.14866287873E+03  0.20225451054E+03  0.12388230968E+03 0.  0.
          5    1    4    4  502    0 -0.35259215955E+02  0.41227352045E+02 -0.22293929856E+02  0.58838900183E+02  0.47000000000E+01 0. -1.
         -5    1    4    4    0  502  0.34602816248E+02  0.17585724812E+02 -0.19210349615E+03  0.19604197470E+03  0.47000000000E+01 0. -1.
          5    1    5    5  503    0 -0.92872084677E+01 -0.87069195716E+02 -0.14787901005E+03  0.17192320581E+03  0.47000000000E+01 0.  1.
         -5    1    5    5    0  503  0.99436081742E+01  0.28256118859E+02 -0.78386867993E+00  0.30331304730E+02  0.47000000000E+01 0.  1.
<mgrwt>
<rscale>  0 0.27777685E+03</rscale>
<asrwt>0</asrwt>
<pdfrwt beam="1">  1        1 0.63091977E-01 0.27777685E+03</pdfrwt>
<pdfrwt beam="2">  1       -1 0.72365446E-02 0.27777685E+03</pdfrwt>
<totfact> 0.58603930E+03</totfact>
</mgrwt>
</event>
<event>
 9    1  0.8186049E-001  0.2759815E+03  0.7818608E-02  0.1097904E+00
          4   -1    0    0  501    0  0.00000000000E+00  0.00000000000E+00  0.26206082054E+03  0.26206082054E+03  0.00000000000E+00 0.  1.
         -4   -1    0    0    0  501 -0.00000000000E+00 -0.00000000000E+00 -0.72660405551E+02  0.72660405551E+02  0.00000000000E+00 0.  1.
         35    2    1    2    0    0 -0.71054273576E-14  0.00000000000E+00  0.18940041499E+03  0.33472122609E+03  0.27598148850E+03 0.  0.
         25    2    3    3    0    0  0.32012968631E+02  0.49502763818E+02  0.92977777311E+02  0.16635753571E+03  0.12471811748E+03 0.  0.
         25    2    3    3    0    0 -0.32012968631E+02 -0.49502763818E+02  0.96422637674E+02  0.16836369038E+03  0.12479444457E+03 0.  0.
          5    1    4    4  502    0 -0.29817667142E+02 -0.13628062942E+02 -0.59255421037E+01  0.33645496319E+02  0.47000000000E+01 0. -1.
         -5    1    4    4    0  502  0.61830635772E+02  0.63130826760E+02  0.98903319415E+02  0.13271203939E+03  0.47000000000E+01 0. -1.
          5    1    5    5  503    0  0.70820030449E+01  0.31344914848E+02  0.65778064756E+02  0.73358723114E+02  0.47000000000E+01 0. -1.
         -5    1    5    5    0  503 -0.39094971676E+02 -0.80847678666E+02  0.30644572918E+02  0.95004967267E+02  0.47000000000E+01 0. -1.
<mgrwt>
<rscale>  0 0.27598149E+03</rscale>
<asrwt>0</asrwt>
<pdfrwt beam="1">  1        4 0.40317049E-01 0.27598149E+03</pdfrwt>
<pdfrwt beam="2">  1       -4 0.11178524E-01 0.27598149E+03</pdfrwt>
<totfact> 0.70495982E+02</totfact>
</mgrwt>
</event>
<event>
 9    1  0.8186049E-001  0.2741491E+03  0.7818608E-02  0.1098928E+00
         -3   -1    0    0    0  501 -0.00000000000E+00  0.00000000000E+00  0.59345141378E+03  0.59345141378E+03  0.00000000000E+00 0. -1.
          3   -1    0    0  501    0  0.00000000000E+00 -0.00000000000E+00 -0.31661270166E+02  0.31661270166E+02  0.00000000000E+00 0. -1.
         35    2    1    2    0    0  0.00000000000E+00  0.00000000000E+00  0.56179014361E+03  0.62511268395E+03  0.27414905101E+03 0.  0.
         25    2    3    3    0    0 -0.46594810818E+02  0.27987462111E+02  0.31763850250E+03  0.34550068800E+03  0.12458785136E+03 0.  0.
         25    2    3    3    0    0  0.46594810818E+02 -0.27987462111E+02  0.24415164111E+03  0.27961199594E+03  0.12497387722E+03 0.  0.
          5    1    4    4  502    0 -0.45859322957E+01 -0.26920928450E+02  0.89345388400E+01  0.29114998676E+02  0.47000000000E+01 0. -1.
         -5    1    4    4    0  502 -0.42008878523E+02  0.54908390561E+02  0.30870396366E+03  0.31638568933E+03  0.47000000000E+01 0. -1.
          5    1    5    5  503    0  0.87745392088E+02 -0.33959541657E+01  0.15083989302E+03  0.17460111587E+03  0.47000000000E+01 0.  1.
         -5    1    5    5    0  503 -0.41150581270E+02 -0.24591507945E+02  0.93311748087E+02  0.10501088007E+03  0.47000000000E+01 0.  1.
<mgrwt>
<rscale>  0 0.27414905E+03</rscale>
<asrwt>0</asrwt>
<pdfrwt beam="1">  1        3 0.48709651E-02 0.27414905E+03</pdfrwt>
<pdfrwt beam="2">  1       -3 0.91300209E-01 0.27414905E+03</pdfrwt>
<totfact> 0.67094141E+02</totfact>
</mgrwt>
</event>
<event>
 9    1  0.8186049E-001  0.2685381E+03  0.7818608E-02  0.1102119E+00
          3   -1    0    0  501    0  0.00000000000E+00  0.00000000000E+00  0.34693871360E+03  0.34693871360E+03  0.00000000000E+00 0.  1.
         -3   -1    0    0    0  501 -0.00000000000E+00 -0.00000000000E+00 -0.51963590042E+02  0.51963590042E+02  0.00000000000E+00 0.  1.
         35    2    1    2    0    0  0.35527136788E-14 -0.71054273576E-14  0.29497512355E+03  0.39890230364E+03  0.26853812454E+03 0.  0.
         25    2    3    3    0    0  0.31754142630E+02 -0.16478123069E+02  0.18556813396E+03  0.22883753639E+03  0.12903965129E+03 0.  0.
         25    2    3    3    0    0 -0.31754142630E+02  0.16478123069E+02  0.10940698959E+03  0.17006476725E+03  0.12518898343E+03 0.  0.
          5    1    4    4  502    0  0.59318472765E+02 -0.54201248060E+02  0.80904360655E+02  0.11412301291E+03  0.47000000000E+01 0.  1.
         -5    1    4    4    0  502 -0.27564330135E+02  0.37723124991E+02  0.10466377331E+03  0.11471452348E+03  0.47000000000E+01 0.  1.
          5    1    5    5  503    0 -0.11917341849E+01 -0.51857676115E+02  0.63489192826E+02  0.82119464246E+02  0.47000000000E+01 0. -1.
         -5    1    5    5    0  503 -0.30562408445E+02  0.68335799184E+02  0.45917796767E+02  0.87945303002E+02  0.47000000000E+01 0. -1.
<mgrwt>
<rscale>  0 0.26853812E+03</rscale>
<asrwt>0</asrwt>
<pdfrwt beam="1">  1        3 0.53375185E-01 0.26853812E+03</pdfrwt>
<pdfrwt beam="2">  1       -3 0.79943987E-02 0.26853812E+03</pdfrwt>
<totfact> 0.94864523E+02</totfact>
</mgrwt>
</event>
<event>
 9    1  0.8186049E-001  0.2763446E+03  0.7818608E-02  0.1097702E+00
         -2   -1    0    0    0  501 -0.00000000000E+00  0.00000000000E+00  0.18801944674E+04  0.18801944674E+04  0.00000000000E+00 0.  1.
          2   -1    0    0  501    0  0.00000000000E+00 -0.00000000000E+00 -0.10154045809E+02  0.10154045809E+02  0.00000000000E+00 0.  1.
         35    2    1    2    0    0  0.71054273576E-14  0.71054273576E-14  0.18700404216E+04  0.18903485132E+04  0.27634457296E+03 0.  0.
         25    2    3    3    0    0 -0.50054174944E+02  0.45073061453E+02  0.95827347878E+03  0.96876787697E+03  0.12524431334E+03 0.  0.
         25    2    3    3    0    0  0.50054174944E+02 -0.45073061453E+02  0.91176694284E+03  0.92158063627E+03  0.11599530069E+03 0.  0.
          5    1    4    4  502    0 -0.36458499555E+02 -0.18570645303E+02  0.10184077039E+03  0.10985319098E+03  0.47000000000E+01 0.  1.
         -5    1    4    4    0  502 -0.13595675389E+02  0.63643706755E+02  0.85643270839E+03  0.85891468598E+03  0.47000000000E+01 0.  1.
          5    1    5    5  503    0  0.65137080918E+02  0.19080362793E+02  0.45328053344E+03  0.45835819132E+03  0.47000000000E+01 0. -1.
         -5    1    5    5    0  503 -0.15082905973E+02 -0.64153424246E+02  0.45848640940E+03  0.46322244495E+03  0.47000000000E+01 0. -1.
<mgrwt>
<rscale>  0 0.27634457E+03</rscale>
<asrwt>0</asrwt>
<pdfrwt beam="1">  1        2 0.15621624E-02 0.27634457E+03</pdfrwt>
<pdfrwt beam="2">  1       -2 0.28926041E+00 0.27634457E+03</pdfrwt>
<totfact> 0.32658311E+02</totfact>
</mgrwt>
</event>
<event>
 9    1  0.8186049E-001  0.2801497E+03  0.7818608E-02  0.1095607E+00
         -2   -1    0    0    0  501 -0.00000000000E+00  0.00000000000E+00  0.46902477439E+02  0.46902477439E+02  0.00000000000E+00 0. -1.
          2   -1    0    0  501    0  0.00000000000E+00 -0.00000000000E+00 -0.41833523276E+03  0.41833523276E+03  0.00000000000E+00 0. -1.
         35    2    1    2    0    0  0.00000000000E+00  0.35527136788E-14 -0.37143275532E+03  0.46523771020E+03  0.28014966583E+03 0.  0.
         25    2    3    3    0    0 -0.52368301094E+02 -0.25887927320E+02 -0.24128527019E+03  0.27745886552E+03  0.12390406252E+03 0.  0.
         25    2    3    3    0    0  0.52368301094E+02  0.25887927320E+02 -0.13014748513E+03  0.18777884467E+03  0.12210611319E+03 0.  0.
          5    1    4    4  502    0  0.90389417725E+01 -0.40003937602E+01  0.11785528335E+02  0.16083976397E+02  0.47000000000E+01 0. -1.
         -5    1    4    4    0  502 -0.61407242866E+02 -0.21887533560E+02 -0.25307079852E+03  0.26137488913E+03  0.47000000000E+01 0. -1.
          5    1    5    5  503    0  0.69491473804E+02  0.51597570036E+02 -0.46239995531E+02  0.98242563850E+02  0.47000000000E+01 0. -1.
         -5    1    5    5    0  503 -0.17123172710E+02 -0.25709642716E+02 -0.83907489600E+02  0.89536280821E+02  0.47000000000E+01 0. -1.
<mgrwt>
<rscale>  0 0.28014967E+03</rscale>
<asrwt>0</asrwt>
<pdfrwt beam="1">  1        2 0.64359266E-01 0.28014967E+03</pdfrwt>
<pdfrwt beam="2">  1       -2 0.72157658E-02 0.28014967E+03</pdfrwt>
<totfact> 0.83989181E+03</totfact>
</mgrwt>
</event>
<event>
 9    1  0.8186049E-001  0.2732314E+03  0.7818608E-02  0.1099444E+00
          1   -1    0    0  501    0  0.00000000000E+00  0.00000000000E+00  0.17869518726E+04  0.17869518726E+04  0.00000000000E+00 0. -1.
         -1   -1    0    0    0  501 -0.00000000000E+00 -0.00000000000E+00 -0.10444518268E+02  0.10444518268E+02  0.00000000000E+00 0. -1.
         35    2    1    2    0    0  0.71054273576E-14  0.35527136788E-14  0.17765073543E+04  0.17973963909E+04  0.27323141457E+03 0.  0.
         25    2    3    3    0    0 -0.44371704046E+02 -0.31322920397E+02  0.92133428219E+03  0.93140196232E+03  0.12531074342E+03 0.  0.
         25    2    3    3    0    0  0.44371704046E+02  0.31322920397E+02  0.85517307214E+03  0.86599442854E+03  0.12520141170E+03 0.  0.
          5    1    4    4  502    0 -0.64818320367E+02  0.30057918276E+02  0.46514425642E+03  0.47062316389E+03  0.47000000000E+01 0.  1.
         -5    1    4    4    0  502  0.20446616321E+02 -0.61380838673E+02  0.45619002577E+03  0.46077879843E+03  0.47000000000E+01 0.  1.
          5    1    5    5  503    0  0.75996534901E+02 -0.15991139545E+02  0.55638787139E+03  0.56180133792E+03  0.47000000000E+01 0. -1.
         -5    1    5    5    0  503 -0.31624830854E+02  0.47314059942E+02  0.29878520076E+03  0.30419309063E+03  0.47000000000E+01 0. -1.
<mgrwt>
<rscale>  0 0.27323141E+03</rscale>
<asrwt>0</asrwt>
<pdfrwt beam="1">  1        1 0.27491543E+00 0.27323141E+03</pdfrwt>
<pdfrwt beam="2">  1       -1 0.16068504E-02 0.27323141E+03</pdfrwt>
<totfact> 0.43806461E+03</totfact>
</mgrwt>
</event>
<event>
 9    1  0.8186049E-001  0.2697567E+03  0.7818608E-02  0.1101419E+00
         -1   -1    0    0    0  501 -0.00000000000E+00  0.00000000000E+00  0.17995495441E+02  0.17995495441E+02  0.00000000000E+00 0.  1.
          1   -1    0    0  501    0  0.00000000000E+00 -0.00000000000E+00 -0.10109289414E+04  0.10109289414E+04  0.00000000000E+00 0.  1.
         35    2    1    2    0    0  0.00000000000E+00  0.00000000000E+00 -0.99293344598E+03  0.10289244369E+04  0.26975668412E+03 0.  0.
         25    2    3    3    0    0 -0.21400615588E+02  0.32949095843E+02 -0.40401735654E+03  0.42544364201E+03  0.12739167509E+03 0.  0.
         25    2    3    3    0    0  0.21400615588E+02 -0.32949095843E+02 -0.58891608944E+03  0.60348079485E+03  0.12579062000E+03 0.  0.
          5    1    4    4  502    0 -0.62102496792E+02  0.43752359837E+02 -0.34177337592E+03  0.35014585473E+03  0.47000000000E+01 0.  1.
         -5    1    4    4    0  502  0.40701881203E+02 -0.10803263994E+02 -0.62243980616E+02  0.75297787280E+02  0.47000000000E+01 0.  1.
          5    1    5    5  503    0 -0.24238420636E+02 -0.44140983195E+02 -0.50218777540E+03  0.50472822310E+03  0.47000000000E+01 0.  1.
         -5    1    5    5    0  503  0.45639036224E+02  0.11191887352E+02 -0.86728314041E+02  0.98752571746E+02  0.47000000000E+01 0.  1.
<mgrwt>
<rscale>  0 0.26975668E+03</rscale>
<asrwt>0</asrwt>
<pdfrwt beam="1">  1        1 0.15552753E+00 0.26975668E+03</pdfrwt>
<pdfrwt beam="2">  1       -1 0.27685377E-02 0.26975668E+03</pdfrwt>
<totfact> 0.66569643E+03</totfact>
</mgrwt>
</event>
<event>
 9    1  0.8186049E-001  0.2831883E+03  0.7818608E-02  0.1093960E+00
          2   -1    0    0  501    0  0.00000000000E+00  0.00000000000E+00  0.10792641797E+04  0.10792641797E+04  0.00000000000E+00 0.  1.
         -2   -1    0    0    0  501 -0.00000000000E+00 -0.00000000000E+00 -0.18576452917E+02  0.18576452917E+02  0.00000000000E+00 0.  1.
         35    2    1    2    0    0  0.14210854715E-13  0.00000000000E+00  0.10606877268E+04  0.10978406326E+04  0.28318827814E+03 0.  0.
         25    2    3    3    0    0  0.63002957931E+02  0.22661197911E+02  0.54159816794E+03  0.55989661261E+03  0.12519080916E+03 0.  0.
         25    2    3    3    0    0 -0.63002957931E+02 -0.22661197911E+02  0.51908955885E+03  0.53794402002E+03  0.12428554205E+03 0.  0.
          5    1    4    4  502    0  0.99205266011E+02  0.31895528910E+02  0.39659127196E+03  0.41008015870E+03  0.47000000000E+01 0.  1.
         -5    1    4    4    0  502 -0.36202308080E+02 -0.92343309992E+01  0.14500689598E+03  0.14981645391E+03  0.47000000000E+01 0.  1.
          5    1    5    5  503    0 -0.74423816418E+02  0.34751437489E+02  0.28957352711E+03  0.30103402542E+03  0.47000000000E+01 0.  1.
         -5    1    5    5    0  503  0.11420858487E+02 -0.57412635400E+02  0.22951603174E+03  0.23690999459E+03  0.47000000000E+01 0.  1.
<mgrwt>
<rscale>  0 0.28318828E+03</rscale>
<asrwt>0</asrwt>
<pdfrwt beam="1">  1        2 0.16604059E+00 0.28318828E+03</pdfrwt>
<pdfrwt beam="2">  1       -2 0.28579167E-02 0.28318828E+03</pdfrwt>
<totfact> 0.10693703E+04</totfact>
</mgrwt>
</event>
<event>
 9    1  0.8186049E-001  0.2804502E+03  0.7818608E-02  0.1095443E+00
          1   -1    0    0  501    0  0.00000000000E+00  0.00000000000E+00  0.49147539190E+02  0.49147539190E+02  0.00000000000E+00 0. -1.
         -1   -1    0    0    0  501 -0.00000000000E+00 -0.00000000000E+00 -0.40008279418E+03  0.40008279418E+03  0.00000000000E+00 0. -1.
         35    2    1    2    0    0 -0.71054273576E-14  0.00000000000E+00 -0.35093525499E+03  0.44923033337E+03  0.28045024376E+03 0.  0.
         25    2    3    3    0    0 -0.43851635246E+02 -0.26166025639E+02 -0.21790291158E+03  0.25800863209E+03  0.12837113596E+03 0.  0.
         25    2    3    3    0    0  0.43851635246E+02  0.26166025639E+02 -0.13303234341E+03  0.19122170128E+03  0.12751669630E+03 0.  0.
          5    1    4    4  502    0  0.27466012340E+01  0.48934699103E+02 -0.87603190321E+02  0.10049157949E+03  0.47000000000E+01 0.  1.
         -5    1    4    4    0  502 -0.46598236480E+02 -0.75100724743E+02 -0.13029972126E+03  0.15751705260E+03  0.47000000000E+01 0.  1.
          5    1    5    5  503    0 -0.31105496172E+02 -0.16873048035E+02 -0.41083962441E+01  0.35933557600E+02  0.47000000000E+01 0.  1.
         -5    1    5    5    0  503  0.74957131419E+02  0.43039073675E+02 -0.12892394717E+03  0.15528814368E+03  0.47000000000E+01 0.  1.
<mgrwt>
<rscale>  0 0.28045024E+03</rscale>
<asrwt>0</asrwt>
<pdfrwt beam="1">  1        1 0.75611597E-02 0.28045024E+03</pdfrwt>
<pdfrwt beam="2">  1       -1 0.61551200E-01 0.28045024E+03</pdfrwt>
<totfact> 0.25925378E+03</totfact>
</mgrwt>
</event>
<event>
 9    1  0.8186049E-001  0.2753803E+03  0.7818608E-02  0.1098239E+00
          1   -1    0    0  501    0  0.00000000000E+00  0.00000000000E+00  0.22267342204E+04  0.22267342204E+04  0.00000000000E+00 0. -1.
         -1   -1    0    0    0  501 -0.00000000000E+00 -0.00000000000E+00 -0.85140729212E+01  0.85140729212E+01  0.00000000000E+00 0. -1.
         35    2    1    2    0    0  0.71054273576E-14  0.00000000000E+00  0.22182201475E+04  0.22352482933E+04  0.27538030088E+03 0.  0.
         25    2    3    3    0    0 -0.46457078079E+02 -0.11227465175E+02  0.13391986894E+04  0.13461742488E+04  0.12824844024E+03 0.  0.
         25    2    3    3    0    0  0.46457078079E+02  0.11227465175E+02  0.87902145812E+03  0.88907404454E+03  0.12445728890E+03 0.  0.
          5    1    4    4  502    0 -0.89865876529E+02 -0.57974892567E+01  0.76604964752E+03  0.77133886141E+03  0.47000000000E+01 0. -1.
         -5    1    4    4    0  502  0.43408798450E+02 -0.54299759178E+01  0.57314904187E+03  0.57483538741E+03  0.47000000000E+01 0. -1.
          5    1    5    5  503    0 -0.15332355751E+02 -0.31698639413E+02  0.56559910061E+03  0.56671361152E+03  0.47000000000E+01 0. -1.
         -5    1    5    5    0  503  0.61789433830E+02  0.42926104588E+02  0.31342235751E+03  0.32236043302E+03  0.47000000000E+01 0. -1.
<mgrwt>
<rscale>  0 0.27538030E+03</rscale>
<asrwt>0</asrwt>
<pdfrwt beam="1">  1        1 0.34257403E+00 0.27538030E+03</pdfrwt>
<pdfrwt beam="2">  1       -1 0.13098591E-02 0.27538030E+03</pdfrwt>
<totfact> 0.30525602E+03</totfact>
</mgrwt>
</event>
<event>
 9    1  0.8186049E-001  0.2742981E+03  0.7818608E-02  0.1098845E+00
          2   -1    0    0  501    0  0.00000000000E+00  0.00000000000E+00  0.47624751045E+03  0.47624751045E+03  0.00000000000E+00 0. -1.
         -2   -1    0    0    0  501 -0.00000000000E+00 -0.00000000000E+00 -0.39495989834E+02  0.39495989834E+02  0.00000000000E+00 0. -1.
         35    2    1    2    0    0  0.71054273576E-14  0.35527136788E-14  0.43675152061E+03  0.51574350028E+03  0.27429813584E+03 0.  0.
         25    2    3    3    0    0 -0.39108165425E+02 -0.22354285879E+02  0.27955059903E+03  0.30949485659E+03  0.12493744889E+03 0.  0.
         25    2    3    3    0    0  0.39108165425E+02  0.22354285879E+02  0.15720092158E+03  0.20624864369E+03  0.12568695469E+03 0.  0.
          5    1    4    4  502    0 -0.38678309464E+02  0.39357736596E+02  0.20626612424E+03  0.21357164386E+03  0.47000000000E+01 0. -1.
         -5    1    4    4    0  502 -0.42985596099E+00 -0.61712022475E+02  0.73284474798E+02  0.95923212730E+02  0.47000000000E+01 0. -1.
          5    1    5    5  503    0 -0.17646766626E+02 -0.24557499172E+02 -0.21153417178E+01  0.30676437351E+02  0.47000000000E+01 0.  1.
         -5    1    5    5    0  503  0.56754932052E+02  0.46911785051E+02  0.15931626330E+03  0.17557220634E+03  0.47000000000E+01 0.  1.
<mgrwt>
<rscale>  0 0.27429814E+03</rscale>
<asrwt>0</asrwt>
<pdfrwt beam="1">  1        2 0.73268844E-01 0.27429814E+03</pdfrwt>
<pdfrwt beam="2">  1       -2 0.60763065E-02 0.27429814E+03</pdfrwt>
<totfact> 0.94869670E+03</totfact>
</mgrwt>
</event>
<event>
 9    1  0.8186049E-001  0.2733031E+03  0.7818608E-02  0.1099404E+00
         -1   -1    0    0    0  501 -0.00000000000E+00  0.00000000000E+00  0.20738774741E+03  0.20738774741E+03  0.00000000000E+00 0.  1.
          1   -1    0    0  501    0  0.00000000000E+00 -0.00000000000E+00 -0.90042175951E+02  0.90042175951E+02  0.00000000000E+00 0.  1.
         35    2    1    2    0    0  0.00000000000E+00  0.00000000000E+00  0.11734557146E+03  0.29742992336E+03  0.27330308482E+03 0.  0.
         25    2    3    3    0    0  0.21452583467E+02 -0.47978800201E+02  0.43159777807E+02  0.14264111256E+03  0.12538557320E+03 0.  0.
         25    2    3    3    0    0 -0.21452583467E+02  0.47978800201E+02  0.74185793652E+02  0.15478881080E+03  0.12527515860E+03 0.  0.
          5    1    4    4  502    0  0.73465550979E+02 -0.37463031801E+02  0.28647549275E+02  0.87426757985E+02  0.47000000000E+01 0. -1.
         -5    1    4    4    0  502 -0.52012967512E+02 -0.10515768399E+02  0.14512228532E+02  0.55214354577E+02  0.47000000000E+01 0. -1.
          5    1    5    5  503    0  0.25769045045E+02 -0.18973939573E+02 -0.13178354371E+02  0.34925822673E+02  0.47000000000E+01 0. -1.
         -5    1    5    5    0  503 -0.47221628512E+02  0.66952739774E+02  0.87364148023E+02  0.11986298813E+03  0.47000000000E+01 0. -1.
<mgrwt>
<rscale>  0 0.27330308E+03</rscale>
<asrwt>0</asrwt>
<pdfrwt beam="1">  1        1 0.13852642E-01 0.27330308E+03</pdfrwt>
<pdfrwt beam="2">  1       -1 0.31905807E-01 0.27330308E+03</pdfrwt>
<totfact> 0.37842765E+03</totfact>
</mgrwt>
</event>
<event>
 9    1  0.8186049E-001  0.2852159E+03  0.7818608E-02  0.1092874E+00
         -1   -1    0    0    0  501 -0.00000000000E+00  0.00000000000E+00  0.18471709403E+02  0.18471709403E+02  0.00000000000E+00 0.  1.
          1   -1    0    0  501    0  0.00000000000E+00 -0.00000000000E+00 -0.11009823859E+04  0.11009823859E+04  0.00000000000E+00 0.  1.
         35    2    1    2    0    0  0.71054273576E-14  0.00000000000E+00 -0.10825106765E+04  0.11194540953E+04  0.28521589500E+03 0.  0.
         25    2    3    3    0    0  0.62273693837E+02 -0.22417815627E+02 -0.54323272002E+03  0.56167534597E+03  0.12647859415E+03 0.  0.
         25    2    3    3    0    0 -0.62273693837E+02  0.22417815627E+02 -0.53927795649E+03  0.55777874934E+03  0.12615802572E+03 0.  0.
          5    1    4    4  502    0  0.83818927066E+02  0.26114865232E+02 -0.37646450613E+03  0.38659437800E+03  0.47000000000E+01 0. -1.
         -5    1    4    4    0  502 -0.21545233228E+02 -0.48532680858E+02 -0.16676821388E+03  0.17508096798E+03  0.47000000000E+01 0. -1.
          5    1    5    5  503    0 -0.11301126449E+02 -0.20095978920E+02 -0.12176419062E+02  0.26493754150E+02  0.47000000000E+01 0. -1.
         -5    1    5    5    0  503 -0.50972567388E+02  0.42513794546E+02 -0.52710153743E+03  0.53128499519E+03  0.47000000000E+01 0. -1.
<mgrwt>
<rscale>  0 0.28521589E+03</rscale>
<asrwt>0</asrwt>
<pdfrwt beam="1">  1        1 0.16938194E+00 0.28521589E+03</pdfrwt>
<pdfrwt beam="2">  1       -1 0.28418009E-02 0.28521589E+03</pdfrwt>
<totfact> 0.55086447E+03</totfact>
</mgrwt>
</event>
<event>
 9    1  0.8186049E-001  0.2728408E+03  0.7818608E-02  0.1099665E+00
          1   -1    0    0  501    0  0.00000000000E+00  0.00000000000E+00  0.59521813014E+03  0.59521813014E+03  0.00000000000E+00 0.  1.
         -1   -1    0    0    0  501 -0.00000000000E+00 -0.00000000000E+00 -0.31266740554E+02  0.31266740554E+02  0.00000000000E+00 0.  1.
         35    2    1    2    0    0 -0.35527136788E-14  0.00000000000E+00  0.56395138958E+03  0.62648487069E+03  0.27284083894E+03 0.  0.
         25    2    3    3    0    0  0.18819391425E+02 -0.45729631042E+02  0.33582496765E+03  0.36161415698E+03  0.12466363135E+03 0.  0.
         25    2    3    3    0    0 -0.18819391425E+02  0.45729631042E+02  0.22812642194E+03  0.26487071371E+03  0.12517772146E+03 0.  0.
          5    1    4    4  502    0  0.37387790083E+02 -0.78811549780E+02  0.28455312733E+03  0.29766034251E+03  0.47000000000E+01 0. -1.
         -5    1    4    4    0  502 -0.18568398658E+02  0.33081918739E+02  0.51271840313E+02  0.63953814470E+02  0.47000000000E+01 0. -1.
          5    1    5    5  503    0 -0.28790954395E+02 -0.39243031148E+02  0.84320907486E+02  0.97473278327E+02  0.47000000000E+01 0. -1.
         -5    1    5    5    0  503  0.99715629696E+01  0.84972662189E+02  0.14380551445E+03  0.16739743539E+03  0.47000000000E+01 0. -1.
<mgrwt>
<rscale>  0 0.27284084E+03</rscale>
<asrwt>0</asrwt>
<pdfrwt beam="1">  1        1 0.91572012E-01 0.27284084E+03</pdfrwt>
<pdfrwt beam="2">  1       -1 0.48102682E-02 0.27284084E+03</pdfrwt>
<totfact> 0.66078495E+03</totfact>
</mgrwt>
</event>
<event>
 9    1  0.8186049E-001  0.2669333E+03  0.7818608E-02  0.1103048E+00
         -4   -1    0    0    0  501 -0.00000000000E+00  0.00000000000E+00  0.10839135884E+04  0.10839135884E+04  0.00000000000E+00 0.  1.
          4   -1    0    0  501    0  0.00000000000E+00 -0.00000000000E+00 -0.16434284121E+02  0.16434284121E+02  0.00000000000E+00 0.  1.
         35    2    1    2    0    0  0.35527136788E-14  0.00000000000E+00  0.10674793042E+04  0.11003478725E+04  0.26693327911E+03 0.  0.
         25    2    3    3    0    0 -0.52976024332E+01 -0.42858713272E+02  0.45366180590E+03  0.47263114037E+03  0.12532448613E+03 0.  0.
         25    2    3    3    0    0  0.52976024332E+01  0.42858713272E+02  0.61381749835E+03  0.62771673212E+03  0.12406224488E+03 0.  0.
          5    1    4    4  502    0  0.37921754553E+00  0.37824645875E+02  0.25888157430E+03  0.26167270999E+03  0.47000000000E+01 0. -1.
         -5    1    4    4    0  502 -0.56768199788E+01 -0.80683359147E+02  0.19478023160E+03  0.21095843038E+03  0.47000000000E+01 0. -1.
          5    1    5    5  503    0 -0.43601224228E+02  0.16284794527E+02  0.48578920308E+03  0.48803637274E+03  0.47000000000E+01 0.  1.
         -5    1    5    5    0  503  0.48898826661E+02  0.26573918745E+02  0.12802829527E+03  0.13968035938E+03  0.47000000000E+01 0.  1.
<mgrwt>
<rscale>  0 0.26693328E+03</rscale>
<asrwt>0</asrwt>
<pdfrwt beam="1">  1        4 0.25283523E-02 0.26693328E+03</pdfrwt>
<pdfrwt beam="2">  1       -4 0.16675588E+00 0.26693328E+03</pdfrwt>
<totfact> 0.31486292E+02</totfact>
</mgrwt>
</event>
<event>
 9    1  0.8186049E-001  0.2759311E+03  0.7818608E-02  0.1097932E+00
          4   -1    0    0  501    0  0.00000000000E+00  0.00000000000E+00  0.59582150720E+03  0.59582150720E+03  0.00000000000E+00 0.  1.
         -4   -1    0    0    0  501 -0.00000000000E+00 -0.00000000000E+00 -0.31946627671E+02  0.31946627671E+02  0.00000000000E+00 0.  1.
         35    2    1    2    0    0  0.14210854715E-13 -0.71054273576E-14  0.56387487953E+03  0.62776813487E+03  0.27593106276E+03 0.  0.
         25    2    3    3    0    0  0.46478561230E+02  0.20334779787E+02  0.20845339248E+03  0.24922444984E+03  0.12683157981E+03 0.  0.
         25    2    3    3    0    0 -0.46478561230E+02 -0.20334779787E+02  0.35542148704E+03  0.37854368503E+03  0.11998803316E+03 0.  0.
          5    1    4    4  502    0  0.41859024407E+02  0.30633831758E+02  0.13388689631E+02  0.53776914959E+02  0.47000000000E+01 0. -1.
         -5    1    4    4    0  502  0.46195368224E+01 -0.10299051971E+02  0.19506470285E+03  0.19544753488E+03  0.47000000000E+01 0. -1.
          5    1    5    5  503    0  0.18823404506E+02  0.37694863602E+02  0.13013468536E+03  0.13686617417E+03  0.47000000000E+01 0. -1.
         -5    1    5    5    0  503 -0.65301965735E+02 -0.58029643389E+02  0.22528680169E+03  0.24167751086E+03  0.47000000000E+01 0. -1.
<mgrwt>
<rscale>  0 0.27593106E+03</rscale>
<asrwt>0</asrwt>
<pdfrwt beam="1">  1        4 0.91664839E-01 0.27593106E+03</pdfrwt>
<pdfrwt beam="2">  1       -4 0.49148662E-02 0.27593106E+03</pdfrwt>
<totfact> 0.48044081E+02</totfact>
</mgrwt>
</event>
<event>
 9    1  0.8186049E-001  0.2743038E+03  0.7818608E-02  0.1098841E+00
          4   -1    0    0  501    0  0.00000000000E+00  0.00000000000E+00  0.80086590178E+02  0.80086590178E+02  0.00000000000E+00 0.  1.
         -4   -1    0    0    0  501 -0.00000000000E+00 -0.00000000000E+00 -0.23487889720E+03  0.23487889720E+03  0.00000000000E+00 0.  1.
         35    2    1    2    0    0  0.71054273576E-14  0.00000000000E+00 -0.15479230702E+03  0.31496548738E+03  0.27430384599E+03 0.  0.
         25    2    3    3    0    0  0.17692807806E+02  0.48627350452E+02 -0.48471681939E+02  0.14280019481E+03  0.12395457648E+03 0.  0.
         25    2    3    3    0    0 -0.17692807806E+02 -0.48627350452E+02 -0.10632062508E+03  0.17216529256E+03  0.12513655735E+03 0.  0.
          5    1    4    4  502    0 -0.52293863887E+02  0.13357239694E+02 -0.89841809957E+01  0.54916933278E+02  0.47000000000E+01 0.  1.
         -5    1    4    4    0  502  0.69986671693E+02  0.35270110759E+02 -0.39487500943E+02  0.87883261537E+02  0.47000000000E+01 0.  1.
          5    1    5    5  503    0 -0.44601997229E+02 -0.36657735681E+02  0.38279105066E+01  0.58050586912E+02  0.47000000000E+01 0.  1.
         -5    1    5    5    0  503  0.26909189423E+02 -0.11969614772E+02 -0.11014853559E+03  0.11411470565E+03  0.47000000000E+01 0.  1.
<mgrwt>
<rscale>  0 0.27430385E+03</rscale>
<asrwt>0</asrwt>
<pdfrwt beam="1">  1        4 0.12321014E-01 0.27430385E+03</pdfrwt>
<pdfrwt beam="2">  1       -4 0.36135214E-01 0.27430385E+03</pdfrwt>
<totfact> 0.73931201E+02</totfact>
</mgrwt>
</event>
<event>
 9    1  0.8186049E-001  0.2747490E+03  0.7818608E-02  0.1098592E+00
          1   -1    0    0  501    0  0.00000000000E+00  0.00000000000E+00  0.19937721727E+03  0.19937721727E+03  0.00000000000E+00 0. -1.
         -1   -1    0    0    0  501 -0.00000000000E+00 -0.00000000000E+00 -0.94653490281E+02  0.94653490281E+02  0.00000000000E+00 0. -1.
         35    2    1    2    0    0  0.35527136788E-14 -0.71054273576E-14  0.10472372699E+03  0.29403070755E+03  0.27474897268E+03 0.  0.
         25    2    3    3    0    0  0.21612808066E+02 -0.39132802728E+02  0.18528327573E+02  0.13510089640E+03  0.12613668604E+03 0.  0.
         25    2    3    3    0    0 -0.21612808066E+02  0.39132802728E+02  0.86195399417E+02  0.15892981115E+03  0.12581950671E+03 0.  0.
          5    1    4    4  502    0  0.51509654743E+02 -0.50575376813E+01  0.55780309073E+02  0.76238809667E+02  0.47000000000E+01 0.  1.
         -5    1    4    4    0  502 -0.29896846677E+02 -0.34075265047E+02 -0.37251981499E+02  0.58862086736E+02  0.47000000000E+01 0.  1.
          5    1    5    5  503    0  0.43794290387E+02 -0.12256394197E+02  0.11757625752E+02  0.47206893909E+02  0.47000000000E+01 0. -1.
         -5    1    5    5    0  503 -0.65407098454E+02  0.51389196925E+02  0.74437773666E+02  0.11172291724E+03  0.47000000000E+01 0. -1.
<mgrwt>
<rscale>  0 0.27474897E+03</rscale>
<asrwt>0</asrwt>
<pdfrwt beam="1">  1        1 0.30673418E-01 0.27474897E+03</pdfrwt>
<pdfrwt beam="2">  1       -1 0.14562076E-01 0.27474897E+03</pdfrwt>
<totfact> 0.49280645E+03</totfact>
</mgrwt>
</event>
<event>
 9    1  0.8186049E-001  0.2780709E+03  0.7818608E-02  0.1096747E+00
          1   -1    0    0  501    0  0.00000000000E+00  0.00000000000E+00  0.26172503152E+02  0.26172503152E+02  0.00000000000E+00 0.  1.
         -1   -1    0    0    0  501 -0.00000000000E+00 -0.00000000000E+00 -0.73859400054E+03  0.73859400054E+03  0.00000000000E+00 0.  1.
         35    2    1    2    0    0  0.00000000000E+00  0.14210854715E-13 -0.71242149739E+03  0.76476650369E+03  0.27807088166E+03 0.  0.
         25    2    3    3    0    0  0.43139000668E+02  0.35798247337E+02 -0.29219462597E+03  0.32299532144E+03  0.12572108150E+03 0.  0.
         25    2    3    3    0    0 -0.43139000668E+02 -0.35798247337E+02 -0.42022687141E+03  0.44177118225E+03  0.12421218185E+03 0.  0.
          5    1    4    4  502    0  0.54727376220E+02  0.51213845042E+02 -0.79450299218E+02  0.10932695769E+03  0.47000000000E+01 0. -1.
         -5    1    4    4    0  502 -0.11588375552E+02 -0.15415597705E+02 -0.21274432676E+03  0.21366836375E+03  0.47000000000E+01 0. -1.
          5    1    5    5  503    0 -0.62973113043E+02  0.18175261992E+02 -0.31484939212E+03  0.32163361583E+03  0.47000000000E+01 0. -1.
         -5    1    5    5    0  503  0.19834112375E+02 -0.53973509329E+02 -0.10537747929E+03  0.12013756642E+03  0.47000000000E+01 0. -1.
<mgrwt>
<rscale>  0 0.27807088E+03</rscale>
<asrwt>0</asrwt>
<pdfrwt beam="1">  1        1 0.40265395E-02 0.27807088E+03</pdfrwt>
<pdfrwt beam="2">  1       -1 0.11362983E+00 0.27807088E+03</pdfrwt>
<totfact> 0.16942240E+03</totfact>
</mgrwt>
</event>
<event>
 9    1  0.8186049E-001  0.3321809E+03  0.7818608E-02  0.1070176E+00
          2   -1    0    0  501    0  0.00000000000E+00  0.00000000000E+00  0.12835670794E+04  0.12835670794E+04  0.00000000000E+00 0. -1.
         -2   -1    0    0    0  501 -0.00000000000E+00 -0.00000000000E+00 -0.21491694385E+02  0.21491694385E+02  0.00000000000E+00 0. -1.
         35    2    1    2    0    0 -0.71054273576E-14  0.00000000000E+00  0.12620753850E+04  0.13050587738E+04  0.33218086274E+03 0.  0.
         25    2    3    3    0    0 -0.27628374522E+02 -0.99442428280E+02  0.55565774651E+03  0.57880890524E+03  0.12494836498E+03 0.  0.
         25    2    3    3    0    0  0.27628374522E+02  0.99442428280E+02  0.70641763850E+03  0.72624986854E+03  0.13326990638E+03 0.  0.
          5    1    4    4  502    0  0.13813618731E+02  0.57650525834E+01  0.28514684932E+03  0.28557812866E+03  0.47000000000E+01 0. -1.
         -5    1    4    4    0  502 -0.41441993253E+02 -0.10520748086E+03  0.27051089718E+03  0.29323077657E+03  0.47000000000E+01 0. -1.
          5    1    5    5  503    0 -0.46421997966E+02  0.71652748518E+02  0.44290308992E+03  0.45108131786E+03  0.47000000000E+01 0. -1.
         -5    1    5    5    0  503  0.74050372488E+02  0.27789679762E+02  0.26351454859E+03  0.27516855068E+03  0.47000000000E+01 0. -1.
<mgrwt>
<rscale>  0 0.33218086E+03</rscale>
<asrwt>0</asrwt>
<pdfrwt beam="1">  1        2 0.19747180E+00 0.33218086E+03</pdfrwt>
<pdfrwt beam="2">  1       -2 0.33064155E-02 0.33218086E+03</pdfrwt>
<totfact> 0.65829563E+03</totfact>
</mgrwt>
</event>
<event>
 9    1  0.8186049E-001  0.2743971E+03  0.7818608E-02  0.1098789E+00
         -1   -1    0    0    0  501 -0.00000000000E+00  0.00000000000E+00  0.12973293280E+04  0.12973293280E+04  0.00000000000E+00 0. -1.
          1   -1    0    0  501    0  0.00000000000E+00 -0.00000000000E+00 -0.14509380516E+02  0.14509380516E+02  0.00000000000E+00 0. -1.
         35    2    1    2    0    0 -0.35527136788E-14 -0.10658141036E-13  0.12828199475E+04  0.13118387085E+04  0.27439712007E+03 0.  0.
         25    2    3    3    0    0  0.24377036137E+02  0.30896002402E+02  0.44732270579E+03  0.46610149918E+03  0.12491677857E+03 0.  0.
         25    2    3    3    0    0 -0.24377036137E+02 -0.30896002402E+02  0.83549724172E+03  0.84573720937E+03  0.12516782144E+03 0.  0.
          5    1    4    4  502    0  0.22857878344E+02  0.53680174725E+02  0.86011861380E+02  0.10403929094E+03  0.47000000000E+01 0. -1.
         -5    1    4    4    0  502  0.15191577925E+01 -0.22784172323E+02  0.36131084441E+03  0.36206220824E+03  0.47000000000E+01 0. -1.
          5    1    5    5  503    0 -0.23569033944E+02  0.64545278654E+01  0.76835161749E+03  0.76875448512E+03  0.47000000000E+01 0. -1.
         -5    1    5    5    0  503 -0.80800219259E+00 -0.37350530268E+02  0.67145624235E+02  0.76982724249E+02  0.47000000000E+01 0. -1.
<mgrwt>
<rscale>  0 0.27439712E+03</rscale>
<asrwt>0</asrwt>
<pdfrwt beam="1">  1        1 0.22322134E-02 0.27439712E+03</pdfrwt>
<pdfrwt beam="2">  1       -1 0.19958904E+00 0.27439712E+03</pdfrwt>
<totfact> 0.86989932E+02</totfact>
</mgrwt>
</event>
<event>
 9    1  0.8186049E-001  0.2822485E+03  0.7818608E-02  0.1094467E+00
          4   -1    0    0  501    0  0.00000000000E+00  0.00000000000E+00  0.24133746315E+03  0.24133746315E+03  0.00000000000E+00 0. -1.
         -4   -1    0    0    0  501 -0.00000000000E+00 -0.00000000000E+00 -0.82523657119E+02  0.82523657119E+02  0.00000000000E+00 0. -1.
         35    2    1    2    0    0  0.26645352591E-14 -0.71054273576E-14  0.15881380603E+03  0.32386112027E+03  0.28224847251E+03 0.  0.
         25    2    3    3    0    0 -0.12165517511E+01  0.47387061726E+02  0.13352789191E+03  0.18857943305E+03  0.12444071293E+03 0.  0.
         25    2    3    3    0    0  0.12165517511E+01 -0.47387061726E+02  0.25285914126E+02  0.13528168722E+03  0.12415612682E+03 0.  0.
          5    1    4    4  502    0  0.70170445104E+01 -0.38393735270E+02  0.73821378250E+02  0.83636138770E+02  0.47000000000E+01 0. -1.
         -5    1    4    4    0  502 -0.82335962615E+01  0.85780796996E+02  0.59706513657E+02  0.10494329428E+03  0.47000000000E+01 0. -1.
          5    1    5    5  503    0 -0.51956716787E+02 -0.57065012729E+02  0.24213226110E+02  0.81020283977E+02  0.47000000000E+01 0.  1.
         -5    1    5    5    0  503  0.53173268538E+02  0.96779510035E+01  0.10726880158E+01  0.54261403246E+02  0.47000000000E+01 0.  1.
<mgrwt>
<rscale>  0 0.28224847E+03</rscale>
<asrwt>0</asrwt>
<pdfrwt beam="1">  1        4 0.37128840E-01 0.28224847E+03</pdfrwt>
<pdfrwt beam="2">  1       -4 0.12695947E-01 0.28224847E+03</pdfrwt>
<totfact> 0.66815507E+02</totfact>
</mgrwt>
</event>
<event>
 9    1  0.8186049E-001  0.2773348E+03  0.7818608E-02  0.1097154E+00
         -1   -1    0    0    0  501 -0.00000000000E+00  0.00000000000E+00  0.14115025074E+04  0.14115025074E+04  0.00000000000E+00 0. -1.
          1   -1    0    0  501    0  0.00000000000E+00 -0.00000000000E+00 -0.13622825353E+02  0.13622825353E+02  0.00000000000E+00 0. -1.
         35    2    1    2    0    0 -0.10658141036E-13  0.71054273576E-14  0.13978796820E+04  0.14251253327E+04  0.27733483116E+03 0.  0.
         25    2    3    3    0    0  0.19566263692E+02 -0.54511301272E+02  0.78188983797E+03  0.79400093206E+03  0.12542504037E+03 0.  0.
         25    2    3    3    0    0 -0.19566263692E+02  0.54511301272E+02  0.61598984407E+03  0.63112440069E+03  0.12458009673E+03 0.  0.
          5    1    4    4  502    0 -0.27405922401E+01 -0.22942955377E+02  0.72310421071E+03  0.72348854835E+03  0.47000000000E+01 0.  1.
         -5    1    4    4    0  502  0.22306855932E+02 -0.31568345895E+02  0.58785627252E+02  0.70512383704E+02  0.47000000000E+01 0.  1.
          5    1    5    5  503    0  0.52942404119E+02  0.26675385503E+02  0.27915054929E+03  0.28541477452E+03  0.47000000000E+01 0.  1.
         -5    1    5    5    0  503 -0.72508667811E+02  0.27835915770E+02  0.33683929478E+03  0.34570962616E+03  0.47000000000E+01 0.  1.
<mgrwt>
<rscale>  0 0.27733483E+03</rscale>
<asrwt>0</asrwt>
<pdfrwt beam="1">  1        1 0.20958204E-02 0.27733483E+03</pdfrwt>
<pdfrwt beam="2">  1       -1 0.21715412E+00 0.27733483E+03</pdfrwt>
<totfact> 0.72849639E+02</totfact>
</mgrwt>
</event>
<event>
 9    1  0.8186049E-001  0.2697990E+03  0.7818608E-02  0.1101395E+00
         -1   -1    0    0    0  501 -0.00000000000E+00  0.00000000000E+00  0.13296678815E+02  0.13296678815E+02  0.00000000000E+00 0. -1.
          1   -1    0    0  501    0  0.00000000000E+00 -0.00000000000E+00 -0.13686032699E+04  0.13686032699E+04  0.00000000000E+00 0. -1.
         35    2    1    2    0    0 -0.88817841970E-15  0.00000000000E+00 -0.13553065911E+04  0.13818999487E+04  0.26979902227E+03 0.  0.
         25    2    3    3    0    0 -0.63007340131E+01  0.17389870426E+02 -0.91215956483E+03  0.92104726443E+03  0.12629681211E+03 0.  0.
         25    2    3    3    0    0  0.63007340131E+01 -0.17389870426E+02 -0.44314702623E+03  0.46085268427E+03  0.12515511534E+03 0.  0.
          5    1    4    4  502    0 -0.11908842122E+02  0.31649884906E+02 -0.62341292743E+02  0.71077862349E+02  0.47000000000E+01 0. -1.
         -5    1    4    4    0  502  0.56081081093E+01 -0.14260014481E+02 -0.84981827209E+03  0.84996940208E+03  0.47000000000E+01 0. -1.
          5    1    5    5  503    0 -0.24239570847E+02 -0.25905138044E+02 -0.41949546463E+03  0.42101920124E+03  0.47000000000E+01 0. -1.
         -5    1    5    5    0  503  0.30540304860E+02  0.85152676183E+01 -0.23651561602E+02  0.39833483024E+02  0.47000000000E+01 0. -1.
<mgrwt>
<rscale>  0 0.26979902E+03</rscale>
<asrwt>0</asrwt>
<pdfrwt beam="1">  1        1 0.21055427E+00 0.26979902E+03</pdfrwt>
<pdfrwt beam="2">  1       -1 0.20456436E-02 0.26979902E+03</pdfrwt>
<totfact> 0.58111835E+03</totfact>
</mgrwt>
</event>
<event>
 9    1  0.8186049E-001  0.2781128E+03  0.7818608E-02  0.1096724E+00
          3   -1    0    0  501    0  0.00000000000E+00  0.00000000000E+00  0.11774911232E+02  0.11774911232E+02  0.00000000000E+00 0. -1.
         -3   -1    0    0    0  501 -0.00000000000E+00 -0.00000000000E+00 -0.16421928952E+04  0.16421928952E+04  0.00000000000E+00 0. -1.
         35    2    1    2    0    0 -0.14210854715E-13  0.00000000000E+00 -0.16304179840E+04  0.16539678065E+04  0.27811275100E+03 0.  0.
         25    2    3    3    0    0  0.36364589950E+02  0.36516656664E+02 -0.61471362917E+03  0.62935905655E+03  0.12475626860E+03 0.  0.
         25    2    3    3    0    0 -0.36364589950E+02 -0.36516656664E+02 -0.10157043548E+04  0.10246087499E+04  0.12454679590E+03 0.  0.
          5    1    4    4  502    0  0.51489776857E+01 -0.32270127000E+02 -0.52113579997E+02  0.61691071379E+02  0.47000000000E+01 0.  1.
         -5    1    4    4    0  502  0.31215612264E+02  0.68786783665E+02 -0.56260004917E+03  0.56766798517E+03  0.47000000000E+01 0.  1.
          5    1    5    5  503    0 -0.89042951747E+01 -0.39608255302E+02 -0.97089196208E+03  0.97175171334E+03  0.47000000000E+01 0.  1.
         -5    1    5    5    0  503 -0.27460294775E+02  0.30915986374E+01 -0.44812392771E+02  0.52857036591E+02  0.47000000000E+01 0.  1.
<mgrwt>
<rscale>  0 0.27811275E+03</rscale>
<asrwt>0</asrwt>
<pdfrwt beam="1">  1        3 0.18115263E-02 0.27811275E+03</pdfrwt>
<pdfrwt beam="2">  1       -3 0.25264485E+00 0.27811275E+03</pdfrwt>
<totfact> 0.22248894E+02</totfact>
</mgrwt>
</event>
<event>
 9    1  0.8186049E-001  0.2835499E+03  0.7818608E-02  0.1093766E+00
         -2   -1    0    0    0  501 -0.00000000000E+00  0.00000000000E+00  0.14462819029E+02  0.14462819029E+02  0.00000000000E+00 0. -1.
          2   -1    0    0  501    0  0.00000000000E+00 -0.00000000000E+00 -0.13897797777E+04  0.13897797777E+04  0.00000000000E+00 0. -1.
         35    2    1    2    0    0  0.00000000000E+00  0.00000000000E+00 -0.13753169586E+04  0.14042425967E+04  0.28354987861E+03 0.  0.
         25    2    3    3    0    0  0.65661070509E+02 -0.99529314343E+01 -0.67653969113E+03  0.69110465976E+03  0.12453617968E+03 0.  0.
         25    2    3    3    0    0 -0.65661070509E+02  0.99529314343E+01 -0.69877726750E+03  0.71313793693E+03  0.12595876501E+03 0.  0.
          5    1    4    4  502    0  0.94400289128E+02 -0.24122532579E+01 -0.33044507059E+03  0.34370520542E+03  0.47000000000E+01 0. -1.
         -5    1    4    4    0  502 -0.28739218620E+02 -0.75406781764E+01 -0.34609462053E+03  0.34739945434E+03  0.47000000000E+01 0. -1.
          5    1    5    5  503    0 -0.50006281448E+02  0.18464984698E+01 -0.69177035515E+03  0.69359379467E+03  0.47000000000E+01 0. -1.
         -5    1    5    5    0  503 -0.15654789061E+02  0.81064329645E+01 -0.70069123565E+01  0.19544142261E+02  0.47000000000E+01 0. -1.
<mgrwt>
<rscale>  0 0.28354988E+03</rscale>
<asrwt>0</asrwt>
<pdfrwt beam="1">  1        2 0.21381230E+00 0.28354988E+03</pdfrwt>
<pdfrwt beam="2">  1       -2 0.22250488E-02 0.28354988E+03</pdfrwt>
<totfact> 0.10343920E+04</totfact>
</mgrwt>
</event>
<event>
 9    1  0.8186049E-001  0.2713728E+03  0.7818608E-02  0.1100496E+00
          2   -1    0    0  501    0  0.00000000000E+00  0.00000000000E+00  0.17427577141E+04  0.17427577141E+04  0.00000000000E+00 0. -1.
         -2   -1    0    0    0  501 -0.00000000000E+00 -0.00000000000E+00 -0.10564176527E+02  0.10564176527E+02  0.00000000000E+00 0. -1.
         35    2    1    2    0    0  0.71054273576E-14  0.00000000000E+00  0.17321935376E+04  0.17533218906E+04  0.27137280729E+03 0.  0.
         25    2    3    3    0    0  0.46772934630E+02 -0.10532911528E+02  0.10090378994E+04  0.10179105518E+04  0.12524280207E+03 0.  0.
         25    2    3    3    0    0 -0.46772934630E+02  0.10532911528E+02  0.72315563817E+03  0.73541133879E+03  0.12480829525E+03 0.  0.
          5    1    4    4  502    0 -0.95539218284E+01 -0.28355493264E+02  0.61828452937E+02  0.68848812721E+02  0.47000000000E+01 0.  1.
         -5    1    4    4    0  502  0.56326856459E+02  0.17822581736E+02  0.94720944645E+03  0.94906173910E+03  0.47000000000E+01 0.  1.
          5    1    5    5  503    0  0.37359559599E+01  0.37682925048E+02  0.57815411970E+03  0.57941197462E+03  0.47000000000E+01 0.  1.
         -5    1    5    5    0  503 -0.50508890590E+02 -0.27150013520E+02  0.14500151847E+03  0.15599936417E+03  0.47000000000E+01 0.  1.
<mgrwt>
<rscale>  0 0.27137281E+03</rscale>
<asrwt>0</asrwt>
<pdfrwt beam="1">  1        2 0.26811634E+00 0.27137281E+03</pdfrwt>
<pdfrwt beam="2">  1       -2 0.16252593E-02 0.27137281E+03</pdfrwt>
<totfact> 0.10636668E+04</totfact>
</mgrwt>
</event>
<event>
 9    1  0.8186049E-001  0.2746274E+03  0.7818608E-02  0.1098660E+00
         -3   -1    0    0    0  501 -0.00000000000E+00  0.00000000000E+00  0.31481742635E+03  0.31481742635E+03  0.00000000000E+00 0. -1.
          3   -1    0    0  501    0  0.00000000000E+00 -0.00000000000E+00 -0.59892002394E+02  0.59892002394E+02  0.00000000000E+00 0. -1.
         35    2    1    2    0    0  0.00000000000E+00  0.00000000000E+00  0.25492542396E+03  0.37470942875E+03  0.27462735518E+03 0.  0.
         25    2    3    3    0    0 -0.44987341878E+02 -0.26514533295E+02  0.99210238144E+02  0.16764728108E+03  0.12464372465E+03 0.  0.
         25    2    3    3    0    0  0.44987341878E+02  0.26514533295E+02  0.15571518582E+03  0.20706214767E+03  0.12609771013E+03 0.  0.
          5    1    4    4  502    0 -0.61415620143E+02 -0.17351104504E+02 -0.25628060458E+01  0.64043713196E+02  0.47000000000E+01 0. -1.
         -5    1    4    4    0  502  0.16428278264E+02 -0.91634287906E+01  0.10177304419E+03  0.10360356788E+03  0.47000000000E+01 0. -1.
          5    1    5    5  503    0  0.33268057374E+02 -0.11138717096E+02 -0.98974333472E+01  0.36754371806E+02  0.47000000000E+01 0. -1.
         -5    1    5    5    0  503  0.11719284504E+02  0.37653250390E+02  0.16561261916E+03  0.17030777587E+03  0.47000000000E+01 0. -1.
<mgrwt>
<rscale>  0 0.27462736E+03</rscale>
<asrwt>0</asrwt>
<pdfrwt beam="1">  1        3 0.92141544E-02 0.27462736E+03</pdfrwt>
<pdfrwt beam="2">  1       -3 0.48433449E-01 0.27462736E+03</pdfrwt>
<totfact> 0.91498187E+02</totfact>
</mgrwt>
</event>
<event>
 9    1  0.8186049E-001  0.2728993E+03  0.7818608E-02  0.1099632E+00
         -2   -1    0    0    0  501 -0.00000000000E+00  0.00000000000E+00  0.10132972148E+03  0.10132972148E+03  0.00000000000E+00 0.  1.
          2   -1    0    0  501    0  0.00000000000E+00 -0.00000000000E+00 -0.18374178036E+03  0.18374178036E+03  0.00000000000E+00 0.  1.
         35    2    1    2    0    0  0.00000000000E+00  0.71054273576E-14 -0.82412058886E+02  0.28507150184E+03  0.27289927393E+03 0.  0.
         25    2    3    3    0    0  0.28865187011E+02  0.26655063585E+02 -0.80785921267E+02  0.15427599463E+03  0.12542338701E+03 0.  0.
         25    2    3    3    0    0 -0.28865187011E+02 -0.26655063585E+02 -0.16261376183E+01  0.13079550721E+03  0.12474425417E+03 0.  0.
          5    1    4    4  502    0 -0.39938186737E+02  0.39561201287E+02 -0.15653079992E+02  0.58542773426E+02  0.47000000000E+01 0. -1.
         -5    1    4    4    0  502  0.68803373748E+02 -0.12906137702E+02 -0.65132841275E+02  0.95733221204E+02  0.47000000000E+01 0. -1.
          5    1    5    5  503    0  0.49782537865E+01  0.38851175907E+02 -0.32115816316E+02  0.50869563963E+02  0.47000000000E+01 0.  1.
         -5    1    5    5    0  503 -0.33843440798E+02 -0.65506239493E+02  0.30489678698E+02  0.79925943251E+02  0.47000000000E+01 0.  1.
<mgrwt>
<rscale>  0 0.27289927E+03</rscale>
<asrwt>0</asrwt>
<pdfrwt beam="1">  1        2 0.28267966E-01 0.27289927E+03</pdfrwt>
<pdfrwt beam="2">  1       -2 0.15589188E-01 0.27289927E+03</pdfrwt>
<totfact> 0.59669958E+03</totfact>
</mgrwt>
</event>
<event>
 9    1  0.8186049E-001  0.2765518E+03  0.7818608E-02  0.1097587E+00
          1   -1    0    0  501    0  0.00000000000E+00  0.00000000000E+00  0.12866924140E+04  0.12866924140E+04  0.00000000000E+00 0. -1.
         -1   -1    0    0    0  501 -0.00000000000E+00 -0.00000000000E+00 -0.14859980671E+02  0.14859980671E+02  0.00000000000E+00 0. -1.
         35    2    1    2    0    0  0.14210854715E-13  0.00000000000E+00  0.12718324333E+04  0.13015523947E+04  0.27655179913E+03 0.  0.
         25    2    3    3    0    0 -0.56328467006E+02  0.19390760830E+02  0.71394360354E+03  0.72713365953E+03  0.12433419472E+03 0.  0.
         25    2    3    3    0    0  0.56328467006E+02 -0.19390760830E+02  0.55788882977E+03  0.57441873513E+03  0.12315859321E+03 0.  0.
          5    1    4    4  502    0  0.89986128939E+01  0.18948241942E+02  0.17782867741E+02  0.27898589423E+02  0.47000000000E+01 0.  1.
         -5    1    4    4    0  502 -0.65327079900E+02  0.44251888812E+00  0.69616073580E+03  0.69923507011E+03  0.47000000000E+01 0.  1.
          5    1    5    5  503    0 -0.10131992800E+02  0.39102719093E+02  0.98708514811E+02  0.10675739232E+03  0.47000000000E+01 0.  1.
         -5    1    5    5    0  503  0.66460459807E+02 -0.58493479923E+02  0.45918031496E+03  0.46766134281E+03  0.47000000000E+01 0.  1.
<mgrwt>
<rscale>  0 0.27655180E+03</rscale>
<asrwt>0</asrwt>
<pdfrwt beam="1">  1        1 0.19795259E+00 0.27655180E+03</pdfrwt>
<pdfrwt beam="2">  1       -1 0.22861519E-02 0.27655180E+03</pdfrwt>
<totfact> 0.56158334E+03</totfact>
</mgrwt>
</event>
<event>
 9    1  0.8186049E-001  0.2404484E+03  0.7818608E-02  0.1119494E+00
         -1   -1    0    0    0  501 -0.00000000000E+00  0.00000000000E+00  0.11785935785E+02  0.11785935785E+02  0.00000000000E+00 0.  1.
          1   -1    0    0  501    0  0.00000000000E+00 -0.00000000000E+00 -0.12263649066E+04  0.12263649066E+04  0.00000000000E+00 0.  1.
         35    2    1    2    0    0  0.00000000000E+00  0.88817841970E-15 -0.12145789709E+04  0.12381508424E+04  0.24044839811E+03 0.  0.
         25    2    3    3    0    0 -0.20733516345E+02 -0.66273821377E+01 -0.69139628522E+03  0.70264263700E+03  0.12330470879E+03 0.  0.
         25    2    3    3    0    0  0.20733516345E+02  0.66273821377E+01 -0.52318268563E+03  0.53550820543E+03  0.11213881863E+03 0.  0.
          5    1    4    4  502    0 -0.16967166164E+02 -0.12033467402E+02 -0.14707366538E+02  0.25905321767E+02  0.47000000000E+01 0.  1.
         -5    1    4    4    0  502 -0.37663501812E+01  0.54060852639E+01 -0.67668891869E+03  0.67673731523E+03  0.47000000000E+01 0.  1.
          5    1    5    5  503    0 -0.46448979388E+02  0.30595718496E+01 -0.21660593144E+03  0.22160119178E+03  0.47000000000E+01 0. -1.
         -5    1    5    5    0  503  0.67182495734E+02  0.35678102880E+01 -0.30657675420E+03  0.31390701365E+03  0.47000000000E+01 0. -1.
<mgrwt>
<rscale>  0 0.24044840E+03</rscale>
<asrwt>0</asrwt>
<pdfrwt beam="1">  1        1 0.18867161E+00 0.24044840E+03</pdfrwt>
<pdfrwt beam="2">  1       -1 0.18132201E-02 0.24044840E+03</pdfrwt>
<totfact> 0.86448539E+03</totfact>
</mgrwt>
</event>
<event>
 9    1  0.8186049E-001  0.2759521E+03  0.7818608E-02  0.1097921E+00
          2   -1    0    0  501    0  0.00000000000E+00  0.00000000000E+00  0.50452478098E+03  0.50452478098E+03  0.00000000000E+00 0. -1.
         -2   -1    0    0    0  501 -0.00000000000E+00 -0.00000000000E+00 -0.37733314225E+02  0.37733314225E+02  0.00000000000E+00 0. -1.
         35    2    1    2    0    0  0.53290705182E-14  0.00000000000E+00  0.46679146675E+03  0.54225809520E+03  0.27595211248E+03 0.  0.
         25    2    3    3    0    0 -0.62901729216E+01 -0.56228042630E+02  0.20587196229E+03  0.24744953908E+03  0.12508737138E+03 0.  0.
         25    2    3    3    0    0  0.62901729216E+01  0.56228042630E+02  0.26091950446E+03  0.29480855612E+03  0.12502774853E+03 0.  0.
          5    1    4    4  502    0 -0.19987779984E+02  0.28079037227E+02  0.14231449472E+02  0.37584143390E+02  0.47000000000E+01 0.  1.
         -5    1    4    4    0  502  0.13697607062E+02 -0.84307079857E+02  0.19164051282E+03  0.20986539569E+03  0.47000000000E+01 0.  1.
          5    1    5    5  503    0 -0.53993750178E+02  0.74017821923E+01  0.14749555921E+03  0.15731224182E+03  0.47000000000E+01 0.  1.
         -5    1    5    5    0  503  0.60283923099E+02  0.48826260438E+02  0.11342394525E+03  0.13749631431E+03  0.47000000000E+01 0.  1.
<mgrwt>
<rscale>  0 0.27595211E+03</rscale>
<asrwt>0</asrwt>
<pdfrwt beam="1">  1        2 0.77619192E-01 0.27595211E+03</pdfrwt>
<pdfrwt beam="2">  1       -2 0.58051256E-02 0.27595211E+03</pdfrwt>
<totfact> 0.95432102E+03</totfact>
</mgrwt>
</event>
<event>
 9    1  0.8186049E-001  0.2907514E+03  0.7818608E-02  0.1089957E+00
          1   -1    0    0  501    0  0.00000000000E+00  0.00000000000E+00  0.71627659275E+03  0.71627659275E+03  0.00000000000E+00 0.  1.
         -1   -1    0    0    0  501 -0.00000000000E+00 -0.00000000000E+00 -0.29505501271E+02  0.29505501271E+02  0.00000000000E+00 0.  1.
         35    2    1    2    0    0  0.14210854715E-13  0.00000000000E+00  0.68677109148E+03  0.74578209402E+03  0.29075143967E+03 0.  0.
         25    2    3    3    0    0  0.46743278501E+02  0.10101150819E+02  0.19213687996E+03  0.23404146635E+03  0.12478725896E+03 0.  0.
         25    2    3    3    0    0 -0.46743278501E+02 -0.10101150819E+02  0.49463421152E+03  0.51174062767E+03  0.12218223877E+03 0.  0.
          5    1    4    4  502    0 -0.16603703916E+02  0.10203204876E+02 -0.98254888883E+01  0.22325290712E+02  0.47000000000E+01 0. -1.
         -5    1    4    4    0  502  0.63346982417E+02 -0.10205405706E+00  0.20196236885E+03  0.21171617564E+03  0.47000000000E+01 0. -1.
          5    1    5    5  503    0  0.39784758111E+02 -0.52219014420E+01  0.22129857397E+03  0.22495609366E+03  0.47000000000E+01 0.  1.
         -5    1    5    5    0  503 -0.86528036612E+02 -0.48792493773E+01  0.27333563755E+03  0.28678453402E+03  0.47000000000E+01 0.  1.
<mgrwt>
<rscale>  0 0.29075144E+03</rscale>
<asrwt>0</asrwt>
<pdfrwt beam="1">  1        1 0.11019639E+00 0.29075144E+03</pdfrwt>
<pdfrwt beam="2">  1       -1 0.45393085E-02 0.29075144E+03</pdfrwt>
<totfact> 0.55416169E+03</totfact>
</mgrwt>
</event>
<event>
 9    1  0.8186049E-001  0.2736776E+03  0.7818608E-02  0.1099193E+00
          2   -1    0    0  501    0  0.00000000000E+00  0.00000000000E+00  0.25549346971E+04  0.25549346971E+04  0.00000000000E+00 0. -1.
         -2   -1    0    0    0  501 -0.00000000000E+00 -0.00000000000E+00 -0.73288976550E+01  0.73288976550E+01  0.00000000000E+00 0. -1.
         35    2    1    2    0    0  0.00000000000E+00 -0.35527136788E-14  0.25476057994E+04  0.25622635947E+04  0.27367758337E+03 0.  0.
         25    2    3    3    0    0  0.42595950709E+02 -0.15237338238E+02  0.93450214845E+03  0.94368214533E+03  0.12326854611E+03 0.  0.
         25    2    3    3    0    0 -0.42595950709E+02  0.15237338238E+02  0.16131036510E+04  0.16185814494E+04  0.12512365116E+03 0.  0.
          5    1    4    4  502    0  0.48247051753E+02 -0.42591145552E+02  0.87904808085E+03  0.88141329813E+03  0.47000000000E+01 0.  1.
         -5    1    4    4    0  502 -0.56511010440E+01  0.27353807314E+02  0.55454067606E+02  0.62268847200E+02  0.47000000000E+01 0.  1.
          5    1    5    5  503    0 -0.19637180871E+02 -0.54498530879E+02  0.82865002619E+03  0.83068565935E+03  0.47000000000E+01 0. -1.
         -5    1    5    5    0  503 -0.22958769839E+02  0.69735869117E+02  0.78445362478E+03  0.78789579005E+03  0.47000000000E+01 0. -1.
<mgrwt>
<rscale>  0 0.27367758E+03</rscale>
<asrwt>0</asrwt>
<pdfrwt beam="1">  1        2 0.39306617E+00 0.27367758E+03</pdfrwt>
<pdfrwt beam="2">  1       -2 0.11275248E-02 0.27367758E+03</pdfrwt>
<totfact> 0.66977675E+03</totfact>
</mgrwt>
</event>
<event>
 9    1  0.8186049E-001  0.2763093E+03  0.7818608E-02  0.1097722E+00
          1   -1    0    0  501    0  0.00000000000E+00  0.00000000000E+00  0.37875016692E+02  0.37875016692E+02  0.00000000000E+00 0.  1.
         -1   -1    0    0    0  501 -0.00000000000E+00 -0.00000000000E+00 -0.50393942272E+03  0.50393942272E+03  0.00000000000E+00 0.  1.
         35    2    1    2    0    0  0.00000000000E+00 -0.71054273576E-14 -0.46606440603E+03  0.54181443941E+03  0.27630934872E+03 0.  0.
         25    2    3    3    0    0  0.51903617562E+02 -0.14832244763E+02 -0.29866980503E+03  0.32575732243E+03  0.11832243946E+03 0.  0.
         25    2    3    3    0    0 -0.51903617562E+02  0.14832244763E+02 -0.16739460100E+03  0.21605711698E+03  0.12548204793E+03 0.  0.
          5    1    4    4  502    0  0.80544650701E+02 -0.41343918583E+02 -0.21372106366E+03  0.23215413718E+03  0.47000000000E+01 0. -1.
         -5    1    4    4    0  502 -0.28641033139E+02  0.26511673820E+02 -0.84948741376E+02  0.93603185252E+02  0.47000000000E+01 0. -1.
          5    1    5    5  503    0 -0.20939392643E+02  0.56615764376E+02 -0.14876683869E+03  0.16061589347E+03  0.47000000000E+01 0. -1.
         -5    1    5    5    0  503 -0.30964224919E+02 -0.41783519613E+02 -0.18627762308E+02  0.55441223513E+02  0.47000000000E+01 0. -1.
<mgrwt>
<rscale>  0 0.27630935E+03</rscale>
<asrwt>0</asrwt>
<pdfrwt beam="1">  1        1 0.58269258E-02 0.27630935E+03</pdfrwt>
<pdfrwt beam="2">  1       -1 0.77529140E-01 0.27630935E+03</pdfrwt>
<totfact> 0.23385637E+03</totfact>
</mgrwt>
</event>
<event>
 9    1  0.8186049E-001  0.2755978E+03  0.7818608E-02  0.1098118E+00
         -2   -1    0    0    0  501 -0.00000000000E+00  0.00000000000E+00  0.10396713144E+03  0.10396713144E+03  0.00000000000E+00 0. -1.
          2   -1    0    0  501    0  0.00000000000E+00 -0.00000000000E+00 -0.18263983762E+03  0.18263983762E+03  0.00000000000E+00 0. -1.
         35    2    1    2    0    0 -0.79936057773E-14 -0.14210854715E-13 -0.78672706172E+02  0.28660696906E+03  0.27559782295E+03 0.  0.
         25    2    3    3    0    0 -0.57986313825E+01  0.25892580735E+02 -0.10455859972E+03  0.15663337812E+03  0.11356700446E+03 0.  0.
         25    2    3    3    0    0  0.57986313825E+01 -0.25892580735E+02  0.25885893551E+02  0.12997359094E+03  0.12457529849E+03 0.  0.
          5    1    4    4  502    0 -0.93510318853E+01 -0.43956484896E+02 -0.52819236457E+02  0.69509539645E+02  0.47000000000E+01 0. -1.
         -5    1    4    4    0  502  0.35524005029E+01  0.69849065631E+02 -0.51739363266E+02  0.87123838472E+02  0.47000000000E+01 0. -1.
          5    1    5    5  503    0  0.64765124870E+02 -0.89503194316E+01  0.17719360410E+02  0.67902101225E+02  0.47000000000E+01 0.  1.
         -5    1    5    5    0  503 -0.58966493488E+02 -0.16942261304E+02  0.81665331407E+01  0.62071489718E+02  0.47000000000E+01 0.  1.
<mgrwt>
<rscale>  0 0.27559782E+03</rscale>
<asrwt>0</asrwt>
<pdfrwt beam="1">  1        2 0.28098436E-01 0.27559782E+03</pdfrwt>
<pdfrwt beam="2">  1       -2 0.15994943E-01 0.27559782E+03</pdfrwt>
<totfact> 0.57577608E+03</totfact>
</mgrwt>
</event>
<event>
 9    1  0.8186049E-001  0.2776789E+03  0.7818608E-02  0.1096963E+00
         -1   -1    0    0    0  501 -0.00000000000E+00  0.00000000000E+00  0.33555944141E+04  0.33555944141E+04  0.00000000000E+00 0. -1.
          1   -1    0    0  501    0  0.00000000000E+00 -0.00000000000E+00 -0.57445555490E+01  0.57445555490E+01  0.00000000000E+00 0. -1.
         35    2    1    2    0    0  0.00000000000E+00  0.00000000000E+00  0.33498498585E+04  0.33613389696E+04  0.27767894059E+03 0.  0.
         25    2    3    3    0    0  0.33106451195E+02  0.28940144639E+02  0.10248251264E+04  0.10325399107E+04  0.11806167197E+03 0.  0.
         25    2    3    3    0    0 -0.33106451195E+02 -0.28940144639E+02  0.23250247321E+04  0.23287990589E+04  0.12502592852E+03 0.  0.
          5    1    4    4  502    0  0.69567651858E+02  0.29242671107E+02  0.43130724990E+03  0.43788448912E+03  0.47000000000E+01 0.  1.
         -5    1    4    4    0  502 -0.36461200664E+02 -0.30252646814E+00  0.59351787652E+03  0.59465542159E+03  0.47000000000E+01 0.  1.
          5    1    5    5  503    0 -0.24018175942E+02 -0.41249130897E+02  0.30811063611E+03  0.31182145157E+03  0.47000000000E+01 0.  1.
         -5    1    5    5    0  503 -0.90882752527E+01  0.12308986258E+02  0.20169140960E+04  0.20169776073E+04  0.47000000000E+01 0.  1.
<mgrwt>
<rscale>  0 0.27767894E+03</rscale>
<asrwt>0</asrwt>
<pdfrwt beam="1">  1        1 0.88378046E-03 0.27767894E+03</pdfrwt>
<pdfrwt beam="2">  1       -1 0.51624373E+00 0.27767894E+03</pdfrwt>
<totfact> 0.27795006E+01</totfact>
</mgrwt>
</event>
<event>
 9    1  0.8186049E-001  0.2760614E+03  0.7818608E-02  0.1097860E+00
          1   -1    0    0  501    0  0.00000000000E+00  0.00000000000E+00  0.84027438467E+03  0.84027438467E+03  0.00000000000E+00 0. -1.
         -1   -1    0    0    0  501 -0.00000000000E+00 -0.00000000000E+00 -0.22674103287E+02  0.22674103287E+02  0.00000000000E+00 0. -1.
         35    2    1    2    0    0  0.00000000000E+00 -0.17763568394E-14  0.81760028138E+03  0.86294848796E+03  0.27606135685E+03 0.  0.
         25    2    3    3    0    0 -0.50282919513E+02  0.94313391148E+01  0.34222459955E+03  0.36876314989E+03  0.12748043781E+03 0.  0.
         25    2    3    3    0    0  0.50282919513E+02 -0.94313391148E+01  0.47537568183E+03  0.49418533807E+03  0.12497914760E+03 0.  0.
          5    1    4    4  502    0 -0.85965968547E+02 -0.12900894237E+02  0.28202476000E+03  0.29515527451E+03  0.47000000000E+01 0.  1.
         -5    1    4    4    0  502  0.35683049034E+02  0.22332233352E+02  0.60199839556E+02  0.73607875377E+02  0.47000000000E+01 0.  1.
          5    1    5    5  503    0 -0.18025352272E+02 -0.26208319208E+02  0.32441366573E+02  0.45676269390E+02  0.47000000000E+01 0. -1.
         -5    1    5    5    0  503  0.68308271785E+02  0.16776980093E+02  0.44293431526E+03  0.44850906868E+03  0.47000000000E+01 0. -1.
<mgrwt>
<rscale>  0 0.27606136E+03</rscale>
<asrwt>0</asrwt>
<pdfrwt beam="1">  1        1 0.12927296E+00 0.27606136E+03</pdfrwt>
<pdfrwt beam="2">  1       -1 0.34883242E-02 0.27606136E+03</pdfrwt>
<totfact> 0.64237955E+03</totfact>
</mgrwt>
</event>
<event>
 9    1  0.8186049E-001  0.2769830E+03  0.7818608E-02  0.1097348E+00
         -2   -1    0    0    0  501 -0.00000000000E+00  0.00000000000E+00  0.79286250040E+01  0.79286250040E+01  0.00000000000E+00 0.  1.
          2   -1    0    0  501    0  0.00000000000E+00 -0.00000000000E+00 -0.24190693445E+04  0.24190693445E+04  0.00000000000E+00 0.  1.
         35    2    1    2    0    0  0.71054273576E-14  0.35527136788E-14 -0.24111407195E+04  0.24269979695E+04  0.27698298642E+03 0.  0.
         25    2    3    3    0    0  0.50393410685E+02  0.24548213039E+02 -0.97435347447E+03  0.98383217584E+03  0.12417305021E+03 0.  0.
         25    2    3    3    0    0 -0.50393410685E+02 -0.24548213039E+02 -0.14367872450E+04  0.14431657936E+04  0.12340101269E+03 0.  0.
          5    1    4    4  502    0 -0.24402730528E+02  0.50201468182E+02 -0.46377208008E+03  0.46714271152E+03  0.47000000000E+01 0.  1.
         -5    1    4    4    0  502  0.74796141214E+02 -0.25653255142E+02 -0.51058139439E+03  0.51668946432E+03  0.47000000000E+01 0.  1.
          5    1    5    5  503    0  0.40095632323E+01  0.45450961338E+02 -0.57067072097E+03  0.57251115994E+03  0.47000000000E+01 0.  1.
         -5    1    5    5    0  503 -0.54402973918E+02 -0.69999174377E+02 -0.86611652402E+03  0.87065463369E+03  0.47000000000E+01 0.  1.
<mgrwt>
<rscale>  0 0.27698299E+03</rscale>
<asrwt>0</asrwt>
<pdfrwt beam="1">  1        2 0.37216411E+00 0.27698299E+03</pdfrwt>
<pdfrwt beam="2">  1       -2 0.12197898E-02 0.27698299E+03</pdfrwt>
<totfact> 0.70877698E+03</totfact>
</mgrwt>
</event>
<event>
 9    1  0.8186049E-001  0.2745288E+03  0.7818608E-02  0.1098715E+00
         -2   -1    0    0    0  501 -0.00000000000E+00  0.00000000000E+00  0.31981839686E+03  0.31981839686E+03  0.00000000000E+00 0. -1.
          2   -1    0    0  501    0  0.00000000000E+00 -0.00000000000E+00 -0.58913180307E+02  0.58913180307E+02  0.00000000000E+00 0. -1.
         35    2    1    2    0    0  0.00000000000E+00  0.00000000000E+00  0.26090521656E+03  0.37873157717E+03  0.27452882457E+03 0.  0.
         25    2    3    3    0    0 -0.35795107264E+02 -0.28626143073E+02  0.85673502007E+02  0.15880966766E+03  0.12561773690E+03 0.  0.
         25    2    3    3    0    0  0.35795107264E+02  0.28626143073E+02  0.17523171455E+03  0.21992190951E+03  0.12473470539E+03 0.  0.
          5    1    4    4  502    0 -0.39322162735E+02  0.41324735860E+02  0.14937145851E+02  0.59153821535E+02  0.47000000000E+01 0. -1.
         -5    1    4    4    0  502  0.35270554709E+01 -0.69950878933E+02  0.70736356156E+02  0.99655846121E+02  0.47000000000E+01 0. -1.
          5    1    5    5  503    0  0.81319513618E+02  0.86832723877E+01  0.12193043863E+03  0.14689242451E+03  0.47000000000E+01 0.  1.
         -5    1    5    5    0  503 -0.45524406354E+02  0.19942870686E+02  0.53301275924E+02  0.73029485005E+02  0.47000000000E+01 0.  1.
<mgrwt>
<rscale>  0 0.27452882E+03</rscale>
<asrwt>0</asrwt>
<pdfrwt beam="1">  1        2 0.90635664E-02 0.27452882E+03</pdfrwt>
<pdfrwt beam="2">  1       -2 0.49202829E-01 0.27452882E+03</pdfrwt>
<totfact> 0.28666243E+03</totfact>
</mgrwt>
</event>
<event>
 9    1  0.8186049E-001  0.2783737E+03  0.7818608E-02  0.1096581E+00
         -2   -1    0    0    0  501 -0.00000000000E+00  0.00000000000E+00  0.28873521555E+02  0.28873521555E+02  0.00000000000E+00 0.  1.
          2   -1    0    0  501    0  0.00000000000E+00 -0.00000000000E+00 -0.67096014387E+03  0.67096014387E+03  0.00000000000E+00 0.  1.
         35    2    1    2    0    0  0.00000000000E+00  0.00000000000E+00 -0.64208662232E+03  0.69983366543E+03  0.27837372129E+03 0.  0.
         25    2    3    3    0    0  0.20803520152E+02  0.36213965520E+02 -0.43378365207E+03  0.45316770545E+03  0.12429189316E+03 0.  0.
         25    2    3    3    0    0 -0.20803520152E+02 -0.36213965520E+02 -0.20830297024E+03  0.24666595998E+03  0.12533846437E+03 0.  0.
          5    1    4    4  502    0  0.68536204436E+02  0.45113448955E+02 -0.28265998483E+03  0.29436574465E+03  0.47000000000E+01 0. -1.
         -5    1    4    4    0  502 -0.47732684285E+02 -0.88994834352E+01 -0.15112366724E+03  0.15880196080E+03  0.47000000000E+01 0. -1.
          5    1    5    5  503    0  0.52832786614E+02 -0.18995591624E+02 -0.87808634861E+02  0.10432920108E+03  0.47000000000E+01 0. -1.
         -5    1    5    5    0  503 -0.73636306766E+02 -0.17218373896E+02 -0.12049433538E+03  0.14233675889E+03  0.47000000000E+01 0. -1.
<mgrwt>
<rscale>  0 0.27837372E+03</rscale>
<asrwt>0</asrwt>
<pdfrwt beam="1">  1        2 0.10322462E+00 0.27837372E+03</pdfrwt>
<pdfrwt beam="2">  1       -2 0.44420809E-02 0.27837372E+03</pdfrwt>
<totfact> 0.10317939E+04</totfact>
</mgrwt>
</event>
<event>
 9    1  0.8186049E-001  0.2721514E+03  0.7818608E-02  0.1100055E+00
         -2   -1    0    0    0  501 -0.00000000000E+00  0.00000000000E+00  0.21526459167E+04  0.21526459167E+04  0.00000000000E+00 0. -1.
          2   -1    0    0  501    0  0.00000000000E+00 -0.00000000000E+00 -0.86017848086E+01  0.86017848086E+01  0.00000000000E+00 0. -1.
         35    2    1    2    0    0  0.00000000000E+00 -0.71054273576E-14  0.21440441319E+04  0.21612477015E+04  0.27215140598E+03 0.  0.
         25    2    3    3    0    0  0.19806864145E+02  0.51066336609E+02  0.10568221926E+04  0.10656160432E+04  0.12515718937E+03 0.  0.
         25    2    3    3    0    0 -0.19806864145E+02 -0.51066336609E+02  0.10872219393E+04  0.10956316584E+04  0.12392377864E+03 0.  0.
          5    1    4    4  502    0 -0.30915483326E+02  0.69293479362E+01  0.75905066741E+02  0.82385994738E+02  0.47000000000E+01 0.  1.
         -5    1    4    4    0  502  0.50722347471E+02  0.44136988673E+02  0.98091712588E+03  0.98323004844E+03  0.47000000000E+01 0.  1.
          5    1    5    5  503    0  0.42028830845E+02 -0.50383914383E+02  0.37598170084E+03  0.38169266540E+03  0.47000000000E+01 0.  1.
         -5    1    5    5    0  503 -0.61835694990E+02 -0.68242222626E+00  0.71124023845E+03  0.71393899296E+03  0.47000000000E+01 0.  1.
<mgrwt>
<rscale>  0 0.27215141E+03</rscale>
<asrwt>0</asrwt>
<pdfrwt beam="1">  1        2 0.13233532E-02 0.27215141E+03</pdfrwt>
<pdfrwt beam="2">  1       -2 0.33117587E+00 0.27215141E+03</pdfrwt>
<totfact> 0.23334237E+02</totfact>
</mgrwt>
</event>
<event>
 9    1  0.8186049E-001  0.2747838E+03  0.7818608E-02  0.1098573E+00
         -2   -1    0    0    0  501 -0.00000000000E+00  0.00000000000E+00  0.12939328369E+03  0.12939328369E+03  0.00000000000E+00 0. -1.
          2   -1    0    0  501    0  0.00000000000E+00 -0.00000000000E+00 -0.14588496379E+03  0.14588496379E+03  0.00000000000E+00 0. -1.
         35    2    1    2    0    0 -0.71054273576E-14  0.00000000000E+00 -0.16491680100E+02  0.27527824748E+03  0.27478380233E+03 0.  0.
         25    2    3    3    0    0  0.44473012339E+02  0.21816839580E+02 -0.38924649198E+02  0.13912921740E+03  0.12404832729E+03 0.  0.
         25    2    3    3    0    0 -0.44473012339E+02 -0.21816839580E+02  0.22432969098E+02  0.13614903007E+03  0.12481785518E+03 0.  0.
          5    1    4    4  502    0  0.82393846847E+01  0.61175536850E+01 -0.80680686325E+02  0.81466404541E+02  0.47000000000E+01 0. -1.
         -5    1    4    4    0  502  0.36233627654E+02  0.15699285894E+02  0.41756037127E+02  0.57662812862E+02  0.47000000000E+01 0. -1.
          5    1    5    5  503    0 -0.80433395390E+02  0.12177228232E+02  0.27927997833E+02  0.86138719774E+02  0.47000000000E+01 0.  1.
         -5    1    5    5    0  503  0.35960383051E+02 -0.33994067811E+02 -0.54950287344E+01  0.50010310300E+02  0.47000000000E+01 0.  1.
<mgrwt>
<rscale>  0 0.27478380E+03</rscale>
<asrwt>0</asrwt>
<pdfrwt beam="1">  1        2 0.22443840E-01 0.27478380E+03</pdfrwt>
<pdfrwt beam="2">  1       -2 0.19906659E-01 0.27478380E+03</pdfrwt>
<totfact> 0.51171609E+03</totfact>
</mgrwt>
</event>
<event>
 9    1  0.8186049E-001  0.2763977E+03  0.7818608E-02  0.1097673E+00
          2   -1    0    0  501    0  0.00000000000E+00  0.00000000000E+00  0.22874834968E+04  0.22874834968E+04  0.00000000000E+00 0.  1.
         -2   -1    0    0    0  501 -0.00000000000E+00 -0.00000000000E+00 -0.83493166290E+01  0.83493166290E+01  0.00000000000E+00 0.  1.
         35    2    1    2    0    0  0.00000000000E+00  0.71054273576E-14  0.22791341802E+04  0.22958328135E+04  0.27639771344E+03 0.  0.
         25    2    3    3    0    0 -0.57356300219E+02  0.55392136222E+01  0.12281776626E+04  0.12359105426E+04  0.12543552256E+03 0.  0.
         25    2    3    3    0    0  0.57356300219E+02 -0.55392136222E+01  0.10509565176E+04  0.10599222708E+04  0.12492073618E+03 0.  0.
          5    1    4    4  502    0  0.35034692605E+02 -0.19744750591E+02  0.28337918486E+03  0.28625711742E+03  0.47000000000E+01 0.  1.
         -5    1    4    4    0  502 -0.92390992823E+02  0.25283964213E+02  0.94479847778E+03  0.94965342522E+03  0.47000000000E+01 0.  1.
          5    1    5    5  503    0  0.84889946578E+02  0.27096457153E+02  0.83353662361E+03  0.83829941782E+03  0.47000000000E+01 0.  1.
         -5    1    5    5    0  503 -0.27533646360E+02 -0.32635670775E+02  0.21741989396E+03  0.22162285302E+03  0.47000000000E+01 0.  1.
<mgrwt>
<rscale>  0 0.27639771E+03</rscale>
<asrwt>0</asrwt>
<pdfrwt beam="1">  1        2 0.35192004E+00 0.27639771E+03</pdfrwt>
<pdfrwt beam="2">  1       -2 0.12845121E-02 0.27639771E+03</pdfrwt>
<totfact> 0.77399452E+03</totfact>
</mgrwt>
</event>
<event>
 9    1  0.8186049E-001  0.2740711E+03  0.7818608E-02  0.1098972E+00
         -1   -1    0    0    0  501 -0.00000000000E+00  0.00000000000E+00  0.39525158768E+02  0.39525158768E+02  0.00000000000E+00 0.  1.
          1   -1    0    0  501    0  0.00000000000E+00 -0.00000000000E+00 -0.47510847594E+03  0.47510847594E+03  0.00000000000E+00 0.  1.
         35    2    1    2    0    0  0.71054273576E-14  0.00000000000E+00 -0.43558331717E+03  0.51463363470E+03  0.27407107066E+03 0.  0.
         25    2    3    3    0    0  0.45051133561E+02  0.23617952490E+02 -0.21179635409E+03  0.25287372954E+03  0.12845238484E+03 0.  0.
         25    2    3    3    0    0 -0.45051133561E+02 -0.23617952490E+02 -0.22378696308E+03  0.26175990517E+03  0.12589769971E+03 0.  0.
          5    1    4    4  502    0  0.59995211137E+02  0.28460355431E+02 -0.34795138736E+02  0.75114638189E+02  0.47000000000E+01 0.  1.
         -5    1    4    4    0  502 -0.14944077576E+02 -0.48424029407E+01 -0.17700121535E+03  0.17775909135E+03  0.47000000000E+01 0.  1.
          5    1    5    5  503    0 -0.93864048654E+01 -0.54967566920E+02 -0.32719585451E+02  0.64824372588E+02  0.47000000000E+01 0.  1.
         -5    1    5    5    0  503 -0.35664728696E+02  0.31349614430E+02 -0.19106737763E+03  0.19693553258E+03  0.47000000000E+01 0.  1.
<mgrwt>
<rscale>  0 0.27407107E+03</rscale>
<asrwt>0</asrwt>
<pdfrwt beam="1">  1        1 0.73093609E-01 0.27407107E+03</pdfrwt>
<pdfrwt beam="2">  1       -1 0.60807939E-02 0.27407107E+03</pdfrwt>
<totfact> 0.62968340E+03</totfact>
</mgrwt>
</event>
<event>
 9    1  0.8186049E-001  0.2733983E+03  0.7818608E-02  0.1099350E+00
         -2   -1    0    0    0  501 -0.00000000000E+00  0.00000000000E+00  0.38761405862E+03  0.38761405862E+03  0.00000000000E+00 0.  1.
          2   -1    0    0  501    0  0.00000000000E+00 -0.00000000000E+00 -0.48209426666E+02  0.48209426666E+02  0.00000000000E+00 0.  1.
         35    2    1    2    0    0  0.00000000000E+00  0.00000000000E+00  0.33940463195E+03  0.43582348529E+03  0.27339825555E+03 0.  0.
         25    2    3    3    0    0 -0.66360184654E+01 -0.52092290798E+02  0.14214151510E+03  0.19670544372E+03  0.12542399201E+03 0.  0.
         25    2    3    3    0    0  0.66360184654E+01  0.52092290798E+02  0.19726311685E+03  0.23911804157E+03  0.12452733447E+03 0.  0.
          5    1    4    4  502    0 -0.18124763969E+02 -0.91746774360E+02  0.88397739559E+02  0.12877200019E+03  0.47000000000E+01 0.  1.
         -5    1    4    4    0  502  0.11488745503E+02  0.39654483562E+02  0.53743775541E+02  0.67933443526E+02  0.47000000000E+01 0.  1.
          5    1    5    5  503    0  0.48142457340E+02  0.19555226306E+02  0.23055570898E+02  0.57041672697E+02  0.47000000000E+01 0. -1.
         -5    1    5    5    0  503 -0.41506438875E+02  0.32537064491E+02  0.17420754596E+03  0.18207636887E+03  0.47000000000E+01 0. -1.
<mgrwt>
<rscale>  0 0.27339826E+03</rscale>
<asrwt>0</asrwt>
<pdfrwt beam="1">  1        2 0.74168351E-02 0.27339826E+03</pdfrwt>
<pdfrwt beam="2">  1       -2 0.59632930E-01 0.27339826E+03</pdfrwt>
<totfact> 0.25026523E+03</totfact>
</mgrwt>
</event>
<event>
 9    1  0.8186049E-001  0.2700569E+03  0.7818608E-02  0.1101247E+00
         -2   -1    0    0    0  501 -0.00000000000E+00  0.00000000000E+00  0.32897892094E+02  0.32897892094E+02  0.00000000000E+00 0. -1.
          2   -1    0    0  501    0  0.00000000000E+00 -0.00000000000E+00 -0.55422051171E+03  0.55422051171E+03  0.00000000000E+00 0. -1.
         35    2    1    2    0    0  0.00000000000E+00  0.35527136788E-14 -0.52132261961E+03  0.58711840380E+03  0.27005693170E+03 0.  0.
         25    2    3    3    0    0  0.46937718724E+02  0.55862917309E+01 -0.22384112367E+03  0.26121404136E+03  0.12606970556E+03 0.  0.
         25    2    3    3    0    0 -0.46937718724E+02 -0.55862917309E+01 -0.29748149594E+03  0.32590436244E+03  0.12443495063E+03 0.  0.
          5    1    4    4  502    0  0.57264756079E+02  0.55580995068E+02 -0.10651726655E+03  0.13317851695E+03  0.47000000000E+01 0.  1.
         -5    1    4    4    0  502 -0.10327037355E+02 -0.49994703337E+02 -0.11732385712E+03  0.12803552441E+03  0.47000000000E+01 0.  1.
          5    1    5    5  503    0 -0.84517186428E+02 -0.27070150401E+02 -0.18345615870E+03  0.20384847316E+03  0.47000000000E+01 0. -1.
         -5    1    5    5    0  503  0.37579467704E+02  0.21483858670E+02 -0.11402533724E+03  0.12205588929E+03  0.47000000000E+01 0. -1.
<mgrwt>
<rscale>  0 0.27005693E+03</rscale>
<asrwt>0</asrwt>
<pdfrwt beam="1">  1        2 0.85264689E-01 0.27005693E+03</pdfrwt>
<pdfrwt beam="2">  1       -2 0.50612145E-02 0.27005693E+03</pdfrwt>
<totfact> 0.10570281E+04</totfact>
</mgrwt>
</event>
<event>
 9    1  0.8186049E-001  0.2746430E+03  0.7818608E-02  0.1098651E+00
          2   -1    0    0  501    0  0.00000000000E+00  0.00000000000E+00  0.13077933259E+03  0.13077933259E+03  0.00000000000E+00 0. -1.
         -2   -1    0    0    0  501 -0.00000000000E+00 -0.00000000000E+00 -0.14419091670E+03  0.14419091670E+03  0.00000000000E+00 0. -1.
         35    2    1    2    0    0  0.71054273576E-14  0.71054273576E-14 -0.13411584118E+02  0.27497024929E+03  0.27464298172E+03 0.  0.
         25    2    3    3    0    0  0.35604184707E+02 -0.22910233622E+02  0.30688166662E+02  0.13487695364E+03  0.12432816365E+03 0.  0.
         25    2    3    3    0    0 -0.35604184707E+02  0.22910233622E+02 -0.44099750780E+02  0.14009329565E+03  0.12605080997E+03 0.  0.
          5    1    4    4  502    0  0.30138479155E+01 -0.11278986882E+02 -0.47556203893E+02  0.49193305978E+02  0.47000000000E+01 0.  1.
         -5    1    4    4    0  502  0.32590336791E+02 -0.11631246739E+02  0.78244370555E+02  0.85683647661E+02  0.47000000000E+01 0.  1.
          5    1    5    5  503    0 -0.67954989174E+02 -0.93432099816E+01  0.96142342077E+01  0.69424056536E+02  0.47000000000E+01 0.  1.
         -5    1    5    5    0  503  0.32350804468E+02  0.32253443603E+02 -0.53713984988E+02  0.70669239116E+02  0.47000000000E+01 0.  1.
<mgrwt>
<rscale>  0 0.27464298E+03</rscale>
<asrwt>0</asrwt>
<pdfrwt beam="1">  1        2 0.20119897E-01 0.27464298E+03</pdfrwt>
<pdfrwt beam="2">  1       -2 0.22183218E-01 0.27464298E+03</pdfrwt>
<totfact> 0.48087341E+03</totfact>
</mgrwt>
</event>
<event>
 9    1  0.8186049E-001  0.2758118E+03  0.7818608E-02  0.1097999E+00
         -1   -1    0    0    0  501 -0.00000000000E+00  0.00000000000E+00  0.46003574425E+03  0.46003574425E+03  0.00000000000E+00 0. -1.
          1   -1    0    0  501    0  0.00000000000E+00 -0.00000000000E+00 -0.41340354538E+02  0.41340354538E+02  0.00000000000E+00 0. -1.
         35    2    1    2    0    0  0.71054273576E-14  0.00000000000E+00  0.41869538971E+03  0.50137609879E+03  0.27581182547E+03 0.  0.
         25    2    3    3    0    0  0.39179599487E+02 -0.26063747924E+02  0.25615853578E+03  0.28876273834E+03  0.12470911607E+03 0.  0.
         25    2    3    3    0    0 -0.39179599487E+02  0.26063747924E+02  0.16253685393E+03  0.21261336045E+03  0.12873170620E+03 0.  0.
          5    1    4    4  502    0  0.79702598744E+02 -0.20296518251E+02  0.11331235464E+03  0.14009365658E+03  0.47000000000E+01 0. -1.
         -5    1    4    4    0  502 -0.40522999256E+02 -0.57672296730E+01  0.14284618113E+03  0.14866908176E+03  0.47000000000E+01 0. -1.
          5    1    5    5  503    0 -0.54590497217E+02  0.66830615477E+02  0.73817168843E+02  0.11365525930E+03  0.47000000000E+01 0.  1.
         -5    1    5    5    0  503  0.15410897730E+02 -0.40766867553E+02  0.88719685091E+02  0.98958101142E+02  0.47000000000E+01 0.  1.
<mgrwt>
<rscale>  0 0.27581183E+03</rscale>
<asrwt>0</asrwt>
<pdfrwt beam="1">  1        1 0.63600549E-02 0.27581183E+03</pdfrwt>
<pdfrwt beam="2">  1       -1 0.70774726E-01 0.27581183E+03</pdfrwt>
<totfact> 0.24942780E+03</totfact>
</mgrwt>
</event>
<event>
 9    1  0.8186049E-001  0.2779221E+03  0.7818608E-02  0.1096829E+00
          2   -1    0    0  501    0  0.00000000000E+00  0.00000000000E+00  0.11016078784E+04  0.11016078784E+04  0.00000000000E+00 0.  1.
         -2   -1    0    0    0  501 -0.00000000000E+00 -0.00000000000E+00 -0.17529079467E+02  0.17529079467E+02  0.00000000000E+00 0.  1.
         35    2    1    2    0    0  0.00000000000E+00  0.00000000000E+00  0.10840787989E+04  0.11191369578E+04  0.27792209010E+03 0.  0.
         25    2    3    3    0    0  0.19291009259E+01  0.43453799651E+02  0.70557787130E+03  0.71794460011E+03  0.12534896179E+03 0.  0.
         25    2    3    3    0    0 -0.19291009259E+01 -0.43453799651E+02  0.37850092761E+03  0.40119235774E+03  0.12569964825E+03 0.  0.
          5    1    4    4  502    0  0.51890231892E+02  0.25085389100E+02  0.55802479997E+03  0.56101304824E+03  0.47000000000E+01 0. -1.
         -5    1    4    4    0  502 -0.49961130966E+02  0.18368410551E+02  0.14755307133E+03  0.15693155187E+03  0.47000000000E+01 0. -1.
          5    1    5    5  503    0  0.13538185429E+02 -0.71237191491E+02  0.35232007406E+03  0.35973538122E+03  0.47000000000E+01 0.  1.
         -5    1    5    5    0  503 -0.15467286355E+02  0.27783391840E+02  0.26180853553E+02  0.41456976519E+02  0.47000000000E+01 0.  1.
<mgrwt>
<rscale>  0 0.27792209E+03</rscale>
<asrwt>0</asrwt>
<pdfrwt beam="1">  1        2 0.16947808E+00 0.27792209E+03</pdfrwt>
<pdfrwt beam="2">  1       -2 0.26967823E-02 0.27792209E+03</pdfrwt>
<totfact> 0.11301902E+04</totfact>
</mgrwt>
</event>
<event>
 9    1  0.8186049E-001  0.2721388E+03  0.7818608E-02  0.1100062E+00
         -1   -1    0    0    0  501 -0.00000000000E+00  0.00000000000E+00  0.56547469117E+03  0.56547469117E+03  0.00000000000E+00 0.  1.
          1   -1    0    0  501    0  0.00000000000E+00 -0.00000000000E+00 -0.32742183077E+02  0.32742183077E+02  0.00000000000E+00 0.  1.
         35    2    1    2    0    0  0.35527136788E-14  0.35527136788E-14  0.53273250809E+03  0.59821687424E+03  0.27213875772E+03 0.  0.
         25    2    3    3    0    0  0.24665891167E+02  0.31564066042E+02  0.19619991712E+03  0.23690505553E+03  0.12658949958E+03 0.  0.
         25    2    3    3    0    0 -0.24665891167E+02 -0.31564066042E+02  0.33653259097E+03  0.36131181872E+03  0.12524914813E+03 0.  0.
          5    1    4    4  502    0  0.34710189238E+02  0.11103487548E+02  0.20771462604E+03  0.21093966091E+03  0.47000000000E+01 0.  1.
         -5    1    4    4    0  502 -0.10044298071E+02  0.20460578494E+02 -0.11514708922E+02  0.25965394617E+02  0.47000000000E+01 0.  1.
          5    1    5    5  503    0 -0.23408580022E+02 -0.70130879282E+02  0.11785135133E+03  0.13920248869E+03  0.47000000000E+01 0. -1.
         -5    1    5    5    0  503 -0.12573111446E+01  0.38566813239E+02  0.21868123964E+03  0.22210933003E+03  0.47000000000E+01 0. -1.
<mgrwt>
<rscale>  0 0.27213876E+03</rscale>
<asrwt>0</asrwt>
<pdfrwt beam="1">  1        1 0.50372593E-02 0.27213876E+03</pdfrwt>
<pdfrwt beam="2">  1       -1 0.86996099E-01 0.27213876E+03</pdfrwt>
<totfact> 0.22471889E+03</totfact>
</mgrwt>
</event>
<event>
 9    1  0.8186049E-001  0.2721983E+03  0.7818608E-02  0.1100028E+00
         -2   -1    0    0    0  501 -0.00000000000E+00  0.00000000000E+00  0.41005601689E+02  0.41005601689E+02  0.00000000000E+00 0.  1.
          2   -1    0    0  501    0  0.00000000000E+00 -0.00000000000E+00 -0.45171832992E+03  0.45171832992E+03  0.00000000000E+00 0.  1.
         35    2    1    2    0    0  0.00000000000E+00  0.00000000000E+00 -0.41071272824E+03  0.49272393161E+03  0.27219832411E+03 0.  0.
         25    2    3    3    0    0 -0.13195686460E+02  0.10499814000E+01 -0.11060902509E+03  0.16737446506E+03  0.12491847949E+03 0.  0.
         25    2    3    3    0    0  0.13195686460E+02 -0.10499814000E+01 -0.30010370315E+03  0.32534946656E+03  0.12495924994E+03 0.  0.
          5    1    4    4  502    0  0.37138523442E+02  0.44108574292E+02 -0.63832346952E+02  0.86148097872E+02  0.47000000000E+01 0.  1.
         -5    1    4    4    0  502 -0.50334209902E+02 -0.43058592892E+02 -0.46776678138E+02  0.81226367184E+02  0.47000000000E+01 0.  1.
          5    1    5    5  503    0  0.14953702547E+02 -0.50243669187E+01 -0.31168365423E+03  0.31211800300E+03  0.47000000000E+01 0. -1.
         -5    1    5    5    0  503 -0.17580160874E+01  0.39743855187E+01  0.11579951083E+02  0.13231463558E+02  0.47000000000E+01 0. -1.
<mgrwt>
<rscale>  0 0.27219832E+03</rscale>
<asrwt>0</asrwt>
<pdfrwt beam="1">  1        2 0.69495129E-01 0.27219832E+03</pdfrwt>
<pdfrwt beam="2">  1       -2 0.63085540E-02 0.27219832E+03</pdfrwt>
<totfact> 0.94918060E+03</totfact>
</mgrwt>
</event>
<event>
 9    1  0.8186049E-001  0.2772439E+03  0.7818608E-02  0.1097204E+00
          2   -1    0    0  501    0  0.00000000000E+00  0.00000000000E+00  0.67576914359E+03  0.67576914359E+03  0.00000000000E+00 0.  1.
         -2   -1    0    0    0  501 -0.00000000000E+00 -0.00000000000E+00 -0.28435819171E+02  0.28435819171E+02  0.00000000000E+00 0.  1.
         35    2    1    2    0    0  0.00000000000E+00  0.00000000000E+00  0.64733332442E+03  0.70420496276E+03  0.27724392991E+03 0.  0.
         25    2    3    3    0    0 -0.25169630225E+02 -0.45775605989E+02  0.38157563293E+03  0.40575561460E+03  0.12770567233E+03 0.  0.
         25    2    3    3    0    0  0.25169630225E+02  0.45775605989E+02  0.26575769149E+03  0.29844934816E+03  0.12536325794E+03 0.  0.
          5    1    4    4  502    0 -0.65909985269E+02  0.67428990262E+01  0.24421158713E+03  0.25308295504E+03  0.47000000000E+01 0. -1.
         -5    1    4    4    0  502  0.40740355044E+02 -0.52518505015E+02  0.13736404580E+03  0.15267265956E+03  0.47000000000E+01 0. -1.
          5    1    5    5  503    0  0.56641676057E+02 -0.17377534416E+02  0.79811270939E+02  0.99509733885E+02  0.47000000000E+01 0. -1.
         -5    1    5    5    0  503 -0.31472045832E+02  0.63153140406E+02  0.18594642056E+03  0.19893961428E+03  0.47000000000E+01 0. -1.
<mgrwt>
<rscale>  0 0.27724393E+03</rscale>
<asrwt>0</asrwt>
<pdfrwt beam="1">  1        2 0.10396447E+00 0.27724393E+03</pdfrwt>
<pdfrwt beam="2">  1       -2 0.43747419E-02 0.27724393E+03</pdfrwt>
<totfact> 0.10467277E+04</totfact>
</mgrwt>
</event>
<event>
 9    1  0.8186049E-001  0.2838034E+03  0.7818608E-02  0.1093630E+00
          4   -1    0    0  501    0  0.00000000000E+00  0.00000000000E+00  0.29777725640E+03  0.29777725640E+03  0.00000000000E+00 0. -1.
         -4   -1    0    0    0  501 -0.00000000000E+00 -0.00000000000E+00 -0.67621309732E+02  0.67621309732E+02  0.00000000000E+00 0. -1.
         35    2    1    2    0    0  0.00000000000E+00  0.71054273576E-14  0.23015594667E+03  0.36539856614E+03  0.28380336916E+03 0.  0.
         25    2    3    3    0    0 -0.44343655514E+02 -0.41921456228E+02  0.78439320466E+02  0.15953870228E+03  0.12480425575E+03 0.  0.
         25    2    3    3    0    0  0.44343655514E+02  0.41921456228E+02  0.15171662621E+03  0.20585986385E+03  0.12504631383E+03 0.  0.
          5    1    4    4  502    0  0.21036921645E+02 -0.57437503215E+01 -0.23927982273E+02  0.32713622174E+02  0.47000000000E+01 0.  1.
         -5    1    4    4    0  502 -0.65380577159E+02 -0.36177705907E+02  0.10236730274E+03  0.12682508011E+03  0.47000000000E+01 0.  1.
          5    1    5    5  503    0  0.33107956608E+01 -0.43651744187E+02  0.44557339283E+02  0.62640902152E+02  0.47000000000E+01 0. -1.
         -5    1    5    5    0  503  0.41032859853E+02  0.85573200415E+02  0.10715928692E+03  0.14321896170E+03  0.47000000000E+01 0. -1.
<mgrwt>
<rscale>  0 0.28380337E+03</rscale>
<asrwt>0</asrwt>
<pdfrwt beam="1">  1        4 0.45811885E-01 0.28380337E+03</pdfrwt>
<pdfrwt beam="2">  1       -4 0.10403279E-01 0.28380337E+03</pdfrwt>
<totfact> 0.61902565E+02</totfact>
</mgrwt>
</event>
<event>
 9    1  0.8186049E-001  0.2755805E+03  0.7818608E-02  0.1098128E+00
         -1   -1    0    0    0  501 -0.00000000000E+00  0.00000000000E+00  0.52591872026E+03  0.52591872026E+03  0.00000000000E+00 0. -1.
          1   -1    0    0  501    0  0.00000000000E+00 -0.00000000000E+00 -0.36100934315E+02  0.36100934315E+02  0.00000000000E+00 0. -1.
         35    2    1    2    0    0 -0.71054273576E-14  0.71054273576E-14  0.48981778595E+03  0.56201965458E+03  0.27558053034E+03 0.  0.
         25    2    3    3    0    0 -0.13846291654E+02 -0.40401939460E+02  0.17309829414E+03  0.21769581863E+03  0.12491762690E+03 0.  0.
         25    2    3    3    0    0  0.13846291654E+02  0.40401939460E+02  0.31671949181E+03  0.34432383595E+03  0.12815471511E+03 0.  0.
          5    1    4    4  502    0  0.13219651069E+01  0.18755319577E+02 -0.11953588385E+02  0.22770328927E+02  0.47000000000E+01 0. -1.
         -5    1    4    4    0  502 -0.15168256761E+02 -0.59157259037E+02  0.18505188253E+03  0.19492548970E+03  0.47000000000E+01 0. -1.
          5    1    5    5  503    0 -0.50483614774E+02  0.18043926885E+02  0.21632013468E+03  0.22291404022E+03  0.47000000000E+01 0. -1.
         -5    1    5    5    0  503  0.64329906428E+02  0.22358012575E+02  0.10039935712E+03  0.12140979572E+03  0.47000000000E+01 0. -1.
<mgrwt>
<rscale>  0 0.27558053E+03</rscale>
<asrwt>0</asrwt>
<pdfrwt beam="1">  1        1 0.55539903E-02 0.27558053E+03</pdfrwt>
<pdfrwt beam="2">  1       -1 0.80910567E-01 0.27558053E+03</pdfrwt>
<totfact> 0.22873659E+03</totfact>
</mgrwt>
</event>
<event>
 9    1  0.8186049E-001  0.2739225E+03  0.7818608E-02  0.1099055E+00
         -2   -1    0    0    0  501 -0.00000000000E+00  0.00000000000E+00  0.14589098488E+02  0.14589098488E+02  0.00000000000E+00 0.  1.
          2   -1    0    0  501    0  0.00000000000E+00 -0.00000000000E+00 -0.12857807201E+04  0.12857807201E+04  0.00000000000E+00 0.  1.
         35    2    1    2    0    0 -0.14210854715E-13 -0.10658141036E-13 -0.12711916216E+04  0.13003698186E+04  0.27392248217E+03 0.  0.
         25    2    3    3    0    0 -0.39834893806E+02 -0.31637809294E+02 -0.52018665707E+03  0.53725185147E+03  0.12432869325E+03 0.  0.
         25    2    3    3    0    0  0.39834893806E+02  0.31637809294E+02 -0.75100496451E+03  0.76311796710E+03  0.12551017983E+03 0.  0.
          5    1    4    4  502    0 -0.17021924280E+02  0.47720073192E+02 -0.22626881337E+03  0.23191941962E+03  0.47000000000E+01 0.  1.
         -5    1    4    4    0  502 -0.22812969526E+02 -0.79357882486E+02 -0.29391784370E+03  0.30533243185E+03  0.47000000000E+01 0.  1.
          5    1    5    5  503    0  0.56355060804E+01 -0.21866865145E+02 -0.23843972301E+02  0.33174444006E+02  0.47000000000E+01 0.  1.
         -5    1    5    5    0  503  0.34199387726E+02  0.53504674439E+02 -0.72716099221E+03  0.72994352309E+03  0.47000000000E+01 0.  1.
<mgrwt>
<rscale>  0 0.27392248E+03</rscale>
<asrwt>0</asrwt>
<pdfrwt beam="1">  1        2 0.19781245E+00 0.27392248E+03</pdfrwt>
<pdfrwt beam="2">  1       -2 0.22444764E-02 0.27392248E+03</pdfrwt>
<totfact> 0.11639737E+04</totfact>
</mgrwt>
</event>
<event>
 9    1  0.8186049E-001  0.2799638E+03  0.7818608E-02  0.1095709E+00
         -2   -1    0    0    0  501 -0.00000000000E+00  0.00000000000E+00  0.17903584504E+02  0.17903584504E+02  0.00000000000E+00 0. -1.
          2   -1    0    0  501    0  0.00000000000E+00 -0.00000000000E+00 -0.10944697778E+04  0.10944697778E+04  0.00000000000E+00 0. -1.
         35    2    1    2    0    0 -0.71054273576E-14 -0.35527136788E-14 -0.10765661933E+04  0.11123733623E+04  0.27996379876E+03 0.  0.
         25    2    3    3    0    0  0.53730239600E+02  0.16771213881E+02 -0.42704609900E+03  0.44856124909E+03  0.12518231204E+03 0.  0.
         25    2    3    3    0    0 -0.53730239600E+02 -0.16771213881E+02 -0.64952009429E+03  0.66381211321E+03  0.12490779198E+03 0.  0.
          5    1    4    4  502    0 -0.35803626526E+02 -0.17660301771E+02 -0.10241776670E+03  0.11002397406E+03  0.47000000000E+01 0. -1.
         -5    1    4    4    0  502  0.89533866126E+02  0.34431515652E+02 -0.32462833230E+03  0.33853727503E+03  0.47000000000E+01 0. -1.
          5    1    5    5  503    0 -0.86235722553E+02  0.15133844585E+02 -0.49282525014E+03  0.50056413202E+03  0.47000000000E+01 0. -1.
         -5    1    5    5    0  503  0.32505482954E+02 -0.31905058466E+02 -0.15669484416E+03  0.16324798119E+03  0.47000000000E+01 0. -1.
<mgrwt>
<rscale>  0 0.27996380E+03</rscale>
<asrwt>0</asrwt>
<pdfrwt beam="1">  1        2 0.16837997E+00 0.27996380E+03</pdfrwt>
<pdfrwt beam="2">  1       -2 0.27543975E-02 0.27996380E+03</pdfrwt>
<totfact> 0.11061522E+04</totfact>
</mgrwt>
</event>
<event>
 9    1  0.8186049E-001  0.2734889E+03  0.7818608E-02  0.1099299E+00
         -2   -1    0    0    0  501 -0.00000000000E+00  0.00000000000E+00  0.37309782584E+02  0.37309782584E+02  0.00000000000E+00 0.  1.
          2   -1    0    0  501    0  0.00000000000E+00 -0.00000000000E+00 -0.50118352648E+03  0.50118352648E+03  0.00000000000E+00 0.  1.
         35    2    1    2    0    0  0.71054273576E-14  0.35527136788E-14 -0.46387374389E+03  0.53849330906E+03  0.27348892780E+03 0.  0.
         25    2    3    3    0    0  0.27253817980E+02  0.26475132120E+02 -0.16964070927E+03  0.21457707355E+03  0.12578412871E+03 0.  0.
         25    2    3    3    0    0 -0.27253817980E+02 -0.26475132120E+02 -0.29423303462E+03  0.32391623551E+03  0.13001902073E+03 0.  0.
          5    1    4    4  502    0 -0.35133074409E+02  0.27627454566E+01 -0.38091167727E+01  0.35757027987E+02  0.47000000000E+01 0. -1.
         -5    1    4    4    0  502  0.62386892390E+02  0.23712386664E+02 -0.16583159250E+03  0.17882004556E+03  0.47000000000E+01 0. -1.
          5    1    5    5  503    0 -0.47553281748E+01 -0.77962251189E+02 -0.18832531465E+03  0.20393440096E+03  0.47000000000E+01 0.  1.
         -5    1    5    5    0  503 -0.22498489806E+02  0.51487119068E+02 -0.10590771997E+03  0.11998183455E+03  0.47000000000E+01 0.  1.
<mgrwt>
<rscale>  0 0.27348893E+03</rscale>
<asrwt>0</asrwt>
<pdfrwt beam="1">  1        2 0.77105163E-01 0.27348893E+03</pdfrwt>
<pdfrwt beam="2">  1       -2 0.57399662E-02 0.27348893E+03</pdfrwt>
<totfact> 0.97786798E+03</totfact>
</mgrwt>
</event>
<event>
 9    1  0.8186049E-001  0.2771049E+03  0.7818608E-02  0.1097281E+00
          2   -1    0    0  501    0  0.00000000000E+00  0.00000000000E+00  0.13075607156E+04  0.13075607156E+04  0.00000000000E+00 0.  1.
         -2   -1    0    0    0  501 -0.00000000000E+00 -0.00000000000E+00 -0.14681372098E+02  0.14681372098E+02  0.00000000000E+00 0.  1.
         35    2    1    2    0    0 -0.71054273576E-14  0.71054273576E-14  0.12928793435E+04  0.13222420877E+04  0.27710492891E+03 0.  0.
         25    2    3    3    0    0  0.30036811166E+02  0.27013595125E+02  0.85281410368E+03  0.86293279476E+03  0.12541598179E+03 0.  0.
         25    2    3    3    0    0 -0.30036811166E+02 -0.27013595125E+02  0.44006523983E+03  0.45930929295E+03  0.12520250370E+03 0.  0.
          5    1    4    4  502    0  0.15639058687E+02  0.64739169915E+02  0.74021299364E+03  0.74321807448E+03  0.47000000000E+01 0. -1.
         -5    1    4    4    0  502  0.14397752479E+02 -0.37725574790E+02  0.11260111004E+03  0.11971472028E+03  0.47000000000E+01 0. -1.
          5    1    5    5  503    0  0.35872046567E+02 -0.36135371232E+01  0.43951595561E+02  0.57041161698E+02  0.47000000000E+01 0.  1.
         -5    1    5    5    0  503 -0.65908857733E+02 -0.23400058002E+02  0.39611364427E+03  0.40226813125E+03  0.47000000000E+01 0.  1.
<mgrwt>
<rscale>  0 0.27710493E+03</rscale>
<asrwt>0</asrwt>
<pdfrwt beam="1">  1        2 0.20116310E+00 0.27710493E+03</pdfrwt>
<pdfrwt beam="2">  1       -2 0.22586737E-02 0.27710493E+03</pdfrwt>
<totfact> 0.11219076E+04</totfact>
</mgrwt>
</event>
<event>
 9    1  0.8186049E-001  0.2742880E+03  0.7818608E-02  0.1098850E+00
         -1   -1    0    0    0  501 -0.00000000000E+00  0.00000000000E+00  0.15106255506E+02  0.15106255506E+02  0.00000000000E+00 0.  1.
          1   -1    0    0  501    0  0.00000000000E+00 -0.00000000000E+00 -0.12450785714E+04  0.12450785714E+04  0.00000000000E+00 0.  1.
         35    2    1    2    0    0  0.00000000000E+00  0.71054273576E-14 -0.12299723159E+04  0.12601848269E+04  0.27428798752E+03 0.  0.
         25    2    3    3    0    0  0.50565709575E+02  0.19166753704E+02 -0.68114172536E+03  0.69476363946E+03  0.12577046258E+03 0.  0.
         25    2    3    3    0    0 -0.50565709575E+02 -0.19166753704E+02 -0.54883059058E+03  0.56542118749E+03  0.12474713093E+03 0.  0.
          5    1    4    4  502    0 -0.34019592248E+02 -0.24357382503E+01 -0.36920868448E+03  0.37081047473E+03  0.47000000000E+01 0.  1.
         -5    1    4    4    0  502  0.84585301822E+02  0.21602491955E+02 -0.31193304088E+03  0.32395316472E+03  0.47000000000E+01 0.  1.
          5    1    5    5  503    0 -0.47437684177E+02 -0.25054177474E+02 -0.55343865854E+03  0.55605259145E+03  0.47000000000E+01 0.  1.
         -5    1    5    5    0  503 -0.31280253976E+01  0.58874237700E+01  0.46080679589E+01  0.93685960447E+01  0.47000000000E+01 0.  1.
<mgrwt>
<rscale>  0 0.27428799E+03</rscale>
<asrwt>0</asrwt>
<pdfrwt beam="1">  1        1 0.19155054E+00 0.27428799E+03</pdfrwt>
<pdfrwt beam="2">  1       -1 0.23240395E-02 0.27428799E+03</pdfrwt>
<totfact> 0.58553914E+03</totfact>
</mgrwt>
</event>
<event>
 9    1  0.8186049E-001  0.3019227E+03  0.7818608E-02  0.1084283E+00
         -1   -1    0    0    0  501 -0.00000000000E+00  0.00000000000E+00  0.15951203953E+03  0.15951203953E+03  0.00000000000E+00 0.  1.
          1   -1    0    0  501    0  0.00000000000E+00 -0.00000000000E+00 -0.14286899653E+03  0.14286899653E+03  0.00000000000E+00 0.  1.
         35    2    1    2    0    0  0.00000000000E+00  0.00000000000E+00  0.16643043001E+02  0.30238103605E+03  0.30192267236E+03 0.  0.
         25    2    3    3    0    0 -0.54181517789E+02  0.65367563060E+02  0.18591882925E+02  0.15105722318E+03  0.12354785062E+03 0.  0.
         25    2    3    3    0    0  0.54181517789E+02 -0.65367563060E+02 -0.19488399243E+01  0.15132381287E+03  0.12524593085E+03 0.  0.
          5    1    4    4  502    0 -0.47998754241E+02  0.99048796940E+02 -0.31702434590E+01  0.11021200038E+03  0.47000000000E+01 0.  1.
         -5    1    4    4    0  502 -0.61827635483E+01 -0.33681233880E+02  0.21762126384E+02  0.40845222799E+02  0.47000000000E+01 0.  1.
          5    1    5    5  503    0  0.78720888833E+02 -0.87246601641E+02  0.35591488359E+01  0.11765927663E+03  0.47000000000E+01 0. -1.
         -5    1    5    5    0  503 -0.24539371044E+02  0.21879038581E+02 -0.55079887603E+01  0.33664536245E+02  0.47000000000E+01 0. -1.
<mgrwt>
<rscale>  0 0.30192267E+03</rscale>
<asrwt>0</asrwt>
<pdfrwt beam="1">  1        1 0.21979846E-01 0.30192267E+03</pdfrwt>
<pdfrwt beam="2">  1       -1 0.24540314E-01 0.30192267E+03</pdfrwt>
<totfact> 0.32402414E+03</totfact>
</mgrwt>
</event>
<event>
 9    1  0.8186049E-001  0.2707007E+03  0.7818608E-02  0.1100879E+00
         -2   -1    0    0    0  501 -0.00000000000E+00  0.00000000000E+00  0.13923890144E+02  0.13923890144E+02  0.00000000000E+00 0. -1.
          2   -1    0    0  501    0  0.00000000000E+00 -0.00000000000E+00 -0.13157043087E+04  0.13157043087E+04  0.00000000000E+00 0. -1.
         35    2    1    2    0    0  0.00000000000E+00  0.14210854715E-13 -0.13017804185E+04  0.13296281988E+04  0.27070073702E+03 0.  0.
         25    2    3    3    0    0  0.11211816627E+02 -0.38894770091E+02 -0.80609996834E+03  0.81673965481E+03  0.12501198669E+03 0.  0.
         25    2    3    3    0    0 -0.11211816627E+02  0.38894770091E+02 -0.49568045019E+03  0.51288854400E+03  0.12536762699E+03 0.  0.
          5    1    4    4  502    0 -0.47051155454E+02  0.15798770426E+02 -0.37130762495E+03  0.37463963314E+03  0.47000000000E+01 0. -1.
         -5    1    4    4    0  502  0.58262972081E+02 -0.54693540517E+02 -0.43479234339E+03  0.44210002167E+03  0.47000000000E+01 0. -1.
          5    1    5    5  503    0 -0.41139595725E+02 -0.32664290131E+02 -0.23652027213E+03  0.24232901460E+03  0.47000000000E+01 0.  1.
         -5    1    5    5    0  503  0.29927779098E+02  0.71559060223E+02 -0.25916017806E+03  0.27055952941E+03  0.47000000000E+01 0.  1.
<mgrwt>
<rscale>  0 0.27070074E+03</rscale>
<asrwt>0</asrwt>
<pdfrwt beam="1">  1        2 0.20241609E+00 0.27070074E+03</pdfrwt>
<pdfrwt beam="2">  1       -2 0.21421365E-02 0.27070074E+03</pdfrwt>
<totfact> 0.11998504E+04</totfact>
</mgrwt>
</event>
<event>
 9    1  0.8186049E-001  0.2715159E+03  0.7818608E-02  0.1100415E+00
          2   -1    0    0  501    0  0.00000000000E+00  0.00000000000E+00  0.14079044668E+03  0.14079044668E+03  0.00000000000E+00 0.  1.
         -2   -1    0    0    0  501 -0.00000000000E+00 -0.00000000000E+00 -0.13090533698E+03  0.13090533698E+03  0.00000000000E+00 0.  1.
         35    2    1    2    0    0  0.71054273576E-14 -0.14210854715E-13  0.98851097085E+01  0.27169578366E+03  0.27151589910E+03 0.  0.
         25    2    3    3    0    0  0.24378268793E+02  0.58623223012E+02 -0.35081000694E+01  0.13893032105E+03  0.12352467395E+03 0.  0.
         25    2    3    3    0    0 -0.24378268793E+02 -0.58623223012E+02  0.13393209778E+02  0.13276546261E+03  0.11582878627E+03 0.  0.
          5    1    4    4  502    0 -0.15294972420E+02  0.69065219978E+02 -0.42065139817E+02  0.82434863860E+02  0.47000000000E+01 0.  1.
         -5    1    4    4    0  502  0.39673241213E+02 -0.10441996966E+02  0.38557039747E+02  0.56495457190E+02  0.47000000000E+01 0.  1.
          5    1    5    5  503    0 -0.43762550056E+02 -0.82951623986E+02 -0.87231940999E+01  0.94309685741E+02  0.47000000000E+01 0. -1.
         -5    1    5    5    0  503  0.19384281263E+02  0.24328400974E+02  0.22116403878E+02  0.38455776868E+02  0.47000000000E+01 0. -1.
<mgrwt>
<rscale>  0 0.27151590E+03</rscale>
<asrwt>0</asrwt>
<pdfrwt beam="1">  1        2 0.21660069E-01 0.27151590E+03</pdfrwt>
<pdfrwt beam="2">  1       -2 0.20139283E-01 0.27151590E+03</pdfrwt>
<totfact> 0.52202808E+03</totfact>
</mgrwt>
</event>
<event>
 9    1  0.8186049E-001  0.2741299E+03  0.7818608E-02  0.1098939E+00
          1   -1    0    0  501    0  0.00000000000E+00  0.00000000000E+00  0.20584030816E+03  0.20584030816E+03  0.00000000000E+00 0.  1.
         -1   -1    0    0    0  501 -0.00000000000E+00 -0.00000000000E+00 -0.91268794553E+02  0.91268794553E+02  0.00000000000E+00 0.  1.
         35    2    1    2    0    0  0.00000000000E+00 -0.71054273576E-14  0.11457151361E+03  0.29710910271E+03  0.27412987284E+03 0.  0.
         25    2    3    3    0    0 -0.22879795917E+02  0.49809025120E+02  0.51049522823E+02  0.14644130880E+03  0.12583552399E+03 0.  0.
         25    2    3    3    0    0  0.22879795917E+02 -0.49809025120E+02  0.63521990786E+02  0.15066779391E+03  0.12514518274E+03 0.  0.
          5    1    4    4  502    0 -0.68777518144E+02  0.56180403078E+02  0.44383878684E+02  0.99391163485E+02  0.47000000000E+01 0.  1.
         -5    1    4    4    0  502  0.45897722226E+02 -0.63713779582E+01  0.66656441395E+01  0.47050145318E+02  0.47000000000E+01 0.  1.
          5    1    5    5  503    0 -0.91968102107E+01 -0.42439665231E+02  0.95202711111E+02  0.10474422517E+03  0.47000000000E+01 0.  1.
         -5    1    5    5    0  503  0.32076606128E+02 -0.73693598887E+01 -0.31680720325E+02  0.45923568744E+02  0.47000000000E+01 0.  1.
<mgrwt>
<rscale>  0 0.27412987E+03</rscale>
<asrwt>0</asrwt>
<pdfrwt beam="1">  1        1 0.31667740E-01 0.27412987E+03</pdfrwt>
<pdfrwt beam="2">  1       -1 0.14041353E-01 0.27412987E+03</pdfrwt>
<totfact> 0.50140582E+03</totfact>
</mgrwt>
</event>
<event>
 9    1  0.8186049E-001  0.2723370E+03  0.7818608E-02  0.1099950E+00
          2   -1    0    0  501    0  0.00000000000E+00  0.00000000000E+00  0.92565267992E+02  0.92565267992E+02  0.00000000000E+00 0.  1.
         -2   -1    0    0    0  501 -0.00000000000E+00 -0.00000000000E+00 -0.20031115631E+03  0.20031115631E+03  0.00000000000E+00 0.  1.
         35    2    1    2    0    0 -0.35527136788E-14  0.00000000000E+00 -0.10774588832E+03  0.29287642430E+03  0.27233696676E+03 0.  0.
         25    2    3    3    0    0 -0.30945072628E+02  0.24450434995E+02 -0.88537116030E+02  0.15839565869E+03  0.12527945755E+03 0.  0.
         25    2    3    3    0    0  0.30945072628E+02 -0.24450434995E+02 -0.19208772286E+02  0.13448076561E+03  0.12712465574E+03 0.  0.
          5    1    4    4  502    0 -0.14530211742E+01 -0.35951727942E+02  0.11248530544E+02  0.37990228374E+02  0.47000000000E+01 0. -1.
         -5    1    4    4    0  502 -0.29492051454E+02  0.60402162937E+02 -0.99785646574E+02  0.12040543031E+03  0.47000000000E+01 0. -1.
          5    1    5    5  503    0  0.25417936952E+02  0.32547577591E+02 -0.53361946233E+02  0.67638773139E+02  0.47000000000E+01 0.  1.
         -5    1    5    5    0  503  0.55271356765E+01 -0.56998012586E+02  0.34153173946E+02  0.66841992476E+02  0.47000000000E+01 0.  1.
<mgrwt>
<rscale>  0 0.27233697E+03</rscale>
<asrwt>0</asrwt>
<pdfrwt beam="1">  1        2 0.14240810E-01 0.27233697E+03</pdfrwt>
<pdfrwt beam="2">  1       -2 0.30817101E-01 0.27233697E+03</pdfrwt>
<totfact> 0.40134312E+03</totfact>
</mgrwt>
</event>
<event>
 9    1  0.8186049E-001  0.2763134E+03  0.7818608E-02  0.1097720E+00
         -2   -1    0    0    0  501 -0.00000000000E+00  0.00000000000E+00  0.11156453555E+02  0.11156453555E+02  0.00000000000E+00 0. -1.
          2   -1    0    0  501    0  0.00000000000E+00 -0.00000000000E+00 -0.17108728560E+04  0.17108728560E+04  0.00000000000E+00 0. -1.
         35    2    1    2    0    0  0.10658141036E-13 -0.71054273576E-14 -0.16997164024E+04  0.17220293096E+04  0.27631339856E+03 0.  0.
         25    2    3    3    0    0 -0.25419833512E+02 -0.47286440852E+02 -0.71859240569E+03  0.73153523634E+03  0.12604198136E+03 0.  0.
         25    2    3    3    0    0  0.25419833512E+02  0.47286440852E+02 -0.98112399675E+03  0.99049407321E+03  0.12486807696E+03 0.  0.
          5    1    4    4  502    0  0.42519142309E+02 -0.53548656785E+02 -0.37159917132E+03  0.37786686839E+03  0.47000000000E+01 0. -1.
         -5    1    4    4    0  502 -0.67938975821E+02  0.62622159337E+01 -0.34699323438E+03  0.35366836795E+03  0.47000000000E+01 0. -1.
          5    1    5    5  503    0 -0.26297381091E+02  0.71788103891E+02 -0.64054475766E+03  0.64510833252E+03  0.47000000000E+01 0. -1.
         -5    1    5    5    0  503  0.51717214604E+02 -0.24501663039E+02 -0.34057923908E+03  0.34538574069E+03  0.47000000000E+01 0. -1.
<mgrwt>
<rscale>  0 0.27631340E+03</rscale>
<asrwt>0</asrwt>
<pdfrwt beam="1">  1        2 0.26321127E+00 0.27631340E+03</pdfrwt>
<pdfrwt beam="2">  1       -2 0.17163770E-02 0.27631340E+03</pdfrwt>
<totfact> 0.10209029E+04</totfact>
</mgrwt>
</event>
<event>
 9    1  0.8186049E-001  0.2766510E+03  0.7818608E-02  0.1097532E+00
          2   -1    0    0  501    0  0.00000000000E+00  0.00000000000E+00  0.86586535382E+02  0.86586535382E+02  0.00000000000E+00 0. -1.
         -2   -1    0    0    0  501 -0.00000000000E+00 -0.00000000000E+00 -0.22098053691E+03  0.22098053691E+03  0.00000000000E+00 0. -1.
         35    2    1    2    0    0  0.71054273576E-14  0.00000000000E+00 -0.13439400153E+03  0.30756707229E+03  0.27665096478E+03 0.  0.
         25    2    3    3    0    0  0.42383227196E+02  0.40116243001E+02 -0.60843430291E+02  0.15125126251E+03  0.12557615419E+03 0.  0.
         25    2    3    3    0    0 -0.42383227196E+02 -0.40116243001E+02 -0.73550571240E+02  0.15631580978E+03  0.12497717775E+03 0.  0.
          5    1    4    4  502    0  0.70055088500E+02  0.53257549438E+02 -0.60913060847E+01  0.88336153452E+02  0.47000000000E+01 0.  1.
         -5    1    4    4    0  502 -0.27671861305E+02 -0.13141306437E+02 -0.54752124206E+02  0.62915109060E+02  0.47000000000E+01 0.  1.
          5    1    5    5  503    0 -0.15179738479E+02  0.46021290283E+01  0.33332080124E+02  0.37211847808E+02  0.47000000000E+01 0. -1.
         -5    1    5    5    0  503 -0.27203488717E+02 -0.44718372029E+02 -0.10688265136E+03  0.11910396197E+03  0.47000000000E+01 0. -1.
<mgrwt>
<rscale>  0 0.27665096E+03</rscale>
<asrwt>0</asrwt>
<pdfrwt beam="1">  1        2 0.13321005E-01 0.27665096E+03</pdfrwt>
<pdfrwt beam="2">  1       -2 0.33997006E-01 0.27665096E+03</pdfrwt>
<totfact> 0.36309038E+03</totfact>
</mgrwt>
</event>
<event>
 9    1  0.8186049E-001  0.2756021E+03  0.7818608E-02  0.1098116E+00
          2   -1    0    0  501    0  0.00000000000E+00  0.00000000000E+00  0.42204727841E+02  0.42204727841E+02  0.00000000000E+00 0. -1.
         -2   -1    0    0    0  501 -0.00000000000E+00 -0.00000000000E+00 -0.44992891852E+03  0.44992891852E+03  0.00000000000E+00 0. -1.
         35    2    1    2    0    0  0.00000000000E+00  0.00000000000E+00 -0.40772419068E+03  0.49213364636E+03  0.27560208674E+03 0.  0.
         25    2    3    3    0    0 -0.45337634761E+02  0.28021424693E+01 -0.25174972618E+03  0.28771918258E+03  0.13168542161E+03 0.  0.
         25    2    3    3    0    0  0.45337634761E+02 -0.28021424693E+01 -0.15597446450E+03  0.20441446378E+03  0.12407210121E+03 0.  0.
          5    1    4    4  502    0 -0.40237787331E+02  0.40966747145E+02 -0.34756884831E+02  0.67286588144E+02  0.47000000000E+01 0. -1.
         -5    1    4    4    0  502 -0.50998474302E+01 -0.38164604675E+02 -0.21699284135E+03  0.22043259444E+03  0.47000000000E+01 0. -1.
          5    1    5    5  503    0 -0.14245354736E+02  0.22684391346E+02 -0.13260396342E+03  0.13536400133E+03  0.47000000000E+01 0.  1.
         -5    1    5    5    0  503  0.59582989497E+02 -0.25486533815E+02 -0.23370501078E+02  0.69050462446E+02  0.47000000000E+01 0.  1.
<mgrwt>
<rscale>  0 0.27560209E+03</rscale>
<asrwt>0</asrwt>
<pdfrwt beam="1">  1        2 0.64930351E-02 0.27560209E+03</pdfrwt>
<pdfrwt beam="2">  1       -2 0.69219833E-01 0.27560209E+03</pdfrwt>
<totfact> 0.21718604E+03</totfact>
</mgrwt>
</event>
<event>
 9    1  0.8186049E-001  0.2753394E+03  0.7818608E-02  0.1098262E+00
          2   -1    0    0  501    0  0.00000000000E+00  0.00000000000E+00  0.94950388539E+02  0.94950388539E+02  0.00000000000E+00 0.  1.
         -2   -1    0    0    0  501 -0.00000000000E+00 -0.00000000000E+00 -0.19960899809E+03  0.19960899809E+03  0.00000000000E+00 0.  1.
         35    2    1    2    0    0 -0.71054273576E-14  0.71054273576E-14 -0.10465860955E+03  0.29455938663E+03  0.27533944087E+03 0.  0.
         25    2    3    3    0    0  0.18477370143E+02  0.13603543076E+02 -0.11281229533E+03  0.17004176636E+03  0.12514439156E+03 0.  0.
         25    2    3    3    0    0 -0.18477370143E+02 -0.13603543076E+02  0.81536857822E+01  0.12451762026E+03  0.12211341275E+03 0.  0.
          5    1    4    4  502    0  0.64211709524E+01 -0.42891665796E+02 -0.46560000387E+00  0.43626061185E+02  0.47000000000E+01 0. -1.
         -5    1    4    4    0  502  0.12056199191E+02  0.56495208872E+02 -0.11234669533E+03  0.12641570518E+03  0.47000000000E+01 0. -1.
          5    1    5    5  503    0  0.39886554487E+02 -0.41833998799E+02 -0.49632915108E+01  0.58204337871E+02  0.47000000000E+01 0.  1.
         -5    1    5    5    0  503 -0.58363924630E+02  0.28230455723E+02  0.13116977293E+02  0.66313282394E+02  0.47000000000E+01 0.  1.
<mgrwt>
<rscale>  0 0.27533944E+03</rscale>
<asrwt>0</asrwt>
<pdfrwt beam="1">  1        2 0.14607752E-01 0.27533944E+03</pdfrwt>
<pdfrwt beam="2">  1       -2 0.30709076E-01 0.27533944E+03</pdfrwt>
<totfact> 0.39200731E+03</totfact>
</mgrwt>
</event>
<event>
 9    1  0.8186049E-001  0.2744651E+03  0.7818608E-02  0.1098751E+00
          4   -1    0    0  501    0  0.00000000000E+00  0.00000000000E+00  0.54952872679E+02  0.54952872679E+02  0.00000000000E+00 0.  1.
         -4   -1    0    0    0  501 -0.00000000000E+00 -0.00000000000E+00 -0.34270770608E+03  0.34270770608E+03  0.00000000000E+00 0.  1.
         35    2    1    2    0    0  0.00000000000E+00 -0.71054273576E-14 -0.28775483340E+03  0.39766057876E+03  0.27446510116E+03 0.  0.
         25    2    3    3    0    0 -0.28065592876E+02 -0.31929208095E+02 -0.92456875378E+02  0.16222292175E+03  0.12633626044E+03 0.  0.
         25    2    3    3    0    0  0.28065592876E+02  0.31929208095E+02 -0.19529795802E+03  0.23543765701E+03  0.12442847785E+03 0.  0.
          5    1    4    4  502    0 -0.31881528940E+01  0.25146102896E+02 -0.96276021888E+02  0.99667713931E+02  0.47000000000E+01 0.  1.
         -5    1    4    4    0  502 -0.24877439982E+02 -0.57075310991E+02  0.38191465091E+01  0.62555207815E+02  0.47000000000E+01 0.  1.
          5    1    5    5  503    0 -0.16277788127E+01  0.77075576274E+02 -0.11641516916E+03  0.13970639116E+03  0.47000000000E+01 0.  1.
         -5    1    5    5    0  503  0.29693371688E+02 -0.45146368179E+02 -0.78882788860E+02  0.95731265846E+02  0.47000000000E+01 0.  1.
<mgrwt>
<rscale>  0 0.27446510E+03</rscale>
<asrwt>0</asrwt>
<pdfrwt beam="1">  1        4 0.84542880E-02 0.27446510E+03</pdfrwt>
<pdfrwt beam="2">  1       -4 0.52724263E-01 0.27446510E+03</pdfrwt>
<totfact> 0.65604002E+02</totfact>
</mgrwt>
</event>
<event>
 9    1  0.8186049E-001  0.2745944E+03  0.7818608E-02  0.1098679E+00
         -1   -1    0    0    0  501 -0.00000000000E+00  0.00000000000E+00  0.51132946654E+02  0.51132946654E+02  0.00000000000E+00 0.  1.
          1   -1    0    0  501    0  0.00000000000E+00 -0.00000000000E+00 -0.36865709491E+03  0.36865709491E+03  0.00000000000E+00 0.  1.
         35    2    1    2    0    0  0.00000000000E+00  0.14210854715E-13 -0.31752414825E+03  0.41979004156E+03  0.27459441777E+03 0.  0.
         25    2    3    3    0    0 -0.23616939036E+02 -0.52942435449E+02 -0.16564317302E+03  0.21460151123E+03  0.12351310285E+03 0.  0.
         25    2    3    3    0    0  0.23616939036E+02  0.52942435449E+02 -0.15188097524E+03  0.20518853033E+03  0.12519521181E+03 0.  0.
          5    1    4    4  502    0  0.28933632864E+02  0.11833092233E+02 -0.10943596739E+03  0.11391004408E+03  0.47000000000E+01 0. -1.
         -5    1    4    4    0  502 -0.52550571900E+02 -0.64775527683E+02 -0.56207205625E+02  0.10069146715E+03  0.47000000000E+01 0. -1.
          5    1    5    5  503    0  0.35596417173E+02  0.74690870226E+02 -0.42904586433E+02  0.93320547296E+02  0.47000000000E+01 0. -1.
         -5    1    5    5    0  503 -0.11979478137E+02 -0.21748434776E+02 -0.10897638880E+03  0.11186798304E+03  0.47000000000E+01 0. -1.
<mgrwt>
<rscale>  0 0.27459442E+03</rscale>
<asrwt>0</asrwt>
<pdfrwt beam="1">  1        1 0.56716478E-01 0.27459442E+03</pdfrwt>
<pdfrwt beam="2">  1       -1 0.78666069E-02 0.27459442E+03</pdfrwt>
<totfact> 0.59118334E+03</totfact>
</mgrwt>
</event>
<event>
 9    1  0.8186049E-001  0.2752094E+03  0.7818608E-02  0.1098335E+00
         -4   -1    0    0    0  501 -0.00000000000E+00  0.00000000000E+00  0.14039625011E+03  0.14039625011E+03  0.00000000000E+00 0. -1.
          4   -1    0    0  501    0  0.00000000000E+00 -0.00000000000E+00 -0.13486861641E+03  0.13486861641E+03  0.00000000000E+00 0. -1.
         35    2    1    2    0    0  0.00000000000E+00  0.00000000000E+00  0.55276336993E+01  0.27526486653E+03  0.27520936032E+03 0.  0.
         25    2    3    3    0    0  0.78345919162E+01  0.36431101958E+02  0.42718409240E+02  0.13879740616E+03  0.12669353357E+03 0.  0.
         25    2    3    3    0    0 -0.78345919162E+01 -0.36431101958E+02 -0.37190775541E+02  0.13646746037E+03  0.12590316888E+03 0.  0.
          5    1    4    4  502    0  0.46306591586E+01 -0.34146004051E+02  0.56803403122E+02  0.66604123019E+02  0.47000000000E+01 0. -1.
         -5    1    4    4    0  502  0.32039327576E+01  0.70577106009E+02 -0.14084993882E+02  0.72193283139E+02  0.47000000000E+01 0. -1.
          5    1    5    5  503    0 -0.67531709659E+01 -0.77337378118E+02 -0.51023699680E+02  0.93017112949E+02  0.47000000000E+01 0. -1.
         -5    1    5    5    0  503 -0.10814209503E+01  0.40906276160E+02  0.13832924139E+02  0.43450347418E+02  0.47000000000E+01 0. -1.
<mgrwt>
<rscale>  0 0.27520936E+03</rscale>
<asrwt>0</asrwt>
<pdfrwt beam="1">  1        4 0.20749018E-01 0.27520936E+03</pdfrwt>
<pdfrwt beam="2">  1       -4 0.21599423E-01 0.27520936E+03</pdfrwt>
<totfact> 0.77648871E+02</totfact>
</mgrwt>
</event>
<event>
 9    1  0.8186049E-001  0.2763479E+03  0.7818608E-02  0.1097701E+00
          1   -1    0    0  501    0  0.00000000000E+00  0.00000000000E+00  0.40913073602E+03  0.40913073602E+03  0.00000000000E+00 0.  1.
         -1   -1    0    0    0  501 -0.00000000000E+00 -0.00000000000E+00 -0.46664901940E+02  0.46664901940E+02  0.00000000000E+00 0.  1.
         35    2    1    2    0    0  0.35527136788E-14  0.14210854715E-13  0.36246583408E+03  0.45579563796E+03  0.27634793777E+03 0.  0.
         25    2    3    3    0    0 -0.47034473548E+00 -0.53508279630E+02  0.15950547115E+03  0.21004701315E+03  0.12575529887E+03 0.  0.
         25    2    3    3    0    0  0.47034473548E+00  0.53508279630E+02  0.20296036293E+03  0.24574862480E+03  0.12781283371E+03 0.  0.
          5    1    4    4  502    0 -0.26038225389E+02 -0.68189322168E+02  0.16426623052E+03  0.17981450811E+03  0.47000000000E+01 0. -1.
         -5    1    4    4    0  502  0.25567880653E+02  0.14681042539E+02 -0.47607593700E+01  0.30232505038E+02  0.47000000000E+01 0. -1.
          5    1    5    5  503    0  0.33327809208E+02  0.81923781536E+02  0.16750683295E+03  0.18948054764E+03  0.47000000000E+01 0. -1.
         -5    1    5    5    0  503 -0.32857464473E+02 -0.28415501906E+02  0.35453529974E+02  0.56268077165E+02  0.47000000000E+01 0. -1.
<mgrwt>
<rscale>  0 0.27634794E+03</rscale>
<asrwt>0</asrwt>
<pdfrwt beam="1">  1        1 0.62943188E-01 0.27634794E+03</pdfrwt>
<pdfrwt beam="2">  1       -1 0.71792159E-02 0.27634794E+03</pdfrwt>
<totfact> 0.59487821E+03</totfact>
</mgrwt>
</event>
<event>
 9    1  0.8186049E-001  0.2762072E+03  0.7818608E-02  0.1097779E+00
         -1   -1    0    0    0  501 -0.00000000000E+00  0.00000000000E+00  0.23556112501E+02  0.23556112501E+02  0.00000000000E+00 0. -1.
          1   -1    0    0  501    0  0.00000000000E+00 -0.00000000000E+00 -0.80966716313E+03  0.80966716313E+03  0.00000000000E+00 0. -1.
         35    2    1    2    0    0 -0.71054273576E-14  0.35527136788E-14 -0.78611105062E+03  0.83322327563E+03  0.27620724671E+03 0.  0.
         25    2    3    3    0    0  0.47260947427E+02 -0.13241951371E+02 -0.29971438184E+03  0.32867518663E+03  0.12565715736E+03 0.  0.
         25    2    3    3    0    0 -0.47260947427E+02  0.13241951371E+02 -0.48639666878E+03  0.50454808900E+03  0.12481229219E+03 0.  0.
          5    1    4    4  502    0  0.43491415474E+02 -0.39272894349E+02 -0.29590237309E+03  0.30168554465E+03  0.47000000000E+01 0.  1.
         -5    1    4    4    0  502  0.37695319532E+01  0.26030942977E+02 -0.38120087515E+01  0.26989641979E+02  0.47000000000E+01 0.  1.
          5    1    5    5  503    0  0.17929676859E+02  0.39817862623E+02 -0.33078358602E+03  0.33368668879E+03  0.47000000000E+01 0.  1.
         -5    1    5    5    0  503 -0.65190624286E+02 -0.26575911252E+02 -0.15561308276E+03  0.17086140021E+03  0.47000000000E+01 0.  1.
<mgrwt>
<rscale>  0 0.27620725E+03</rscale>
<asrwt>0</asrwt>
<pdfrwt beam="1">  1        1 0.12456419E+00 0.27620725E+03</pdfrwt>
<pdfrwt beam="2">  1       -1 0.36240170E-02 0.27620725E+03</pdfrwt>
<totfact> 0.64326762E+03</totfact>
</mgrwt>
</event>
<event>
 9    1  0.8186049E-001  0.2755635E+03  0.7818608E-02  0.1098137E+00
         -2   -1    0    0    0  501 -0.00000000000E+00  0.00000000000E+00  0.26840886306E+03  0.26840886306E+03  0.00000000000E+00 0. -1.
          2   -1    0    0  501    0  0.00000000000E+00 -0.00000000000E+00 -0.70727223592E+02  0.70727223592E+02  0.00000000000E+00 0. -1.
         35    2    1    2    0    0  0.71054273576E-14  0.35527136788E-14  0.19768163947E+03  0.33913608665E+03  0.27556352205E+03 0.  0.
         25    2    3    3    0    0  0.28769550340E+02 -0.24692214869E+02  0.14708397794E+03  0.19697878795E+03  0.12541751806E+03 0.  0.
         25    2    3    3    0    0 -0.28769550340E+02  0.24692214869E+02  0.50597661533E+02  0.14215729870E+03  0.12732313898E+03 0.  0.
          5    1    4    4  502    0  0.30888553736E+02 -0.72710377562E+02  0.11263281577E+03  0.13765588598E+03  0.47000000000E+01 0.  1.
         -5    1    4    4    0  502 -0.21190033960E+01  0.48018162693E+02  0.34451162168E+02  0.59322901973E+02  0.47000000000E+01 0.  1.
          5    1    5    5  503    0  0.38774800418E+02  0.29666480126E+02  0.55528415608E+02  0.74088326547E+02  0.47000000000E+01 0.  1.
         -5    1    5    5    0  503 -0.67544350758E+02 -0.49742652574E+01 -0.49307540750E+01  0.68068972153E+02  0.47000000000E+01 0.  1.
<mgrwt>
<rscale>  0 0.27556352E+03</rscale>
<asrwt>0</asrwt>
<pdfrwt beam="1">  1        2 0.10881111E-01 0.27556352E+03</pdfrwt>
<pdfrwt beam="2">  1       -2 0.41293671E-01 0.27556352E+03</pdfrwt>
<totfact> 0.32173003E+03</totfact>
</mgrwt>
</event>
<event>
 9    1  0.8186049E-001  0.2757979E+03  0.7818608E-02  0.1098006E+00
          2   -1    0    0  501    0  0.00000000000E+00  0.00000000000E+00  0.13988147858E+03  0.13988147858E+03  0.00000000000E+00 0.  1.
         -2   -1    0    0    0  501 -0.00000000000E+00 -0.00000000000E+00 -0.13594456152E+03  0.13594456152E+03  0.00000000000E+00 0.  1.
         35    2    1    2    0    0 -0.35527136788E-14  0.00000000000E+00  0.39369170647E+01  0.27582604010E+03  0.27579794249E+03 0.  0.
         25    2    3    3    0    0 -0.21061357244E+02  0.41774555558E+02  0.38606356394E+02  0.13771296918E+03  0.12363541914E+03 0.  0.
         25    2    3    3    0    0  0.21061357244E+02 -0.41774555558E+02 -0.34669439329E+02  0.13811307093E+03  0.12523799773E+03 0.  0.
          5    1    4    4  502    0  0.17332076881E+02 -0.21820881666E+02  0.54690360808E+02  0.61560355189E+02  0.47000000000E+01 0.  1.
         -5    1    4    4    0  502 -0.38393434125E+02  0.63595437224E+02 -0.16084004414E+02  0.76152613991E+02  0.47000000000E+01 0.  1.
          5    1    5    5  503    0  0.64929573238E+02 -0.57394612055E+02 -0.19959838129E+02  0.89053220671E+02  0.47000000000E+01 0. -1.
         -5    1    5    5    0  503 -0.43868215994E+02  0.15620056497E+02 -0.14709601200E+02  0.49059850254E+02  0.47000000000E+01 0. -1.
<mgrwt>
<rscale>  0 0.27579794E+03</rscale>
<asrwt>0</asrwt>
<pdfrwt beam="1">  1        2 0.21520227E-01 0.27579794E+03</pdfrwt>
<pdfrwt beam="2">  1       -2 0.20914548E-01 0.27579794E+03</pdfrwt>
<totfact> 0.49314073E+03</totfact>
</mgrwt>
</event>
<event>
 9    1  0.8186049E-001  0.2764905E+03  0.7818608E-02  0.1097621E+00
          1   -1    0    0  501    0  0.00000000000E+00  0.00000000000E+00  0.13668105063E+03  0.13668105063E+03  0.00000000000E+00 0.  1.
         -1   -1    0    0    0  501 -0.00000000000E+00 -0.00000000000E+00 -0.13982739183E+03  0.13982739183E+03  0.00000000000E+00 0.  1.
         35    2    1    2    0    0  0.00000000000E+00  0.00000000000E+00 -0.31463411992E+01  0.27650844247E+03  0.27649054106E+03 0.  0.
         25    2    3    3    0    0 -0.21161054232E+02  0.24371087031E+02  0.47665122788E+02  0.13863567102E+03  0.12611956728E+03 0.  0.
         25    2    3    3    0    0  0.21161054232E+02 -0.24371087031E+02 -0.50811463987E+02  0.13787277145E+03  0.12403772061E+03 0.  0.
          5    1    4    4  502    0  0.76961929990E+01  0.58292337598E+01 -0.41562267990E+02  0.42926955091E+02  0.47000000000E+01 0.  1.
         -5    1    4    4    0  502 -0.28857247231E+02  0.18541853271E+02  0.89227390777E+02  0.95708715932E+02  0.47000000000E+01 0.  1.
          5    1    5    5  503    0  0.41103009575E+02  0.35599686413E+02 -0.50706679592E+02  0.74498673976E+02  0.47000000000E+01 0.  1.
         -5    1    5    5    0  503 -0.19941955343E+02 -0.59970773444E+02 -0.10478439430E+00  0.63374097470E+02  0.47000000000E+01 0.  1.
<mgrwt>
<rscale>  0 0.27649054E+03</rscale>
<asrwt>0</asrwt>
<pdfrwt beam="1">  1        1 0.21027854E-01 0.27649054E+03</pdfrwt>
<pdfrwt beam="2">  1       -1 0.21511906E-01 0.27649054E+03</pdfrwt>
<totfact> 0.42533559E+03</totfact>
</mgrwt>
</event>
<event>
 9    1  0.8186049E-001  0.2761507E+03  0.7818608E-02  0.1097810E+00
         -3   -1    0    0    0  501 -0.00000000000E+00  0.00000000000E+00  0.10364807380E+03  0.10364807380E+03  0.00000000000E+00 0.  1.
          3   -1    0    0  501    0  0.00000000000E+00 -0.00000000000E+00 -0.18393787743E+03  0.18393787743E+03  0.00000000000E+00 0.  1.
         35    2    1    2    0    0 -0.71054273576E-14  0.00000000000E+00 -0.80289803629E+02  0.28758595123E+03  0.27615073199E+03 0.  0.
         25    2    3    3    0    0 -0.97954772193E+00  0.35352541542E+00  0.20337212310E+02  0.12731696872E+03  0.12567785734E+03 0.  0.
         25    2    3    3    0    0  0.97954772193E+00 -0.35352541542E+00 -0.10062701594E+03  0.16026898252E+03  0.12473678658E+03 0.  0.
          5    1    4    4  502    0  0.40336609529E+02  0.41418770378E+02 -0.13814507431E+02  0.59627906415E+02  0.47000000000E+01 0. -1.
         -5    1    4    4    0  502 -0.41316157251E+02 -0.41065244963E+02  0.34151719740E+02  0.67689062300E+02  0.47000000000E+01 0. -1.
          5    1    5    5  503    0  0.44346032059E+02 -0.44231717039E+02 -0.48208564460E+02  0.79178096965E+02  0.47000000000E+01 0.  1.
         -5    1    5    5    0  503 -0.43366484337E+02  0.43878191624E+02 -0.52418451479E+02  0.81090885551E+02  0.47000000000E+01 0.  1.
<mgrwt>
<rscale>  0 0.27615073E+03</rscale>
<asrwt>0</asrwt>
<pdfrwt beam="1">  1        3 0.28298135E-01 0.27615073E+03</pdfrwt>
<pdfrwt beam="2">  1       -3 0.15945858E-01 0.27615073E+03</pdfrwt>
<totfact> 0.10168290E+03</totfact>
</mgrwt>
</event>
<event>
 9    1  0.8186049E-001  0.2748925E+03  0.7818608E-02  0.1098512E+00
         -2   -1    0    0    0  501 -0.00000000000E+00  0.00000000000E+00  0.12691186935E+02  0.12691186935E+02  0.00000000000E+00 0.  1.
          2   -1    0    0  501    0  0.00000000000E+00 -0.00000000000E+00 -0.14885500100E+04  0.14885500100E+04  0.00000000000E+00 0.  1.
         35    2    1    2    0    0  0.00000000000E+00  0.00000000000E+00 -0.14758588230E+04  0.15012411969E+04  0.27489246216E+03 0.  0.
         25    2    3    3    0    0  0.60425106900E+01  0.54079192380E+02 -0.82391868457E+03  0.83516735851E+03  0.12530541471E+03 0.  0.
         25    2    3    3    0    0 -0.60425106900E+01 -0.54079192380E+02 -0.65194013848E+03  0.66607383841E+03  0.12516925767E+03 0.  0.
          5    1    4    4  502    0  0.62458668730E+02  0.86872552689E+01 -0.42939940960E+03  0.43403052504E+03  0.47000000000E+01 0.  1.
         -5    1    4    4    0  502 -0.56416158040E+02  0.45391937111E+02 -0.39451927496E+03  0.40113683346E+03  0.47000000000E+01 0.  1.
          5    1    5    5  503    0  0.19409001491E+02  0.15250705096E+02 -0.27449406311E+02  0.37213616482E+02  0.47000000000E+01 0. -1.
         -5    1    5    5    0  503 -0.25451512181E+02 -0.69329897476E+02 -0.62449073217E+03  0.62886022192E+03  0.47000000000E+01 0. -1.
<mgrwt>
<rscale>  0 0.27489246E+03</rscale>
<asrwt>0</asrwt>
<pdfrwt beam="1">  1        2 0.22900782E+00 0.27489246E+03</pdfrwt>
<pdfrwt beam="2">  1       -2 0.19524892E-02 0.27489246E+03</pdfrwt>
<totfact> 0.11083361E+04</totfact>
</mgrwt>
</event>
<event>
 9    1  0.8186049E-001  0.2754563E+03  0.7818608E-02  0.1098197E+00
         -2   -1    0    0    0  501 -0.00000000000E+00  0.00000000000E+00  0.95382054084E+01  0.95382054084E+01  0.00000000000E+00 0.  1.
          2   -1    0    0  501    0  0.00000000000E+00 -0.00000000000E+00 -0.19887434454E+04  0.19887434454E+04  0.00000000000E+00 0.  1.
         35    2    1    2    0    0 -0.88817841970E-15  0.00000000000E+00 -0.19792052400E+04  0.19982816508E+04  0.27545630134E+03 0.  0.
         25    2    3    3    0    0 -0.56685332239E+01  0.39030105444E+02 -0.68930402977E+03  0.70172271155E+03  0.12537638154E+03 0.  0.
         25    2    3    3    0    0  0.56685332239E+01 -0.39030105444E+02 -0.12899012102E+04  0.12965589393E+04  0.12515777819E+03 0.  0.
          5    1    4    4  502    0  0.21986382486E+01 -0.10217931719E+02 -0.59351865611E+03  0.59362928271E+03  0.47000000000E+01 0.  1.
         -5    1    4    4    0  502 -0.78671714725E+01  0.49248037162E+02 -0.95785373659E+02  0.10809342884E+03  0.47000000000E+01 0.  1.
          5    1    5    5  503    0  0.87367293136E+01  0.73042075931E+01 -0.11279291392E+04  0.11279964162E+04  0.47000000000E+01 0.  1.
         -5    1    5    5    0  503 -0.30681960897E+01 -0.46334313037E+02 -0.16197207106E+03  0.16856252310E+03  0.47000000000E+01 0.  1.
<mgrwt>
<rscale>  0 0.27545630E+03</rscale>
<asrwt>0</asrwt>
<pdfrwt beam="1">  1        2 0.30596076E+00 0.27545630E+03</pdfrwt>
<pdfrwt beam="2">  1       -2 0.14674151E-02 0.27545630E+03</pdfrwt>
<totfact> 0.91762072E+03</totfact>
</mgrwt>
</event>
<event>
 9    1  0.8186049E-001  0.2785949E+03  0.7818608E-02  0.1096459E+00
         -3   -1    0    0    0  501 -0.00000000000E+00  0.00000000000E+00  0.18398972338E+02  0.18398972338E+02  0.00000000000E+00 0.  1.
          3   -1    0    0  501    0  0.00000000000E+00 -0.00000000000E+00 -0.10546124497E+04  0.10546124497E+04  0.00000000000E+00 0.  1.
         35    2    1    2    0    0  0.00000000000E+00  0.00000000000E+00 -0.10362134774E+04  0.10730114220E+04  0.27859494101E+03 0.  0.
         25    2    3    3    0    0  0.55963586943E+02  0.16503592072E+02 -0.58315346580E+03  0.59932695434E+03  0.12538158519E+03 0.  0.
         25    2    3    3    0    0 -0.55963586943E+02 -0.16503592072E+02 -0.45306001156E+03  0.47368446769E+03  0.12533678331E+03 0.  0.
          5    1    4    4  502    0 -0.32287403235E+01  0.45327182024E+02 -0.82184544908E+02  0.94028546814E+02  0.47000000000E+01 0. -1.
         -5    1    4    4    0  502  0.59192327267E+02 -0.28823589951E+02 -0.50096892089E+03  0.50529840752E+03  0.47000000000E+01 0. -1.
          5    1    5    5  503    0  0.19102767530E+02  0.93731714260E+01 -0.10785340329E+02  0.24314309282E+02  0.47000000000E+01 0.  1.
         -5    1    5    5    0  503 -0.75066354473E+02 -0.25876763498E+02 -0.44227467123E+03  0.44937015841E+03  0.47000000000E+01 0.  1.
<mgrwt>
<rscale>  0 0.27859494E+03</rscale>
<asrwt>0</asrwt>
<pdfrwt beam="1">  1        3 0.16224811E+00 0.27859494E+03</pdfrwt>
<pdfrwt beam="2">  1       -3 0.28306103E-02 0.27859494E+03</pdfrwt>
<totfact> 0.39767727E+02</totfact>
</mgrwt>
</event>
<event>
 9    1  0.8186049E-001  0.2732298E+03  0.7818608E-02  0.1099445E+00
         -2   -1    0    0    0  501 -0.00000000000E+00  0.00000000000E+00  0.72778971903E+01  0.72778971903E+01  0.00000000000E+00 0. -1.
          2   -1    0    0  501    0  0.00000000000E+00 -0.00000000000E+00 -0.25644263462E+04  0.25644263462E+04  0.00000000000E+00 0. -1.
         35    2    1    2    0    0  0.00000000000E+00  0.00000000000E+00 -0.25571484490E+04  0.25717042434E+04  0.27322980291E+03 0.  0.
         25    2    3    3    0    0  0.33390118277E+02  0.43193226248E+02 -0.11379679054E+04  0.11459866451E+04  0.12383005402E+03 0.  0.
         25    2    3    3    0    0 -0.33390118277E+02 -0.43193226248E+02 -0.14191805437E+04  0.14257175983E+04  0.12496679506E+03 0.  0.
          5    1    4    4  502    0  0.40777579922E+02  0.53865920157E+02 -0.11250309057E+04  0.11270674235E+04  0.47000000000E+01 0.  1.
         -5    1    4    4    0  502 -0.73874616455E+01 -0.10672693908E+02 -0.12936999709E+02  0.18919221609E+02  0.47000000000E+01 0.  1.
          5    1    5    5  503    0 -0.50729786522E+02 -0.15961934367E+02 -0.23100520007E+03  0.23709446862E+03  0.47000000000E+01 0.  1.
         -5    1    5    5    0  503  0.17339668245E+02 -0.27231291882E+02 -0.11881753436E+04  0.11886231297E+04  0.47000000000E+01 0.  1.
<mgrwt>
<rscale>  0 0.27322980E+03</rscale>
<asrwt>0</asrwt>
<pdfrwt beam="1">  1        2 0.39452726E+00 0.27322980E+03</pdfrwt>
<pdfrwt beam="2">  1       -2 0.11196761E-02 0.27322980E+03</pdfrwt>
<totfact> 0.66850652E+03</totfact>
</mgrwt>
</event>
<event>
 9    1  0.8186049E-001  0.2671951E+03  0.7818608E-02  0.1102896E+00
         -3   -1    0    0    0  501 -0.00000000000E+00  0.00000000000E+00  0.97328927253E+02  0.97328927253E+02  0.00000000000E+00 0. -1.
          3   -1    0    0  501    0  0.00000000000E+00 -0.00000000000E+00 -0.18338132108E+03  0.18338132108E+03  0.00000000000E+00 0. -1.
         35    2    1    2    0    0  0.00000000000E+00  0.00000000000E+00 -0.86052393823E+02  0.28071024833E+03  0.26719511417E+03 0.  0.
         25    2    3    3    0    0  0.23784946174E+02 -0.65627883052E+01 -0.83745131440E+02  0.15238236257E+03  0.12489332860E+03 0.  0.
         25    2    3    3    0    0 -0.23784946174E+02  0.65627883052E+01 -0.23072623832E+01  0.12832788576E+03  0.12591238600E+03 0.  0.
          5    1    4    4  502    0  0.60017151779E+02  0.27056933893E+02 -0.78342355467E+02  0.10243901034E+03  0.47000000000E+01 0. -1.
         -5    1    4    4    0  502 -0.36232205605E+02 -0.33619722199E+02 -0.54027759730E+01  0.49943352230E+02  0.47000000000E+01 0. -1.
          5    1    5    5  503    0 -0.22314254772E+01  0.60083155123E+02 -0.26134835853E+02  0.65727349210E+02  0.47000000000E+01 0.  1.
         -5    1    5    5    0  503 -0.21553520697E+02 -0.53520366817E+02  0.23827573470E+02  0.62600536548E+02  0.47000000000E+01 0.  1.
<mgrwt>
<rscale>  0 0.26719511E+03</rscale>
<asrwt>0</asrwt>
<pdfrwt beam="1">  1        3 0.28212510E-01 0.26719511E+03</pdfrwt>
<pdfrwt beam="2">  1       -3 0.14973681E-01 0.26719511E+03</pdfrwt>
<totfact> 0.11361833E+03</totfact>
</mgrwt>
</event>
<event>
 9    1  0.8186049E-001  0.2754598E+03  0.7818608E-02  0.1098195E+00
         -1   -1    0    0    0  501 -0.00000000000E+00  0.00000000000E+00  0.14603025718E+03  0.14603025718E+03  0.00000000000E+00 0.  1.
          1   -1    0    0  501    0  0.00000000000E+00 -0.00000000000E+00 -0.12990137295E+03  0.12990137295E+03  0.00000000000E+00 0.  1.
         35    2    1    2    0    0  0.71054273576E-14  0.71054273576E-14  0.16128884226E+02  0.27593163013E+03  0.27545984027E+03 0.  0.
         25    2    3    3    0    0  0.34642229730E+02  0.43629986534E+02  0.24876640649E+02  0.13870482122E+03  0.12456532573E+03 0.  0.
         25    2    3    3    0    0 -0.34642229730E+02 -0.43629986534E+02 -0.87477564231E+01  0.13722680892E+03  0.12510401287E+03 0.  0.
          5    1    4    4  502    0 -0.37548819436E+02  0.19607556505E+02 -0.23256307568E+02  0.48552198249E+02  0.47000000000E+01 0.  1.
         -5    1    4    4    0  502  0.72191049166E+02  0.24022430029E+02  0.48132948217E+02  0.90152622969E+02  0.47000000000E+01 0.  1.
          5    1    5    5  503    0 -0.10126274697E+02 -0.59388238587E+00  0.55134552315E+02  0.56256581788E+02  0.47000000000E+01 0. -1.
         -5    1    5    5    0  503 -0.24515955033E+02 -0.43036104148E+02 -0.63882308738E+02  0.80970227128E+02  0.47000000000E+01 0. -1.
<mgrwt>
<rscale>  0 0.27545984E+03</rscale>
<asrwt>0</asrwt>
<pdfrwt beam="1">  1        1 0.19984827E-01 0.27545984E+03</pdfrwt>
<pdfrwt beam="2">  1       -1 0.22466193E-01 0.27545984E+03</pdfrwt>
<totfact> 0.42284549E+03</totfact>
</mgrwt>
</event>
<event>
 9    1  0.8186049E-001  0.2762157E+03  0.7818608E-02  0.1097774E+00
         -4   -1    0    0    0  501 -0.00000000000E+00  0.00000000000E+00  0.10513653952E+04  0.10513653952E+04  0.00000000000E+00 0.  1.
          4   -1    0    0  501    0  0.00000000000E+00 -0.00000000000E+00 -0.18141915776E+02  0.18141915776E+02  0.00000000000E+00 0.  1.
         35    2    1    2    0    0 -0.71054273576E-14  0.17763568394E-14  0.10332234794E+04  0.10695073109E+04  0.27621573054E+03 0.  0.
         25    2    3    3    0    0  0.13438117968E+02 -0.15261734713E+02  0.30387086602E+03  0.32890807776E+03  0.12421560625E+03 0.  0.
         25    2    3    3    0    0 -0.13438117968E+02  0.15261734713E+02  0.72935261337E+03  0.74059923319E+03  0.12695859957E+03 0.  0.
          5    1    4    4  502    0 -0.48396957819E+02  0.21880219044E+02  0.11858974680E+03  0.13002548811E+03  0.47000000000E+01 0.  1.
         -5    1    4    4    0  502  0.61835075786E+02 -0.37141953757E+02  0.18528111921E+03  0.19888258964E+03  0.47000000000E+01 0.  1.
          5    1    5    5  503    0  0.51104969083E+02  0.27955683674E+02  0.43766812461E+03  0.44155261907E+03  0.47000000000E+01 0.  1.
         -5    1    5    5    0  503 -0.64543087051E+02 -0.12693948960E+02  0.29168448877E+03  0.29904661412E+03  0.47000000000E+01 0.  1.
<mgrwt>
<rscale>  0 0.27621573E+03</rscale>
<asrwt>0</asrwt>
<pdfrwt beam="1">  1        4 0.27910648E-02 0.27621573E+03</pdfrwt>
<pdfrwt beam="2">  1       -4 0.16174847E+00 0.27621573E+03</pdfrwt>
<totfact> 0.29363966E+02</totfact>
</mgrwt>
</event>
<event>
 9    1  0.8186049E-001  0.2749616E+03  0.7818608E-02  0.1098473E+00
         -2   -1    0    0    0  501 -0.00000000000E+00  0.00000000000E+00  0.96846087794E+01  0.96846087794E+01  0.00000000000E+00 0. -1.
          2   -1    0    0  501    0  0.00000000000E+00 -0.00000000000E+00 -0.19516503456E+04  0.19516503456E+04  0.00000000000E+00 0. -1.
         35    2    1    2    0    0 -0.35527136788E-14 -0.35527136788E-14 -0.19419657368E+04  0.19613349544E+04  0.27496159784E+03 0.  0.
         25    2    3    3    0    0  0.31380794841E+02  0.19184412558E+02 -0.11931460469E+04  0.12001074495E+04  0.12372390685E+03 0.  0.
         25    2    3    3    0    0 -0.31380794841E+02 -0.19184412558E+02 -0.74881968994E+03  0.76122750491E+03  0.13184684377E+03 0.  0.
          5    1    4    4  502    0 -0.57719116330E+01 -0.24410398657E+01 -0.10617350983E+04  0.10617639957E+04  0.47000000000E+01 0.  1.
         -5    1    4    4    0  502  0.37152706474E+02  0.21625452424E+02 -0.13141094860E+03  0.13834345378E+03  0.47000000000E+01 0.  1.
          5    1    5    5  503    0  0.23640955870E+01 -0.51784410899E+02 -0.12204039940E+03  0.13267691301E+03  0.47000000000E+01 0.  1.
         -5    1    5    5    0  503 -0.33744890428E+02  0.32599998341E+02 -0.62677929054E+03  0.62855059190E+03  0.47000000000E+01 0.  1.
<mgrwt>
<rscale>  0 0.27496160E+03</rscale>
<asrwt>0</asrwt>
<pdfrwt beam="1">  1        2 0.30025337E+00 0.27496160E+03</pdfrwt>
<pdfrwt beam="2">  1       -2 0.14899424E-02 0.27496160E+03</pdfrwt>
<totfact> 0.93859897E+03</totfact>
</mgrwt>
</event>
<event>
 9    1  0.8186049E-001  0.3097662E+03  0.7818608E-02  0.1080458E+00
          2   -1    0    0  501    0  0.00000000000E+00  0.00000000000E+00  0.35511344065E+03  0.35511344065E+03  0.00000000000E+00 0.  1.
         -2   -1    0    0    0  501 -0.00000000000E+00 -0.00000000000E+00 -0.67552426689E+02  0.67552426689E+02  0.00000000000E+00 0.  1.
         35    2    1    2    0    0 -0.14210854715E-13  0.35527136788E-14  0.28756101396E+03  0.42266586734E+03  0.30976620000E+03 0.  0.
         25    2    3    3    0    0 -0.83487370787E+02  0.72673205425E+00  0.19273862494E+03  0.24439914510E+03  0.12494837077E+03 0.  0.
         25    2    3    3    0    0  0.83487370787E+02 -0.72673205425E+00  0.94822389014E+02  0.17826672224E+03  0.12576593171E+03 0.  0.
          5    1    4    4  502    0  0.65311652667E+01 -0.42318801453E+02  0.96554020673E+02  0.10572750817E+03  0.47000000000E+01 0. -1.
         -5    1    4    4    0  502 -0.90018536053E+02  0.43045533507E+02  0.96184604272E+02  0.13867163692E+03  0.47000000000E+01 0. -1.
          5    1    5    5  503    0 -0.31993175739E+02 -0.86955276519E+01  0.10905504038E+02  0.35216409716E+02  0.47000000000E+01 0.  1.
         -5    1    5    5    0  503  0.11548054653E+03  0.79687955976E+01  0.83916884977E+02  0.14305031252E+03  0.47000000000E+01 0.  1.
<mgrwt>
<rscale>  0 0.30976620E+03</rscale>
<asrwt>0</asrwt>
<pdfrwt beam="1">  1        2 0.54632836E-01 0.30976620E+03</pdfrwt>
<pdfrwt beam="2">  1       -2 0.10392681E-01 0.30976620E+03</pdfrwt>
<totfact> 0.56687975E+03</totfact>
</mgrwt>
</event>
<event>
 9    1  0.8186049E-001  0.2751749E+03  0.7818608E-02  0.1098354E+00
          2   -1    0    0  501    0  0.00000000000E+00  0.00000000000E+00  0.71676901870E+02  0.71676901870E+02  0.00000000000E+00 0. -1.
         -2   -1    0    0    0  501 -0.00000000000E+00 -0.00000000000E+00 -0.26410612608E+03  0.26410612608E+03  0.00000000000E+00 0. -1.
         35    2    1    2    0    0 -0.35527136788E-14  0.00000000000E+00 -0.19242922421E+03  0.33578302795E+03  0.27517491806E+03 0.  0.
         25    2    3    3    0    0 -0.28648764758E+02 -0.45093032977E+02 -0.68260941812E+02  0.15216975650E+03  0.12506776272E+03 0.  0.
         25    2    3    3    0    0  0.28648764758E+02  0.45093032977E+02 -0.12416828240E+03  0.18361327145E+03  0.12426559360E+03 0.  0.
          5    1    4    4  502    0 -0.69652643702E+01  0.36409266175E+02 -0.55258810932E+02  0.66706639526E+02  0.47000000000E+01 0.  1.
         -5    1    4    4    0  502 -0.21683500388E+02 -0.81502299152E+02 -0.13002130880E+02  0.85463116978E+02  0.47000000000E+01 0.  1.
          5    1    5    5  503    0  0.35223237327E+02  0.84267069302E+02 -0.65024277254E+02  0.11221346643E+03  0.47000000000E+01 0. -1.
         -5    1    5    5    0  503 -0.65744725693E+01 -0.39174036326E+02 -0.59144005144E+02  0.71399805015E+02  0.47000000000E+01 0. -1.
<mgrwt>
<rscale>  0 0.27517492E+03</rscale>
<asrwt>0</asrwt>
<pdfrwt beam="1">  1        2 0.11027216E-01 0.27517492E+03</pdfrwt>
<pdfrwt beam="2">  1       -2 0.40631711E-01 0.27517492E+03</pdfrwt>
<totfact> 0.32644790E+03</totfact>
</mgrwt>
</event>
<event>
 9    1  0.8186049E-001  0.2742271E+03  0.7818608E-02  0.1098884E+00
          2   -1    0    0  501    0  0.00000000000E+00  0.00000000000E+00  0.10395590094E+03  0.10395590094E+03  0.00000000000E+00 0. -1.
         -2   -1    0    0    0  501 -0.00000000000E+00 -0.00000000000E+00 -0.18084714813E+03  0.18084714813E+03  0.00000000000E+00 0. -1.
         35    2    1    2    0    0  0.71054273576E-14  0.35527136788E-14 -0.76891247197E+02  0.28480304907E+03  0.27422711913E+03 0.  0.
         25    2    3    3    0    0  0.47986422049E+02 -0.29675113483E+02 -0.33323129748E+02  0.14038268506E+03  0.12415135210E+03 0.  0.
         25    2    3    3    0    0 -0.47986422049E+02  0.29675113483E+02 -0.43568117450E+02  0.14442036401E+03  0.12560155899E+03 0.  0.
          5    1    4    4  502    0  0.34492772940E+02  0.11611545485E+02  0.40467292539E+02  0.54628482855E+02  0.47000000000E+01 0.  1.
         -5    1    4    4    0  502  0.13493649109E+02 -0.41286658967E+02 -0.73790422287E+02  0.85754202208E+02  0.47000000000E+01 0.  1.
          5    1    5    5  503    0 -0.56008438464E+02  0.27119344894E+02  0.30686387636E+02  0.69542421822E+02  0.47000000000E+01 0. -1.
         -5    1    5    5    0  503  0.80220164154E+01  0.25557685886E+01 -0.74254505085E+02  0.74877942185E+02  0.47000000000E+01 0. -1.
<mgrwt>
<rscale>  0 0.27422712E+03</rscale>
<asrwt>0</asrwt>
<pdfrwt beam="1">  1        2 0.15993216E-01 0.27422712E+03</pdfrwt>
<pdfrwt beam="2">  1       -2 0.27822638E-01 0.27422712E+03</pdfrwt>
<totfact> 0.42094255E+03</totfact>
</mgrwt>
</event>
<event>
 9    1  0.8186049E-001  0.2716517E+03  0.7818608E-02  0.1100338E+00
          3   -1    0    0  501    0  0.00000000000E+00  0.00000000000E+00  0.25281741764E+03  0.25281741764E+03  0.00000000000E+00 0.  1.
         -3   -1    0    0    0  501 -0.00000000000E+00 -0.00000000000E+00 -0.72972274423E+02  0.72972274423E+02  0.00000000000E+00 0.  1.
         35    2    1    2    0    0  0.00000000000E+00  0.00000000000E+00  0.17984514322E+03  0.32578969206E+03  0.27165170332E+03 0.  0.
         25    2    3    3    0    0  0.37701160780E+02  0.13666032334E+02  0.12914192636E+03  0.18480647767E+03  0.12596689677E+03 0.  0.
         25    2    3    3    0    0 -0.37701160780E+02 -0.13666032334E+02  0.50703216858E+02  0.14098321439E+03  0.12528891641E+03 0.  0.
          5    1    4    4  502    0  0.51292746027E+02 -0.35820838217E+02  0.11559212710E+03  0.13152075157E+03  0.47000000000E+01 0.  1.
         -5    1    4    4    0  502 -0.13591585247E+02  0.49486870551E+02  0.13549799259E+02  0.53285726104E+02  0.47000000000E+01 0.  1.
          5    1    5    5  503    0 -0.25736595462E+02  0.52314862288E+02  0.44462773872E+02  0.73472752927E+02  0.47000000000E+01 0.  1.
         -5    1    5    5    0  503 -0.11964565318E+02 -0.65980894622E+02  0.62404429860E+01  0.67510461464E+02  0.47000000000E+01 0.  1.
<mgrwt>
<rscale>  0 0.27165170E+03</rscale>
<asrwt>0</asrwt>
<pdfrwt beam="1">  1        3 0.38894987E-01 0.27165170E+03</pdfrwt>
<pdfrwt beam="2">  1       -3 0.11226504E-01 0.27165170E+03</pdfrwt>
<totfact> 0.10125902E+03</totfact>
</mgrwt>
</event>
<event>
 9    1  0.8186049E-001  0.2742470E+03  0.7818608E-02  0.1098873E+00
          1   -1    0    0  501    0  0.00000000000E+00  0.00000000000E+00  0.12154555133E+03  0.12154555133E+03  0.00000000000E+00 0.  1.
         -1   -1    0    0    0  501 -0.00000000000E+00 -0.00000000000E+00 -0.15469802816E+03  0.15469802816E+03  0.00000000000E+00 0.  1.
         35    2    1    2    0    0  0.00000000000E+00  0.00000000000E+00 -0.33152476825E+02  0.27624357949E+03  0.27424702093E+03 0.  0.
         25    2    3    3    0    0 -0.36070188203E+02  0.37404671129E+02 -0.33770625691E+02  0.14015752719E+03  0.12571200965E+03 0.  0.
         25    2    3    3    0    0  0.36070188203E+02 -0.37404671129E+02  0.61814886614E+00  0.13608605230E+03  0.12577306398E+03 0.  0.
          5    1    4    4  502    0  0.18485644717E+02 -0.18489366986E+02 -0.53262505820E+02  0.59519410938E+02  0.47000000000E+01 0. -1.
         -5    1    4    4    0  502 -0.54555832920E+02  0.55894038115E+02  0.19491880129E+02  0.80638116256E+02  0.47000000000E+01 0. -1.
          5    1    5    5  503    0  0.79945949490E+02 -0.30226496050E+01 -0.11827637010E+00  0.80141095824E+02  0.47000000000E+01 0.  1.
         -5    1    5    5    0  503 -0.43875761288E+02 -0.34382021524E+02  0.73642523624E+00  0.55944956473E+02  0.47000000000E+01 0.  1.
<mgrwt>
<rscale>  0 0.27424702E+03</rscale>
<asrwt>0</asrwt>
<pdfrwt beam="1">  1        1 0.18699315E-01 0.27424702E+03</pdfrwt>
<pdfrwt beam="2">  1       -1 0.23799697E-01 0.27424702E+03</pdfrwt>
<totfact> 0.41889468E+03</totfact>
</mgrwt>
</event>
<event>
 9    1  0.8186049E-001  0.2746747E+03  0.7818608E-02  0.1098634E+00
         -3   -1    0    0    0  501 -0.00000000000E+00  0.00000000000E+00  0.24665751562E+03  0.24665751562E+03  0.00000000000E+00 0. -1.
          3   -1    0    0  501    0  0.00000000000E+00 -0.00000000000E+00 -0.76468587081E+02  0.76468587081E+02  0.00000000000E+00 0. -1.
         35    2    1    2    0    0  0.00000000000E+00 -0.14210854715E-13  0.17018892854E+03  0.32312610270E+03  0.27467472918E+03 0.  0.
         25    2    3    3    0    0  0.22264711113E+02 -0.50838580486E+02  0.71755293563E+02  0.15516438448E+03  0.12588441297E+03 0.  0.
         25    2    3    3    0    0 -0.22264711113E+02  0.50838580486E+02  0.98433634980E+02  0.16796171823E+03  0.12426455515E+03 0.  0.
          5    1    4    4  502    0  0.32294841147E+02  0.22965455233E+02  0.69925802456E+02  0.80511345461E+02  0.47000000000E+01 0.  1.
         -5    1    4    4    0  502 -0.10030130034E+02 -0.73804035718E+02  0.18294911068E+01  0.74653039017E+02  0.47000000000E+01 0.  1.
          5    1    5    5  503    0  0.33719997894E+02 -0.75598125050E+01  0.76400913966E+02  0.83984395443E+02  0.47000000000E+01 0.  1.
         -5    1    5    5    0  503 -0.55984709008E+02  0.58398392991E+02  0.22032721014E+02  0.83977322783E+02  0.47000000000E+01 0.  1.
<mgrwt>
<rscale>  0 0.27467473E+03</rscale>
<asrwt>0</asrwt>
<pdfrwt beam="1">  1        3 0.11764398E-01 0.27467473E+03</pdfrwt>
<pdfrwt beam="2">  1       -3 0.37947310E-01 0.27467473E+03</pdfrwt>
<totfact> 0.98229723E+02</totfact>
</mgrwt>
</event>
<event>
 9    1  0.8186049E-001  0.2743132E+03  0.7818608E-02  0.1098836E+00
          2   -1    0    0  501    0  0.00000000000E+00  0.00000000000E+00  0.16409317894E+03  0.16409317894E+03  0.00000000000E+00 0. -1.
         -2   -1    0    0    0  501 -0.00000000000E+00 -0.00000000000E+00 -0.11464179468E+03  0.11464179468E+03  0.00000000000E+00 0. -1.
         35    2    1    2    0    0  0.00000000000E+00  0.00000000000E+00  0.49451384255E+02  0.27873497362E+03  0.27431322628E+03 0.  0.
         25    2    3    3    0    0 -0.42470765543E+02  0.46957044900E+02  0.14489549130E+02  0.13584565151E+03  0.11931204469E+03 0.  0.
         25    2    3    3    0    0  0.42470765543E+02 -0.46957044900E+02  0.34961835125E+02  0.14288932211E+03  0.12323270048E+03 0.  0.
          5    1    4    4  502    0 -0.84559096214E+01  0.74602451873E+02 -0.22261877105E+02  0.78451956032E+02  0.47000000000E+01 0.  1.
         -5    1    4    4    0  502 -0.34014855922E+02 -0.27645406973E+02  0.36751426235E+02  0.57393695476E+02  0.47000000000E+01 0.  1.
          5    1    5    5  503    0  0.28835919690E+02 -0.22247501386E+02 -0.44930572983E+02  0.58028509982E+02  0.47000000000E+01 0. -1.
         -5    1    5    5    0  503  0.13634845854E+02 -0.24709543514E+02  0.79892408108E+02  0.84860812130E+02  0.47000000000E+01 0. -1.
<mgrwt>
<rscale>  0 0.27431323E+03</rscale>
<asrwt>0</asrwt>
<pdfrwt beam="1">  1        2 0.25245105E-01 0.27431323E+03</pdfrwt>
<pdfrwt beam="2">  1       -2 0.17637199E-01 0.27431323E+03</pdfrwt>
<totfact> 0.55053516E+03</totfact>
</mgrwt>
</event>
<event>
 9    1  0.8186049E-001  0.2673219E+03  0.7818608E-02  0.1102822E+00
         -2   -1    0    0    0  501 -0.00000000000E+00  0.00000000000E+00  0.16248178430E+02  0.16248178430E+02  0.00000000000E+00 0.  1.
          2   -1    0    0  501    0  0.00000000000E+00 -0.00000000000E+00 -0.10995231193E+04  0.10995231193E+04  0.00000000000E+00 0.  1.
         35    2    1    2    0    0 -0.71054273576E-14  0.71054273576E-14 -0.10832749409E+04  0.11157712977E+04  0.26732188710E+03 0.  0.
         25    2    3    3    0    0  0.36788050995E+02  0.31573773366E+02 -0.55948361969E+03  0.57526469334E+03  0.12472883725E+03 0.  0.
         25    2    3    3    0    0 -0.36788050995E+02 -0.31573773366E+02 -0.52379132119E+03  0.54050660440E+03  0.12425690076E+03 0.  0.
          5    1    4    4  502    0  0.69095817756E+02  0.32772140627E+02 -0.51155330124E+03  0.51725923408E+03  0.47000000000E+01 0.  1.
         -5    1    4    4    0  502 -0.32307766761E+02 -0.11983672619E+01 -0.47930318450E+02  0.58005459260E+02  0.47000000000E+01 0.  1.
          5    1    5    5  503    0 -0.31085418063E+02  0.34864916820E+02 -0.36795165118E+03  0.37093445951E+03  0.47000000000E+01 0.  1.
         -5    1    5    5    0  503 -0.57026329316E+01 -0.66438690185E+02 -0.15583967001E+03  0.16957214489E+03  0.47000000000E+01 0.  1.
<mgrwt>
<rscale>  0 0.26732189E+03</rscale>
<asrwt>0</asrwt>
<pdfrwt beam="1">  1        2 0.16915752E+00 0.26732189E+03</pdfrwt>
<pdfrwt beam="2">  1       -2 0.24997180E-02 0.26732189E+03</pdfrwt>
<totfact> 0.12666999E+04</totfact>
</mgrwt>
</event>
<event>
 9    1  0.8186049E-001  0.2783160E+03  0.7818608E-02  0.1096612E+00
          1   -1    0    0  501    0  0.00000000000E+00  0.00000000000E+00  0.21213396561E+03  0.21213396561E+03  0.00000000000E+00 0. -1.
         -1   -1    0    0    0  501 -0.00000000000E+00 -0.00000000000E+00 -0.91286424298E+02  0.91286424298E+02  0.00000000000E+00 0. -1.
         35    2    1    2    0    0  0.00000000000E+00  0.00000000000E+00  0.12084754131E+03  0.30342038991E+03  0.27831601601E+03 0.  0.
         25    2    3    3    0    0 -0.44271409478E+01  0.34530203519E+02  0.11912013550E+03  0.17643366180E+03  0.12540851567E+03 0.  0.
         25    2    3    3    0    0  0.44271409478E+01 -0.34530203519E+02  0.17274058094E+01  0.12698672811E+03  0.12210942082E+03 0.  0.
          5    1    4    4  502    0  0.69904960080E+01 -0.10563557478E+02 -0.23080495536E+02  0.26744252751E+02  0.47000000000E+01 0.  1.
         -5    1    4    4    0  502 -0.11417636956E+02  0.45093760997E+02  0.14220063103E+03  0.14968940905E+03  0.47000000000E+01 0.  1.
          5    1    5    5  503    0  0.94863351860E+00 -0.76919606737E+02  0.21261792035E+02  0.79947980629E+02  0.47000000000E+01 0. -1.
         -5    1    5    5    0  503  0.34785074292E+01  0.42389403218E+02 -0.19534386225E+02  0.47038747478E+02  0.47000000000E+01 0. -1.
<mgrwt>
<rscale>  0 0.27831602E+03</rscale>
<asrwt>0</asrwt>
<pdfrwt beam="1">  1        1 0.32635995E-01 0.27831602E+03</pdfrwt>
<pdfrwt beam="2">  1       -1 0.14044065E-01 0.27831602E+03</pdfrwt>
<totfact> 0.48283264E+03</totfact>
</mgrwt>
</event>
<event>
 9    1  0.8186049E-001  0.2762549E+03  0.7818608E-02  0.1097752E+00
         -2   -1    0    0    0  501 -0.00000000000E+00  0.00000000000E+00  0.17009070361E+02  0.17009070361E+02  0.00000000000E+00 0. -1.
          2   -1    0    0  501    0  0.00000000000E+00 -0.00000000000E+00 -0.11217072218E+04  0.11217072218E+04  0.00000000000E+00 0. -1.
         35    2    1    2    0    0  0.00000000000E+00 -0.35527136788E-14 -0.11046981515E+04  0.11387162922E+04  0.27625493343E+03 0.  0.
         25    2    3    3    0    0 -0.57078094709E+02 -0.12495701936E+02 -0.62278252965E+03  0.63773226734E+03  0.12421881544E+03 0.  0.
         25    2    3    3    0    0  0.57078094709E+02  0.12495701936E+02 -0.48191562182E+03  0.50098402485E+03  0.12380741149E+03 0.  0.
          5    1    4    4  502    0 -0.31888903905E+02 -0.36977486773E+02 -0.80331348877E+02  0.94124663785E+02  0.47000000000E+01 0. -1.
         -5    1    4    4    0  502 -0.25189190803E+02  0.24481784837E+02 -0.54245118077E+03  0.54360760356E+03  0.47000000000E+01 0. -1.
          5    1    5    5  503    0  0.35179564685E+02 -0.54851319117E+02 -0.20773833198E+03  0.21776954231E+03  0.47000000000E+01 0.  1.
         -5    1    5    5    0  503  0.21898530023E+02  0.67347021053E+02 -0.27417728984E+03  0.28321448255E+03  0.47000000000E+01 0.  1.
<mgrwt>
<rscale>  0 0.27625493E+03</rscale>
<asrwt>0</asrwt>
<pdfrwt beam="1">  1        2 0.17257031E+00 0.27625493E+03</pdfrwt>
<pdfrwt beam="2">  1       -2 0.26167805E-02 0.27625493E+03</pdfrwt>
<totfact> 0.11500299E+04</totfact>
</mgrwt>
</event>
<event>
 9    1  0.8186049E-001  0.2749102E+03  0.7818608E-02  0.1098502E+00
          1   -1    0    0  501    0  0.00000000000E+00  0.00000000000E+00  0.29070562948E+03  0.29070562948E+03  0.00000000000E+00 0.  1.
         -1   -1    0    0    0  501 -0.00000000000E+00 -0.00000000000E+00 -0.64993252423E+02  0.64993252423E+02  0.00000000000E+00 0.  1.
         35    2    1    2    0    0  0.71054273576E-14  0.17763568394E-14  0.22571237706E+03  0.35569888190E+03  0.27491019885E+03 0.  0.
         25    2    3    3    0    0  0.54740517978E+02  0.98279475394E+01  0.12397236145E+03  0.18507156851E+03  0.12565518774E+03 0.  0.
         25    2    3    3    0    0 -0.54740517978E+02 -0.98279475394E+01  0.10174001561E+03  0.17062731340E+03  0.12517801899E+03 0.  0.
          5    1    4    4  502    0  0.90978669305E+02 -0.45973425766E+01  0.11106163740E+03  0.14371858310E+03  0.47000000000E+01 0.  1.
         -5    1    4    4    0  502 -0.36238151327E+02  0.14425290116E+02  0.12910724053E+02  0.41352985408E+02  0.47000000000E+01 0.  1.
          5    1    5    5  503    0 -0.84810064064E+02 -0.31542158007E+02  0.41340722372E+02  0.99593172580E+02  0.47000000000E+01 0. -1.
         -5    1    5    5    0  503  0.30069546086E+02  0.21714210468E+02  0.60399293236E+02  0.71034140816E+02  0.47000000000E+01 0. -1.
<mgrwt>
<rscale>  0 0.27491020E+03</rscale>
<asrwt>0</asrwt>
<pdfrwt beam="1">  1        1 0.44723942E-01 0.27491020E+03</pdfrwt>
<pdfrwt beam="2">  1       -1 0.99989621E-02 0.27491020E+03</pdfrwt>
<totfact> 0.55224545E+03</totfact>
</mgrwt>
</event>
<event>
 9    1  0.8186049E-001  0.2841026E+03  0.7818608E-02  0.1093469E+00
          2   -1    0    0  501    0  0.00000000000E+00  0.00000000000E+00  0.38578609880E+03  0.38578609880E+03  0.00000000000E+00 0. -1.
         -2   -1    0    0    0  501 -0.00000000000E+00 -0.00000000000E+00 -0.52305083637E+02  0.52305083637E+02  0.00000000000E+00 0. -1.
         35    2    1    2    0    0 -0.71054273576E-14  0.71054273576E-14  0.33348101516E+03  0.43809118243E+03  0.28410261642E+03 0.  0.
         25    2    3    3    0    0 -0.16653848223E+02  0.62723823508E+02  0.20283116008E+03  0.24643684029E+03  0.12401212866E+03 0.  0.
         25    2    3    3    0    0  0.16653848223E+02 -0.62723823508E+02  0.13064985508E+03  0.19165434215E+03  0.12429953152E+03 0.  0.
          5    1    4    4  502    0  0.51414599698E+02  0.25583328757E+02  0.11857475148E+03  0.13183333972E+03  0.47000000000E+01 0. -1.
         -5    1    4    4    0  502 -0.68068447922E+02  0.37140494751E+02  0.84256408600E+02  0.11460350057E+03  0.47000000000E+01 0. -1.
          5    1    5    5  503    0  0.33586649840E+02  0.25139013233E+02  0.75323581746E+02  0.86346771803E+02  0.47000000000E+01 0. -1.
         -5    1    5    5    0  503 -0.16932801616E+02 -0.87862836740E+02  0.55326273334E+02  0.10530757034E+03  0.47000000000E+01 0. -1.
<mgrwt>
<rscale>  0 0.28410262E+03</rscale>
<asrwt>0</asrwt>
<pdfrwt beam="1">  1        2 0.59351706E-01 0.28410262E+03</pdfrwt>
<pdfrwt beam="2">  1       -2 0.80469362E-02 0.28410262E+03</pdfrwt>
<totfact> 0.77437651E+03</totfact>
</mgrwt>
</event>
<event>
 9    1  0.8186049E-001  0.2762892E+03  0.7818608E-02  0.1097733E+00
          2   -1    0    0  501    0  0.00000000000E+00  0.00000000000E+00  0.21502413823E+04  0.21502413823E+04  0.00000000000E+00 0. -1.
         -2   -1    0    0    0  501 -0.00000000000E+00 -0.00000000000E+00 -0.88752500899E+01  0.88752500899E+01  0.00000000000E+00 0. -1.
         35    2    1    2    0    0  0.00000000000E+00  0.00000000000E+00  0.21413661322E+04  0.21591166324E+04  0.27628919647E+03 0.  0.
         25    2    3    3    0    0 -0.41916642917E+02 -0.40703298272E+02  0.11518736676E+04  0.11601015449E+04  0.12493552295E+03 0.  0.
         25    2    3    3    0    0  0.41916642917E+02  0.40703298272E+02  0.98949246454E+03  0.99901508743E+03  0.12458749574E+03 0.  0.
          5    1    4    4  502    0 -0.37864871769E+02 -0.48595665863E+02  0.11474805542E+04  0.11491427238E+04  0.47000000000E+01 0.  1.
         -5    1    4    4    0  502 -0.40517711487E+01  0.78923675911E+01  0.43931134026E+01  0.10958821150E+02  0.47000000000E+01 0.  1.
          5    1    5    5  503    0  0.41585460613E+02  0.64692688424E+02  0.32255855314E+03  0.33163323819E+03  0.47000000000E+01 0.  1.
         -5    1    5    5    0  503  0.33118230481E+00 -0.23989390152E+02  0.66693391140E+03  0.66738184924E+03  0.47000000000E+01 0.  1.
<mgrwt>
<rscale>  0 0.27628920E+03</rscale>
<asrwt>0</asrwt>
<pdfrwt beam="1">  1        2 0.33080595E+00 0.27628920E+03</pdfrwt>
<pdfrwt beam="2">  1       -2 0.13654248E-02 0.27628920E+03</pdfrwt>
<totfact> 0.83781730E+03</totfact>
</mgrwt>
</event>
<event>
 9    1  0.8186049E-001  0.2776413E+03  0.7818608E-02  0.1096984E+00
          2   -1    0    0  501    0  0.00000000000E+00  0.00000000000E+00  0.65172944324E+02  0.65172944324E+02  0.00000000000E+00 0. -1.
         -2   -1    0    0    0  501 -0.00000000000E+00 -0.00000000000E+00 -0.29569274620E+03  0.29569274620E+03  0.00000000000E+00 0. -1.
         35    2    1    2    0    0  0.71054273576E-14  0.00000000000E+00 -0.23051980188E+03  0.36086569053E+03  0.27764125691E+03 0.  0.
         25    2    3    3    0    0  0.43123129914E+02 -0.11316202326E+02 -0.63146540170E+02  0.14721636193E+03  0.12528970794E+03 0.  0.
         25    2    3    3    0    0 -0.43123129914E+02  0.11316202326E+02 -0.16737326171E+03  0.21364932860E+03  0.12507823995E+03 0.  0.
          5    1    4    4  502    0  0.24941243362E+02  0.19455126386E+02 -0.94297583985E+02  0.99572545958E+02  0.47000000000E+01 0. -1.
         -5    1    4    4    0  502  0.18181886552E+02 -0.30771328712E+02  0.31151043815E+02  0.47643815968E+02  0.47000000000E+01 0. -1.
          5    1    5    5  503    0  0.59279423384E+01  0.61007500725E+02 -0.93434360713E+02  0.11184420149E+03  0.47000000000E+01 0. -1.
         -5    1    5    5    0  503 -0.49051072252E+02 -0.49691298399E+02 -0.73938900995E+02  0.10180512711E+03  0.47000000000E+01 0. -1.
<mgrwt>
<rscale>  0 0.27764126E+03</rscale>
<asrwt>0</asrwt>
<pdfrwt beam="1">  1        2 0.10026607E-01 0.27764126E+03</pdfrwt>
<pdfrwt beam="2">  1       -2 0.45491191E-01 0.27764126E+03</pdfrwt>
<totfact> 0.29509513E+03</totfact>
</mgrwt>
</event>
<event>
 9    1  0.8186049E-001  0.2727243E+03  0.7818608E-02  0.1099730E+00
         -2   -1    0    0    0  501 -0.00000000000E+00  0.00000000000E+00  0.28476114301E+02  0.28476114301E+02  0.00000000000E+00 0.  1.
          2   -1    0    0  501    0  0.00000000000E+00 -0.00000000000E+00 -0.65299043401E+03  0.65299043401E+03  0.00000000000E+00 0.  1.
         35    2    1    2    0    0  0.00000000000E+00  0.00000000000E+00 -0.62451431971E+03  0.68146654832E+03  0.27272425808E+03 0.  0.
         25    2    3    3    0    0  0.26553257835E+02  0.80227486752E+01 -0.43190417902E+03  0.45034093915E+03  0.12448414204E+03 0.  0.
         25    2    3    3    0    0 -0.26553257835E+02 -0.80227486752E+01 -0.19261014070E+03  0.23112560917E+03  0.12470341181E+03 0.  0.
          5    1    4    4  502    0 -0.25158884273E+02 -0.15259567639E+02 -0.23387805522E+02  0.37880117602E+02  0.47000000000E+01 0. -1.
         -5    1    4    4    0  502  0.51712142108E+02  0.23282316314E+02 -0.40851637350E+03  0.41246082154E+03  0.47000000000E+01 0. -1.
          5    1    5    5  503    0 -0.60853365286E+02 -0.32870980069E+02 -0.16840745433E+03  0.18211752819E+03  0.47000000000E+01 0.  1.
         -5    1    5    5    0  503  0.34300107451E+02  0.24848231394E+02 -0.24202686361E+02  0.49008080983E+02  0.47000000000E+01 0.  1.
<mgrwt>
<rscale>  0 0.27272426E+03</rscale>
<asrwt>0</asrwt>
<pdfrwt beam="1">  1        2 0.10046007E+00 0.27272426E+03</pdfrwt>
<pdfrwt beam="2">  1       -2 0.43809407E-02 0.27272426E+03</pdfrwt>
<totfact> 0.10874871E+04</totfact>
</mgrwt>
</event>
<event>
 9    1  0.8186049E-001  0.2744242E+03  0.7818608E-02  0.1098774E+00
          1   -1    0    0  501    0  0.00000000000E+00  0.00000000000E+00  0.77187290657E+02  0.77187290657E+02  0.00000000000E+00 0. -1.
         -1   -1    0    0    0  501 -0.00000000000E+00 -0.00000000000E+00 -0.24391520712E+03  0.24391520712E+03  0.00000000000E+00 0. -1.
         35    2    1    2    0    0  0.35527136788E-14  0.14210854715E-13 -0.16672791646E+03  0.32110249778E+03  0.27442415337E+03 0.  0.
         25    2    3    3    0    0 -0.23898790190E+02 -0.50022425450E+02 -0.92844157473E+02  0.16558633961E+03  0.12540096916E+03 0.  0.
         25    2    3    3    0    0  0.23898790190E+02  0.50022425450E+02 -0.73883758989E+02  0.15551615817E+03  0.12511223117E+03 0.  0.
          5    1    4    4  502    0 -0.17195243360E+02 -0.88051394408E+02 -0.36168551224E+02  0.96845126615E+02  0.47000000000E+01 0. -1.
         -5    1    4    4    0  502 -0.67035468294E+01  0.38028968957E+02 -0.56675606249E+02  0.68741212993E+02  0.47000000000E+01 0. -1.
          5    1    5    5  503    0  0.19463209975E+02 -0.17482184517E+02  0.24417428126E+02  0.36093546713E+02  0.47000000000E+01 0. -1.
         -5    1    5    5    0  503  0.44355802146E+01  0.67504609968E+02 -0.98301187115E+02  0.11942261146E+03  0.47000000000E+01 0. -1.
<mgrwt>
<rscale>  0 0.27442415E+03</rscale>
<asrwt>0</asrwt>
<pdfrwt beam="1">  1        1 0.11874968E-01 0.27442415E+03</pdfrwt>
<pdfrwt beam="2">  1       -1 0.37525416E-01 0.27442415E+03</pdfrwt>
<totfact> 0.35027899E+03</totfact>
</mgrwt>
</event>
<event>
 9    1  0.8186049E-001  0.2727578E+03  0.7818608E-02  0.1099712E+00
         -2   -1    0    0    0  501 -0.00000000000E+00  0.00000000000E+00  0.77724854537E+02  0.77724854537E+02  0.00000000000E+00 0. -1.
          2   -1    0    0  501    0  0.00000000000E+00 -0.00000000000E+00 -0.23929539467E+03  0.23929539467E+03  0.00000000000E+00 0. -1.
         35    2    1    2    0    0  0.71054273576E-14 -0.35527136788E-14 -0.16157054014E+03  0.31702024921E+03  0.27275776610E+03 0.  0.
         25    2    3    3    0    0 -0.56009847704E+02  0.16344878251E+01 -0.79479952942E+02  0.15747095495E+03  0.12385581997E+03 0.  0.
         25    2    3    3    0    0  0.56009847704E+02 -0.16344878251E+01 -0.82090587195E+02  0.15954929427E+03  0.12480920721E+03 0.  0.
          5    1    4    4  502    0 -0.92853031064E+02  0.13192066379E+02 -0.70833617540E+02  0.11762315829E+03  0.47000000000E+01 0. -1.
         -5    1    4    4    0  502  0.36843183360E+02 -0.11557578554E+02 -0.86463354023E+01  0.39847796652E+02  0.47000000000E+01 0. -1.
          5    1    5    5  503    0  0.79768936094E+02  0.33173384943E+02 -0.78784796776E+02  0.11701577175E+03  0.47000000000E+01 0.  1.
         -5    1    5    5    0  503 -0.23759088390E+02 -0.34807872768E+02 -0.33057904183E+01  0.42533522521E+02  0.47000000000E+01 0.  1.
<mgrwt>
<rscale>  0 0.27275777E+03</rscale>
<asrwt>0</asrwt>
<pdfrwt beam="1">  1        2 0.36814676E-01 0.27275777E+03</pdfrwt>
<pdfrwt beam="2">  1       -2 0.11957670E-01 0.27275777E+03</pdfrwt>
<totfact> 0.69007103E+03</totfact>
</mgrwt>
</event>
<event>
 9    1  0.8186049E-001  0.2722011E+03  0.7818608E-02  0.1100026E+00
          2   -1    0    0  501    0  0.00000000000E+00  0.00000000000E+00  0.43624079291E+03  0.43624079291E+03  0.00000000000E+00 0.  1.
         -2   -1    0    0    0  501 -0.00000000000E+00 -0.00000000000E+00 -0.42461321305E+02  0.42461321305E+02  0.00000000000E+00 0.  1.
         35    2    1    2    0    0  0.71054273576E-14  0.00000000000E+00  0.39377947160E+03  0.47870211421E+03  0.27220110561E+03 0.  0.
         25    2    3    3    0    0  0.21895791961E+02  0.38748814872E+02  0.24027712793E+03  0.27420005226E+03  0.12438518436E+03 0.  0.
         25    2    3    3    0    0 -0.21895791961E+02 -0.38748814872E+02  0.15350234367E+03  0.20450206196E+03  0.12758223808E+03 0.  0.
          5    1    4    4  502    0 -0.44178784259E+02  0.38813880621E+01  0.15224943038E+03  0.15864680647E+03  0.47000000000E+01 0. -1.
         -5    1    4    4    0  502  0.66074576220E+02  0.34867426810E+02  0.88027697556E+02  0.11555324579E+03  0.47000000000E+01 0. -1.
          5    1    5    5  503    0  0.44686005230E+02  0.78427782717E+01  0.91289096325E+02  0.10204968076E+03  0.47000000000E+01 0.  1.
         -5    1    5    5    0  503 -0.66581797191E+02 -0.46591593144E+02  0.62213247340E+02  0.10245238120E+03  0.47000000000E+01 0.  1.
<mgrwt>
<rscale>  0 0.27220111E+03</rscale>
<asrwt>0</asrwt>
<pdfrwt beam="1">  1        2 0.67113965E-01 0.27220111E+03</pdfrwt>
<pdfrwt beam="2">  1       -2 0.65325113E-02 0.27220111E+03</pdfrwt>
<totfact> 0.93466087E+03</totfact>
</mgrwt>
</event>
<event>
 9    1  0.8186049E-001  0.2752311E+03  0.7818608E-02  0.1098323E+00
         -2   -1    0    0    0  501 -0.00000000000E+00  0.00000000000E+00  0.24621494792E+02  0.24621494792E+02  0.00000000000E+00 0. -1.
          2   -1    0    0  501    0  0.00000000000E+00 -0.00000000000E+00 -0.76916680855E+03  0.76916680855E+03  0.00000000000E+00 0. -1.
         35    2    1    2    0    0 -0.35527136788E-14 -0.71054273576E-14 -0.74454531376E+03  0.79378830334E+03  0.27523107798E+03 0.  0.
         25    2    3    3    0    0 -0.14902979856E+02  0.52637099822E+02 -0.41741086866E+03  0.43960138008E+03  0.12658900822E+03 0.  0.
         25    2    3    3    0    0  0.14902979856E+02 -0.52637099822E+02 -0.32713444509E+03  0.35418692326E+03  0.12425243804E+03 0.  0.
          5    1    4    4  502    0  0.36273711790E+01  0.33698988725E+02 -0.16857351017E+02  0.38144985857E+02  0.47000000000E+01 0.  1.
         -5    1    4    4    0  502 -0.18530351035E+02  0.18938111098E+02 -0.40055351765E+03  0.40145639422E+03  0.47000000000E+01 0.  1.
          5    1    5    5  503    0  0.43783287713E+02 -0.47519180049E+00 -0.35732585722E+02  0.56710755352E+02  0.47000000000E+01 0. -1.
         -5    1    5    5    0  503 -0.28880307858E+02 -0.52161908022E+02 -0.29140185937E+03  0.29747616791E+03  0.47000000000E+01 0. -1.
<mgrwt>
<rscale>  0 0.27523108E+03</rscale>
<asrwt>0</asrwt>
<pdfrwt beam="1">  1        2 0.11833335E+00 0.27523108E+03</pdfrwt>
<pdfrwt beam="2">  1       -2 0.37879223E-02 0.27523108E+03</pdfrwt>
<totfact> 0.11090766E+04</totfact>
</mgrwt>
</event>
<event>
 9    1  0.8186049E-001  0.2758123E+03  0.7818608E-02  0.1097998E+00
         -2   -1    0    0    0  501 -0.00000000000E+00  0.00000000000E+00  0.27930649282E+03  0.27930649282E+03  0.00000000000E+00 0. -1.
          2   -1    0    0  501    0  0.00000000000E+00 -0.00000000000E+00 -0.68090435771E+02  0.68090435771E+02  0.00000000000E+00 0. -1.
         35    2    1    2    0    0  0.00000000000E+00  0.00000000000E+00  0.21121605705E+03  0.34739692859E+03  0.27581226086E+03 0.  0.
         25    2    3    3    0    0 -0.27699872610E+02 -0.46595565323E+02  0.12279873323E+03  0.18371304549E+03  0.12542936080E+03 0.  0.
         25    2    3    3    0    0  0.27699872610E+02  0.46595565323E+02  0.88417323815E+02  0.16368388310E+03  0.12663475347E+03 0.  0.
          5    1    4    4  502    0 -0.95807925007E+01 -0.30249774163E+02 -0.20635938766E+02  0.38141478611E+02  0.47000000000E+01 0.  1.
         -5    1    4    4    0  502 -0.18119080109E+02 -0.16345791159E+02  0.14343467200E+03  0.14557156688E+03  0.47000000000E+01 0.  1.
          5    1    5    5  503    0 -0.18108373064E+02  0.37876703236E+02  0.10562348672E+03  0.11375837890E+03  0.47000000000E+01 0. -1.
         -5    1    5    5    0  503  0.45808245674E+02  0.87188620871E+01 -0.17206162903E+02  0.49925504201E+02  0.47000000000E+01 0. -1.
<mgrwt>
<rscale>  0 0.27581226E+03</rscale>
<asrwt>0</asrwt>
<pdfrwt beam="1">  1        2 0.10475452E-01 0.27581226E+03</pdfrwt>
<pdfrwt beam="2">  1       -2 0.42970229E-01 0.27581226E+03</pdfrwt>
<totfact> 0.31226106E+03</totfact>
</mgrwt>
</event>
<event>
 9    1  0.8186049E-001  0.2743263E+03  0.7818608E-02  0.1098829E+00
          1   -1    0    0  501    0  0.00000000000E+00  0.00000000000E+00  0.70442789161E+03  0.70442789161E+03  0.00000000000E+00 0.  1.
         -1   -1    0    0    0  501 -0.00000000000E+00 -0.00000000000E+00 -0.26707809934E+02  0.26707809934E+02  0.00000000000E+00 0.  1.
         35    2    1    2    0    0 -0.35527136788E-14 -0.14210854715E-13  0.67772008167E+03  0.73113570154E+03  0.27432627465E+03 0.  0.
         25    2    3    3    0    0 -0.29469544578E+02  0.14953967047E+02  0.44333642013E+03  0.46267361033E+03  0.12817025042E+03 0.  0.
         25    2    3    3    0    0  0.29469544578E+02 -0.14953967047E+02  0.23438366154E+03  0.26846209121E+03  0.12666537977E+03 0.  0.
          5    1    4    4  502    0 -0.22391152228E+02  0.68046139477E+02  0.32283567553E+03  0.33072133918E+03  0.47000000000E+01 0. -1.
         -5    1    4    4    0  502 -0.70783923500E+01 -0.53092172430E+02  0.12050074460E+03  0.13195227115E+03  0.47000000000E+01 0. -1.
          5    1    5    5  503    0  0.41597449424E+02 -0.65390201187E+02  0.12225306158E+03  0.14482447056E+03  0.47000000000E+01 0. -1.
         -5    1    5    5    0  503 -0.12127904846E+02  0.50436234140E+02  0.11213059997E+03  0.12363762065E+03  0.47000000000E+01 0. -1.
<mgrwt>
<rscale>  0 0.27432627E+03</rscale>
<asrwt>0</asrwt>
<pdfrwt beam="1">  1        1 0.10837351E+00 0.27432627E+03</pdfrwt>
<pdfrwt beam="2">  1       -1 0.41088944E-02 0.27432627E+03</pdfrwt>
<totfact> 0.65797873E+03</totfact>
</mgrwt>
</event>
<event>
 9    1  0.8186049E-001  0.2722030E+03  0.7818608E-02  0.1100025E+00
          4   -1    0    0  501    0  0.00000000000E+00  0.00000000000E+00  0.25143628199E+03  0.25143628199E+03  0.00000000000E+00 0.  1.
         -4   -1    0    0    0  501 -0.00000000000E+00 -0.00000000000E+00 -0.73671225947E+02  0.73671225947E+02  0.00000000000E+00 0.  1.
         35    2    1    2    0    0 -0.35527136788E-14  0.00000000000E+00  0.17776505605E+03  0.32510750794E+03  0.27220300617E+03 0.  0.
         25    2    3    3    0    0 -0.12132869603E+02  0.47923764071E+02  0.10953701626E+03  0.17388610868E+03  0.12567468787E+03 0.  0.
         25    2    3    3    0    0  0.12132869603E+02 -0.47923764071E+02  0.68228039786E+02  0.15122139927E+03  0.12557448983E+03 0.  0.
          5    1    4    4  502    0 -0.59533141825E+02  0.27406985366E+02  0.10220886040E+03  0.12150752638E+03  0.47000000000E+01 0. -1.
         -5    1    4    4    0  502  0.47400272223E+02  0.20516778706E+02  0.73281558644E+01  0.52378582299E+02  0.47000000000E+01 0. -1.
          5    1    5    5  503    0  0.23825079935E+02  0.23534960309E+01 -0.30893444130E+02  0.39365826140E+02  0.47000000000E+01 0.  1.
         -5    1    5    5    0  503 -0.11692210333E+02 -0.50277260102E+02  0.99121483915E+02  0.11185557313E+03  0.47000000000E+01 0.  1.
<mgrwt>
<rscale>  0 0.27220301E+03</rscale>
<asrwt>0</asrwt>
<pdfrwt beam="1">  1        4 0.38682505E-01 0.27220301E+03</pdfrwt>
<pdfrwt beam="2">  1       -4 0.11334035E-01 0.27220301E+03</pdfrwt>
<totfact> 0.74587977E+02</totfact>
</mgrwt>
</event>
<event>
 9    1  0.8186049E-001  0.2773145E+03  0.7818608E-02  0.1097165E+00
         -1   -1    0    0    0  501 -0.00000000000E+00  0.00000000000E+00  0.73718477364E+01  0.73718477364E+01  0.00000000000E+00 0. -1.
          1   -1    0    0  501    0  0.00000000000E+00 -0.00000000000E+00 -0.26080069046E+04  0.26080069046E+04  0.00000000000E+00 0. -1.
         35    2    1    2    0    0  0.71054273576E-14  0.71054273576E-14 -0.26006350568E+04  0.26153787523E+04  0.27731447705E+03 0.  0.
         25    2    3    3    0    0 -0.45777574483E+02 -0.38600999136E+02 -0.13845761667E+04  0.13914364706E+04  0.12433288714E+03 0.  0.
         25    2    3    3    0    0  0.45777574483E+02  0.38600999136E+02 -0.12160588901E+04  0.12239422817E+04  0.12509940547E+03 0.  0.
          5    1    4    4  502    0 -0.33043407615E+02 -0.78694718548E+02 -0.64352458588E+03  0.64917694671E+03  0.47000000000E+01 0.  1.
         -5    1    4    4    0  502 -0.12734166868E+02  0.40093719411E+02 -0.74105158084E+03  0.74225952389E+03  0.47000000000E+01 0.  1.
          5    1    5    5  503    0  0.32986918777E+02  0.58856933682E+02 -0.29881551184E+03  0.30637407783E+03  0.47000000000E+01 0.  1.
         -5    1    5    5    0  503  0.12790655706E+02 -0.20255934546E+02 -0.91724337828E+03  0.91756820387E+03  0.47000000000E+01 0.  1.
<mgrwt>
<rscale>  0 0.27731448E+03</rscale>
<asrwt>0</asrwt>
<pdfrwt beam="1">  1        1 0.40123249E+00 0.27731448E+03</pdfrwt>
<pdfrwt beam="2">  1       -1 0.11341286E-02 0.27731448E+03</pdfrwt>
<totfact> 0.21044181E+03</totfact>
</mgrwt>
</event>
<event>
 9    1  0.8186049E-001  0.2712881E+03  0.7818608E-02  0.1100545E+00
         -2   -1    0    0    0  501 -0.00000000000E+00  0.00000000000E+00  0.10145914022E+03  0.10145914022E+03  0.00000000000E+00 0. -1.
          2   -1    0    0  501    0  0.00000000000E+00 -0.00000000000E+00 -0.18134700883E+03  0.18134700883E+03  0.00000000000E+00 0. -1.
         35    2    1    2    0    0  0.00000000000E+00 -0.14210854715E-13 -0.79887868608E+02  0.28280614904E+03  0.27128812430E+03 0.  0.
         25    2    3    3    0    0  0.37250509965E+02  0.34192054837E+02 -0.56906782821E+02  0.14529580820E+03  0.12375699109E+03 0.  0.
         25    2    3    3    0    0 -0.37250509965E+02 -0.34192054837E+02 -0.22981085788E+02  0.13751034084E+03  0.12579454053E+03 0.  0.
          5    1    4    4  502    0 -0.21694800828E+02  0.51786942163E+02 -0.61527723239E+02  0.83428427340E+02  0.47000000000E+01 0.  1.
         -5    1    4    4    0  502  0.58945310793E+02 -0.17594887326E+02  0.46209404182E+01  0.61867380863E+02  0.47000000000E+01 0.  1.
          5    1    5    5  503    0 -0.32279397336E+02  0.38597613052E+02 -0.37554411441E+02  0.62961567994E+02  0.47000000000E+01 0. -1.
         -5    1    5    5    0  503 -0.49711126288E+01 -0.72789667888E+02  0.14573325653E+02  0.74548772845E+02  0.47000000000E+01 0. -1.
<mgrwt>
<rscale>  0 0.27128812E+03</rscale>
<asrwt>0</asrwt>
<pdfrwt beam="1">  1        2 0.27899540E-01 0.27128812E+03</pdfrwt>
<pdfrwt beam="2">  1       -2 0.15609098E-01 0.27128812E+03</pdfrwt>
<totfact> 0.60398809E+03</totfact>
</mgrwt>
</event>
<event>
 9    1  0.8186049E-001  0.2752239E+03  0.7818608E-02  0.1098327E+00
          1   -1    0    0  501    0  0.00000000000E+00  0.00000000000E+00  0.15059579053E+02  0.15059579053E+02  0.00000000000E+00 0.  1.
         -1   -1    0    0    0  501 -0.00000000000E+00 -0.00000000000E+00 -0.12574750001E+04  0.12574750001E+04  0.00000000000E+00 0.  1.
         35    2    1    2    0    0  0.00000000000E+00 -0.17763568394E-14 -0.12424154210E+04  0.12725345791E+04  0.27522386648E+03 0.  0.
         25    2    3    3    0    0  0.32270148884E+02 -0.62265944484E+01 -0.43373553726E+03  0.45261871253E+03  0.12512813298E+03 0.  0.
         25    2    3    3    0    0 -0.32270148884E+02  0.62265944484E+01 -0.80867988376E+03  0.81991586659E+03  0.13122020009E+03 0.  0.
          5    1    4    4  502    0 -0.26052511602E+02  0.43840390495E+02 -0.14450376222E+03  0.15331060138E+03  0.47000000000E+01 0.  1.
         -5    1    4    4    0  502  0.58322660486E+02 -0.50066984943E+02 -0.28923177504E+03  0.29930811115E+03  0.47000000000E+01 0.  1.
          5    1    5    5  503    0 -0.22938768897E+01  0.53889494630E+01  0.26912214822E+01  0.79771749740E+01  0.47000000000E+01 0. -1.
         -5    1    5    5    0  503 -0.29976271994E+02  0.83764498534E+00 -0.81137110524E+03  0.81193869162E+03  0.47000000000E+01 0. -1.
<mgrwt>
<rscale>  0 0.27522387E+03</rscale>
<asrwt>0</asrwt>
<pdfrwt beam="1">  1        1 0.23168588E-02 0.27522387E+03</pdfrwt>
<pdfrwt beam="2">  1       -1 0.19345766E+00 0.27522387E+03</pdfrwt>
<totfact> 0.90763265E+02</totfact>
</mgrwt>
</event>
<event>
 9    1  0.8186049E-001  0.2716112E+03  0.7818608E-02  0.1100361E+00
          2   -1    0    0  501    0  0.00000000000E+00  0.00000000000E+00  0.18514320044E+04  0.18514320044E+04  0.00000000000E+00 0.  1.
         -2   -1    0    0    0  501 -0.00000000000E+00 -0.00000000000E+00 -0.99615659639E+01  0.99615659639E+01  0.00000000000E+00 0.  1.
         35    2    1    2    0    0  0.71054273576E-14  0.71054273576E-14  0.18414704384E+04  0.18613935704E+04  0.27161120772E+03 0.  0.
         25    2    3    3    0    0 -0.35737743260E+02  0.38161752553E+02  0.84190995748E+03  0.85281223777E+03  0.12547043767E+03 0.  0.
         25    2    3    3    0    0  0.35737743260E+02 -0.38161752553E+02  0.99956048096E+03  0.10085813326E+04  0.12402275486E+03 0.  0.
          5    1    4    4  502    0 -0.50486654977E+02  0.70155692332E+02  0.38922415848E+03  0.39873331820E+03  0.47000000000E+01 0. -1.
         -5    1    4    4    0  502  0.14748911717E+02 -0.31993939780E+02  0.45268579900E+03  0.45407891957E+03  0.47000000000E+01 0. -1.
          5    1    5    5  503    0  0.81486461118E+02 -0.32442234469E+02  0.69104318117E+03  0.69660269176E+03  0.47000000000E+01 0.  1.
         -5    1    5    5    0  503 -0.45748717858E+02 -0.57195180836E+01  0.30851729978E+03  0.31197864084E+03  0.47000000000E+01 0.  1.
<mgrwt>
<rscale>  0 0.27161121E+03</rscale>
<asrwt>0</asrwt>
<pdfrwt beam="1">  1        2 0.28483542E+00 0.27161121E+03</pdfrwt>
<pdfrwt beam="2">  1       -2 0.15325501E-02 0.27161121E+03</pdfrwt>
<totfact> 0.10164922E+04</totfact>
</mgrwt>
</event>
<event>
 9    1  0.8186049E-001  0.2756979E+03  0.7818608E-02  0.1098062E+00
          2   -1    0    0  501    0  0.00000000000E+00  0.00000000000E+00  0.12376225940E+04  0.12376225940E+04  0.00000000000E+00 0.  1.
         -2   -1    0    0    0  501 -0.00000000000E+00 -0.00000000000E+00 -0.15353901268E+02  0.15353901268E+02  0.00000000000E+00 0.  1.
         35    2    1    2    0    0 -0.71054273576E-14  0.14210854715E-13  0.12222686928E+04  0.12529764953E+04  0.27569791523E+03 0.  0.
         25    2    3    3    0    0  0.29128003966E+02 -0.52028429419E+02  0.60519604689E+03  0.62056774456E+03  0.12363928316E+03 0.  0.
         25    2    3    3    0    0 -0.29128003966E+02  0.52028429419E+02  0.61707264586E+03  0.63240875072E+03  0.12492709730E+03 0.  0.
          5    1    4    4  502    0  0.39715502317E+02 -0.29045978020E+02  0.58693070675E+03  0.58900826352E+03  0.47000000000E+01 0. -1.
         -5    1    4    4    0  502 -0.10587498352E+02 -0.22982451398E+02  0.18265340140E+02  0.31559481048E+02  0.47000000000E+01 0. -1.
          5    1    5    5  503    0 -0.33895722470E+02  0.88192537261E+02  0.52136453636E+03  0.52987726258E+03  0.47000000000E+01 0. -1.
         -5    1    5    5    0  503  0.47677185048E+01 -0.36164107843E+02  0.95708109504E+02  0.10253148814E+03  0.47000000000E+01 0. -1.
<mgrwt>
<rscale>  0 0.27569792E+03</rscale>
<asrwt>0</asrwt>
<pdfrwt beam="1">  1        2 0.19040340E+00 0.27569792E+03</pdfrwt>
<pdfrwt beam="2">  1       -2 0.23621396E-02 0.27569792E+03</pdfrwt>
<totfact> 0.11485937E+04</totfact>
</mgrwt>
</event>
<event>
 9    1  0.8186049E-001  0.2767004E+03  0.7818608E-02  0.1097505E+00
         -2   -1    0    0    0  501 -0.00000000000E+00  0.00000000000E+00  0.14058230482E+02  0.14058230482E+02  0.00000000000E+00 0.  1.
          2   -1    0    0  501    0  0.00000000000E+00 -0.00000000000E+00 -0.13615354453E+04  0.13615354453E+04  0.00000000000E+00 0.  1.
         35    2    1    2    0    0  0.14210854715E-13  0.17763568394E-14 -0.13474772148E+04  0.13755936758E+04  0.27670040910E+03 0.  0.
         25    2    3    3    0    0  0.44735595642E+02  0.11305747930E+00 -0.47916354557E+03  0.49717459460E+03  0.12483424134E+03 0.  0.
         25    2    3    3    0    0 -0.44735595642E+02 -0.11305747930E+00 -0.86831366924E+03  0.87841908118E+03  0.12510063022E+03 0.  0.
          5    1    4    4  502    0  0.84724584597E+02  0.55106135290E+01 -0.39044524923E+03  0.39959755348E+03  0.47000000000E+01 0.  1.
         -5    1    4    4    0  502 -0.39988988955E+02 -0.53975560497E+01 -0.88718296333E+02  0.97577041117E+02  0.47000000000E+01 0.  1.
          5    1    5    5  503    0 -0.58080349014E+02 -0.47226474181E+02 -0.66602802217E+03  0.67023807943E+03  0.47000000000E+01 0. -1.
         -5    1    5    5    0  503  0.13344753373E+02  0.47113416702E+02 -0.20228564708E+03  0.20818100175E+03  0.47000000000E+01 0. -1.
<mgrwt>
<rscale>  0 0.27670041E+03</rscale>
<asrwt>0</asrwt>
<pdfrwt beam="1">  1        2 0.20946702E+00 0.27670041E+03</pdfrwt>
<pdfrwt beam="2">  1       -2 0.21628044E-02 0.27670041E+03</pdfrwt>
<totfact> 0.11169853E+04</totfact>
</mgrwt>
</event>
<event>
 9    1  0.8186049E-001  0.2788423E+03  0.7818608E-02  0.1096323E+00
          2   -1    0    0  501    0  0.00000000000E+00  0.00000000000E+00  0.43744929753E+03  0.43744929753E+03  0.00000000000E+00 0. -1.
         -2   -1    0    0    0  501 -0.00000000000E+00 -0.00000000000E+00 -0.44435453023E+02  0.44435453023E+02  0.00000000000E+00 0. -1.
         35    2    1    2    0    0 -0.71054273576E-14  0.00000000000E+00  0.39301384450E+03  0.48188475055E+03  0.27884230461E+03 0.  0.
         25    2    3    3    0    0  0.60755598379E+02  0.25944019801E+01  0.19376865097E+03  0.23886105888E+03  0.12573918122E+03 0.  0.
         25    2    3    3    0    0 -0.60755598379E+02 -0.25944019801E+01  0.19924519353E+03  0.24302369167E+03  0.12515547895E+03 0.  0.
          5    1    4    4  502    0  0.50339492175E+02  0.25284989326E+02  0.20383917647E+03  0.21153225527E+03  0.47000000000E+01 0. -1.
         -5    1    4    4    0  502  0.10416106204E+02 -0.22690587346E+02 -0.10070525500E+02  0.27328803604E+02  0.47000000000E+01 0. -1.
          5    1    5    5  503    0 -0.74808584137E+02 -0.18961766904E+02  0.20592105753E+03  0.21995782504E+03  0.47000000000E+01 0.  1.
         -5    1    5    5    0  503  0.14052985758E+02  0.16367364924E+02 -0.66758639937E+01  0.23065866628E+02  0.47000000000E+01 0.  1.
<mgrwt>
<rscale>  0 0.27884230E+03</rscale>
<asrwt>0</asrwt>
<pdfrwt beam="1">  1        2 0.67299889E-01 0.27884230E+03</pdfrwt>
<pdfrwt beam="2">  1       -2 0.68362239E-02 0.27884230E+03</pdfrwt>
<totfact> 0.86948510E+03</totfact>
</mgrwt>
</event>
<event>
 9    1  0.8186049E-001  0.2749670E+03  0.7818608E-02  0.1098470E+00
         -1   -1    0    0    0  501 -0.00000000000E+00  0.00000000000E+00  0.61641574497E+02  0.61641574497E+02  0.00000000000E+00 0.  1.
          1   -1    0    0  501    0  0.00000000000E+00 -0.00000000000E+00 -0.30663906281E+03  0.30663906281E+03  0.00000000000E+00 0.  1.
         35    2    1    2    0    0 -0.71054273576E-14  0.00000000000E+00 -0.24499748831E+03  0.36828063731E+03  0.27496701354E+03 0.  0.
         25    2    3    3    0    0 -0.36785588611E+02  0.41231411936E+02 -0.13700295826E+03  0.19344724237E+03  0.12489522068E+03 0.  0.
         25    2    3    3    0    0  0.36785588611E+02 -0.41231411936E+02 -0.10799453005E+03  0.17483339494E+03  0.12589951789E+03 0.  0.
          5    1    4    4  502    0 -0.78281249867E+02  0.19115218312E+02 -0.51480679498E+02  0.95737641570E+02  0.47000000000E+01 0.  1.
         -5    1    4    4    0  502  0.41495661256E+02  0.22116193624E+02 -0.85522278766E+02  0.97709600802E+02  0.47000000000E+01 0.  1.
          5    1    5    5  503    0  0.13045872482E+02 -0.45998613589E+02 -0.13196542827E+03  0.14043871083E+03  0.47000000000E+01 0.  1.
         -5    1    5    5    0  503  0.23739716129E+02  0.47672016535E+01  0.23970898219E+02  0.34394684109E+02  0.47000000000E+01 0.  1.
<mgrwt>
<rscale>  0 0.27496701E+03</rscale>
<asrwt>0</asrwt>
<pdfrwt beam="1">  1        1 0.47175240E-01 0.27496701E+03</pdfrwt>
<pdfrwt beam="2">  1       -1 0.94833192E-02 0.27496701E+03</pdfrwt>
<totfact> 0.56037522E+03</totfact>
</mgrwt>
</event>
<event>
 9    1  0.8186049E-001  0.2785344E+03  0.7818608E-02  0.1096492E+00
         -2   -1    0    0    0  501 -0.00000000000E+00  0.00000000000E+00  0.27329247744E+02  0.27329247744E+02  0.00000000000E+00 0. -1.
          2   -1    0    0  501    0  0.00000000000E+00 -0.00000000000E+00 -0.70969233565E+03  0.70969233565E+03  0.00000000000E+00 0. -1.
         35    2    1    2    0    0  0.00000000000E+00  0.71054273576E-14 -0.68236308791E+03  0.73702158339E+03  0.27853443351E+03 0.  0.
         25    2    3    3    0    0 -0.23229176661E+02 -0.34381199720E+02 -0.22160194430E+03  0.25756751049E+03  0.12454693573E+03 0.  0.
         25    2    3    3    0    0  0.23229176661E+02  0.34381199720E+02 -0.46076114361E+03  0.47945407291E+03  0.12591153650E+03 0.  0.
          5    1    4    4  502    0 -0.33028812500E+02  0.34695723662E+02 -0.14979333623E+03  0.15733667491E+03  0.47000000000E+01 0.  1.
         -5    1    4    4    0  502  0.97996358395E+01 -0.69076923383E+02 -0.71808608071E+02  0.10023083557E+03  0.47000000000E+01 0.  1.
          5    1    5    5  503    0 -0.30776814688E+02  0.37627201209E+02 -0.72509893184E+02  0.87423070197E+02  0.47000000000E+01 0.  1.
         -5    1    5    5    0  503  0.54005991349E+02 -0.32460014891E+01 -0.38825125043E+03  0.39203100271E+03  0.47000000000E+01 0.  1.
<mgrwt>
<rscale>  0 0.27853443E+03</rscale>
<asrwt>0</asrwt>
<pdfrwt beam="1">  1        2 0.10918341E+00 0.27853443E+03</pdfrwt>
<pdfrwt beam="2">  1       -2 0.42045005E-02 0.27853443E+03</pdfrwt>
<totfact> 0.10475754E+04</totfact>
</mgrwt>
</event>
<event>
 9    1  0.8186049E-001  0.2762441E+03  0.7818608E-02  0.1097758E+00
          1   -1    0    0  501    0  0.00000000000E+00  0.00000000000E+00  0.48812629456E+03  0.48812629456E+03  0.00000000000E+00 0.  1.
         -1   -1    0    0    0  501 -0.00000000000E+00 -0.00000000000E+00 -0.39083521527E+02  0.39083521527E+02  0.00000000000E+00 0.  1.
         35    2    1    2    0    0  0.00000000000E+00  0.00000000000E+00  0.44904277303E+03  0.52720981608E+03  0.27624405544E+03 0.  0.
         25    2    3    3    0    0  0.48238024742E+02  0.30087376455E+02  0.24672636036E+03  0.28277212529E+03  0.12591275032E+03 0.  0.
         25    2    3    3    0    0 -0.48238024742E+02 -0.30087376455E+02  0.20231641267E+03  0.24443769079E+03  0.12484268738E+03 0.  0.
          5    1    4    4  502    0  0.72172415755E+01  0.50231033551E+02  0.22721363086E+03  0.23285911912E+03  0.47000000000E+01 0.  1.
         -5    1    4    4    0  502  0.41020783166E+02 -0.20143657097E+02  0.19512729501E+02  0.49913006175E+02  0.47000000000E+01 0.  1.
          5    1    5    5  503    0 -0.22602165861E+02 -0.19731685227E+02 -0.86802531233E+01  0.31585346250E+02  0.47000000000E+01 0. -1.
         -5    1    5    5    0  503 -0.25635858881E+02 -0.10355691228E+02  0.21099666579E+03  0.21285234454E+03  0.47000000000E+01 0. -1.
<mgrwt>
<rscale>  0 0.27624406E+03</rscale>
<asrwt>0</asrwt>
<pdfrwt beam="1">  1        1 0.75096349E-01 0.27624406E+03</pdfrwt>
<pdfrwt beam="2">  1       -1 0.60128498E-02 0.27624406E+03</pdfrwt>
<totfact> 0.61816683E+03</totfact>
</mgrwt>
</event>
<event>
 9    1  0.8186049E-001  0.2785502E+03  0.7818608E-02  0.1096483E+00
         -2   -1    0    0    0  501 -0.00000000000E+00  0.00000000000E+00  0.24000628094E+02  0.24000628094E+02  0.00000000000E+00 0. -1.
          2   -1    0    0  501    0  0.00000000000E+00 -0.00000000000E+00 -0.80820996479E+03  0.80820996479E+03  0.00000000000E+00 0. -1.
         35    2    1    2    0    0  0.35527136788E-14  0.71054273576E-14 -0.78420933670E+03  0.83221059289E+03  0.27855015195E+03 0.  0.
         25    2    3    3    0    0  0.65540160188E+01  0.54002586293E+02 -0.48350262964E+03  0.50213725931E+03  0.12412815905E+03 0.  0.
         25    2    3    3    0    0 -0.65540160188E+01 -0.54002586293E+02 -0.30070670706E+03  0.33007333358E+03  0.12475835609E+03 0.  0.
          5    1    4    4  502    0  0.26961609679E+02 -0.15830227578E+02 -0.33716856797E+03  0.33864768968E+03  0.47000000000E+01 0. -1.
         -5    1    4    4    0  502 -0.20407593660E+02  0.69832813871E+02 -0.14633406167E+03  0.16348956962E+03  0.47000000000E+01 0. -1.
          5    1    5    5  503    0 -0.50854691500E+02 -0.25449264355E+02 -0.56870777424E+02  0.80562025971E+02  0.47000000000E+01 0.  1.
         -5    1    5    5    0  503  0.44300675481E+02 -0.28553321938E+02 -0.24383592964E+03  0.24951130761E+03  0.47000000000E+01 0.  1.
<mgrwt>
<rscale>  0 0.27855015E+03</rscale>
<asrwt>0</asrwt>
<pdfrwt beam="1">  1        2 0.12433999E+00 0.27855015E+03</pdfrwt>
<pdfrwt beam="2">  1       -2 0.36924044E-02 0.27855015E+03</pdfrwt>
<totfact> 0.10828212E+04</totfact>
</mgrwt>
</event>
<event>
 9    1  0.8186049E-001  0.2760334E+03  0.7818608E-02  0.1097875E+00
         -3   -1    0    0    0  501 -0.00000000000E+00  0.00000000000E+00  0.27090516517E+02  0.27090516517E+02  0.00000000000E+00 0.  1.
          3   -1    0    0  501    0  0.00000000000E+00 -0.00000000000E+00 -0.70314685521E+03  0.70314685521E+03  0.00000000000E+00 0.  1.
         35    2    1    2    0    0 -0.14210854715E-13  0.00000000000E+00 -0.67605633869E+03  0.73023737172E+03  0.27603341460E+03 0.  0.
         25    2    3    3    0    0  0.54287799825E+02 -0.17219800586E+02 -0.30207403213E+03  0.33172176698E+03  0.12468730111E+03 0.  0.
         25    2    3    3    0    0 -0.54287799825E+02  0.17219800586E+02 -0.37398230656E+03  0.39851560474E+03  0.12533249723E+03 0.  0.
          5    1    4    4  502    0  0.54142904937E+02 -0.62427186279E+02 -0.13305520571E+03  0.15669839025E+03  0.47000000000E+01 0. -1.
         -5    1    4    4    0  502  0.14489488801E+00  0.45207385693E+02 -0.16901882642E+03  0.17502337673E+03  0.47000000000E+01 0. -1.
          5    1    5    5  503    0 -0.52491787756E+02 -0.12961293630E+02 -0.52265019632E+02  0.75346567218E+02  0.47000000000E+01 0. -1.
         -5    1    5    5    0  503 -0.17960120695E+01  0.30181094216E+02 -0.32171728693E+03  0.32316903752E+03  0.47000000000E+01 0. -1.
<mgrwt>
<rscale>  0 0.27603341E+03</rscale>
<asrwt>0</asrwt>
<pdfrwt beam="1">  1        3 0.10817643E+00 0.27603341E+03</pdfrwt>
<pdfrwt beam="2">  1       -3 0.41677722E-02 0.27603341E+03</pdfrwt>
<totfact> 0.58407058E+02</totfact>
</mgrwt>
</event>
<event>
 9    1  0.8186049E-001  0.2899628E+03  0.7818608E-02  0.1090369E+00
         -2   -1    0    0    0  501 -0.00000000000E+00  0.00000000000E+00  0.37796952090E+02  0.37796952090E+02  0.00000000000E+00 0. -1.
          2   -1    0    0  501    0  0.00000000000E+00 -0.00000000000E+00 -0.55611918510E+03  0.55611918510E+03  0.00000000000E+00 0. -1.
         35    2    1    2    0    0 -0.14210854715E-13  0.00000000000E+00 -0.51832223301E+03  0.59391613719E+03  0.28996282655E+03 0.  0.
         25    2    3    3    0    0 -0.63418431446E+02  0.36878487879E+01 -0.18399887559E+03  0.23134793097E+03  0.12502312296E+03 0.  0.
         25    2    3    3    0    0  0.63418431446E+02 -0.36878487879E+01 -0.33432335743E+03  0.36256820621E+03  0.12509236252E+03 0.  0.
          5    1    4    4  502    0 -0.33450074545E+02  0.64201252575E+02 -0.95465481101E+02  0.11990186154E+03  0.47000000000E+01 0.  1.
         -5    1    4    4    0  502 -0.29968356901E+02 -0.60513403787E+02 -0.88533394484E+02  0.11144606943E+03  0.47000000000E+01 0.  1.
          5    1    5    5  503    0  0.28147556878E+02 -0.49565215700E+02 -0.26968682768E+03  0.27568473043E+03  0.47000000000E+01 0. -1.
         -5    1    5    5    0  503  0.35270874568E+02  0.45877366912E+02 -0.64636529741E+02  0.86883475785E+02  0.47000000000E+01 0. -1.
<mgrwt>
<rscale>  0 0.28996283E+03</rscale>
<asrwt>0</asrwt>
<pdfrwt beam="1">  1        2 0.85556791E-01 0.28996283E+03</pdfrwt>
<pdfrwt beam="2">  1       -2 0.58149162E-02 0.28996283E+03</pdfrwt>
<totfact> 0.85401854E+03</totfact>
</mgrwt>
</event>
<event>
 9    1  0.8186049E-001  0.2761423E+03  0.7818608E-02  0.1097815E+00
          1   -1    0    0  501    0  0.00000000000E+00  0.00000000000E+00  0.32659830777E+03  0.32659830777E+03  0.00000000000E+00 0. -1.
         -1   -1    0    0    0  501 -0.00000000000E+00 -0.00000000000E+00 -0.58370306683E+02  0.58370306683E+02  0.00000000000E+00 0. -1.
         35    2    1    2    0    0  0.00000000000E+00  0.00000000000E+00  0.26822800109E+03  0.38496861445E+03  0.27614230670E+03 0.  0.
         25    2    3    3    0    0  0.23220648128E+02  0.53086950806E+02  0.13637537192E+03  0.19383275440E+03  0.12496188126E+03 0.  0.
         25    2    3    3    0    0 -0.23220648128E+02 -0.53086950806E+02  0.13185262917E+03  0.19113586005E+03  0.12565977214E+03 0.  0.
          5    1    4    4  502    0  0.33880700079E+02 -0.25130373774E+02  0.82059498333E+01  0.43230372848E+02  0.47000000000E+01 0.  1.
         -5    1    4    4    0  502 -0.10660051952E+02  0.78217324580E+02  0.12816942208E+03  0.15060238155E+03  0.47000000000E+01 0.  1.
          5    1    5    5  503    0 -0.21351719956E+02  0.39722396269E+02  0.40078764349E+02  0.60515800104E+02  0.47000000000E+01 0. -1.
         -5    1    5    5    0  503 -0.18689281718E+01 -0.92809347075E+02  0.91773864821E+02  0.13062005995E+03  0.47000000000E+01 0. -1.
<mgrwt>
<rscale>  0 0.27614231E+03</rscale>
<asrwt>0</asrwt>
<pdfrwt beam="1">  1        1 0.50245893E-01 0.27614231E+03</pdfrwt>
<pdfrwt beam="2">  1       -1 0.89800473E-02 0.27614231E+03</pdfrwt>
<totfact> 0.56293517E+03</totfact>
</mgrwt>
</event>
<event>
 9    1  0.8186049E-001  0.2758761E+03  0.7818608E-02  0.1097963E+00
         -1   -1    0    0    0  501 -0.00000000000E+00  0.00000000000E+00  0.10207795928E+03  0.10207795928E+03  0.00000000000E+00 0.  1.
          1   -1    0    0  501    0  0.00000000000E+00 -0.00000000000E+00 -0.18639582002E+03  0.18639582002E+03  0.00000000000E+00 0.  1.
         35    2    1    2    0    0  0.00000000000E+00  0.35527136788E-14 -0.84317860735E+02  0.28847377930E+03  0.27587609484E+03 0.  0.
         25    2    3    3    0    0  0.14040499869E+02  0.15559131918E+02  0.13807014056E+02  0.12769978842E+03  0.12520934511E+03 0.  0.
         25    2    3    3    0    0 -0.14040499869E+02 -0.15559131918E+02 -0.98124874791E+02  0.16077399088E+03  0.12562071035E+03 0.  0.
          5    1    4    4  502    0 -0.42838056337E+02 -0.22693174413E+02  0.29878478220E+02  0.57139239551E+02  0.47000000000E+01 0. -1.
         -5    1    4    4    0  502  0.56878556206E+02  0.38252306331E+02 -0.16071464164E+02  0.70560548865E+02  0.47000000000E+01 0. -1.
          5    1    5    5  503    0  0.51200002462E+02 -0.76416048708E+01 -0.13837152811E+02  0.53790251673E+02  0.47000000000E+01 0. -1.
         -5    1    5    5    0  503 -0.65240502331E+02 -0.79175270476E+01 -0.84287721980E+02  0.10698373921E+03  0.47000000000E+01 0. -1.
<mgrwt>
<rscale>  0 0.27587609E+03</rscale>
<asrwt>0</asrwt>
<pdfrwt beam="1">  1        1 0.28676280E-01 0.27587609E+03</pdfrwt>
<pdfrwt beam="2">  1       -1 0.15704301E-01 0.27587609E+03</pdfrwt>
<totfact> 0.47596390E+03</totfact>
</mgrwt>
</event>
<event>
 9    1  0.8186049E-001  0.2736126E+03  0.7818608E-02  0.1099230E+00
          2   -1    0    0  501    0  0.00000000000E+00  0.00000000000E+00  0.78368747188E+03  0.78368747188E+03  0.00000000000E+00 0.  1.
         -2   -1    0    0    0  501 -0.00000000000E+00 -0.00000000000E+00 -0.23881918272E+02  0.23881918272E+02  0.00000000000E+00 0.  1.
         35    2    1    2    0    0 -0.14210854715E-13  0.00000000000E+00  0.75980555361E+03  0.80756939015E+03  0.27361257394E+03 0.  0.
         25    2    3    3    0    0  0.55500628475E+02  0.15437638620E+01  0.38289067246E+03  0.40665658724E+03  0.12522623497E+03 0.  0.
         25    2    3    3    0    0 -0.55500628475E+02 -0.15437638620E+01  0.37691488115E+03  0.40091280291E+03  0.12483406961E+03 0.  0.
          5    1    4    4  502    0 -0.15661346974E+02 -0.35146399433E+02  0.23722609608E+03  0.24037233169E+03  0.47000000000E+01 0. -1.
         -5    1    4    4    0  502  0.71161975450E+02  0.36690163295E+02  0.14566457637E+03  0.16628425555E+03  0.47000000000E+01 0. -1.
          5    1    5    5  503    0 -0.20563678955E+02  0.61038096512E+02  0.16720166157E+03  0.17924006179E+03  0.47000000000E+01 0. -1.
         -5    1    5    5    0  503 -0.34936949521E+02 -0.62581860374E+02  0.20971321958E+03  0.22167274112E+03  0.47000000000E+01 0. -1.
<mgrwt>
<rscale>  0 0.27361257E+03</rscale>
<asrwt>0</asrwt>
<pdfrwt beam="1">  1        2 0.12056728E+00 0.27361257E+03</pdfrwt>
<pdfrwt beam="2">  1       -2 0.36741419E-02 0.27361257E+03</pdfrwt>
<totfact> 0.11337495E+04</totfact>
</mgrwt>
</event>
<event>
 9    1  0.8186049E-001  0.2663820E+03  0.7818608E-02  0.1103368E+00
          2   -1    0    0  501    0  0.00000000000E+00  0.00000000000E+00  0.11134673701E+04  0.11134673701E+04  0.00000000000E+00 0. -1.
         -2   -1    0    0    0  501 -0.00000000000E+00 -0.00000000000E+00 -0.15932068916E+02  0.15932068916E+02  0.00000000000E+00 0. -1.
         35    2    1    2    0    0 -0.71054273576E-14  0.31086244690E-14  0.10975353012E+04  0.11293994390E+04  0.26638197294E+03 0.  0.
         25    2    3    3    0    0 -0.45206396971E+02 -0.91063067258E+00  0.49973664361E+03  0.51721323466E+03  0.12541279667E+03 0.  0.
         25    2    3    3    0    0  0.45206396971E+02  0.91063067258E+00  0.59779865761E+03  0.61218620439E+03  0.12395267738E+03 0.  0.
          5    1    4    4  502    0 -0.60455651791E+01 -0.27864401725E+01  0.46364796925E+03  0.46371957312E+03  0.47000000000E+01 0. -1.
         -5    1    4    4    0  502 -0.39160831792E+02  0.18758094999E+01  0.36088674361E+02  0.53493661541E+02  0.47000000000E+01 0. -1.
          5    1    5    5  503    0  0.38432306989E+02 -0.53777912660E+02  0.20324088955E+03  0.21377103474E+03  0.47000000000E+01 0.  1.
         -5    1    5    5    0  503  0.67740899820E+01  0.54688543333E+02  0.39455776806E+03  0.39841516964E+03  0.47000000000E+01 0.  1.
<mgrwt>
<rscale>  0 0.26638197E+03</rscale>
<asrwt>0</asrwt>
<pdfrwt beam="1">  1        2 0.17130261E+00 0.26638197E+03</pdfrwt>
<pdfrwt beam="2">  1       -2 0.24510884E-02 0.26638197E+03</pdfrwt>
<totfact> 0.12796100E+04</totfact>
</mgrwt>
</event>
<event>
 9    1  0.8186049E-001  0.2750275E+03  0.7818608E-02  0.1098436E+00
          2   -1    0    0  501    0  0.00000000000E+00  0.00000000000E+00  0.79783789877E+02  0.79783789877E+02  0.00000000000E+00 0.  1.
         -2   -1    0    0    0  501 -0.00000000000E+00 -0.00000000000E+00 -0.23701593380E+03  0.23701593380E+03  0.00000000000E+00 0.  1.
         35    2    1    2    0    0  0.00000000000E+00  0.71054273576E-14 -0.15723214393E+03  0.31679972368E+03  0.27502748561E+03 0.  0.
         25    2    3    3    0    0  0.11067986862E+02 -0.43079652456E+02 -0.38253862690E+02  0.13852453705E+03  0.12548837622E+03 0.  0.
         25    2    3    3    0    0 -0.11067986862E+02  0.43079652456E+02 -0.11897828124E+03  0.17827518663E+03  0.12509138249E+03 0.  0.
          5    1    4    4  502    0  0.50846684488E+02 -0.14171797898E+02  0.24730478473E+02  0.58480011496E+02  0.47000000000E+01 0.  1.
         -5    1    4    4    0  502 -0.39778697626E+02 -0.28907854557E+02 -0.62984341163E+02  0.80044525557E+02  0.47000000000E+01 0.  1.
          5    1    5    5  503    0  0.52634545537E+02 -0.40166742716E+01 -0.54541684261E+02  0.76048763160E+02  0.47000000000E+01 0.  1.
         -5    1    5    5    0  503 -0.63702532400E+02  0.47096326728E+02 -0.64436596975E+02  0.10222642347E+03  0.47000000000E+01 0.  1.
<mgrwt>
<rscale>  0 0.27502749E+03</rscale>
<asrwt>0</asrwt>
<pdfrwt beam="1">  1        2 0.12274429E-01 0.27502749E+03</pdfrwt>
<pdfrwt beam="2">  1       -2 0.36463989E-01 0.27502749E+03</pdfrwt>
<totfact> 0.35163650E+03</totfact>
</mgrwt>
</event>
<event>
 9    1  0.8186049E-001  0.2787859E+03  0.7818608E-02  0.1096354E+00
         -2   -1    0    0    0  501 -0.00000000000E+00  0.00000000000E+00  0.96194390929E+02  0.96194390929E+02  0.00000000000E+00 0. -1.
          2   -1    0    0  501    0  0.00000000000E+00 -0.00000000000E+00 -0.20199095398E+03  0.20199095398E+03  0.00000000000E+00 0. -1.
         35    2    1    2    0    0  0.00000000000E+00  0.00000000000E+00 -0.10579656305E+03  0.29818534491E+03  0.27878591637E+03 0.  0.
         25    2    3    3    0    0  0.11716115165E+02 -0.52705263444E+02 -0.21801704389E+02  0.13815192213E+03  0.12528179088E+03 0.  0.
         25    2    3    3    0    0 -0.11716115165E+02  0.52705263444E+02 -0.83994858662E+02  0.16003342278E+03  0.12506177663E+03 0.  0.
          5    1    4    4  502    0 -0.57527121275E+01 -0.79558931157E+02 -0.50800113549E+02  0.94686106479E+02  0.47000000000E+01 0. -1.
         -5    1    4    4    0  502  0.17468827292E+02  0.26853667713E+02  0.28998409160E+02  0.43465815653E+02  0.47000000000E+01 0. -1.
          5    1    5    5  503    0 -0.37225325973E+02 -0.16800803922E+02 -0.74699769533E+02  0.85265101152E+02  0.47000000000E+01 0.  1.
         -5    1    5    5    0  503  0.25509210809E+02  0.69506067366E+02 -0.92950891290E+01  0.74768321625E+02  0.47000000000E+01 0.  1.
<mgrwt>
<rscale>  0 0.27878592E+03</rscale>
<asrwt>0</asrwt>
<pdfrwt beam="1">  1        2 0.31075531E-01 0.27878592E+03</pdfrwt>
<pdfrwt beam="2">  1       -2 0.14799137E-01 0.27878592E+03</pdfrwt>
<totfact> 0.58650952E+03</totfact>
</mgrwt>
</event>
<event>
 9    1  0.8186049E-001  0.2777566E+03  0.7818608E-02  0.1096921E+00
         -4   -1    0    0    0  501 -0.00000000000E+00  0.00000000000E+00  0.84727826669E+02  0.84727826669E+02  0.00000000000E+00 0. -1.
          4   -1    0    0  501    0  0.00000000000E+00 -0.00000000000E+00 -0.22763699055E+03  0.22763699055E+03  0.00000000000E+00 0. -1.
         35    2    1    2    0    0  0.00000000000E+00  0.00000000000E+00 -0.14290916388E+03  0.31236481722E+03  0.27775663793E+03 0.  0.
         25    2    3    3    0    0  0.33469731206E+02  0.48945515387E+02 -0.68814658053E+02  0.15478747574E+03  0.12533083858E+03 0.  0.
         25    2    3    3    0    0 -0.33469731206E+02 -0.48945515387E+02 -0.74094505828E+02  0.15757734148E+03  0.12579640841E+03 0.  0.
          5    1    4    4  502    0  0.27905926479E+01 -0.40607227732E+02 -0.68280663890E+01  0.41538498312E+02  0.47000000000E+01 0.  1.
         -5    1    4    4    0  502  0.30679138558E+02  0.89552743119E+02 -0.61986591664E+02  0.11324897743E+03  0.47000000000E+01 0.  1.
          5    1    5    5  503    0 -0.20586757879E+02 -0.91578352482E+02 -0.45245902341E+02  0.10430575690E+03  0.47000000000E+01 0.  1.
         -5    1    5    5    0  503 -0.12882973327E+02  0.42632837095E+02 -0.28848603487E+02  0.53271584580E+02  0.47000000000E+01 0.  1.
<mgrwt>
<rscale>  0 0.27775664E+03</rscale>
<asrwt>0</asrwt>
<pdfrwt beam="1">  1        4 0.35021075E-01 0.27775664E+03</pdfrwt>
<pdfrwt beam="2">  1       -4 0.13035051E-01 0.27775664E+03</pdfrwt>
<totfact> 0.71403469E+02</totfact>
</mgrwt>
</event>
<event>
 9    1  0.8186049E-001  0.2725988E+03  0.7818608E-02  0.1099801E+00
         -3   -1    0    0    0  501 -0.00000000000E+00  0.00000000000E+00  0.41485873846E+02  0.41485873846E+02  0.00000000000E+00 0. -1.
          3   -1    0    0  501    0  0.00000000000E+00 -0.00000000000E+00 -0.44780370524E+03  0.44780370524E+03  0.00000000000E+00 0. -1.
         35    2    1    2    0    0  0.00000000000E+00  0.71054273576E-14 -0.40631783140E+03  0.48928957909E+03  0.27259881161E+03 0.  0.
         25    2    3    3    0    0 -0.31877624272E+02  0.42077282674E+02 -0.22860767191E+03  0.26559034421E+03  0.12445916052E+03 0.  0.
         25    2    3    3    0    0  0.31877624272E+02 -0.42077282674E+02 -0.17771015949E+03  0.22369923488E+03  0.12519491305E+03 0.  0.
          5    1    4    4  502    0  0.21965492854E+02 -0.33929276200E+02 -0.86769101663E+02  0.95836557029E+02  0.47000000000E+01 0.  1.
         -5    1    4    4    0  502 -0.53843117127E+02  0.76006558874E+02 -0.14183857025E+03  0.16975378718E+03  0.47000000000E+01 0.  1.
          5    1    5    5  503    0  0.70896423695E+02 -0.29594415397E+00 -0.13367459419E+03  0.15138486585E+03  0.47000000000E+01 0. -1.
         -5    1    5    5    0  503 -0.39018799423E+02 -0.41781338520E+02 -0.44035565296E+02  0.72314369027E+02  0.47000000000E+01 0. -1.
<mgrwt>
<rscale>  0 0.27259881E+03</rscale>
<asrwt>0</asrwt>
<pdfrwt beam="1">  1        3 0.68892880E-01 0.27259881E+03</pdfrwt>
<pdfrwt beam="2">  1       -3 0.63824419E-02 0.27259881E+03</pdfrwt>
<totfact> 0.80601035E+02</totfact>
</mgrwt>
</event>
<event>
 9    1  0.8186049E-001  0.2752307E+03  0.7818608E-02  0.1098323E+00
          1   -1    0    0  501    0  0.00000000000E+00  0.00000000000E+00  0.78742325236E+03  0.78742325236E+03  0.00000000000E+00 0. -1.
         -1   -1    0    0    0  501 -0.00000000000E+00 -0.00000000000E+00 -0.24050578137E+02  0.24050578137E+02  0.00000000000E+00 0. -1.
         35    2    1    2    0    0  0.35527136788E-14  0.17763568394E-14  0.76337267422E+03  0.81147383049E+03  0.27523069929E+03 0.  0.
         25    2    3    3    0    0 -0.19388897780E+02  0.28860709277E+01  0.22302879320E+03  0.25648085790E+03  0.12512525369E+03 0.  0.
         25    2    3    3    0    0  0.19388897780E+02 -0.28860709277E+01  0.54034388102E+03  0.55499297259E+03  0.12514563958E+03 0.  0.
          5    1    4    4  502    0  0.13571824812E+02 -0.30693646204E+02  0.20183698416E+03  0.20466204465E+03  0.47000000000E+01 0. -1.
         -5    1    4    4    0  502 -0.32960722592E+02  0.33579717132E+02  0.21191809039E+02  0.51818813252E+02  0.47000000000E+01 0. -1.
          5    1    5    5  503    0 -0.50849785576E+02  0.12314179887E+02  0.27929558260E+03  0.28419263217E+03  0.47000000000E+01 0. -1.
         -5    1    5    5    0  503  0.70238683355E+02 -0.15200250815E+02  0.26104829842E+03  0.27080034042E+03  0.47000000000E+01 0. -1.
<mgrwt>
<rscale>  0 0.27523070E+03</rscale>
<asrwt>0</asrwt>
<pdfrwt beam="1">  1        1 0.12114202E+00 0.27523070E+03</pdfrwt>
<pdfrwt beam="2">  1       -1 0.37000895E-02 0.27523070E+03</pdfrwt>
<totfact> 0.65101111E+03</totfact>
</mgrwt>
</event>
<event>
 9    1  0.8186049E-001  0.2765396E+03  0.7818608E-02  0.1097594E+00
          1   -1    0    0  501    0  0.00000000000E+00  0.00000000000E+00  0.44254666065E+03  0.44254666065E+03  0.00000000000E+00 0.  1.
         -1   -1    0    0    0  501 -0.00000000000E+00 -0.00000000000E+00 -0.43201190645E+02  0.43201190645E+02  0.00000000000E+00 0.  1.
         35    2    1    2    0    0  0.00000000000E+00  0.00000000000E+00  0.39934547000E+03  0.48574785129E+03  0.27653963662E+03 0.  0.
         25    2    3    3    0    0  0.52185214856E+02 -0.23532366860E+02  0.20981503238E+03  0.25076195222E+03  0.12482844199E+03 0.  0.
         25    2    3    3    0    0 -0.52185214856E+02  0.23532366860E+02  0.18953043762E+03  0.23498589907E+03  0.12656823076E+03 0.  0.
          5    1    4    4  502    0  0.89483837387E+02 -0.29868296696E+02  0.11663306770E+03  0.15008275978E+03  0.47000000000E+01 0. -1.
         -5    1    4    4    0  502 -0.37298622531E+02  0.63359298368E+01  0.93181964675E+02  0.10067919244E+03  0.47000000000E+01 0. -1.
          5    1    5    5  503    0 -0.68669497541E+02  0.42022642116E+02  0.19334156352E+03  0.20948616309E+03  0.47000000000E+01 0. -1.
         -5    1    5    5    0  503  0.16484282686E+02 -0.18490275256E+02 -0.38111258919E+01  0.25499735984E+02  0.47000000000E+01 0. -1.
<mgrwt>
<rscale>  0 0.27653964E+03</rscale>
<asrwt>0</asrwt>
<pdfrwt beam="1">  1        1 0.68084099E-01 0.27653964E+03</pdfrwt>
<pdfrwt beam="2">  1       -1 0.66463373E-02 0.27653964E+03</pdfrwt>
<totfact> 0.60418491E+03</totfact>
</mgrwt>
</event>
<event>
 9    1  0.8186049E-001  0.2766493E+03  0.7818608E-02  0.1097533E+00
         -2   -1    0    0    0  501 -0.00000000000E+00  0.00000000000E+00  0.16417714782E+02  0.16417714782E+02  0.00000000000E+00 0.  1.
          2   -1    0    0  501    0  0.00000000000E+00 -0.00000000000E+00 -0.11654309027E+04  0.11654309027E+04  0.00000000000E+00 0.  1.
         35    2    1    2    0    0 -0.35527136788E-14  0.00000000000E+00 -0.11490131879E+04  0.11818486174E+04  0.27664932429E+03 0.  0.
         25    2    3    3    0    0 -0.22464507897E+02 -0.37137814993E+02 -0.74704563413E+03  0.75868912686E+03  0.12509252707E+03 0.  0.
         25    2    3    3    0    0  0.22464507897E+02  0.37137814993E+02 -0.40196755374E+03  0.42315949057E+03  0.12490864175E+03 0.  0.
          5    1    4    4  502    0  0.15442546110E+02  0.21363533709E+01 -0.89836319823E+01  0.18596555586E+02  0.47000000000E+01 0.  1.
         -5    1    4    4    0  502 -0.37907054006E+02 -0.39274168363E+02 -0.73806200215E+03  0.74009257128E+03  0.47000000000E+01 0.  1.
          5    1    5    5  503    0 -0.73753091394E+01  0.76252849873E+02 -0.17866849514E+03  0.19445671357E+03  0.47000000000E+01 0. -1.
         -5    1    5    5    0  503  0.29839817036E+02 -0.39115034881E+02 -0.22329905860E+03  0.22870277699E+03  0.47000000000E+01 0. -1.
<mgrwt>
<rscale>  0 0.27664932E+03</rscale>
<asrwt>0</asrwt>
<pdfrwt beam="1">  1        2 0.17929712E+00 0.27664932E+03</pdfrwt>
<pdfrwt beam="2">  1       -2 0.25258014E-02 0.27664932E+03</pdfrwt>
<totfact> 0.11433903E+04</totfact>
</mgrwt>
</event>
<event>
 9    1  0.8186049E-001  0.2757733E+03  0.7818608E-02  0.1098020E+00
         -1   -1    0    0    0  501 -0.00000000000E+00  0.00000000000E+00  0.61832155656E+02  0.61832155656E+02  0.00000000000E+00 0.  1.
          1   -1    0    0  501    0  0.00000000000E+00 -0.00000000000E+00 -0.30748928732E+03  0.30748928732E+03  0.00000000000E+00 0.  1.
         35    2    1    2    0    0 -0.71054273576E-14  0.00000000000E+00 -0.24565713167E+03  0.36932144298E+03  0.27577327990E+03 0.  0.
         25    2    3    3    0    0  0.52279765621E+02  0.18585828982E+02 -0.10115010324E+03  0.17073808791E+03  0.12586319694E+03 0.  0.
         25    2    3    3    0    0 -0.52279765621E+02 -0.18585828982E+02 -0.14450702842E+03  0.19858335507E+03  0.12439638545E+03 0.  0.
          5    1    4    4  502    0  0.21868076785E+02  0.70655570623E+02 -0.37962178473E+02  0.83268478050E+02  0.47000000000E+01 0. -1.
         -5    1    4    4    0  502  0.30411688836E+02 -0.52069741641E+02 -0.63187924771E+02  0.87469609861E+02  0.47000000000E+01 0. -1.
          5    1    5    5  503    0  0.60837905404E+01 -0.62002871057E+02 -0.77731738767E+02  0.99728038878E+02  0.47000000000E+01 0.  1.
         -5    1    5    5    0  503 -0.58363556161E+02  0.43417042075E+02 -0.66775289655E+02  0.98855316189E+02  0.47000000000E+01 0.  1.
<mgrwt>
<rscale>  0 0.27577328E+03</rscale>
<asrwt>0</asrwt>
<pdfrwt beam="1">  1        1 0.47306046E-01 0.27577328E+03</pdfrwt>
<pdfrwt beam="2">  1       -1 0.95126390E-02 0.27577328E+03</pdfrwt>
<totfact> 0.55582801E+03</totfact>
</mgrwt>
</event>
<event>
 9    1  0.8186049E-001  0.2754628E+03  0.7818608E-02  0.1098193E+00
          1   -1    0    0  501    0  0.00000000000E+00  0.00000000000E+00  0.19097246961E+03  0.19097246961E+03  0.00000000000E+00 0. -1.
         -1   -1    0    0    0  501 -0.00000000000E+00 -0.00000000000E+00 -0.99333342659E+02  0.99333342659E+02  0.00000000000E+00 0. -1.
         35    2    1    2    0    0  0.35527136788E-14  0.00000000000E+00  0.91639126951E+02  0.29030581227E+03  0.27546276527E+03 0.  0.
         25    2    3    3    0    0 -0.23392725790E+02 -0.65667337851E+01  0.10082052939E+03  0.16208776313E+03  0.12456854416E+03 0.  0.
         25    2    3    3    0    0  0.23392725790E+02  0.65667337851E+01 -0.91814024420E+01  0.12821804914E+03  0.12555966057E+03 0.  0.
          5    1    4    4  502    0 -0.16119832201E+02 -0.62593489866E+02  0.30118070216E+02  0.71463152165E+02  0.47000000000E+01 0. -1.
         -5    1    4    4    0  502 -0.72728935889E+01  0.56026756081E+02  0.70702459177E+02  0.90624610961E+02  0.47000000000E+01 0. -1.
          5    1    5    5  503    0  0.30909978076E+02  0.59689675953E+02  0.15236754317E+02  0.69083520771E+02  0.47000000000E+01 0. -1.
         -5    1    5    5    0  503 -0.75172522854E+01 -0.53122942168E+02 -0.24418156759E+02  0.59134528374E+02  0.47000000000E+01 0. -1.
<mgrwt>
<rscale>  0 0.27546277E+03</rscale>
<asrwt>0</asrwt>
<pdfrwt beam="1">  1        1 0.29380380E-01 0.27546277E+03</pdfrwt>
<pdfrwt beam="2">  1       -1 0.15282053E-01 0.27546277E+03</pdfrwt>
<totfact> 0.48202798E+03</totfact>
</mgrwt>
</event>
<event>
 9    1  0.8186049E-001  0.2929596E+03  0.7818608E-02  0.1088814E+00
          2   -1    0    0  501    0  0.00000000000E+00  0.00000000000E+00  0.92961637091E+03  0.92961637091E+03  0.00000000000E+00 0.  1.
         -2   -1    0    0    0  501 -0.00000000000E+00 -0.00000000000E+00 -0.23080846516E+02  0.23080846516E+02  0.00000000000E+00 0.  1.
         35    2    1    2    0    0  0.00000000000E+00  0.35527136788E-14  0.90653552440E+03  0.95269721743E+03  0.29295960661E+03 0.  0.
         25    2    3    3    0    0  0.62149978772E+02  0.29381645253E+02  0.43224943944E+03  0.45753618176E+03  0.13331871131E+03 0.  0.
         25    2    3    3    0    0 -0.62149978772E+02 -0.29381645253E+02  0.47428608496E+03  0.49516103567E+03  0.12454420870E+03 0.  0.
          5    1    4    4  502    0  0.91610405158E+02 -0.17833769501E+02  0.29141730221E+03  0.30603372967E+03  0.47000000000E+01 0.  1.
         -5    1    4    4    0  502 -0.29460426385E+02  0.47215414754E+02  0.14083213723E+03  0.15150245209E+03  0.47000000000E+01 0.  1.
          5    1    5    5  503    0  0.19179125951E+02 -0.48628067478E+02  0.25709271218E+03  0.26239527525E+03  0.47000000000E+01 0. -1.
         -5    1    5    5    0  503 -0.81329104723E+02  0.19246422225E+02  0.21719337278E+03  0.23276576042E+03  0.47000000000E+01 0. -1.
<mgrwt>
<rscale>  0 0.29295961E+03</rscale>
<asrwt>0</asrwt>
<pdfrwt beam="1">  1        2 0.14301787E+00 0.29295961E+03</pdfrwt>
<pdfrwt beam="2">  1       -2 0.35509002E-02 0.29295961E+03</pdfrwt>
<totfact> 0.95606653E+03</totfact>
</mgrwt>
</event>
<event>
 9    1  0.8186049E-001  0.2753829E+03  0.7818608E-02  0.1098238E+00
         -2   -1    0    0    0  501 -0.00000000000E+00  0.00000000000E+00  0.17623086941E+02  0.17623086941E+02  0.00000000000E+00 0. -1.
          2   -1    0    0  501    0  0.00000000000E+00 -0.00000000000E+00 -0.10758012634E+04  0.10758012634E+04  0.00000000000E+00 0. -1.
         35    2    1    2    0    0  0.00000000000E+00  0.00000000000E+00 -0.10581781765E+04  0.10934243504E+04  0.27538292755E+03 0.  0.
         25    2    3    3    0    0 -0.45452550893E+02  0.75796855343E+01 -0.63934764610E+03  0.65305950804E+03  0.12489164282E+03 0.  0.
         25    2    3    3    0    0  0.45452550893E+02 -0.75796855343E+01 -0.41883053038E+03  0.44036484233E+03  0.12797966699E+03 0.  0.
          5    1    4    4  502    0 -0.71096499459E+02 -0.37050667222E+02 -0.34645303587E+03  0.35563922764E+03  0.47000000000E+01 0. -1.
         -5    1    4    4    0  502  0.25643948566E+02  0.44630352757E+02 -0.29289461023E+03  0.29742028039E+03  0.47000000000E+01 0. -1.
          5    1    5    5  503    0  0.52703456302E+01 -0.56030873615E+02 -0.95647827914E+02  0.11107579541E+03  0.47000000000E+01 0.  1.
         -5    1    5    5    0  503  0.40182205263E+02  0.48451188080E+02 -0.32318270247E+03  0.32928904692E+03  0.47000000000E+01 0.  1.
<mgrwt>
<rscale>  0 0.27538293E+03</rscale>
<asrwt>0</asrwt>
<pdfrwt beam="1">  1        2 0.16550794E+00 0.27538293E+03</pdfrwt>
<pdfrwt beam="2">  1       -2 0.27112432E-02 0.27538293E+03</pdfrwt>
<totfact> 0.11609555E+04</totfact>
</mgrwt>
</event>
<event>
 9    1  0.8186049E-001  0.2657539E+03  0.7818608E-02  0.1103735E+00
         -1   -1    0    0    0  501 -0.00000000000E+00  0.00000000000E+00  0.59939909212E+01  0.59939909212E+01  0.00000000000E+00 0.  1.
          1   -1    0    0  501    0  0.00000000000E+00 -0.00000000000E+00 -0.29456635530E+04  0.29456635530E+04  0.00000000000E+00 0.  1.
         35    2    1    2    0    0  0.53290705182E-14 -0.71054273576E-14 -0.29396695621E+04  0.29516575440E+04  0.26575387556E+03 0.  0.
         25    2    3    3    0    0 -0.80279711738E+01  0.42877953135E+02 -0.15653031149E+04  0.15709315292E+04  0.12549526198E+03 0.  0.
         25    2    3    3    0    0  0.80279711738E+01 -0.42877953135E+02 -0.13743664472E+04  0.13807260147E+04  0.12497291455E+03 0.  0.
          5    1    4    4  502    0 -0.30061526902E+02 -0.37731962595E+02 -0.65332195002E+03  0.65511759004E+03  0.47000000000E+01 0. -1.
         -5    1    4    4    0  502  0.22033555728E+02  0.80609915730E+02 -0.91198116489E+03  0.91581393919E+03  0.47000000000E+01 0. -1.
          5    1    5    5  503    0 -0.47662094692E+01  0.15891386449E+02 -0.27173608636E+02  0.32183037804E+02  0.47000000000E+01 0.  1.
         -5    1    5    5    0  503  0.12794180643E+02 -0.58769339584E+02 -0.13471928386E+04  0.13485429769E+04  0.47000000000E+01 0.  1.
<mgrwt>
<rscale>  0 0.26575388E+03</rscale>
<asrwt>0</asrwt>
<pdfrwt beam="1">  1        1 0.45318038E+00 0.26575388E+03</pdfrwt>
<pdfrwt beam="2">  1       -1 0.92214965E-03 0.26575388E+03</pdfrwt>
<totfact> 0.16719829E+03</totfact>
</mgrwt>
</event>
<event>
 9    1  0.8186049E-001  0.2730704E+03  0.7818608E-02  0.1099535E+00
          1   -1    0    0  501    0  0.00000000000E+00  0.00000000000E+00  0.30109636387E+02  0.30109636387E+02  0.00000000000E+00 0.  1.
         -1   -1    0    0    0  501 -0.00000000000E+00 -0.00000000000E+00 -0.61913290060E+03  0.61913290060E+03  0.00000000000E+00 0.  1.
         35    2    1    2    0    0  0.17763568394E-14  0.00000000000E+00 -0.58902326421E+03  0.64924253698E+03  0.27307044155E+03 0.  0.
         25    2    3    3    0    0 -0.74282667790E+01  0.32735467227E+02 -0.39797786825E+03  0.41870516531E+03  0.12570139970E+03 0.  0.
         25    2    3    3    0    0  0.74282667790E+01 -0.32735467227E+02 -0.19104539596E+03  0.23053737167E+03  0.12458870918E+03 0.  0.
          5    1    4    4  502    0 -0.65043709695E+02  0.16012117515E+02 -0.16645164389E+03  0.17948624413E+03  0.47000000000E+01 0. -1.
         -5    1    4    4    0  502  0.57615442916E+02  0.16723349713E+02 -0.23152622436E+03  0.23921892119E+03  0.47000000000E+01 0. -1.
          5    1    5    5  503    0  0.78032783146E+01 -0.18262434618E+02 -0.20728037416E+03  0.20828262333E+03  0.47000000000E+01 0.  1.
         -5    1    5    5    0  503 -0.37501153552E+00 -0.14473032609E+02  0.16234978195E+02  0.22254748337E+02  0.47000000000E+01 0.  1.
<mgrwt>
<rscale>  0 0.27307044E+03</rscale>
<asrwt>0</asrwt>
<pdfrwt beam="1">  1        1 0.46322515E-02 0.27307044E+03</pdfrwt>
<pdfrwt beam="2">  1       -1 0.95251221E-01 0.27307044E+03</pdfrwt>
<totfact> 0.20760876E+03</totfact>
</mgrwt>
</event>
<event>
 9    1  0.8186049E-001  0.2760272E+03  0.7818608E-02  0.1097879E+00
         -2   -1    0    0    0  501 -0.00000000000E+00  0.00000000000E+00  0.90730968663E+01  0.90730968663E+01  0.00000000000E+00 0. -1.
          2   -1    0    0  501    0  0.00000000000E+00 -0.00000000000E+00 -0.20993656187E+04  0.20993656187E+04  0.00000000000E+00 0. -1.
         35    2    1    2    0    0  0.00000000000E+00  0.00000000000E+00 -0.20902925218E+04  0.21084387156E+04  0.27602715530E+03 0.  0.
         25    2    3    3    0    0 -0.33459934925E+02 -0.14809871603E+02 -0.68210312406E+03  0.69419940584E+03  0.12373052844E+03 0.  0.
         25    2    3    3    0    0  0.33459934925E+02  0.14809871603E+02 -0.14081893978E+04  0.14142393097E+04  0.12544538909E+03 0.  0.
          5    1    4    4  502    0 -0.64960427630E+02 -0.44722118315E+02 -0.32654852922E+03  0.33597017273E+03  0.47000000000E+01 0. -1.
         -5    1    4    4    0  502  0.31500492705E+02  0.29912246712E+02 -0.35555459484E+03  0.35822923311E+03  0.47000000000E+01 0. -1.
          5    1    5    5  503    0  0.19652673553E+01 -0.54198339176E+02 -0.62991389314E+03  0.63226175356E+03  0.47000000000E+01 0.  1.
         -5    1    5    5    0  503  0.31494667569E+02  0.69008210779E+02 -0.77827550462E+03  0.78197755615E+03  0.47000000000E+01 0.  1.
<mgrwt>
<rscale>  0 0.27602716E+03</rscale>
<asrwt>0</asrwt>
<pdfrwt beam="1">  1        2 0.32297965E+00 0.27602716E+03</pdfrwt>
<pdfrwt beam="2">  1       -2 0.13958597E-02 0.27602716E+03</pdfrwt>
<totfact> 0.86315894E+03</totfact>
</mgrwt>
</event>
<event>
 9    1  0.8186049E-001  0.2812148E+03  0.7818608E-02  0.1095027E+00
         -2   -1    0    0    0  501 -0.00000000000E+00  0.00000000000E+00  0.84283237740E+01  0.84283237740E+01  0.00000000000E+00 0. -1.
          2   -1    0    0  501    0  0.00000000000E+00 -0.00000000000E+00 -0.23457141400E+04  0.23457141400E+04  0.00000000000E+00 0. -1.
         35    2    1    2    0    0 -0.71054273576E-14  0.00000000000E+00 -0.23372858162E+04  0.23541424637E+04  0.28121478093E+03 0.  0.
         25    2    3    3    0    0 -0.57809515281E+02 -0.27052877519E+02 -0.12273148025E+04  0.12353587764E+04  0.12544275123E+03 0.  0.
         25    2    3    3    0    0  0.57809515281E+02  0.27052877519E+02 -0.11099710137E+04  0.11187836873E+04  0.12476974597E+03 0.  0.
          5    1    4    4  502    0 -0.95133073295E+02 -0.30291850671E+01 -0.89518188959E+03  0.90024006968E+03  0.47000000000E+01 0.  1.
         -5    1    4    4    0  502  0.37323558014E+02 -0.24023692451E+02 -0.33213291289E+03  0.33511870674E+03  0.47000000000E+01 0.  1.
          5    1    5    5  503    0  0.88052741202E+02  0.39452531405E+02 -0.97737874594E+03  0.98214107463E+03  0.47000000000E+01 0.  1.
         -5    1    5    5    0  503 -0.30243225921E+02 -0.12399653886E+02 -0.13259226777E+03  0.13664261269E+03  0.47000000000E+01 0.  1.
<mgrwt>
<rscale>  0 0.28121478E+03</rscale>
<asrwt>0</asrwt>
<pdfrwt beam="1">  1        2 0.36087928E+00 0.28121478E+03</pdfrwt>
<pdfrwt beam="2">  1       -2 0.12966645E-02 0.28121478E+03</pdfrwt>
<totfact> 0.71033225E+03</totfact>
</mgrwt>
</event>
<event>
 9    1  0.8186049E-001  0.2746168E+03  0.7818608E-02  0.1098666E+00
          1   -1    0    0  501    0  0.00000000000E+00  0.00000000000E+00  0.11006308491E+04  0.11006308491E+04  0.00000000000E+00 0. -1.
         -1   -1    0    0    0  501 -0.00000000000E+00 -0.00000000000E+00 -0.17129807457E+02  0.17129807457E+02  0.00000000000E+00 0. -1.
         35    2    1    2    0    0  0.53290705182E-14  0.71054273576E-14  0.10835010416E+04  0.11177606565E+04  0.27461678409E+03 0.  0.
         25    2    3    3    0    0 -0.32933680039E+00 -0.36662524948E+02  0.71873205364E+03  0.73080603646E+03  0.12711195379E+03 0.  0.
         25    2    3    3    0    0  0.32933680039E+00  0.36662524948E+02  0.36476898799E+03  0.38695462008E+03  0.12382735646E+03 0.  0.
          5    1    4    4  502    0 -0.89815084830E+01  0.36790201194E+02  0.46250506689E+03  0.46407673212E+03  0.47000000000E+01 0. -1.
         -5    1    4    4    0  502  0.86521716826E+01 -0.73452726142E+02  0.25622698676E+03  0.26672930434E+03  0.47000000000E+01 0. -1.
          5    1    5    5  503    0 -0.39818781999E+02 -0.13833306759E+01  0.29538729220E+03  0.29809929788E+03  0.47000000000E+01 0. -1.
         -5    1    5    5    0  503  0.40148118800E+02  0.38045855624E+02  0.69381695787E+02  0.88855322202E+02  0.47000000000E+01 0. -1.
<mgrwt>
<rscale>  0 0.27461678E+03</rscale>
<asrwt>0</asrwt>
<pdfrwt beam="1">  1        1 0.16932777E+00 0.27461678E+03</pdfrwt>
<pdfrwt beam="2">  1       -1 0.26353559E-02 0.27461678E+03</pdfrwt>
<totfact> 0.61554531E+03</totfact>
</mgrwt>
</event>
<event>
 9    1  0.8186049E-001  0.2736110E+03  0.7818608E-02  0.1099231E+00
          2   -1    0    0  501    0  0.00000000000E+00  0.00000000000E+00  0.38844579326E+03  0.38844579326E+03  0.00000000000E+00 0.  1.
         -2   -1    0    0    0  501 -0.00000000000E+00 -0.00000000000E+00 -0.48181112575E+02  0.48181112575E+02  0.00000000000E+00 0.  1.
         35    2    1    2    0    0 -0.21316282073E-13 -0.71054273576E-14  0.34026468068E+03  0.43662690583E+03  0.27361104140E+03 0.  0.
         25    2    3    3    0    0  0.32588301324E+02  0.45339072732E+02  0.17354940859E+03  0.22128153623E+03  0.12541328540E+03 0.  0.
         25    2    3    3    0    0 -0.32588301324E+02 -0.45339072732E+02  0.16671527209E+03  0.21534536960E+03  0.12434636046E+03 0.  0.
          5    1    4    4  502    0  0.27806211022E+02  0.64575561933E+02  0.30489015553E+02  0.76777982780E+02  0.47000000000E+01 0. -1.
         -5    1    4    4    0  502  0.47820903021E+01 -0.19236489201E+02  0.14306039304E+03  0.14450355345E+03  0.47000000000E+01 0. -1.
          5    1    5    5  503    0 -0.74262815345E+02 -0.55398377852E+02  0.10584956019E+03  0.14074858935E+03  0.47000000000E+01 0. -1.
         -5    1    5    5    0  503  0.41674514021E+02  0.10059305120E+02  0.60865711904E+02  0.74596780252E+02  0.47000000000E+01 0. -1.
<mgrwt>
<rscale>  0 0.27361104E+03</rscale>
<asrwt>0</asrwt>
<pdfrwt beam="1">  1        2 0.59760889E-01 0.27361104E+03</pdfrwt>
<pdfrwt beam="2">  1       -2 0.74124791E-02 0.27361104E+03</pdfrwt>
<totfact> 0.87240531E+03</totfact>
</mgrwt>
</event>
<event>
 9    1  0.8186049E-001  0.2732531E+03  0.7818608E-02  0.1099432E+00
         -2   -1    0    0    0  501 -0.00000000000E+00  0.00000000000E+00  0.18331194674E+03  0.18331194674E+03  0.00000000000E+00 0. -1.
          2   -1    0    0  501    0  0.00000000000E+00 -0.00000000000E+00 -0.10183082938E+03  0.10183082938E+03  0.00000000000E+00 0. -1.
         35    2    1    2    0    0  0.35527136788E-14  0.71054273576E-14  0.81481117365E+02  0.28514277612E+03  0.27325305174E+03 0.  0.
         25    2    3    3    0    0 -0.82021710900E+01 -0.51269552838E+02  0.33053398699E+02  0.13954116880E+03  0.12523325424E+03 0.  0.
         25    2    3    3    0    0  0.82021710900E+01  0.51269552838E+02  0.48427718667E+02  0.14560160731E+03  0.12711703842E+03 0.  0.
          5    1    4    4  502    0 -0.47448172876E+02  0.20084955061E+02  0.25328973154E+02  0.57605393933E+02  0.47000000000E+01 0.  1.
         -5    1    4    4    0  502  0.39246001786E+02 -0.71354507899E+02  0.77244255443E+01  0.81935774871E+02  0.47000000000E+01 0.  1.
          5    1    5    5  503    0  0.13328372998E+02 -0.28360208632E+02 -0.22399125266E+02  0.38804094798E+02  0.47000000000E+01 0.  1.
         -5    1    5    5    0  503 -0.51262019082E+01  0.79629761470E+02  0.70826843933E+02  0.10679751251E+03  0.47000000000E+01 0.  1.
<mgrwt>
<rscale>  0 0.27325305E+03</rscale>
<asrwt>0</asrwt>
<pdfrwt beam="1">  1        2 0.15666281E-01 0.27325305E+03</pdfrwt>
<pdfrwt beam="2">  1       -2 0.28201838E-01 0.27325305E+03</pdfrwt>
<totfact> 0.42089746E+03</totfact>
</mgrwt>
</event>
<event>
 9    1  0.8186049E-001  0.2772778E+03  0.7818608E-02  0.1097185E+00
         -2   -1    0    0    0  501 -0.00000000000E+00  0.00000000000E+00  0.20161494049E+02  0.20161494049E+02  0.00000000000E+00 0. -1.
          2   -1    0    0  501    0  0.00000000000E+00 -0.00000000000E+00 -0.95333921304E+03  0.95333921304E+03  0.00000000000E+00 0. -1.
         35    2    1    2    0    0 -0.71054273576E-14 -0.71054273576E-14 -0.93317771899E+03  0.97350070708E+03  0.27727778757E+03 0.  0.
         25    2    3    3    0    0 -0.27716221652E+02 -0.40633996925E+02 -0.58193134414E+03  0.59748866625E+03  0.12621135591E+03 0.  0.
         25    2    3    3    0    0  0.27716221652E+02  0.40633996925E+02 -0.35124637485E+03  0.37601204083E+03  0.12486684251E+03 0.  0.
          5    1    4    4  502    0 -0.75286801394E+02 -0.41309197459E+02 -0.41656766296E+03  0.42535310047E+03  0.47000000000E+01 0.  1.
         -5    1    4    4    0  502  0.47570579742E+02  0.67520053362E+00 -0.16536368118E+03  0.17213556578E+03  0.47000000000E+01 0.  1.
          5    1    5    5  503    0 -0.10177589578E+02  0.18651707542E+02  0.25215061729E+00  0.21762883627E+02  0.47000000000E+01 0. -1.
         -5    1    5    5    0  503  0.37893811230E+02  0.21982289384E+02 -0.35149852547E+03  0.35424915721E+03  0.47000000000E+01 0. -1.
<mgrwt>
<rscale>  0 0.27727779E+03</rscale>
<asrwt>0</asrwt>
<pdfrwt beam="1">  1        2 0.14666759E+00 0.27727779E+03</pdfrwt>
<pdfrwt beam="2">  1       -2 0.31017679E-02 0.27727779E+03</pdfrwt>
<totfact> 0.11287647E+04</totfact>
</mgrwt>
</event>
<event>
 9    1  0.8186049E-001  0.2735828E+03  0.7818608E-02  0.1099246E+00
         -2   -1    0    0    0  501 -0.00000000000E+00  0.00000000000E+00  0.62897924036E+01  0.62897924036E+01  0.00000000000E+00 0. -1.
          2   -1    0    0  501    0  0.00000000000E+00 -0.00000000000E+00 -0.29749599747E+04  0.29749599747E+04  0.00000000000E+00 0. -1.
         35    2    1    2    0    0 -0.14210854715E-13  0.00000000000E+00 -0.29686701823E+04  0.29812497671E+04  0.27358275274E+03 0.  0.
         25    2    3    3    0    0 -0.43714050694E+02 -0.41289443947E+02 -0.13519932265E+04  0.13586775871E+04  0.12042991663E+03 0.  0.
         25    2    3    3    0    0  0.43714050694E+02  0.41289443947E+02 -0.16166769558E+04  0.16225721800E+04  0.12442010874E+03 0.  0.
          5    1    4    4  502    0  0.29750838121E+02 -0.34062794688E+02 -0.85519051909E+03  0.85639844716E+03  0.47000000000E+01 0. -1.
         -5    1    4    4    0  502 -0.73464888814E+02 -0.72266492587E+01 -0.49680270741E+03  0.50227913995E+03  0.47000000000E+01 0. -1.
          5    1    5    5  503    0 -0.30959925513E+02  0.44020440089E+01 -0.13939969426E+03  0.14294145564E+03  0.47000000000E+01 0. -1.
         -5    1    5    5    0  503  0.74673976207E+02  0.36887399938E+02 -0.14772772615E+04  0.14796307243E+04  0.47000000000E+01 0. -1.
<mgrwt>
<rscale>  0 0.27358275E+03</rscale>
<asrwt>0</asrwt>
<pdfrwt beam="1">  1        2 0.45768779E+00 0.27358275E+03</pdfrwt>
<pdfrwt beam="2">  1       -2 0.96765690E-03 0.27358275E+03</pdfrwt>
<totfact> 0.48219156E+03</totfact>
</mgrwt>
</event>
<event>
 9    1  0.8186049E-001  0.2753701E+03  0.7818608E-02  0.1098245E+00
         -1   -1    0    0    0  501 -0.00000000000E+00  0.00000000000E+00  0.20507475079E+03  0.20507475079E+03  0.00000000000E+00 0. -1.
          1   -1    0    0  501    0  0.00000000000E+00 -0.00000000000E+00 -0.92440300935E+02  0.92440300935E+02  0.00000000000E+00 0. -1.
         35    2    1    2    0    0  0.71054273576E-14  0.00000000000E+00  0.11263444985E+03  0.29751505172E+03  0.27537009044E+03 0.  0.
         25    2    3    3    0    0  0.50312125537E+02  0.13321945008E+02  0.41347024488E+02  0.14426705849E+03  0.12804149147E+03 0.  0.
         25    2    3    3    0    0 -0.50312125537E+02 -0.13321945008E+02  0.71287425366E+02  0.15324799323E+03  0.12527675849E+03 0.  0.
          5    1    4    4  502    0  0.68103361317E+02  0.48069811481E+02  0.57901768066E+02  0.10160452423E+03  0.47000000000E+01 0.  1.
         -5    1    4    4    0  502 -0.17791235779E+02 -0.34747866473E+02 -0.16554743578E+02  0.42662534265E+02  0.47000000000E+01 0.  1.
          5    1    5    5  503    0 -0.21439772580E+02 -0.39960380863E+02  0.96225901182E+02  0.10648009178E+03  0.47000000000E+01 0.  1.
         -5    1    5    5    0  503 -0.28872352958E+02  0.26638435854E+02 -0.24938475816E+02  0.46767901451E+02  0.47000000000E+01 0.  1.
<mgrwt>
<rscale>  0 0.27537009E+03</rscale>
<asrwt>0</asrwt>
<pdfrwt beam="1">  1        1 0.14221585E-01 0.27537009E+03</pdfrwt>
<pdfrwt beam="2">  1       -1 0.31549961E-01 0.27537009E+03</pdfrwt>
<totfact> 0.37272359E+03</totfact>
</mgrwt>
</event>
<event>
 9    1  0.8186049E-001  0.2742253E+03  0.7818608E-02  0.1098885E+00
          2   -1    0    0  501    0  0.00000000000E+00  0.00000000000E+00  0.30016678521E+03  0.30016678521E+03  0.00000000000E+00 0.  1.
         -2   -1    0    0    0  501 -0.00000000000E+00 -0.00000000000E+00 -0.62631450019E+02  0.62631450019E+02  0.00000000000E+00 0.  1.
         35    2    1    2    0    0 -0.53290705182E-14 -0.71054273576E-14  0.23753533519E+03  0.36279823523E+03  0.27422531616E+03 0.  0.
         25    2    3    3    0    0  0.13983201149E+02 -0.50111546793E+02  0.14858046416E+03  0.20166550963E+03  0.12604017775E+03 0.  0.
         25    2    3    3    0    0 -0.13983201149E+02  0.50111546793E+02  0.88954871030E+02  0.16113272560E+03  0.12387126036E+03 0.  0.
          5    1    4    4  502    0  0.61917281770E+02 -0.48104044054E+02  0.12589335880E+03  0.14838792615E+03  0.47000000000E+01 0.  1.
         -5    1    4    4    0  502 -0.47934080622E+02 -0.20075027394E+01  0.22687105359E+02  0.53277583483E+02  0.47000000000E+01 0.  1.
          5    1    5    5  503    0 -0.27306644830E+02 -0.11216895233E+02 -0.19535334115E+02  0.35709814751E+02  0.47000000000E+01 0.  1.
         -5    1    5    5    0  503  0.13323443682E+02  0.61328442026E+02  0.10849020514E+03  0.12542291085E+03  0.47000000000E+01 0.  1.
<mgrwt>
<rscale>  0 0.27422532E+03</rscale>
<asrwt>0</asrwt>
<pdfrwt beam="1">  1        2 0.46179505E-01 0.27422532E+03</pdfrwt>
<pdfrwt beam="2">  1       -2 0.96356078E-02 0.27422532E+03</pdfrwt>
<totfact> 0.76354872E+03</totfact>
</mgrwt>
</event>
<event>
 9    1  0.8186049E-001  0.2726886E+03  0.7818608E-02  0.1099751E+00
         -1   -1    0    0    0  501 -0.00000000000E+00  0.00000000000E+00  0.10889990829E+03  0.10889990829E+03  0.00000000000E+00 0.  1.
          1   -1    0    0  501    0  0.00000000000E+00 -0.00000000000E+00 -0.17070511296E+03  0.17070511296E+03  0.00000000000E+00 0.  1.
         35    2    1    2    0    0  0.00000000000E+00 -0.35527136788E-14 -0.61805204668E+02  0.27960502126E+03  0.27268862203E+03 0.  0.
         25    2    3    3    0    0 -0.20635020216E+02  0.72575915443E+01  0.21770796939E+02  0.12742177732E+03  0.12362792986E+03 0.  0.
         25    2    3    3    0    0  0.20635020216E+02 -0.72575915443E+01 -0.83576001607E+02  0.15218324394E+03  0.12528493523E+03 0.  0.
          5    1    4    4  502    0 -0.23421749199E+02 -0.76954399300E+01  0.71199033943E+02  0.75492983552E+02  0.47000000000E+01 0. -1.
         -5    1    4    4    0  502  0.27867289827E+01  0.14953031474E+02 -0.49428237004E+02  0.51928793766E+02  0.47000000000E+01 0. -1.
          5    1    5    5  503    0 -0.36084839451E+02 -0.45379100593E+02 -0.45196968616E+02  0.73662978361E+02  0.47000000000E+01 0. -1.
         -5    1    5    5    0  503  0.56719859667E+02  0.38121509049E+02 -0.38379032990E+02  0.78520265576E+02  0.47000000000E+01 0. -1.
<mgrwt>
<rscale>  0 0.27268862E+03</rscale>
<asrwt>0</asrwt>
<pdfrwt beam="1">  1        1 0.26262325E-01 0.27268862E+03</pdfrwt>
<pdfrwt beam="2">  1       -1 0.16753832E-01 0.27268862E+03</pdfrwt>
<totfact> 0.47966521E+03</totfact>
</mgrwt>
</event>
<event>
 9    1  0.8186049E-001  0.2901130E+03  0.7818608E-02  0.1090290E+00
          2   -1    0    0  501    0  0.00000000000E+00  0.00000000000E+00  0.62730815441E+03  0.62730815441E+03  0.00000000000E+00 0.  1.
         -2   -1    0    0    0  501 -0.00000000000E+00 -0.00000000000E+00 -0.33542345687E+02  0.33542345687E+02  0.00000000000E+00 0.  1.
         35    2    1    2    0    0 -0.14210854715E-13  0.00000000000E+00  0.59376580873E+03  0.66085050010E+03  0.29011299156E+03 0.  0.
         25    2    3    3    0    0 -0.53071017531E+02 -0.32645723215E+02  0.20066722823E+03  0.24321378122E+03  0.12248808409E+03 0.  0.
         25    2    3    3    0    0  0.53071017531E+02  0.32645723215E+02  0.39309858050E+03  0.41763671888E+03  0.12653718355E+03 0.  0.
          5    1    4    4  502    0 -0.79863709493E+02 -0.54198144082E+02  0.11158980971E+03  0.14761445236E+03  0.47000000000E+01 0.  1.
         -5    1    4    4    0  502  0.26792691962E+02  0.21552420867E+02  0.89077418523E+02  0.95599328860E+02  0.47000000000E+01 0.  1.
          5    1    5    5  503    0 -0.29465216238E+02  0.61935106082E+01  0.24921982055E+02  0.39366911628E+02  0.47000000000E+01 0. -1.
         -5    1    5    5    0  503  0.82536233769E+02  0.26452212607E+02  0.36817659844E+03  0.37826980725E+03  0.47000000000E+01 0. -1.
<mgrwt>
<rscale>  0 0.29011299E+03</rscale>
<asrwt>0</asrwt>
<pdfrwt beam="1">  1        2 0.96508938E-01 0.29011299E+03</pdfrwt>
<pdfrwt beam="2">  1       -2 0.51603614E-02 0.29011299E+03</pdfrwt>
<totfact> 0.89143261E+03</totfact>
</mgrwt>
</event>
<event>
 9    1  0.8186049E-001  0.2746576E+03  0.7818608E-02  0.1098643E+00
          1   -1    0    0  501    0  0.00000000000E+00  0.00000000000E+00  0.48653201352E+03  0.48653201352E+03  0.00000000000E+00 0.  1.
         -1   -1    0    0    0  501 -0.00000000000E+00 -0.00000000000E+00 -0.38762504444E+02  0.38762504444E+02  0.00000000000E+00 0.  1.
         35    2    1    2    0    0 -0.35527136788E-14  0.71054273576E-14  0.44776950908E+03  0.52529451797E+03  0.27465760020E+03 0.  0.
         25    2    3    3    0    0 -0.21315149435E+02  0.32036745107E+02  0.30154895030E+03  0.32858737618E+03  0.12472852812E+03 0.  0.
         25    2    3    3    0    0  0.21315149435E+02 -0.32036745107E+02  0.14622055878E+03  0.19670714178E+03  0.12582749774E+03 0.  0.
          5    1    4    4  502    0 -0.41884847386E+02  0.58005585779E+02  0.93307340020E+02  0.11767471319E+03  0.47000000000E+01 0.  1.
         -5    1    4    4    0  502  0.20569697952E+02 -0.25968840672E+02  0.20824161028E+03  0.21091266299E+03  0.47000000000E+01 0.  1.
          5    1    5    5  503    0  0.11189632056E+01  0.20814751722E+02  0.13763984505E+03  0.13928863167E+03  0.47000000000E+01 0. -1.
         -5    1    5    5    0  503  0.20196186229E+02 -0.52851496828E+02  0.85807137278E+01  0.57418510110E+02  0.47000000000E+01 0. -1.
<mgrwt>
<rscale>  0 0.27465760E+03</rscale>
<asrwt>0</asrwt>
<pdfrwt beam="1">  1        1 0.74851075E-01 0.27465760E+03</pdfrwt>
<pdfrwt beam="2">  1       -1 0.59634626E-02 0.27465760E+03</pdfrwt>
<totfact> 0.62850589E+03</totfact>
</mgrwt>
</event>
<event>
 9    1  0.8186049E-001  0.2857655E+03  0.7818608E-02  0.1092581E+00
         -1   -1    0    0    0  501 -0.00000000000E+00  0.00000000000E+00  0.57088523946E+02  0.57088523946E+02  0.00000000000E+00 0. -1.
          1   -1    0    0  501    0  0.00000000000E+00 -0.00000000000E+00 -0.35761080920E+03  0.35761080920E+03  0.00000000000E+00 0. -1.
         35    2    1    2    0    0 -0.53290705182E-14  0.00000000000E+00 -0.30052228525E+03  0.41469933314E+03  0.28576545098E+03 0.  0.
         25    2    3    3    0    0 -0.31863737087E+01 -0.17418796536E+02 -0.69853812051E+02  0.14473616371E+03  0.12552065399E+03 0.  0.
         25    2    3    3    0    0  0.31863737087E+01  0.17418796536E+02 -0.23066847320E+03  0.26996316943E+03  0.13913518919E+03 0.  0.
          5    1    4    4  502    0 -0.23204808054E+01  0.53853622363E+02 -0.40133803066E+02  0.67367717947E+02  0.47000000000E+01 0. -1.
         -5    1    4    4    0  502 -0.86589290322E+00 -0.71272418899E+02 -0.29720008985E+02  0.77368445766E+02  0.47000000000E+01 0. -1.
          5    1    5    5  503    0 -0.61713104966E+02 -0.17765402447E+02 -0.85506828117E+02  0.10704029383E+03  0.47000000000E+01 0.  1.
         -5    1    5    5    0  503  0.64899478674E+02  0.35184198983E+02 -0.14516164508E+03  0.16292287560E+03  0.47000000000E+01 0.  1.
<mgrwt>
<rscale>  0 0.28576545E+03</rscale>
<asrwt>0</asrwt>
<pdfrwt beam="1">  1        1 0.55017047E-01 0.28576545E+03</pdfrwt>
<pdfrwt beam="2">  1       -1 0.87828499E-02 0.28576545E+03</pdfrwt>
<totfact> 0.51975686E+03</totfact>
</mgrwt>
</event>
<event>
 9    1  0.8186049E-001  0.2777373E+03  0.7818608E-02  0.1096931E+00
         -2   -1    0    0    0  501 -0.00000000000E+00  0.00000000000E+00  0.11203124220E+02  0.11203124220E+02  0.00000000000E+00 0.  1.
          2   -1    0    0  501    0  0.00000000000E+00 -0.00000000000E+00 -0.17213503433E+04  0.17213503433E+04  0.00000000000E+00 0.  1.
         35    2    1    2    0    0  0.00000000000E+00  0.10658141036E-13 -0.17101472191E+04  0.17325534675E+04  0.27773729834E+03 0.  0.
         25    2    3    3    0    0 -0.42259355732E+02  0.18554814761E+02 -0.60438976106E+03  0.61878247936E+03  0.12439710278E+03 0.  0.
         25    2    3    3    0    0  0.42259355732E+02 -0.18554814761E+02 -0.11057574580E+04  0.11137709881E+04  0.12512443335E+03 0.  0.
          5    1    4    4  502    0 -0.30233577121E+02  0.10342443399E+02 -0.60249902807E+03  0.60336407263E+03  0.47000000000E+01 0. -1.
         -5    1    4    4    0  502 -0.12025778611E+02  0.82123713619E+01 -0.18907329961E+01  0.15418406722E+02  0.47000000000E+01 0. -1.
          5    1    5    5  503    0  0.43780147833E+02 -0.68416395246E+02 -0.58958235545E+03  0.59516968030E+03  0.47000000000E+01 0.  1.
         -5    1    5    5    0  503 -0.15207921004E+01  0.49861580485E+02 -0.51617510254E+03  0.51860130785E+03  0.47000000000E+01 0.  1.
<mgrwt>
<rscale>  0 0.27773730E+03</rscale>
<asrwt>0</asrwt>
<pdfrwt beam="1">  1        2 0.26482302E+00 0.27773730E+03</pdfrwt>
<pdfrwt beam="2">  1       -2 0.17235583E-02 0.27773730E+03</pdfrwt>
<totfact> 0.10019450E+04</totfact>
</mgrwt>
</event>
<event>
 9    1  0.8186049E-001  0.2908825E+03  0.7818608E-02  0.1089889E+00
         -1   -1    0    0    0  501 -0.00000000000E+00  0.00000000000E+00  0.25297169245E+03  0.25297169245E+03  0.00000000000E+00 0. -1.
          1   -1    0    0  501    0  0.00000000000E+00 -0.00000000000E+00 -0.83618689276E+02  0.83618689276E+02  0.00000000000E+00 0. -1.
         35    2    1    2    0    0 -0.17763568394E-14  0.00000000000E+00  0.16935300317E+03  0.33659038172E+03  0.29088252850E+03 0.  0.
         25    2    3    3    0    0  0.22014196750E+01 -0.16785988557E+02  0.31042986739E+01  0.12749399905E+03  0.12632682796E+03 0.  0.
         25    2    3    3    0    0 -0.22014196750E+01  0.16785988557E+02  0.16624870450E+03  0.20909638268E+03  0.12568233703E+03 0.  0.
          5    1    4    4  502    0  0.17247715885E+02 -0.32003257019E+02 -0.54603323833E+02  0.65767052060E+02  0.47000000000E+01 0. -1.
         -5    1    4    4    0  502 -0.15046296210E+02  0.15217268461E+02  0.57707622507E+02  0.61726946988E+02  0.47000000000E+01 0. -1.
          5    1    5    5  503    0  0.41206011489E+02  0.11452531507E+02  0.15874859854E+03  0.16447584443E+03  0.47000000000E+01 0.  1.
         -5    1    5    5    0  503 -0.43407431164E+02  0.53334570503E+01  0.75001059551E+01  0.44620538250E+02  0.47000000000E+01 0.  1.
<mgrwt>
<rscale>  0 0.29088253E+03</rscale>
<asrwt>0</asrwt>
<pdfrwt beam="1">  1        1 0.12864414E-01 0.29088253E+03</pdfrwt>
<pdfrwt beam="2">  1       -1 0.38918721E-01 0.29088253E+03</pdfrwt>
<totfact> 0.29576282E+03</totfact>
</mgrwt>
</event>
<event>
 9    1  0.8186049E-001  0.2756302E+03  0.7818608E-02  0.1098100E+00
         -2   -1    0    0    0  501 -0.00000000000E+00  0.00000000000E+00  0.30614002443E+02  0.30614002443E+02  0.00000000000E+00 0. -1.
          2   -1    0    0  501    0  0.00000000000E+00 -0.00000000000E+00 -0.62040265397E+03  0.62040265397E+03  0.00000000000E+00 0. -1.
         35    2    1    2    0    0  0.35527136788E-14  0.71054273576E-14 -0.58978865153E+03  0.65101665641E+03  0.27563024772E+03 0.  0.
         25    2    3    3    0    0 -0.10874023285E+02 -0.14058777965E+02 -0.17105645143E+03  0.21353061762E+03  0.12656666806E+03 0.  0.
         25    2    3    3    0    0  0.10874023285E+02  0.14058777965E+02 -0.41873220010E+03  0.43748603880E+03  0.12546507532E+03 0.  0.
          5    1    4    4  502    0 -0.15286672274E+02  0.55593741352E+02 -0.78752354327E+02  0.97715759930E+02  0.47000000000E+01 0.  1.
         -5    1    4    4    0  502  0.44126489889E+01 -0.69652519317E+02 -0.92304097105E+02  0.11581485768E+03  0.47000000000E+01 0.  1.
          5    1    5    5  503    0  0.32474001704E+02  0.35475042376E+02 -0.58217098012E+02  0.75659499861E+02  0.47000000000E+01 0. -1.
         -5    1    5    5    0  503 -0.21599978419E+02 -0.21416264411E+02 -0.36051510208E+03  0.36182653894E+03  0.47000000000E+01 0. -1.
<mgrwt>
<rscale>  0 0.27563025E+03</rscale>
<asrwt>0</asrwt>
<pdfrwt beam="1">  1        2 0.95446553E-01 0.27563025E+03</pdfrwt>
<pdfrwt beam="2">  1       -2 0.47098470E-02 0.27563025E+03</pdfrwt>
<totfact> 0.10357735E+04</totfact>
</mgrwt>
</event>
<event>
 9    1  0.8186049E-001  0.2725028E+03  0.7818608E-02  0.1099856E+00
         -2   -1    0    0    0  501 -0.00000000000E+00  0.00000000000E+00  0.27531214752E+03  0.27531214752E+03  0.00000000000E+00 0.  1.
          2   -1    0    0  501    0  0.00000000000E+00 -0.00000000000E+00 -0.67430554393E+02  0.67430554393E+02  0.00000000000E+00 0.  1.
         35    2    1    2    0    0  0.00000000000E+00 -0.17763568394E-14  0.20788159313E+03  0.34274270192E+03  0.27250284944E+03 0.  0.
         25    2    3    3    0    0  0.26274388170E+02 -0.45468202003E+01  0.16117925008E+03  0.20633296995E+03  0.12602986465E+03 0.  0.
         25    2    3    3    0    0 -0.26274388170E+02  0.45468202003E+01  0.46702343057E+02  0.13640973197E+03  0.12536143379E+03 0.  0.
          5    1    4    4  502    0  0.31187090690E+02 -0.58958022946E+02  0.54019892114E+02  0.85958838053E+02  0.47000000000E+01 0. -1.
         -5    1    4    4    0  502 -0.49127025196E+01  0.54411202746E+02  0.10715935796E+03  0.12037413189E+03  0.47000000000E+01 0. -1.
          5    1    5    5  503    0  0.32489045839E+02 -0.15210259220E+02 -0.23105742759E+02  0.42928492094E+02  0.47000000000E+01 0. -1.
         -5    1    5    5    0  503 -0.58763434009E+02  0.19757079420E+02  0.69808085815E+02  0.93481239877E+02  0.47000000000E+01 0. -1.
<mgrwt>
<rscale>  0 0.27250285E+03</rscale>
<asrwt>0</asrwt>
<pdfrwt beam="1">  1        2 0.10373932E-01 0.27250285E+03</pdfrwt>
<pdfrwt beam="2">  1       -2 0.42355714E-01 0.27250285E+03</pdfrwt>
<totfact> 0.32484935E+03</totfact>
</mgrwt>
</event>
<event>
 9    1  0.8186049E-001  0.2706976E+03  0.7818608E-02  0.1100881E+00
          2   -1    0    0  501    0  0.00000000000E+00  0.00000000000E+00  0.11238415694E+04  0.11238415694E+04  0.00000000000E+00 0. -1.
         -2   -1    0    0    0  501 -0.00000000000E+00 -0.00000000000E+00 -0.16300609059E+02  0.16300609059E+02  0.00000000000E+00 0. -1.
         35    2    1    2    0    0  0.35527136788E-14 -0.35527136788E-14  0.11075409603E+04  0.11401421785E+04  0.27069763255E+03 0.  0.
         25    2    3    3    0    0 -0.10684989071E+02  0.17296241592E+02  0.75692255935E+03  0.76727902283E+03  0.12398390641E+03 0.  0.
         25    2    3    3    0    0  0.10684989071E+02 -0.17296241592E+02  0.35061840098E+03  0.37286315562E+03  0.12522116734E+03 0.  0.
          5    1    4    4  502    0 -0.65222565932E+02  0.95572929633E+01  0.50868614809E+03  0.51296102407E+03  0.47000000000E+01 0.  1.
         -5    1    4    4    0  502  0.54537576861E+02  0.77389486289E+01  0.24823641127E+03  0.25431799876E+03  0.47000000000E+01 0.  1.
          5    1    5    5  503    0 -0.21277081972E+02  0.29772195294E+02  0.27826224900E+03  0.28069746534E+03  0.47000000000E+01 0. -1.
         -5    1    5    5    0  503  0.31962071042E+02 -0.47068436886E+02  0.72356151982E+02  0.92165690286E+02  0.47000000000E+01 0. -1.
<mgrwt>
<rscale>  0 0.27069763E+03</rscale>
<asrwt>0</asrwt>
<pdfrwt beam="1">  1        2 0.17289864E+00 0.27069763E+03</pdfrwt>
<pdfrwt beam="2">  1       -2 0.25077869E-02 0.27069763E+03</pdfrwt>
<totfact> 0.12205710E+04</totfact>
</mgrwt>
</event>
<event>
 9    1  0.8186049E-001  0.2781063E+03  0.7818608E-02  0.1096728E+00
          2   -1    0    0  501    0  0.00000000000E+00  0.00000000000E+00  0.11099815264E+04  0.11099815264E+04  0.00000000000E+00 0. -1.
         -2   -1    0    0    0  501 -0.00000000000E+00 -0.00000000000E+00 -0.17419916464E+02  0.17419916464E+02  0.00000000000E+00 0. -1.
         35    2    1    2    0    0  0.35527136788E-14  0.14210854715E-13  0.10925616099E+04  0.11274014428E+04  0.27810634992E+03 0.  0.
         25    2    3    3    0    0  0.29982719133E+02  0.47997897457E+02  0.46901772266E+03  0.48890654470E+03  0.12589369988E+03 0.  0.
         25    2    3    3    0    0 -0.29982719133E+02 -0.47997897457E+02  0.62354388723E+03  0.63849489813E+03  0.12516386868E+03 0.  0.
          5    1    4    4  502    0  0.35770202713E+02 -0.28831586593E+02  0.29423781252E+03  0.29784013851E+03  0.47000000000E+01 0.  1.
         -5    1    4    4    0  502 -0.57874835798E+01  0.76829484051E+02  0.17477991014E+03  0.19106640619E+03  0.47000000000E+01 0.  1.
          5    1    5    5  503    0 -0.18868917280E+02  0.40587295327E+02  0.15083996552E+03  0.15741076767E+03  0.47000000000E+01 0. -1.
         -5    1    5    5    0  503 -0.11113801853E+02 -0.88585192785E+02  0.47270392172E+03  0.48108413046E+03  0.47000000000E+01 0. -1.
<mgrwt>
<rscale>  0 0.27810635E+03</rscale>
<asrwt>0</asrwt>
<pdfrwt beam="1">  1        2 0.17076633E+00 0.27810635E+03</pdfrwt>
<pdfrwt beam="2">  1       -2 0.26799880E-02 0.27810635E+03</pdfrwt>
<totfact> 0.11279092E+04</totfact>
</mgrwt>
</event>
<event>
 9    1  0.8186049E-001  0.2740096E+03  0.7818608E-02  0.1099006E+00
          2   -1    0    0  501    0  0.00000000000E+00  0.00000000000E+00  0.77923428140E+03  0.77923428140E+03  0.00000000000E+00 0. -1.
         -2   -1    0    0    0  501 -0.00000000000E+00 -0.00000000000E+00 -0.24088160999E+02  0.24088160999E+02  0.00000000000E+00 0. -1.
         35    2    1    2    0    0 -0.14210854715E-13  0.71054273576E-14  0.75514612040E+03  0.80332244240E+03  0.27400964090E+03 0.  0.
         25    2    3    3    0    0  0.36829577444E+02 -0.31442803361E+02  0.30101617841E+03  0.32973114596E+03  0.12556600374E+03 0.  0.
         25    2    3    3    0    0 -0.36829577444E+02  0.31442803361E+02  0.45412994200E+03  0.47359129644E+03  0.12533811946E+03 0.  0.
          5    1    4    4  502    0  0.47521702325E+02 -0.36459284092E+01  0.29515561327E+03  0.29901593775E+03  0.47000000000E+01 0. -1.
         -5    1    4    4    0  502 -0.10692124880E+02 -0.27796874952E+02  0.58605651396E+01  0.30715208209E+02  0.47000000000E+01 0. -1.
          5    1    5    5  503    0  0.42280995347E+02  0.31153060496E+02  0.13946491786E+03  0.14909979563E+03  0.47000000000E+01 0.  1.
         -5    1    5    5    0  503 -0.79110572791E+02  0.28974286534E+00  0.31466502414E+03  0.32449150081E+03  0.47000000000E+01 0.  1.
<mgrwt>
<rscale>  0 0.27400964E+03</rscale>
<asrwt>0</asrwt>
<pdfrwt beam="1">  1        2 0.11988218E+00 0.27400964E+03</pdfrwt>
<pdfrwt beam="2">  1       -2 0.37058715E-02 0.27400964E+03</pdfrwt>
<totfact> 0.11273591E+04</totfact>
</mgrwt>
</event>
<event>
 9    1  0.8186049E-001  0.2836692E+03  0.7818608E-02  0.1093702E+00
         -4   -1    0    0    0  501 -0.00000000000E+00  0.00000000000E+00  0.17413693069E+03  0.17413693069E+03  0.00000000000E+00 0. -1.
          4   -1    0    0  501    0  0.00000000000E+00 -0.00000000000E+00 -0.11552430910E+03  0.11552430910E+03  0.00000000000E+00 0. -1.
         35    2    1    2    0    0 -0.71054273576E-14  0.17763568394E-14  0.58612621589E+02  0.28966123979E+03  0.28366916368E+03 0.  0.
         25    2    3    3    0    0  0.43240449668E+02 -0.82860500281E+01 -0.19346149680E+02  0.13477798464E+03  0.12590645942E+03 0.  0.
         25    2    3    3    0    0 -0.43240449668E+02  0.82860500281E+01  0.77958771268E+02  0.15488325515E+03  0.12638377109E+03 0.  0.
          5    1    4    4  502    0 -0.26431165525E+02 -0.36982380891E+02  0.19720803003E+02  0.49772513282E+02  0.47000000000E+01 0.  1.
         -5    1    4    4    0  502  0.69671615194E+02  0.28696330863E+02 -0.39066952682E+02  0.85005471357E+02  0.47000000000E+01 0.  1.
          5    1    5    5  503    0 -0.78177072537E+02  0.11066485035E+02  0.87804639429E+02  0.11817726713E+03  0.47000000000E+01 0.  1.
         -5    1    5    5    0  503  0.34936622868E+02 -0.27804350066E+01 -0.98458681605E+01  0.36705988014E+02  0.47000000000E+01 0.  1.
<mgrwt>
<rscale>  0 0.28366916E+03</rscale>
<asrwt>0</asrwt>
<pdfrwt beam="1">  1        4 0.17772971E-01 0.28366916E+03</pdfrwt>
<pdfrwt beam="2">  1       -4 0.26790297E-01 0.28366916E+03</pdfrwt>
<totfact> 0.69176432E+02</totfact>
</mgrwt>
</event>
<event>
 9    1  0.8186049E-001  0.2756135E+03  0.7818608E-02  0.1098109E+00
          1   -1    0    0  501    0  0.00000000000E+00  0.00000000000E+00  0.12223200274E+03  0.12223200274E+03  0.00000000000E+00 0. -1.
         -1   -1    0    0    0  501 -0.00000000000E+00 -0.00000000000E+00 -0.15536600205E+03  0.15536600205E+03  0.00000000000E+00 0. -1.
         35    2    1    2    0    0  0.00000000000E+00  0.00000000000E+00 -0.33133999303E+02  0.27759800479E+03  0.27561347999E+03 0.  0.
         25    2    3    3    0    0 -0.21158073994E+02  0.20158145715E+02 -0.69045437440E+02  0.14416920589E+03  0.12314005263E+03 0.  0.
         25    2    3    3    0    0  0.21158073994E+02 -0.20158145715E+02  0.35911438137E+02  0.13342879890E+03  0.12513831569E+03 0.  0.
          5    1    4    4  502    0 -0.70264274037E+02  0.27449838005E+02 -0.50809498263E+02  0.91072811125E+02  0.47000000000E+01 0. -1.
         -5    1    4    4    0  502  0.49106200043E+02 -0.72916922905E+01 -0.18235939178E+02  0.53096394763E+02  0.47000000000E+01 0. -1.
          5    1    5    5  503    0 -0.74674688190E+01  0.38806801493E+02  0.52282405705E+02  0.65705942494E+02  0.47000000000E+01 0.  1.
         -5    1    5    5    0  503  0.28625542813E+02 -0.58964947208E+02 -0.16370967568E+02  0.67722856405E+02  0.47000000000E+01 0.  1.
<mgrwt>
<rscale>  0 0.27561348E+03</rscale>
<asrwt>0</asrwt>
<pdfrwt beam="1">  1        1 0.18804924E-01 0.27561348E+03</pdfrwt>
<pdfrwt beam="2">  1       -1 0.23902462E-01 0.27561348E+03</pdfrwt>
<totfact> 0.41296125E+03</totfact>
</mgrwt>
</event>
<event>
 9    1  0.8186049E-001  0.2865038E+03  0.7818608E-02  0.1092189E+00
          2   -1    0    0  501    0  0.00000000000E+00  0.00000000000E+00  0.42903064638E+03  0.42903064638E+03  0.00000000000E+00 0. -1.
         -2   -1    0    0    0  501 -0.00000000000E+00 -0.00000000000E+00 -0.47831326711E+02  0.47831326711E+02  0.00000000000E+00 0. -1.
         35    2    1    2    0    0  0.00000000000E+00  0.00000000000E+00  0.38119931967E+03  0.47686197309E+03  0.28650378717E+03 0.  0.
         25    2    3    3    0    0 -0.70686591973E+02 -0.63750481785E+01  0.19903840917E+03  0.24498051416E+03  0.12394324696E+03 0.  0.
         25    2    3    3    0    0  0.70686591973E+02  0.63750481785E+01  0.18216091050E+03  0.23188145893E+03  0.12469634381E+03 0.  0.
          5    1    4    4  502    0 -0.47716521964E+02  0.35278877077E+02  0.25116066984E+02  0.64609383659E+02  0.47000000000E+01 0.  1.
         -5    1    4    4    0  502 -0.22970070009E+02 -0.41653925255E+02  0.17392234219E+03  0.18037113050E+03  0.47000000000E+01 0.  1.
          5    1    5    5  503    0 -0.32519635729E+01 -0.40692801886E+02  0.11266803169E+03  0.11992770638E+03  0.47000000000E+01 0. -1.
         -5    1    5    5    0  503  0.73938555546E+02  0.47067850065E+02  0.69492878806E+02  0.11195375255E+03  0.47000000000E+01 0. -1.
<mgrwt>
<rscale>  0 0.28650379E+03</rscale>
<asrwt>0</asrwt>
<pdfrwt beam="1">  1        2 0.66004712E-01 0.28650379E+03</pdfrwt>
<pdfrwt beam="2">  1       -2 0.73586659E-02 0.28650379E+03</pdfrwt>
<totfact> 0.79310190E+03</totfact>
</mgrwt>
</event>
<event>
 9    1  0.8186049E-001  0.2780033E+03  0.7818608E-02  0.1096785E+00
         -2   -1    0    0    0  501 -0.00000000000E+00  0.00000000000E+00  0.14280485401E+02  0.14280485401E+02  0.00000000000E+00 0.  1.
          2   -1    0    0  501    0  0.00000000000E+00 -0.00000000000E+00 -0.13529974997E+04  0.13529974997E+04  0.00000000000E+00 0.  1.
         35    2    1    2    0    0  0.00000000000E+00  0.71054273576E-14 -0.13387170143E+04  0.13672779851E+04  0.27800331683E+03 0.  0.
         25    2    3    3    0    0  0.34577110600E+02 -0.36527790746E+02 -0.81048694157E+03  0.82164458801E+03  0.12522336236E+03 0.  0.
         25    2    3    3    0    0 -0.34577110600E+02  0.36527790746E+02 -0.52823007270E+03  0.54563339706E+03  0.12711781232E+03 0.  0.
          5    1    4    4  502    0 -0.17633608203E+02 -0.16682698450E+02 -0.66903326823E+03  0.66949000035E+03  0.47000000000E+01 0.  1.
         -5    1    4    4    0  502  0.52210718804E+02 -0.19845092297E+02 -0.14145367334E+03  0.15215458766E+03  0.47000000000E+01 0.  1.
          5    1    5    5  503    0 -0.36022154200E+02  0.40361230903E+02 -0.76246671493E+02  0.93606994754E+02  0.47000000000E+01 0. -1.
         -5    1    5    5    0  503  0.14450435991E+01 -0.38334401570E+01 -0.45198340121E+03  0.45202640231E+03  0.47000000000E+01 0. -1.
<mgrwt>
<rscale>  0 0.27800332E+03</rscale>
<asrwt>0</asrwt>
<pdfrwt beam="1">  1        2 0.20815353E+00 0.27800332E+03</pdfrwt>
<pdfrwt beam="2">  1       -2 0.21969970E-02 0.27800332E+03</pdfrwt>
<totfact> 0.11033736E+04</totfact>
</mgrwt>
</event>
<event>
 9    1  0.8186049E-001  0.2739251E+03  0.7818608E-02  0.1099054E+00
         -2   -1    0    0    0  501 -0.00000000000E+00  0.00000000000E+00  0.25665998835E+02  0.25665998835E+02  0.00000000000E+00 0.  1.
          2   -1    0    0  501    0  0.00000000000E+00 -0.00000000000E+00 -0.73087878024E+03  0.73087878024E+03  0.00000000000E+00 0.  1.
         35    2    1    2    0    0  0.00000000000E+00  0.00000000000E+00 -0.70521278140E+03  0.75654477907E+03  0.27392505487E+03 0.  0.
         25    2    3    3    0    0 -0.15833447766E+01  0.35759073896E+02 -0.38253871679E+03  0.40408775439E+03  0.12517917182E+03 0.  0.
         25    2    3    3    0    0  0.15833447766E+01 -0.35759073896E+02 -0.32267406461E+03  0.35245702468E+03  0.13720854174E+03 0.  0.
          5    1    4    4  502    0  0.83710618877E+01  0.74332494932E+02 -0.32759263484E+03  0.33605716610E+03  0.47000000000E+01 0.  1.
         -5    1    4    4    0  502 -0.99544066643E+01 -0.38573421036E+02 -0.54946081945E+02  0.68030588294E+02  0.47000000000E+01 0.  1.
          5    1    5    5  503    0 -0.11805982057E+02  0.30052939258E+02 -0.12308422674E+02  0.34873308405E+02  0.47000000000E+01 0.  1.
         -5    1    5    5    0  503  0.13389326834E+02 -0.65812013154E+02 -0.31036564194E+03  0.31758371628E+03  0.47000000000E+01 0.  1.
<mgrwt>
<rscale>  0 0.27392505E+03</rscale>
<asrwt>0</asrwt>
<pdfrwt beam="1">  1        2 0.11244285E+00 0.27392505E+03</pdfrwt>
<pdfrwt beam="2">  1       -2 0.39486165E-02 0.27392505E+03</pdfrwt>
<totfact> 0.11100118E+04</totfact>
</mgrwt>
</event>
<event>
 9    1  0.8186049E-001  0.2756311E+03  0.7818608E-02  0.1098099E+00
         -1   -1    0    0    0  501 -0.00000000000E+00  0.00000000000E+00  0.10885904640E+04  0.10885904640E+04  0.00000000000E+00 0. -1.
          1   -1    0    0  501    0  0.00000000000E+00 -0.00000000000E+00 -0.17447443635E+02  0.17447443635E+02  0.00000000000E+00 0. -1.
         35    2    1    2    0    0 -0.35527136788E-14  0.14210854715E-13  0.10711430203E+04  0.11060379076E+04  0.27563106328E+03 0.  0.
         25    2    3    3    0    0  0.10316457369E+01 -0.53141667980E+02  0.62547354993E+03  0.64051756923E+03  0.12735970188E+03 0.  0.
         25    2    3    3    0    0 -0.10316457369E+01  0.53141667980E+02  0.44566947042E+03  0.46552033839E+03  0.12354273520E+03 0.  0.
          5    1    4    4  502    0 -0.26869277495E+02  0.28440485725E+02  0.91760108383E+02  0.99864041536E+02  0.47000000000E+01 0.  1.
         -5    1    4    4    0  502  0.27900923232E+02 -0.81582153705E+02  0.53371344154E+03  0.54065352769E+03  0.47000000000E+01 0.  1.
          5    1    5    5  503    0  0.47268193187E+02  0.68186728767E+02  0.25508635094E+03  0.26828128616E+03  0.47000000000E+01 0.  1.
         -5    1    5    5    0  503 -0.48299838924E+02 -0.15045060787E+02  0.19058311948E+03  0.19723905223E+03  0.47000000000E+01 0.  1.
<mgrwt>
<rscale>  0 0.27563106E+03</rscale>
<asrwt>0</asrwt>
<pdfrwt beam="1">  1        1 0.26842230E-02 0.27563106E+03</pdfrwt>
<pdfrwt beam="2">  1       -1 0.16747540E+00 0.27563106E+03</pdfrwt>
<totfact> 0.11189421E+03</totfact>
</mgrwt>
</event>
<event>
 9    1  0.8186049E-001  0.2682875E+03  0.7818608E-02  0.1102264E+00
         -4   -1    0    0    0  501 -0.00000000000E+00  0.00000000000E+00  0.12218474489E+03  0.12218474489E+03  0.00000000000E+00 0.  1.
          4   -1    0    0  501    0  0.00000000000E+00 -0.00000000000E+00 -0.14727327854E+03  0.14727327854E+03  0.00000000000E+00 0.  1.
         35    2    1    2    0    0  0.00000000000E+00  0.71054273576E-14 -0.25088533657E+02  0.26945802343E+03  0.26828751717E+03 0.  0.
         25    2    3    3    0    0 -0.56364699372E+01  0.49048543647E+02 -0.13048669421E+02  0.13506778650E+03  0.12504203193E+03 0.  0.
         25    2    3    3    0    0  0.56364699372E+01 -0.49048543647E+02 -0.12039864236E+02  0.13439023693E+03  0.12441160727E+03 0.  0.
          5    1    4    4  502    0  0.15970134305E+02 -0.37074832371E+02 -0.21091944616E+02  0.45788082649E+02  0.47000000000E+01 0.  1.
         -5    1    4    4    0  502 -0.21606604242E+02  0.86123376018E+02  0.80432751943E+01  0.89279703850E+02  0.47000000000E+01 0.  1.
          5    1    5    5  503    0  0.11318610445E+02  0.37052745384E+02 -0.25942208668E+02  0.46862619149E+02  0.47000000000E+01 0.  1.
         -5    1    5    5    0  503 -0.56821405077E+01 -0.86101289031E+02  0.13902344433E+02  0.87527617780E+02  0.47000000000E+01 0.  1.
<mgrwt>
<rscale>  0 0.26828752E+03</rscale>
<asrwt>0</asrwt>
<pdfrwt beam="1">  1        4 0.22657427E-01 0.26828752E+03</pdfrwt>
<pdfrwt beam="2">  1       -4 0.18797653E-01 0.26828752E+03</pdfrwt>
<totfact> 0.84759579E+02</totfact>
</mgrwt>
</event>
<event>
 9    1  0.8186049E-001  0.2762734E+03  0.7818608E-02  0.1097742E+00
         -2   -1    0    0    0  501 -0.00000000000E+00  0.00000000000E+00  0.91889217705E+01  0.91889217705E+01  0.00000000000E+00 0. -1.
          2   -1    0    0  501    0  0.00000000000E+00 -0.00000000000E+00 -0.20766032453E+04  0.20766032453E+04  0.00000000000E+00 0. -1.
         35    2    1    2    0    0 -0.71054273576E-14  0.26645352591E-14 -0.20674143235E+04  0.20857921670E+04  0.27627337743E+03 0.  0.
         25    2    3    3    0    0 -0.50585337986E+02 -0.62588933727E+01 -0.12435387248E+04  0.12508254507E+04  0.12481064768E+03 0.  0.
         25    2    3    3    0    0  0.50585337986E+02  0.62588933727E+01 -0.82387559868E+03  0.83496671636E+03  0.12569950344E+03 0.  0.
          5    1    4    4  502    0 -0.65198388193E+02 -0.31783360129E+02 -0.38685123450E+03  0.39362034937E+03  0.47000000000E+01 0.  1.
         -5    1    4    4    0  502  0.14613050208E+02  0.25524466757E+02 -0.85668749032E+03  0.85720510131E+03  0.47000000000E+01 0.  1.
          5    1    5    5  503    0 -0.18598201431E+02 -0.14626478718E+01 -0.18886691936E+02  0.26959776845E+02  0.47000000000E+01 0.  1.
         -5    1    5    5    0  503  0.69183539417E+02  0.77215412446E+01 -0.80498890674E+03  0.80800693951E+03  0.47000000000E+01 0.  1.
<mgrwt>
<rscale>  0 0.27627338E+03</rscale>
<asrwt>0</asrwt>
<pdfrwt beam="1">  1        2 0.31947701E+00 0.27627338E+03</pdfrwt>
<pdfrwt beam="2">  1       -2 0.14136821E-02 0.27627338E+03</pdfrwt>
<totfact> 0.87110002E+03</totfact>
</mgrwt>
</event>
<event>
 9    1  0.8186049E-001  0.2782386E+03  0.7818608E-02  0.1096655E+00
          2   -1    0    0  501    0  0.00000000000E+00  0.00000000000E+00  0.14425585864E+04  0.14425585864E+04  0.00000000000E+00 0. -1.
         -2   -1    0    0    0  501 -0.00000000000E+00 -0.00000000000E+00 -0.13416559658E+02  0.13416559658E+02  0.00000000000E+00 0. -1.
         35    2    1    2    0    0  0.00000000000E+00  0.71054273576E-14  0.14291420268E+04  0.14559751461E+04  0.27823855474E+03 0.  0.
         25    2    3    3    0    0  0.40352196223E+02 -0.43309270761E+02  0.64517420113E+03  0.65997300121E+03  0.12574028727E+03 0.  0.
         25    2    3    3    0    0 -0.40352196223E+02  0.43309270761E+02  0.78396782562E+03  0.79600214486E+03  0.12453862991E+03 0.  0.
          5    1    4    4  502    0  0.62511305739E+01 -0.64076120037E+02  0.57868756261E+03  0.58227674770E+03  0.47000000000E+01 0. -1.
         -5    1    4    4    0  502  0.34101065649E+02  0.20766849276E+02  0.66486638518E+02  0.77696253505E+02  0.47000000000E+01 0. -1.
          5    1    5    5  503    0 -0.80525229179E+02  0.50044339011E+02  0.60465079484E+03  0.61205671478E+03  0.47000000000E+01 0. -1.
         -5    1    5    5    0  503  0.40173032956E+02 -0.67350682501E+01  0.17931703078E+03  0.18394543008E+03  0.47000000000E+01 0. -1.
<mgrwt>
<rscale>  0 0.27823855E+03</rscale>
<asrwt>0</asrwt>
<pdfrwt beam="1">  1        2 0.22193197E+00 0.27823855E+03</pdfrwt>
<pdfrwt beam="2">  1       -2 0.20640872E-02 0.27823855E+03</pdfrwt>
<totfact> 0.10814206E+04</totfact>
</mgrwt>
</event>
<event>
 9    1  0.8186049E-001  0.2684849E+03  0.7818608E-02  0.1102150E+00
          2   -1    0    0  501    0  0.00000000000E+00  0.00000000000E+00  0.40839526971E+02  0.40839526971E+02  0.00000000000E+00 0.  1.
         -2   -1    0    0    0  501 -0.00000000000E+00 -0.00000000000E+00 -0.44126440810E+03  0.44126440810E+03  0.00000000000E+00 0.  1.
         35    2    1    2    0    0  0.00000000000E+00 -0.71054273576E-14 -0.40042488113E+03  0.48210393507E+03  0.26848485764E+03 0.  0.
         25    2    3    3    0    0 -0.29917643028E+02 -0.26666486353E+02 -0.21741928604E+03  0.25406594015E+03  0.12518861427E+03 0.  0.
         25    2    3    3    0    0  0.29917643028E+02  0.26666486353E+02 -0.18300559508E+03  0.22803799492E+03  0.13001581610E+03 0.  0.
          5    1    4    4  502    0 -0.77938467568E+02 -0.69975121401E+01 -0.14522189513E+03  0.16502987223E+03  0.47000000000E+01 0.  1.
         -5    1    4    4    0  502  0.48020824540E+02 -0.19668974213E+02 -0.72197390911E+02  0.89036067919E+02  0.47000000000E+01 0.  1.
          5    1    5    5  503    0  0.41561743746E+02 -0.43809735598E+02 -0.11130797070E+03  0.12672105515E+03  0.47000000000E+01 0.  1.
         -5    1    5    5    0  503 -0.11644100718E+02  0.70476221951E+02 -0.71697624383E+02  0.10131693977E+03  0.47000000000E+01 0.  1.
<mgrwt>
<rscale>  0 0.26848486E+03</rscale>
<asrwt>0</asrwt>
<pdfrwt beam="1">  1        2 0.62830044E-02 0.26848486E+03</pdfrwt>
<pdfrwt beam="2">  1       -2 0.67886830E-01 0.26848486E+03</pdfrwt>
<totfact> 0.23605881E+03</totfact>
</mgrwt>
</event>
<event>
 9    1  0.8186049E-001  0.2538566E+03  0.7818608E-02  0.1110891E+00
          2   -1    0    0  501    0  0.00000000000E+00  0.00000000000E+00  0.13715098011E+03  0.13715098011E+03  0.00000000000E+00 0.  1.
         -2   -1    0    0    0  501 -0.00000000000E+00 -0.00000000000E+00 -0.11746762148E+03  0.11746762148E+03  0.00000000000E+00 0.  1.
         35    2    1    2    0    0 -0.71054273576E-14  0.00000000000E+00  0.19683358629E+02  0.25461860158E+03  0.25385664786E+03 0.  0.
         25    2    3    3    0    0  0.17438490449E+02  0.17245207386E+01 -0.11812801238E+02  0.12721773836E+03  0.12545013256E+03 0.  0.
         25    2    3    3    0    0 -0.17438490449E+02 -0.17245207386E+01  0.31496159867E+02  0.12740086322E+03  0.12219614127E+03 0.  0.
          5    1    4    4  502    0 -0.14286709856E+02  0.39161440882E+02  0.38385429629E+02  0.56861759894E+02  0.47000000000E+01 0.  1.
         -5    1    4    4    0  502  0.31725200306E+02 -0.37436920143E+02 -0.50198230867E+02  0.70355978470E+02  0.47000000000E+01 0.  1.
          5    1    5    5  503    0 -0.55941657118E+02 -0.35990152970E+02 -0.24779009034E+00  0.66685167105E+02  0.47000000000E+01 0.  1.
         -5    1    5    5    0  503  0.38503166669E+02  0.34265632231E+02  0.31743949957E+02  0.60715696114E+02  0.47000000000E+01 0.  1.
<mgrwt>
<rscale>  0 0.25385665E+03</rscale>
<asrwt>0</asrwt>
<pdfrwt beam="1">  1        2 0.21100151E-01 0.25385665E+03</pdfrwt>
<pdfrwt beam="2">  1       -2 0.18071942E-01 0.25385665E+03</pdfrwt>
<totfact> 0.64474021E+03</totfact>
</mgrwt>
</event>
<event>
 9    1  0.8186049E-001  0.2741601E+03  0.7818608E-02  0.1098922E+00
         -2   -1    0    0    0  501 -0.00000000000E+00  0.00000000000E+00  0.29777080953E+02  0.29777080953E+02  0.00000000000E+00 0. -1.
          2   -1    0    0  501    0  0.00000000000E+00 -0.00000000000E+00 -0.63105362578E+03  0.63105362578E+03  0.00000000000E+00 0. -1.
         35    2    1    2    0    0  0.35527136788E-14  0.00000000000E+00 -0.60127654483E+03  0.66083070674E+03  0.27416006201E+03 0.  0.
         25    2    3    3    0    0 -0.23324162731E+02 -0.33597867693E+02 -0.20991654165E+03  0.24787526355E+03  0.12531703212E+03 0.  0.
         25    2    3    3    0    0  0.23324162731E+02  0.33597867693E+02 -0.39136000318E+03  0.41295544319E+03  0.12528652238E+03 0.  0.
          5    1    4    4  502    0 -0.48788037109E+02  0.27322274610E+02 -0.14360368992E+03  0.15417810808E+03  0.47000000000E+01 0.  1.
         -5    1    4    4    0  502  0.25463874379E+02 -0.60920142303E+02 -0.66312851738E+02  0.93697155465E+02  0.47000000000E+01 0.  1.
          5    1    5    5  503    0 -0.34731497657E+02 -0.19893966420E+02 -0.59921719221E+02  0.72213220838E+02  0.47000000000E+01 0.  1.
         -5    1    5    5    0  503  0.58055660388E+02  0.53491834113E+02 -0.33143828396E+03  0.34074222235E+03  0.47000000000E+01 0.  1.
<mgrwt>
<rscale>  0 0.27416006E+03</rscale>
<asrwt>0</asrwt>
<pdfrwt beam="1">  1        2 0.97085168E-01 0.27416006E+03</pdfrwt>
<pdfrwt beam="2">  1       -2 0.45810896E-02 0.27416006E+03</pdfrwt>
<totfact> 0.10585880E+04</totfact>
</mgrwt>
</event>
<event>
 9    1  0.8186049E-001  0.2762235E+03  0.7818608E-02  0.1097770E+00
          2   -1    0    0  501    0  0.00000000000E+00  0.00000000000E+00  0.63897783959E+03  0.63897783959E+03  0.00000000000E+00 0.  1.
         -2   -1    0    0    0  501 -0.00000000000E+00 -0.00000000000E+00 -0.29852147980E+02  0.29852147980E+02  0.00000000000E+00 0.  1.
         35    2    1    2    0    0  0.71054273576E-14 -0.71054273576E-14  0.60912569161E+03  0.66882998757E+03  0.27622354008E+03 0.  0.
         25    2    3    3    0    0  0.37199470803E+02  0.37243101842E+02  0.34743797306E+03  0.37317813474E+03  0.12561021398E+03 0.  0.
         25    2    3    3    0    0 -0.37199470803E+02 -0.37243101842E+02  0.26168771855E+03  0.29565185284E+03  0.12711690204E+03 0.  0.
          5    1    4    4  502    0  0.26101828841E+02  0.83890451057E+02  0.22833672494E+03  0.24470117123E+03  0.47000000000E+01 0.  1.
         -5    1    4    4    0  502  0.11097641962E+02 -0.46647349216E+02  0.11910124812E+03  0.12847696350E+03  0.47000000000E+01 0.  1.
          5    1    5    5  503    0 -0.67453033708E+02 -0.59479336419E+02  0.12658240819E+03  0.15534767227E+03  0.47000000000E+01 0.  1.
         -5    1    5    5    0  503  0.30253562905E+02  0.22236234577E+02  0.13510531036E+03  0.14030418057E+03  0.47000000000E+01 0.  1.
<mgrwt>
<rscale>  0 0.27622354E+03</rscale>
<asrwt>0</asrwt>
<pdfrwt beam="1">  1        2 0.98304273E-01 0.27622354E+03</pdfrwt>
<pdfrwt beam="2">  1       -2 0.45926386E-02 0.27622354E+03</pdfrwt>
<totfact> 0.10394516E+04</totfact>
</mgrwt>
</event>
<event>
 9    1  0.8186049E-001  0.2713186E+03  0.7818608E-02  0.1100527E+00
         -3   -1    0    0    0  501 -0.00000000000E+00  0.00000000000E+00  0.15878190784E+03  0.15878190784E+03  0.00000000000E+00 0. -1.
          3   -1    0    0  501    0  0.00000000000E+00 -0.00000000000E+00 -0.11590392109E+03  0.11590392109E+03  0.00000000000E+00 0. -1.
         35    2    1    2    0    0  0.00000000000E+00 -0.71054273576E-14  0.42877986752E+02  0.27468582893E+03  0.27131860030E+03 0.  0.
         25    2    3    3    0    0 -0.31920672150E+02  0.23871450492E+02  0.54365186661E+02  0.14265527828E+03  0.12572262899E+03 0.  0.
         25    2    3    3    0    0  0.31920672150E+02 -0.23871450492E+02 -0.11487199909E+02  0.13203055065E+03  0.12534486461E+03 0.  0.
          5    1    4    4  502    0  0.47681006798E+02  0.13972092396E+02  0.10109065719E+02  0.50921321516E+02  0.47000000000E+01 0.  1.
         -5    1    4    4    0  502 -0.79601678949E+02  0.98993580959E+01  0.44256120942E+02  0.91733956761E+02  0.47000000000E+01 0.  1.
          5    1    5    5  503    0 -0.13066918306E+02  0.42694858099E+02 -0.23473892862E+02  0.50662697404E+02  0.47000000000E+01 0.  1.
         -5    1    5    5    0  503  0.44987590456E+02 -0.66566308591E+02  0.11986692954E+02  0.81367853250E+02  0.47000000000E+01 0.  1.
<mgrwt>
<rscale>  0 0.27131860E+03</rscale>
<asrwt>0</asrwt>
<pdfrwt beam="1">  1        3 0.17831373E-01 0.27131860E+03</pdfrwt>
<pdfrwt beam="2">  1       -3 0.24427986E-01 0.27131860E+03</pdfrwt>
<totfact> 0.10936451E+03</totfact>
</mgrwt>
</event>
<event>
 9    1  0.8186049E-001  0.2789839E+03  0.7818608E-02  0.1096245E+00
         -1   -1    0    0    0  501 -0.00000000000E+00  0.00000000000E+00  0.29890018909E+02  0.29890018909E+02  0.00000000000E+00 0.  1.
          1   -1    0    0  501    0  0.00000000000E+00 -0.00000000000E+00 -0.65098674118E+03  0.65098674118E+03  0.00000000000E+00 0.  1.
         35    2    1    2    0    0  0.35527136788E-14 -0.71054273576E-14 -0.62109672227E+03  0.68087676009E+03  0.27898391354E+03 0.  0.
         25    2    3    3    0    0 -0.11699326238E+02  0.60087600202E+02 -0.28235591124E+03  0.31460665505E+03  0.12451944771E+03 0.  0.
         25    2    3    3    0    0  0.11699326238E+02 -0.60087600202E+02 -0.33874081104E+03  0.36627010504E+03  0.12514415229E+03 0.  0.
          5    1    4    4  502    0 -0.91012023390E+01 -0.37414951282E+02 -0.10818006574E+03  0.11492487584E+03  0.47000000000E+01 0. -1.
         -5    1    4    4    0  502 -0.25981238988E+01  0.97502551483E+02 -0.17417584549E+03  0.19968177920E+03  0.47000000000E+01 0. -1.
          5    1    5    5  503    0  0.42886582575E+02  0.14001441613E+02 -0.20666062704E+03  0.21157978188E+03  0.47000000000E+01 0.  1.
         -5    1    5    5    0  503 -0.31187256337E+02 -0.74089041815E+02 -0.13208018400E+03  0.15469032316E+03  0.47000000000E+01 0.  1.
<mgrwt>
<rscale>  0 0.27898391E+03</rscale>
<asrwt>0</asrwt>
<pdfrwt beam="1">  1        1 0.10015180E+00 0.27898391E+03</pdfrwt>
<pdfrwt beam="2">  1       -1 0.45984649E-02 0.27898391E+03</pdfrwt>
<totfact> 0.62367341E+03</totfact>
</mgrwt>
</event>
<event>
 9    1  0.8186049E-001  0.2766433E+03  0.7818608E-02  0.1097537E+00
          2   -1    0    0  501    0  0.00000000000E+00  0.00000000000E+00  0.66709495981E+03  0.66709495981E+03  0.00000000000E+00 0.  1.
         -2   -1    0    0    0  501 -0.00000000000E+00 -0.00000000000E+00 -0.28680886189E+02  0.28680886189E+02  0.00000000000E+00 0.  1.
         35    2    1    2    0    0  0.00000000000E+00 -0.35527136788E-14  0.63841407362E+03  0.69577584600E+03  0.27664326935E+03 0.  0.
         25    2    3    3    0    0 -0.30493235768E+02  0.49305989959E+00  0.19055442662E+03  0.22964158377E+03  0.12447564805E+03 0.  0.
         25    2    3    3    0    0  0.30493235768E+02 -0.49305989959E+00  0.44785964700E+03  0.46613426222E+03  0.12558983428E+03 0.  0.
          5    1    4    4  502    0  0.16966456002E+02  0.26078336426E+02  0.16814604596E+03  0.17106467500E+03  0.47000000000E+01 0.  1.
         -5    1    4    4    0  502 -0.47459691770E+02 -0.25585276526E+02  0.22408380659E+02  0.58576908774E+02  0.47000000000E+01 0.  1.
          5    1    5    5  503    0  0.59104294871E+02  0.40931864667E+02  0.18658779987E+03  0.20001458016E+03  0.47000000000E+01 0. -1.
         -5    1    5    5    0  503 -0.28611059103E+02 -0.41424924567E+02  0.26127184713E+03  0.26611968206E+03  0.47000000000E+01 0. -1.
<mgrwt>
<rscale>  0 0.27664327E+03</rscale>
<asrwt>0</asrwt>
<pdfrwt beam="1">  1        2 0.10262998E+00 0.27664327E+03</pdfrwt>
<pdfrwt beam="2">  1       -2 0.44124445E-02 0.27664327E+03</pdfrwt>
<totfact> 0.10492818E+04</totfact>
</mgrwt>
</event>
<event>
 9    1  0.8186049E-001  0.2876883E+03  0.7818608E-02  0.1091562E+00
          2   -1    0    0  501    0  0.00000000000E+00  0.00000000000E+00  0.63913046842E+03  0.63913046842E+03  0.00000000000E+00 0. -1.
         -2   -1    0    0    0  501 -0.00000000000E+00 -0.00000000000E+00 -0.32373889723E+02  0.32373889723E+02  0.00000000000E+00 0. -1.
         35    2    1    2    0    0  0.00000000000E+00 -0.17763568394E-14  0.60675657870E+03  0.67150435814E+03  0.28768829871E+03 0.  0.
         25    2    3    3    0    0  0.33137803026E+02  0.15682414953E+02  0.16045910555E+03  0.20623417664E+03  0.12426326462E+03 0.  0.
         25    2    3    3    0    0 -0.33137803026E+02 -0.15682414953E+02  0.44629747315E+03  0.46527018150E+03  0.12629669484E+03 0.  0.
          5    1    4    4  502    0  0.75662823749E+02  0.36495611395E+01  0.13537865114E+03  0.15520196964E+03  0.47000000000E+01 0.  1.
         -5    1    4    4    0  502 -0.42525020723E+02  0.12032853814E+02  0.25080454402E+02  0.51032207001E+02  0.47000000000E+01 0.  1.
          5    1    5    5  503    0  0.22691971178E+02 -0.93025717766E+01  0.36764603006E+03  0.36849308924E+03  0.47000000000E+01 0. -1.
         -5    1    5    5    0  503 -0.55829774204E+02 -0.63798431767E+01  0.78651443084E+02  0.96777092258E+02  0.47000000000E+01 0. -1.
<mgrwt>
<rscale>  0 0.28768830E+03</rscale>
<asrwt>0</asrwt>
<pdfrwt beam="1">  1        2 0.98327755E-01 0.28768830E+03</pdfrwt>
<pdfrwt beam="2">  1       -2 0.49805989E-02 0.28768830E+03</pdfrwt>
<totfact> 0.92012714E+03</totfact>
</mgrwt>
</event>
<event>
 9    1  0.8186049E-001  0.2763163E+03  0.7818608E-02  0.1097718E+00
         -1   -1    0    0    0  501 -0.00000000000E+00  0.00000000000E+00  0.24660011906E+02  0.24660011906E+02  0.00000000000E+00 0.  1.
          1   -1    0    0  501    0  0.00000000000E+00 -0.00000000000E+00 -0.77403338812E+03  0.77403338812E+03  0.00000000000E+00 0.  1.
         35    2    1    2    0    0  0.00000000000E+00  0.00000000000E+00 -0.74937337622E+03  0.79869340003E+03  0.27631628665E+03 0.  0.
         25    2    3    3    0    0 -0.13167249837E+02 -0.54522585859E+02 -0.41601116974E+03  0.43826573387E+03  0.12595821252E+03 0.  0.
         25    2    3    3    0    0  0.13167249837E+02  0.54522585859E+02 -0.33336220647E+03  0.36042766616E+03  0.12502660912E+03 0.  0.
          5    1    4    4  502    0 -0.32889513332E+02 -0.45798771044E+02 -0.41195743626E+03  0.41582480302E+03  0.47000000000E+01 0.  1.
         -5    1    4    4    0  502  0.19722263495E+02 -0.87238148154E+01 -0.40537334784E+01  0.22440930850E+02  0.47000000000E+01 0.  1.
          5    1    5    5  503    0  0.13622354716E+02 -0.32810730832E+02 -0.18302637124E+03  0.18650162245E+03  0.47000000000E+01 0. -1.
         -5    1    5    5    0  503 -0.45510487915E+00  0.87333316692E+02 -0.15033583523E+03  0.17392604371E+03  0.47000000000E+01 0. -1.
<mgrwt>
<rscale>  0 0.27631629E+03</rscale>
<asrwt>0</asrwt>
<pdfrwt beam="1">  1        1 0.11908204E+00 0.27631629E+03</pdfrwt>
<pdfrwt beam="2">  1       -1 0.37938486E-02 0.27631629E+03</pdfrwt>
<totfact> 0.64395074E+03</totfact>
</mgrwt>
</event>
<event>
 9    1  0.8186049E-001  0.2523164E+03  0.7818608E-02  0.1111850E+00
          1   -1    0    0  501    0  0.00000000000E+00  0.00000000000E+00  0.70261546178E+03  0.70261546178E+03  0.00000000000E+00 0. -1.
         -1   -1    0    0    0  501 -0.00000000000E+00 -0.00000000000E+00 -0.22652356490E+02  0.22652356490E+02  0.00000000000E+00 0. -1.
         35    2    1    2    0    0 -0.71054273576E-14  0.00000000000E+00  0.67996310529E+03  0.72526781827E+03  0.25231643558E+03 0.  0.
         25    2    3    3    0    0  0.17924849221E+02 -0.10113198371E+02  0.32119708702E+03  0.34436285605E+03  0.12245256600E+03 0.  0.
         25    2    3    3    0    0 -0.17924849221E+02  0.10113198371E+02  0.35876601828E+03  0.38090496222E+03  0.12630105848E+03 0.  0.
          5    1    4    4  502    0  0.56815836812E+02  0.32913641822E+02  0.17898775920E+03  0.19070934711E+03  0.47000000000E+01 0.  1.
         -5    1    4    4    0  502 -0.38890987591E+02 -0.43026840193E+02  0.14220932782E+03  0.15365350894E+03  0.47000000000E+01 0.  1.
          5    1    5    5  503    0 -0.26739944803E+02 -0.55360688366E+02  0.17951958726E+03  0.18981359981E+03  0.47000000000E+01 0.  1.
         -5    1    5    5    0  503  0.88150955816E+01  0.65473886737E+02  0.17924643102E+03  0.19109136241E+03  0.47000000000E+01 0.  1.
<mgrwt>
<rscale>  0 0.25231644E+03</rscale>
<asrwt>0</asrwt>
<pdfrwt beam="1">  1        1 0.10809467E+00 0.25231644E+03</pdfrwt>
<pdfrwt beam="2">  1       -1 0.34849785E-02 0.25231644E+03</pdfrwt>
<totfact> 0.84103955E+03</totfact>
</mgrwt>
</event>
<event>
 9    1  0.8186049E-001  0.2722610E+03  0.7818608E-02  0.1099993E+00
         -2   -1    0    0    0  501 -0.00000000000E+00  0.00000000000E+00  0.26553809665E+03  0.26553809665E+03  0.00000000000E+00 0.  1.
          2   -1    0    0  501    0  0.00000000000E+00 -0.00000000000E+00 -0.69788529122E+02  0.69788529122E+02  0.00000000000E+00 0.  1.
         35    2    1    2    0    0  0.00000000000E+00 -0.35527136788E-14  0.19574956753E+03  0.33532662577E+03  0.27226100118E+03 0.  0.
         25    2    3    3    0    0  0.53723346597E+02 -0.82161978163E+01  0.13313817583E+03  0.19058377340E+03  0.12507076774E+03 0.  0.
         25    2    3    3    0    0 -0.53723346597E+02  0.82161978163E+01  0.62611391695E+02  0.14474285237E+03  0.11864486110E+03 0.  0.
          5    1    4    4  502    0  0.28403735999E+02 -0.40198357906E+02  0.14042972725E+03  0.14888008092E+03  0.47000000000E+01 0. -1.
         -5    1    4    4    0  502  0.25319610598E+02  0.31982160090E+02 -0.72915514211E+01  0.41703692486E+02  0.47000000000E+01 0. -1.
          5    1    5    5  503    0  0.18505677262E+02 -0.37468012772E+02  0.35281405531E+02  0.54892437077E+02  0.47000000000E+01 0.  1.
         -5    1    5    5    0  503 -0.72229023859E+02  0.45684210588E+02  0.27329986164E+02  0.89850415294E+02  0.47000000000E+01 0.  1.
<mgrwt>
<rscale>  0 0.27226100E+03</rscale>
<asrwt>0</asrwt>
<pdfrwt beam="1">  1        2 0.10736697E-01 0.27226100E+03</pdfrwt>
<pdfrwt beam="2">  1       -2 0.40852014E-01 0.27226100E+03</pdfrwt>
<totfact> 0.33376487E+03</totfact>
</mgrwt>
</event>
<event>
 9    1  0.8186049E-001  0.2746447E+03  0.7818608E-02  0.1098650E+00
          2   -1    0    0  501    0  0.00000000000E+00  0.00000000000E+00  0.60210627443E+03  0.60210627443E+03  0.00000000000E+00 0. -1.
         -2   -1    0    0    0  501 -0.00000000000E+00 -0.00000000000E+00 -0.31319095367E+02  0.31319095367E+02  0.00000000000E+00 0. -1.
         35    2    1    2    0    0  0.00000000000E+00  0.14210854715E-13  0.57078717906E+03  0.63342536980E+03  0.27464467102E+03 0.  0.
         25    2    3    3    0    0 -0.20006612069E+02  0.48399862223E+02  0.22896865078E+03  0.26546958047E+03  0.12371193930E+03 0.  0.
         25    2    3    3    0    0  0.20006612069E+02 -0.48399862223E+02  0.34181852829E+03  0.36795578933E+03  0.12573283355E+03 0.  0.
          5    1    4    4  502    0 -0.51187381693E+02 -0.18452602210E+02  0.13696076413E+03  0.14744825358E+03  0.47000000000E+01 0. -1.
         -5    1    4    4    0  502  0.31180769624E+02  0.66852464433E+02  0.92007886649E+02  0.11802132689E+03  0.47000000000E+01 0. -1.
          5    1    5    5  503    0  0.33700392644E+02  0.32411270962E+02  0.18585715195E+03  0.19170596725E+03  0.47000000000E+01 0. -1.
         -5    1    5    5    0  503 -0.13693780575E+02 -0.80811133185E+02  0.15596137634E+03  0.17624982208E+03  0.47000000000E+01 0. -1.
<mgrwt>
<rscale>  0 0.27464467E+03</rscale>
<asrwt>0</asrwt>
<pdfrwt beam="1">  1        2 0.92631726E-01 0.27464467E+03</pdfrwt>
<pdfrwt beam="2">  1       -2 0.48183228E-02 0.27464467E+03</pdfrwt>
<totfact> 0.10360596E+04</totfact>
</mgrwt>
</event>
<event>
 9    1  0.8186049E-001  0.2756902E+03  0.7818608E-02  0.1098066E+00
         -3   -1    0    0    0  501 -0.00000000000E+00  0.00000000000E+00  0.54264319165E+03  0.54264319165E+03  0.00000000000E+00 0. -1.
          3   -1    0    0  501    0  0.00000000000E+00 -0.00000000000E+00 -0.35016138972E+02  0.35016138972E+02  0.00000000000E+00 0. -1.
         35    2    1    2    0    0  0.00000000000E+00  0.00000000000E+00  0.50762705268E+03  0.57765933062E+03  0.27569018416E+03 0.  0.
         25    2    3    3    0    0 -0.50170109710E+02 -0.26265369654E+02  0.27895011407E+03  0.31090494940E+03  0.12506722940E+03 0.  0.
         25    2    3    3    0    0  0.50170109710E+02  0.26265369654E+02  0.22867693860E+03  0.26675438122E+03  0.12513132342E+03 0.  0.
          5    1    4    4  502    0 -0.14516895301E+02  0.39006007082E+01 -0.96777727372E+01  0.18485243309E+02  0.47000000000E+01 0. -1.
         -5    1    4    4    0  502 -0.35653214410E+02 -0.30165970362E+02  0.28862788681E+03  0.29241970609E+03  0.47000000000E+01 0. -1.
          5    1    5    5  503    0  0.89864459404E+02  0.10636634684E+02  0.18222162749E+03  0.20350815853E+03  0.47000000000E+01 0.  1.
         -5    1    5    5    0  503 -0.39694349694E+02  0.15628734970E+02  0.46455311110E+02  0.63246222691E+02  0.47000000000E+01 0.  1.
<mgrwt>
<rscale>  0 0.27569018E+03</rscale>
<asrwt>0</asrwt>
<pdfrwt beam="1">  1        3 0.53870987E-02 0.27569018E+03</pdfrwt>
<pdfrwt beam="2">  1       -3 0.83483562E-01 0.27569018E+03</pdfrwt>
<totfact> 0.69780775E+02</totfact>
</mgrwt>
</event>
<event>
 9    1  0.8186049E-001  0.2712753E+03  0.7818608E-02  0.1100552E+00
         -2   -1    0    0    0  501 -0.00000000000E+00  0.00000000000E+00  0.69495890098E+02  0.69495890098E+02  0.00000000000E+00 0.  1.
          2   -1    0    0  501    0  0.00000000000E+00 -0.00000000000E+00 -0.26472898076E+03  0.26472898076E+03  0.00000000000E+00 0.  1.
         35    2    1    2    0    0  0.00000000000E+00  0.00000000000E+00 -0.19523309066E+03  0.33422487086E+03  0.27127532990E+03 0.  0.
         25    2    3    3    0    0 -0.12594098676E+02  0.50853594570E+01 -0.15238233446E+03  0.19779030916E+03  0.12536410308E+03 0.  0.
         25    2    3    3    0    0  0.12594098676E+02 -0.50853594570E+01 -0.42850756201E+02  0.13643456170E+03  0.12881665310E+03 0.  0.
          5    1    4    4  502    0 -0.19865955218E+01  0.39475065796E+02 -0.15629703234E+03  0.16128570829E+03  0.47000000000E+01 0.  1.
         -5    1    4    4    0  502 -0.10607503154E+02 -0.34389706339E+02  0.39146978769E+01  0.36504600871E+02  0.47000000000E+01 0.  1.
          5    1    5    5  503    0  0.52095005769E+01 -0.46629138876E+02  0.27263225001E+02  0.54468237772E+02  0.47000000000E+01 0.  1.
         -5    1    5    5    0  503  0.73845980990E+01  0.41543779419E+02 -0.70113981201E+02  0.81966323923E+02  0.47000000000E+01 0.  1.
<mgrwt>
<rscale>  0 0.27127533E+03</rscale>
<asrwt>0</asrwt>
<pdfrwt beam="1">  1        2 0.40727536E-01 0.27127533E+03</pdfrwt>
<pdfrwt beam="2">  1       -2 0.10691675E-01 0.27127533E+03</pdfrwt>
<totfact> 0.74041488E+03</totfact>
</mgrwt>
</event>
<event>
 9    1  0.8186049E-001  0.2722502E+03  0.7818608E-02  0.1099999E+00
          1   -1    0    0  501    0  0.00000000000E+00  0.00000000000E+00  0.17766482760E+02  0.17766482760E+02  0.00000000000E+00 0.  1.
         -1   -1    0    0    0  501 -0.00000000000E+00 -0.00000000000E+00 -0.10429772921E+04  0.10429772921E+04  0.00000000000E+00 0.  1.
         35    2    1    2    0    0 -0.71054273576E-14  0.00000000000E+00 -0.10252108094E+04  0.10607437749E+04  0.27225016495E+03 0.  0.
         25    2    3    3    0    0 -0.33427273815E+02  0.31664008025E+02 -0.60606286417E+03  0.62089680513E+03  0.12680952352E+03 0.  0.
         25    2    3    3    0    0  0.33427273815E+02 -0.31664008025E+02 -0.41914794521E+03  0.43984696977E+03  0.12514137926E+03 0.  0.
          5    1    4    4  502    0 -0.21149860578E+02 -0.92232906444E+01 -0.14241355373E+02  0.27518937037E+02  0.47000000000E+01 0. -1.
         -5    1    4    4    0  502 -0.12277413237E+02  0.40887298669E+02 -0.59182150879E+03  0.59337786809E+03  0.47000000000E+01 0. -1.
          5    1    5    5  503    0  0.44831318081E+01 -0.60270888386E+02 -0.37401039674E+03  0.37889120514E+03  0.47000000000E+01 0.  1.
         -5    1    5    5    0  503  0.28944142007E+02  0.28606880362E+02 -0.45137548471E+02  0.60955764637E+02  0.47000000000E+01 0.  1.
<mgrwt>
<rscale>  0 0.27225016E+03</rscale>
<asrwt>0</asrwt>
<pdfrwt beam="1">  1        1 0.27333038E-02 0.27225016E+03</pdfrwt>
<pdfrwt beam="2">  1       -1 0.16045812E+00 0.27225016E+03</pdfrwt>
<totfact> 0.12265716E+03</totfact>
</mgrwt>
</event>
<event>
 9    1  0.8186049E-001  0.3250524E+03  0.7818608E-02  0.1073347E+00
         -2   -1    0    0    0  501 -0.00000000000E+00  0.00000000000E+00  0.16877254749E+02  0.16877254749E+02  0.00000000000E+00 0. -1.
          2   -1    0    0  501    0  0.00000000000E+00 -0.00000000000E+00 -0.15651100966E+04  0.15651100966E+04  0.00000000000E+00 0. -1.
         35    2    1    2    0    0  0.00000000000E+00 -0.17763568394E-14 -0.15482328419E+04  0.15819873514E+04  0.32505237616E+03 0.  0.
         25    2    3    3    0    0 -0.85695386765E+02  0.80184010827E+01 -0.48891468261E+03  0.51188400346E+03  0.12481855654E+03 0.  0.
         25    2    3    3    0    0  0.85695386765E+02 -0.80184010827E+01 -0.10593181593E+04  0.10701033479E+04  0.12473258837E+03 0.  0.
          5    1    4    4  502    0 -0.30161282944E+02  0.55219856792E+01 -0.14573712212E+02  0.34273581697E+02  0.47000000000E+01 0. -1.
         -5    1    4    4    0  502 -0.55534103820E+02  0.24964154035E+01 -0.47434097040E+03  0.47761042176E+03  0.47000000000E+01 0. -1.
          5    1    5    5  503    0  0.84411164795E+02 -0.12552835360E+02 -0.10599749609E+04  0.10634151712E+04  0.47000000000E+01 0. -1.
         -5    1    5    5    0  503  0.12842219700E+01  0.45344342769E+01  0.65680165358E+00  0.66881767839E+01  0.47000000000E+01 0. -1.
<mgrwt>
<rscale>  0 0.32505238E+03</rscale>
<asrwt>0</asrwt>
<pdfrwt beam="1">  1        2 0.24078610E+00 0.32505238E+03</pdfrwt>
<pdfrwt beam="2">  1       -2 0.25965015E-02 0.32505238E+03</pdfrwt>
<totfact> 0.66304338E+03</totfact>
</mgrwt>
</event>
<event>
 9    1  0.8186049E-001  0.2702189E+03  0.7818608E-02  0.1101154E+00
         -2   -1    0    0    0  501 -0.00000000000E+00  0.00000000000E+00  0.60485676250E+01  0.60485676250E+01  0.00000000000E+00 0. -1.
          2   -1    0    0  501    0  0.00000000000E+00 -0.00000000000E+00 -0.30179985501E+04  0.30179985501E+04  0.00000000000E+00 0. -1.
         35    2    1    2    0    0 -0.71054273576E-14 -0.14210854715E-13 -0.30119499825E+04  0.30240471177E+04  0.27021893585E+03 0.  0.
         25    2    3    3    0    0  0.22532528374E+02  0.48403146578E+02 -0.16821924385E+04  0.16875502205E+04  0.12330355765E+03 0.  0.
         25    2    3    3    0    0 -0.22532528374E+02 -0.48403146578E+02 -0.13297575440E+04  0.13364968972E+04  0.12295629688E+03 0.  0.
          5    1    4    4  502    0  0.25811676106E+02  0.71970368303E+02 -0.57360208282E+03  0.57869457917E+03  0.47000000000E+01 0. -1.
         -5    1    4    4    0  502 -0.32791477319E+01 -0.23567221725E+02 -0.11085903556E+04  0.11088556414E+04  0.47000000000E+01 0. -1.
          5    1    5    5  503    0 -0.59298010630E+02  0.25294867969E+01 -0.37829852626E+03  0.38295498082E+03  0.47000000000E+01 0. -1.
         -5    1    5    5    0  503  0.36765482257E+02 -0.50932633375E+02 -0.95145901776E+03  0.95354191639E+03  0.47000000000E+01 0. -1.
<mgrwt>
<rscale>  0 0.27021894E+03</rscale>
<asrwt>0</asrwt>
<pdfrwt beam="1">  1        2 0.46430752E+00 0.27021894E+03</pdfrwt>
<pdfrwt beam="2">  1       -2 0.93054877E-03 0.27021894E+03</pdfrwt>
<totfact> 0.48137964E+03</totfact>
</mgrwt>
</event>
<event>
 9    1  0.8186049E-001  0.2720067E+03  0.7818608E-02  0.1100137E+00
         -2   -1    0    0    0  501 -0.00000000000E+00  0.00000000000E+00  0.20788269759E+02  0.20788269759E+02  0.00000000000E+00 0. -1.
          2   -1    0    0  501    0  0.00000000000E+00 -0.00000000000E+00 -0.88977613926E+03  0.88977613926E+03  0.00000000000E+00 0. -1.
         35    2    1    2    0    0  0.00000000000E+00  0.00000000000E+00 -0.86898786950E+03  0.91056440902E+03  0.27200666468E+03 0.  0.
         25    2    3    3    0    0 -0.15567447295E+02 -0.48900203609E+02 -0.53190433267E+03  0.54752543521E+03  0.11928247048E+03 0.  0.
         25    2    3    3    0    0  0.15567447295E+02  0.48900203609E+02 -0.33708353683E+03  0.36303897381E+03  0.12465316029E+03 0.  0.
          5    1    4    4  502    0 -0.10812559177E+02  0.25217351818E+02 -0.34832895824E+03  0.34943952183E+03  0.47000000000E+01 0.  1.
         -5    1    4    4    0  502 -0.47548881177E+01 -0.74117555428E+02 -0.18357537443E+03  0.19808591338E+03  0.47000000000E+01 0.  1.
          5    1    5    5  503    0  0.26089664297E+01  0.81301488048E+02 -0.30397802380E+03  0.31470854392E+03  0.47000000000E+01 0.  1.
         -5    1    5    5    0  503  0.12958480865E+02 -0.32401284439E+02 -0.33105513033E+02  0.48330429884E+02  0.47000000000E+01 0.  1.
<mgrwt>
<rscale>  0 0.27200666E+03</rscale>
<asrwt>0</asrwt>
<pdfrwt beam="1">  1        2 0.13688863E+00 0.27200666E+03</pdfrwt>
<pdfrwt beam="2">  1       -2 0.31981956E-02 0.27200666E+03</pdfrwt>
<totfact> 0.11832257E+04</totfact>
</mgrwt>
</event>
<event>
 9    1  0.8186049E-001  0.2723883E+03  0.7818608E-02  0.1099920E+00
         -1   -1    0    0    0  501 -0.00000000000E+00  0.00000000000E+00  0.23023081323E+02  0.23023081323E+02  0.00000000000E+00 0. -1.
          1   -1    0    0  501    0  0.00000000000E+00 -0.00000000000E+00 -0.80566308391E+03  0.80566308391E+03  0.00000000000E+00 0. -1.
         35    2    1    2    0    0  0.71054273576E-14  0.10658141036E-13 -0.78264000258E+03  0.82868616523E+03  0.27238830151E+03 0.  0.
         25    2    3    3    0    0 -0.46832202668E+02 -0.23641367742E+02 -0.42948563246E+03  0.45030213046E+03  0.12474746783E+03 0.  0.
         25    2    3    3    0    0  0.46832202668E+02  0.23641367742E+02 -0.35315437012E+03  0.37838403477E+03  0.12531679519E+03 0.  0.
          5    1    4    4  502    0 -0.14091319560E+02  0.50387918116E+02 -0.13508446238E+03  0.14493933060E+03  0.47000000000E+01 0.  1.
         -5    1    4    4    0  502 -0.32740883108E+02 -0.74029285857E+02 -0.29440117009E+03  0.30536279986E+03  0.47000000000E+01 0.  1.
          5    1    5    5  503    0 -0.33112258299E+02 -0.25277295001E+02 -0.11553833316E+03  0.12290874551E+03  0.47000000000E+01 0.  1.
         -5    1    5    5    0  503  0.79944460966E+02  0.48918662743E+02 -0.23761603696E+03  0.25547528926E+03  0.47000000000E+01 0.  1.
<mgrwt>
<rscale>  0 0.27238830E+03</rscale>
<asrwt>0</asrwt>
<pdfrwt beam="1">  1        1 0.12394818E+00 0.27238830E+03</pdfrwt>
<pdfrwt beam="2">  1       -1 0.35420123E-02 0.27238830E+03</pdfrwt>
<totfact> 0.67035219E+03</totfact>
</mgrwt>
</event>
<event>
 9    1  0.8186049E-001  0.2724112E+03  0.7818608E-02  0.1099907E+00
         -1   -1    0    0    0  501 -0.00000000000E+00  0.00000000000E+00  0.11668577257E+03  0.11668577257E+03  0.00000000000E+00 0. -1.
          1   -1    0    0  501    0  0.00000000000E+00 -0.00000000000E+00 -0.15899085228E+03  0.15899085228E+03  0.00000000000E+00 0. -1.
         35    2    1    2    0    0  0.00000000000E+00 -0.71054273576E-14 -0.42305079717E+02  0.27567662485E+03  0.27241123641E+03 0.  0.
         25    2    3    3    0    0 -0.35963338282E+01  0.53470889785E+02 -0.27345780644E+02  0.13894901090E+03  0.12524761970E+03 0.  0.
         25    2    3    3    0    0  0.35963338282E+01 -0.53470889785E+02 -0.14959299073E+02  0.13672761395E+03  0.12489431579E+03 0.  0.
          5    1    4    4  502    0 -0.25654241119E+02  0.88236371946E+02 -0.31613451584E+02  0.97289761757E+02  0.47000000000E+01 0.  1.
         -5    1    4    4    0  502  0.22057907291E+02 -0.34765482161E+02  0.42676709390E+01  0.41659249144E+02  0.47000000000E+01 0.  1.
          5    1    5    5  503    0  0.36901160780E+02  0.28691729020E+02 -0.21521298705E+01  0.47027998512E+02  0.47000000000E+01 0. -1.
         -5    1    5    5    0  503 -0.33304826952E+02 -0.82162618805E+02 -0.12807169202E+02  0.89699615440E+02  0.47000000000E+01 0. -1.
<mgrwt>
<rscale>  0 0.27241124E+03</rscale>
<asrwt>0</asrwt>
<pdfrwt beam="1">  1        1 0.24460131E-01 0.27241124E+03</pdfrwt>
<pdfrwt beam="2">  1       -1 0.17951657E-01 0.27241124E+03</pdfrwt>
<totfact> 0.46996139E+03</totfact>
</mgrwt>
</event>
<event>
 9    1  0.8186049E-001  0.2920128E+03  0.7818608E-02  0.1089303E+00
         -1   -1    0    0    0  501 -0.00000000000E+00  0.00000000000E+00  0.32637781885E+02  0.32637781885E+02  0.00000000000E+00 0. -1.
          1   -1    0    0  501    0  0.00000000000E+00 -0.00000000000E+00 -0.65316536824E+03  0.65316536824E+03  0.00000000000E+00 0. -1.
         35    2    1    2    0    0  0.14210854715E-13 -0.71054273576E-14 -0.62052758636E+03  0.68580315013E+03  0.29201279988E+03 0.  0.
         25    2    3    3    0    0 -0.43675226947E+02  0.48058043610E+02 -0.21481402255E+03  0.25653224052E+03  0.12428445251E+03 0.  0.
         25    2    3    3    0    0  0.43675226947E+02 -0.48058043610E+02 -0.40571356381E+03  0.42927090961E+03  0.12430976219E+03 0.  0.
          5    1    4    4  502    0  0.24642474520E+02  0.65007572123E+02 -0.10736008305E+03  0.12799028641E+03  0.47000000000E+01 0. -1.
         -5    1    4    4    0  502 -0.68317701467E+02 -0.16949528513E+02 -0.10745393950E+03  0.12854195411E+03  0.47000000000E+01 0. -1.
          5    1    5    5  503    0  0.25643386560E+01 -0.77340162913E+02 -0.15296351558E+03  0.17148761976E+03  0.47000000000E+01 0.  1.
         -5    1    5    5    0  503  0.41110888291E+02  0.29282119304E+02 -0.25275004823E+03  0.25778328985E+03  0.47000000000E+01 0.  1.
<mgrwt>
<rscale>  0 0.29201280E+03</rscale>
<asrwt>0</asrwt>
<pdfrwt beam="1">  1        1 0.10048698E+00 0.29201280E+03</pdfrwt>
<pdfrwt beam="2">  1       -1 0.50211971E-02 0.29201280E+03</pdfrwt>
<totfact> 0.54470642E+03</totfact>
</mgrwt>
</event>
<event>
 9    1  0.8186049E-001  0.2737980E+03  0.7818608E-02  0.1099125E+00
          2   -1    0    0  501    0  0.00000000000E+00  0.00000000000E+00  0.11870520483E+04  0.11870520483E+04  0.00000000000E+00 0.  1.
         -2   -1    0    0    0  501 -0.00000000000E+00 -0.00000000000E+00 -0.15788139198E+02  0.15788139198E+02  0.00000000000E+00 0.  1.
         35    2    1    2    0    0 -0.71054273576E-14 -0.14210854715E-13  0.11712639091E+04  0.12028401875E+04  0.27379804947E+03 0.  0.
         25    2    3    3    0    0 -0.39442315290E+02  0.40782634603E+02  0.52316568856E+03  0.54111520091E+03  0.12603334262E+03 0.  0.
         25    2    3    3    0    0  0.39442315290E+02 -0.40782634603E+02  0.64809822051E+03  0.66172498656E+03  0.12095344096E+03 0.  0.
          5    1    4    4  502    0 -0.61168459417E+02 -0.26891122193E+02  0.25399073256E+03  0.26267488480E+03  0.47000000000E+01 0.  1.
         -5    1    4    4    0  502  0.21726144127E+02  0.67673756796E+02  0.26917495600E+03  0.27844031611E+03  0.47000000000E+01 0.  1.
          5    1    5    5  503    0  0.30978579096E+02 -0.27170727850E+02  0.64289279992E+03  0.64422912307E+03  0.47000000000E+01 0.  1.
         -5    1    5    5    0  503  0.84637361936E+01 -0.13611906753E+02  0.52054205930E+01  0.17495863493E+02  0.47000000000E+01 0.  1.
<mgrwt>
<rscale>  0 0.27379805E+03</rscale>
<asrwt>0</asrwt>
<pdfrwt beam="1">  1        2 0.18262332E+00 0.27379805E+03</pdfrwt>
<pdfrwt beam="2">  1       -2 0.24289454E-02 0.27379805E+03</pdfrwt>
<totfact> 0.11771142E+04</totfact>
</mgrwt>
</event>
<event>
 9    1  0.8186049E-001  0.2749876E+03  0.7818608E-02  0.1098459E+00
          2   -1    0    0  501    0  0.00000000000E+00  0.00000000000E+00  0.21267646821E+04  0.21267646821E+04  0.00000000000E+00 0.  1.
         -2   -1    0    0    0  501 -0.00000000000E+00 -0.00000000000E+00 -0.88888770760E+01  0.88888770760E+01  0.00000000000E+00 0.  1.
         35    2    1    2    0    0  0.00000000000E+00 -0.71054273576E-14  0.21178758050E+04  0.21356535592E+04  0.27498763484E+03 0.  0.
         25    2    3    3    0    0  0.51525110845E+02  0.24362096191E+02  0.10018086828E+04  0.10111354939E+04  0.12460337599E+03 0.  0.
         25    2    3    3    0    0 -0.51525110845E+02 -0.24362096191E+02  0.11160671223E+04  0.11245180653E+04  0.12524659296E+03 0.  0.
          5    1    4    4  502    0  0.53695152611E+02  0.65102127784E+02  0.83823414237E+03  0.84248443540E+03  0.47000000000E+01 0. -1.
         -5    1    4    4    0  502 -0.21700417661E+01 -0.40740031592E+02  0.16357454039E+03  0.16865105846E+03  0.47000000000E+01 0. -1.
          5    1    5    5  503    0 -0.30249343640E+02 -0.22721580902E+02  0.10892912198E+04  0.10899581389E+04  0.47000000000E+01 0. -1.
         -5    1    5    5    0  503 -0.21275767204E+02 -0.16405152898E+01  0.26775902437E+02  0.34559926387E+02  0.47000000000E+01 0. -1.
<mgrwt>
<rscale>  0 0.27498763E+03</rscale>
<asrwt>0</asrwt>
<pdfrwt beam="1">  1        2 0.32719416E+00 0.27498763E+03</pdfrwt>
<pdfrwt beam="2">  1       -2 0.13675212E-02 0.27498763E+03</pdfrwt>
<totfact> 0.86020578E+03</totfact>
</mgrwt>
</event>
<event>
 9    1  0.8186049E-001  0.2821239E+03  0.7818608E-02  0.1094535E+00
         -2   -1    0    0    0  501 -0.00000000000E+00  0.00000000000E+00  0.37642684114E+02  0.37642684114E+02  0.00000000000E+00 0. -1.
          2   -1    0    0  501    0  0.00000000000E+00 -0.00000000000E+00 -0.52861450206E+03  0.52861450206E+03  0.00000000000E+00 0. -1.
         35    2    1    2    0    0  0.17763568394E-14  0.00000000000E+00 -0.49097181795E+03  0.56625718618E+03  0.28212386442E+03 0.  0.
         25    2    3    3    0    0 -0.23957132002E+01  0.32281586646E+02 -0.36058943961E+03  0.38304860946E+03  0.12511455940E+03 0.  0.
         25    2    3    3    0    0  0.23957132002E+01 -0.32281586646E+02 -0.13038237834E+03  0.18320857671E+03  0.12457117533E+03 0.  0.
          5    1    4    4  502    0 -0.51906627825E+02 -0.21126533769E+02 -0.16009517496E+03  0.16968554295E+03  0.47000000000E+01 0.  1.
         -5    1    4    4    0  502  0.49510914625E+02  0.53408120415E+02 -0.20049426465E+03  0.21336306651E+03  0.47000000000E+01 0.  1.
          5    1    5    5  503    0  0.78849028765E+01 -0.59128334794E+02 -0.14121599550E+03  0.15337007222E+03  0.47000000000E+01 0. -1.
         -5    1    5    5    0  503 -0.54891896763E+01  0.26846748148E+02  0.10833617162E+02  0.29838504490E+02  0.47000000000E+01 0. -1.
<mgrwt>
<rscale>  0 0.28212386E+03</rscale>
<asrwt>0</asrwt>
<pdfrwt beam="1">  1        2 0.81325311E-01 0.28212386E+03</pdfrwt>
<pdfrwt beam="2">  1       -2 0.57911820E-02 0.28212386E+03</pdfrwt>
<totfact> 0.90958774E+03</totfact>
</mgrwt>
</event>
<event>
 9    1  0.8186049E-001  0.2764832E+03  0.7818608E-02  0.1097625E+00
          2   -1    0    0  501    0  0.00000000000E+00  0.00000000000E+00  0.42261210859E+02  0.42261210859E+02  0.00000000000E+00 0.  1.
         -2   -1    0    0    0  501 -0.00000000000E+00 -0.00000000000E+00 -0.45220535803E+03  0.45220535803E+03  0.00000000000E+00 0.  1.
         35    2    1    2    0    0  0.00000000000E+00 -0.35527136788E-14 -0.40994414717E+03  0.49446656889E+03  0.27648324352E+03 0.  0.
         25    2    3    3    0    0  0.35888899414E+02  0.86508042018E+01 -0.12175067430E+03  0.17799670109E+03  0.12448594054E+03 0.  0.
         25    2    3    3    0    0 -0.35888899414E+02 -0.86508042018E+01 -0.28819347287E+03  0.31646986780E+03  0.12543863003E+03 0.  0.
          5    1    4    4  502    0  0.11301139629E+02  0.30825654556E+02 -0.13720471816E+03  0.14115651391E+03  0.47000000000E+01 0. -1.
         -5    1    4    4    0  502  0.24587759785E+02 -0.22174850354E+02  0.15454043861E+02  0.36840187176E+02  0.47000000000E+01 0. -1.
          5    1    5    5  503    0 -0.40144201438E+02  0.27885231640E+02 -0.34335774159E+02  0.59918097765E+02  0.47000000000E+01 0. -1.
         -5    1    5    5    0  503  0.42553020239E+01 -0.36536035842E+02 -0.25385769872E+03  0.25655177003E+03  0.47000000000E+01 0. -1.
<mgrwt>
<rscale>  0 0.27648324E+03</rscale>
<asrwt>0</asrwt>
<pdfrwt beam="1">  1        2 0.65017251E-02 0.27648324E+03</pdfrwt>
<pdfrwt beam="2">  1       -2 0.69570051E-01 0.27648324E+03</pdfrwt>
<totfact> 0.21450302E+03</totfact>
</mgrwt>
</event>
<event>
 9    1  0.8186049E-001  0.2784539E+03  0.7818608E-02  0.1096536E+00
          1   -1    0    0  501    0  0.00000000000E+00  0.00000000000E+00  0.84995498571E+03  0.84995498571E+03  0.00000000000E+00 0. -1.
         -1   -1    0    0    0  501 -0.00000000000E+00 -0.00000000000E+00 -0.22806074899E+02  0.22806074899E+02  0.00000000000E+00 0. -1.
         35    2    1    2    0    0  0.71054273576E-14  0.14210854715E-13  0.82714891081E+03  0.87276106061E+03  0.27845385301E+03 0.  0.
         25    2    3    3    0    0  0.36472983221E+02 -0.50312258860E+02  0.44042393205E+03  0.46209546608E+03  0.12528917730E+03 0.  0.
         25    2    3    3    0    0 -0.36472983221E+02  0.50312258860E+02  0.38672497876E+03  0.41066559453E+03  0.12340348228E+03 0.  0.
          5    1    4    4  502    0  0.15652478537E+02 -0.91677199668E+02  0.28228919530E+03  0.29725239916E+03  0.47000000000E+01 0.  1.
         -5    1    4    4    0  502  0.20820504685E+02  0.41364940808E+02  0.15813473675E+03  0.16484306692E+03  0.47000000000E+01 0.  1.
          5    1    5    5  503    0 -0.14383247916E+02  0.64022260866E+02  0.37671018695E+03  0.38241127423E+03  0.47000000000E+01 0.  1.
         -5    1    5    5    0  503 -0.22089735305E+02 -0.13710002005E+02  0.10014791816E+02  0.28254320306E+02  0.47000000000E+01 0.  1.
<mgrwt>
<rscale>  0 0.27845385E+03</rscale>
<asrwt>0</asrwt>
<pdfrwt beam="1">  1        1 0.13076228E+00 0.27845385E+03</pdfrwt>
<pdfrwt beam="2">  1       -1 0.35086276E-02 0.27845385E+03</pdfrwt>
<totfact> 0.62559051E+03</totfact>
</mgrwt>
</event>
<event>
 9    1  0.8186049E-001  0.2756687E+03  0.7818608E-02  0.1098078E+00
          1   -1    0    0  501    0  0.00000000000E+00  0.00000000000E+00  0.41526847723E+03  0.41526847723E+03  0.00000000000E+00 0. -1.
         -1   -1    0    0    0  501 -0.00000000000E+00 -0.00000000000E+00 -0.45749467726E+02  0.45749467726E+02  0.00000000000E+00 0. -1.
         35    2    1    2    0    0  0.71054273576E-14  0.14210854715E-13  0.36951900951E+03  0.46101794496E+03  0.27566872726E+03 0.  0.
         25    2    3    3    0    0 -0.11494457636E+02 -0.58725641789E+02  0.17671042321E+03  0.22411324460E+03  0.12417467203E+03 0.  0.
         25    2    3    3    0    0  0.11494457636E+02  0.58725641789E+02  0.19280858630E+03  0.23690470036E+03  0.12396718333E+03 0.  0.
          5    1    4    4  502    0 -0.23780228093E+00 -0.86879107755E+02  0.17242428485E+03  0.19313275206E+03  0.47000000000E+01 0.  1.
         -5    1    4    4    0  502 -0.11256655356E+02  0.28153465967E+02  0.42861383618E+01  0.30980492536E+02  0.47000000000E+01 0.  1.
          5    1    5    5  503    0  0.66878425777E+02  0.43312254018E+02  0.10631467907E+03  0.13294200302E+03  0.47000000000E+01 0.  1.
         -5    1    5    5    0  503 -0.55383968141E+02  0.15413387771E+02  0.86493907231E+02  0.10396269734E+03  0.47000000000E+01 0.  1.
<mgrwt>
<rscale>  0 0.27566873E+03</rscale>
<asrwt>0</asrwt>
<pdfrwt beam="1">  1        1 0.63887455E-01 0.27566873E+03</pdfrwt>
<pdfrwt beam="2">  1       -1 0.70383799E-02 0.27566873E+03</pdfrwt>
<totfact> 0.60136783E+03</totfact>
</mgrwt>
</event>
<event>
 9    1  0.8186049E-001  0.2800620E+03  0.7818608E-02  0.1095655E+00
          2   -1    0    0  501    0  0.00000000000E+00  0.00000000000E+00  0.27377449105E+03  0.27377449105E+03  0.00000000000E+00 0. -1.
         -2   -1    0    0    0  501 -0.00000000000E+00 -0.00000000000E+00 -0.71623468418E+02  0.71623468418E+02  0.00000000000E+00 0. -1.
         35    2    1    2    0    0  0.00000000000E+00  0.00000000000E+00  0.20215102263E+03  0.34539795947E+03  0.28006198324E+03 0.  0.
         25    2    3    3    0    0  0.25890834064E+02 -0.51125163734E+02  0.13310102722E+03  0.19169263207E+03  0.12548332196E+03 0.  0.
         25    2    3    3    0    0 -0.25890834064E+02  0.51125163734E+02  0.69049995411E+02  0.15370532739E+03  0.12479306130E+03 0.  0.
          5    1    4    4  502    0  0.31838554204E+02 -0.82485541798E+02  0.13257683183E+03  0.15942479254E+03  0.47000000000E+01 0.  1.
         -5    1    4    4    0  502 -0.59477201400E+01  0.31360378065E+02  0.52419539281E+00  0.32267839532E+02  0.47000000000E+01 0.  1.
          5    1    5    5  503    0 -0.90925691871E+01 -0.35311199564E+02  0.52332481263E+02  0.63955720809E+02  0.47000000000E+01 0. -1.
         -5    1    5    5    0  503 -0.16798264877E+02  0.86436363298E+02  0.16717514148E+02  0.89749606586E+02  0.47000000000E+01 0. -1.
<mgrwt>
<rscale>  0 0.28006198E+03</rscale>
<asrwt>0</asrwt>
<pdfrwt beam="1">  1        2 0.42119152E-01 0.28006198E+03</pdfrwt>
<pdfrwt beam="2">  1       -2 0.11018995E-01 0.28006198E+03</pdfrwt>
<totfact> 0.68128445E+03</totfact>
</mgrwt>
</event>
<event>
 9    1  0.8186049E-001  0.2627081E+03  0.7818608E-02  0.1105527E+00
          1   -1    0    0  501    0  0.00000000000E+00  0.00000000000E+00  0.15641847903E+04  0.15641847903E+04  0.00000000000E+00 0. -1.
         -1   -1    0    0    0  501 -0.00000000000E+00 -0.00000000000E+00 -0.11030594299E+02  0.11030594299E+02  0.00000000000E+00 0. -1.
         35    2    1    2    0    0  0.00000000000E+00  0.00000000000E+00  0.15531541960E+04  0.15752153846E+04  0.26270811050E+03 0.  0.
         25    2    3    3    0    0 -0.17275161510E+02  0.38339739683E+02  0.73721087555E+03  0.74860944513E+03  0.12315786394E+03 0.  0.
         25    2    3    3    0    0  0.17275161510E+02 -0.38339739683E+02  0.81594332049E+03  0.82660593951E+03  0.12548111470E+03 0.  0.
          5    1    4    4  502    0 -0.70103632527E+02  0.26476893598E+02  0.38854275390E+03  0.39573110415E+03  0.47000000000E+01 0.  1.
         -5    1    4    4    0  502  0.52828471017E+02  0.11862846085E+02  0.34866812166E+03  0.35287834097E+03  0.47000000000E+01 0.  1.
          5    1    5    5  503    0 -0.16382978579E+02  0.36744240176E+02  0.14271525369E+03  0.14835186150E+03  0.47000000000E+01 0. -1.
         -5    1    5    5    0  503  0.33658140089E+02 -0.75083979858E+02  0.67322806679E+03  0.67825407802E+03  0.47000000000E+01 0. -1.
<mgrwt>
<rscale>  0 0.26270811E+03</rscale>
<asrwt>0</asrwt>
<pdfrwt beam="1">  1        1 0.24064364E+00 0.26270811E+03</pdfrwt>
<pdfrwt beam="2">  1       -1 0.16970157E-02 0.26270811E+03</pdfrwt>
<totfact> 0.56546684E+03</totfact>
</mgrwt>
</event>
<event>
 9    1  0.8186049E-001  0.2754536E+03  0.7818608E-02  0.1098198E+00
          2   -1    0    0  501    0  0.00000000000E+00  0.00000000000E+00  0.55089646472E+03  0.55089646472E+03  0.00000000000E+00 0. -1.
         -2   -1    0    0    0  501 -0.00000000000E+00 -0.00000000000E+00 -0.34432377046E+02  0.34432377046E+02  0.00000000000E+00 0. -1.
         35    2    1    2    0    0  0.71054273576E-14 -0.35527136788E-14  0.51646408768E+03  0.58532884177E+03  0.27545362431E+03 0.  0.
         25    2    3    3    0    0 -0.42909259538E+02  0.29985882202E+02  0.31476421856E+03  0.34226953038E+03  0.12382067863E+03 0.  0.
         25    2    3    3    0    0  0.42909259538E+02 -0.29985882202E+02  0.20169986911E+03  0.24305931138E+03  0.12511847971E+03 0.  0.
          5    1    4    4  502    0 -0.66369925003E+02 -0.22248990396E+01  0.79889371412E+02  0.10399191692E+03  0.47000000000E+01 0. -1.
         -5    1    4    4    0  502  0.23460665466E+02  0.32210781242E+02  0.23487484715E+03  0.23827761346E+03  0.47000000000E+01 0. -1.
          5    1    5    5  503    0  0.23872253400E+02  0.14004097477E+02 -0.69520631742E+01  0.28920933783E+02  0.47000000000E+01 0.  1.
         -5    1    5    5    0  503  0.19037006138E+02 -0.43989979679E+02  0.20865193228E+03  0.21413837760E+03  0.47000000000E+01 0.  1.
<mgrwt>
<rscale>  0 0.27545362E+03</rscale>
<asrwt>0</asrwt>
<pdfrwt beam="1">  1        2 0.84753295E-01 0.27545362E+03</pdfrwt>
<pdfrwt beam="2">  1       -2 0.52972892E-02 0.27545362E+03</pdfrwt>
<totfact> 0.99371885E+03</totfact>
</mgrwt>
</event>
<event>
 9    1  0.8186049E-001  0.2991211E+03  0.7818608E-02  0.1085681E+00
         -1   -1    0    0    0  501 -0.00000000000E+00  0.00000000000E+00  0.31800712974E+02  0.31800712974E+02  0.00000000000E+00 0. -1.
          1   -1    0    0  501    0  0.00000000000E+00 -0.00000000000E+00 -0.70339150960E+03  0.70339150960E+03  0.00000000000E+00 0. -1.
         35    2    1    2    0    0  0.71054273576E-14  0.53290705182E-14 -0.67159079663E+03  0.73519222258E+03  0.29912105580E+03 0.  0.
         25    2    3    3    0    0  0.50569390136E+02 -0.14031556459E+02 -0.48986705329E+03  0.50833653041E+03  0.12522839316E+03 0.  0.
         25    2    3    3    0    0 -0.50569390136E+02  0.14031556459E+02 -0.18172374334E+03  0.22685569217E+03  0.12524311710E+03 0.  0.
          5    1    4    4  502    0  0.21380960227E+02  0.14734070319E+01 -0.52360626323E+01  0.22557099557E+02  0.47000000000E+01 0.  1.
         -5    1    4    4    0  502  0.29188429908E+02 -0.15504963491E+02 -0.48463099066E+03  0.48577943085E+03  0.47000000000E+01 0.  1.
          5    1    5    5  503    0 -0.30695372927E+02 -0.55351551906E+02 -0.84642159395E+02  0.10579407056E+03  0.47000000000E+01 0.  1.
         -5    1    5    5    0  503 -0.19874017209E+02  0.69383108366E+02 -0.97081583944E+02  0.12106162161E+03  0.47000000000E+01 0.  1.
<mgrwt>
<rscale>  0 0.29912106E+03</rscale>
<asrwt>0</asrwt>
<pdfrwt beam="1">  1        1 0.10821408E+00 0.29912106E+03</pdfrwt>
<pdfrwt beam="2">  1       -1 0.48924173E-02 0.29912106E+03</pdfrwt>
<totfact> 0.50903690E+03</totfact>
</mgrwt>
</event>
<event>
 9    1  0.8186049E-001  0.2737728E+03  0.7818608E-02  0.1099140E+00
         -1   -1    0    0    0  501 -0.00000000000E+00  0.00000000000E+00  0.48956021766E+02  0.48956021766E+02  0.00000000000E+00 0. -1.
          1   -1    0    0  501    0  0.00000000000E+00 -0.00000000000E+00 -0.38274934490E+03  0.38274934490E+03  0.00000000000E+00 0. -1.
         35    2    1    2    0    0  0.00000000000E+00  0.35527136788E-14 -0.33379332313E+03  0.43170536666E+03  0.27377279090E+03 0.  0.
         25    2    3    3    0    0  0.25477359196E+02 -0.25699391967E+02 -0.21929489128E+03  0.25464943205E+03  0.12428406705E+03 0.  0.
         25    2    3    3    0    0 -0.25477359196E+02  0.25699391967E+02 -0.11449843185E+03  0.17705593461E+03  0.13011286833E+03 0.  0.
          5    1    4    4  502    0  0.19125191912E+02 -0.22116968888E+02 -0.23491886611E+03  0.23677815975E+03  0.47000000000E+01 0. -1.
         -5    1    4    4    0  502  0.63521672845E+01 -0.35824230790E+01  0.15623974829E+02  0.17871272305E+02  0.47000000000E+01 0. -1.
          5    1    5    5  503    0 -0.19339249566E+02  0.52516153660E+02  0.30462728929E+01  0.56243424039E+02  0.47000000000E+01 0. -1.
         -5    1    5    5    0  503 -0.61381096301E+01 -0.26816761694E+02 -0.11754470474E+03  0.12081251057E+03  0.47000000000E+01 0. -1.
<mgrwt>
<rscale>  0 0.27377279E+03</rscale>
<asrwt>0</asrwt>
<pdfrwt beam="1">  1        1 0.58884515E-01 0.27377279E+03</pdfrwt>
<pdfrwt beam="2">  1       -1 0.75316957E-02 0.27377279E+03</pdfrwt>
<totfact> 0.60217106E+03</totfact>
</mgrwt>
</event>
<event>
 9    1  0.8186049E-001  0.2692850E+03  0.7818608E-02  0.1101690E+00
         -1   -1    0    0    0  501 -0.00000000000E+00  0.00000000000E+00  0.12431943719E+03  0.12431943719E+03  0.00000000000E+00 0. -1.
          1   -1    0    0  501    0  0.00000000000E+00 -0.00000000000E+00 -0.14582277772E+03  0.14582277772E+03  0.00000000000E+00 0. -1.
         35    2    1    2    0    0 -0.17763568394E-14  0.71054273576E-14 -0.21503340531E+02  0.27014221491E+03  0.26928502116E+03 0.  0.
         25    2    3    3    0    0  0.22302333641E+00 -0.14585482869E+02 -0.60023980502E+02  0.13861594939E+03  0.12409156757E+03 0.  0.
         25    2    3    3    0    0 -0.22302333641E+00  0.14585482869E+02  0.38520639971E+02  0.13152626552E+03  0.12491009874E+03 0.  0.
          5    1    4    4  502    0 -0.15927401227E+02 -0.64343026083E+02 -0.54234768056E+02  0.85774163834E+02  0.47000000000E+01 0.  1.
         -5    1    4    4    0  502  0.16150424564E+02  0.49757543214E+02 -0.57892124458E+01  0.52841785559E+02  0.47000000000E+01 0.  1.
          5    1    5    5  503    0 -0.20802098014E+02 -0.42503749905E+02  0.50636401591E+02  0.69465323751E+02  0.47000000000E+01 0. -1.
         -5    1    5    5    0  503  0.20579074678E+02  0.57089232774E+02 -0.12115761620E+02  0.62060941767E+02  0.47000000000E+01 0. -1.
<mgrwt>
<rscale>  0 0.26928502E+03</rscale>
<asrwt>0</asrwt>
<pdfrwt beam="1">  1        1 0.22434274E-01 0.26928502E+03</pdfrwt>
<pdfrwt beam="2">  1       -1 0.19126067E-01 0.26928502E+03</pdfrwt>
<totfact> 0.47361157E+03</totfact>
</mgrwt>
</event>
<event>
 9    1  0.8186049E-001  0.2616071E+03  0.7818608E-02  0.1106181E+00
          1   -1    0    0  501    0  0.00000000000E+00  0.00000000000E+00  0.30451365005E+02  0.30451365005E+02  0.00000000000E+00 0. -1.
         -1   -1    0    0    0  501 -0.00000000000E+00 -0.00000000000E+00 -0.56186534102E+03  0.56186534102E+03  0.00000000000E+00 0. -1.
         35    2    1    2    0    0 -0.71054273576E-14  0.17763568394E-14 -0.53141397601E+03  0.59231670602E+03  0.26160708387E+03 0.  0.
         25    2    3    3    0    0 -0.36943195856E+02  0.80125618965E-01 -0.29234285963E+03  0.32015251605E+03  0.12517379844E+03 0.  0.
         25    2    3    3    0    0  0.36943195856E+02 -0.80125618965E-01 -0.23907111639E+03  0.27216418997E+03  0.12471383834E+03 0.  0.
          5    1    4    4  502    0 -0.12774568549E+02 -0.38660949282E+02 -0.26186386161E+03  0.26505212811E+03  0.47000000000E+01 0.  1.
         -5    1    4    4    0  502 -0.24168627308E+02  0.38741074901E+02 -0.30478998021E+02  0.55100387937E+02  0.47000000000E+01 0.  1.
          5    1    5    5  503    0 -0.22211170981E+01  0.12947736932E+02 -0.22899359908E+03  0.22941825488E+03  0.47000000000E+01 0. -1.
         -5    1    5    5    0  503  0.39164312955E+02 -0.13027862551E+02 -0.10077517302E+02  0.42745935091E+02  0.47000000000E+01 0. -1.
<mgrwt>
<rscale>  0 0.26160708E+03</rscale>
<asrwt>0</asrwt>
<pdfrwt beam="1">  1        1 0.46848256E-02 0.26160708E+03</pdfrwt>
<pdfrwt beam="2">  1       -1 0.86440817E-01 0.26160708E+03</pdfrwt>
<totfact> 0.25165157E+03</totfact>
</mgrwt>
</event>
<event>
 9    1  0.8186049E-001  0.2762360E+03  0.7818608E-02  0.1097763E+00
         -1   -1    0    0    0  501 -0.00000000000E+00  0.00000000000E+00  0.30392338052E+02  0.30392338052E+02  0.00000000000E+00 0. -1.
          1   -1    0    0  501    0  0.00000000000E+00 -0.00000000000E+00 -0.62767754140E+03  0.62767754140E+03  0.00000000000E+00 0. -1.
         35    2    1    2    0    0  0.00000000000E+00 -0.26645352591E-14 -0.59728520335E+03  0.65806987946E+03  0.27623604418E+03 0.  0.
         25    2    3    3    0    0  0.54940132063E+02  0.30166934617E+01 -0.24529297404E+03  0.28065165074E+03  0.12477654988E+03 0.  0.
         25    2    3    3    0    0 -0.54940132063E+02 -0.30166934617E+01 -0.35199222932E+03  0.37741822872E+03  0.12457315650E+03 0.  0.
          5    1    4    4  502    0  0.52417833379E+02  0.59609533160E+02 -0.14459921991E+03  0.16502105956E+03  0.47000000000E+01 0.  1.
         -5    1    4    4    0  502  0.25222986838E+01 -0.56592839699E+02 -0.10069375412E+03  0.11563059117E+03  0.47000000000E+01 0.  1.
          5    1    5    5  503    0 -0.80550626516E+02  0.76675734903E+01 -0.33472584333E+03  0.34439900596E+03  0.47000000000E+01 0. -1.
         -5    1    5    5    0  503  0.25610494454E+02 -0.10684266952E+02 -0.17266385988E+02  0.33019222758E+02  0.47000000000E+01 0. -1.
<mgrwt>
<rscale>  0 0.27623604E+03</rscale>
<asrwt>0</asrwt>
<pdfrwt beam="1">  1        1 0.96565765E-01 0.27623604E+03</pdfrwt>
<pdfrwt beam="2">  1       -1 0.46757448E-02 0.27623604E+03</pdfrwt>
<totfact> 0.64038236E+03</totfact>
</mgrwt>
</event>
<event>
 9    1  0.8186049E-001  0.2866887E+03  0.7818608E-02  0.1092091E+00
         -2   -1    0    0    0  501 -0.00000000000E+00  0.00000000000E+00  0.72126718236E+03  0.72126718236E+03  0.00000000000E+00 0.  1.
          2   -1    0    0  501    0  0.00000000000E+00 -0.00000000000E+00 -0.28488197029E+02  0.28488197029E+02  0.00000000000E+00 0.  1.
         35    2    1    2    0    0  0.35527136788E-14  0.00000000000E+00  0.69277898533E+03  0.74975537939E+03  0.28668869250E+03 0.  0.
         25    2    3    3    0    0 -0.32240557228E+01  0.68491032795E+02  0.33502619333E+03  0.36448595204E+03  0.12611916156E+03 0.  0.
         25    2    3    3    0    0  0.32240557228E+01 -0.68491032795E+02  0.35775279200E+03  0.38526942735E+03  0.12547531770E+03 0.  0.
          5    1    4    4  502    0 -0.26634825445E+02  0.26887237634E+02  0.15154767689E+02  0.41037719939E+02  0.47000000000E+01 0.  1.
         -5    1    4    4    0  502  0.23410769723E+02  0.41603795160E+02  0.31987142564E+03  0.32344823210E+03  0.47000000000E+01 0.  1.
          5    1    5    5  503    0 -0.29819492989E+02 -0.92771756504E+02  0.20486890332E+03  0.22691222646E+03  0.47000000000E+01 0.  1.
         -5    1    5    5    0  503  0.33043548712E+02  0.24280723709E+02  0.15288388868E+03  0.15835720089E+03  0.47000000000E+01 0.  1.
<mgrwt>
<rscale>  0 0.28668869E+03</rscale>
<asrwt>0</asrwt>
<pdfrwt beam="1">  1        2 0.43828001E-02 0.28668869E+03</pdfrwt>
<pdfrwt beam="2">  1       -2 0.11096417E+00 0.28668869E+03</pdfrwt>
<totfact> 0.12583375E+03</totfact>
</mgrwt>
</event>
<event>
 9    1  0.8186049E-001  0.2739589E+03  0.7818608E-02  0.1099035E+00
         -1   -1    0    0    0  501 -0.00000000000E+00  0.00000000000E+00  0.40141485628E+02  0.40141485628E+02  0.00000000000E+00 0. -1.
          1   -1    0    0  501    0  0.00000000000E+00 -0.00000000000E+00 -0.46743078604E+03  0.46743078604E+03  0.00000000000E+00 0. -1.
         35    2    1    2    0    0 -0.53290705182E-14  0.71054273576E-14 -0.42728930041E+03  0.50757227167E+03  0.27395887414E+03 0.  0.
         25    2    3    3    0    0  0.24865523685E+01 -0.49512196947E+02 -0.17479293643E+03  0.22065157043E+03  0.12520744514E+03 0.  0.
         25    2    3    3    0    0 -0.24865523685E+01  0.49512196947E+02 -0.25249636399E+03  0.28692070124E+03  0.12693082520E+03 0.  0.
          5    1    4    4  502    0  0.32570936674E+02  0.29662417413E+02 -0.92025665941E+02  0.10213490155E+03  0.47000000000E+01 0. -1.
         -5    1    4    4    0  502 -0.30084384306E+02 -0.79174614360E+02 -0.82767270486E+02  0.11851666888E+03  0.47000000000E+01 0. -1.
          5    1    5    5  503    0  0.10651042803E+02  0.15586460509E+02 -0.24934479278E+03  0.25010257526E+03  0.47000000000E+01 0. -1.
         -5    1    5    5    0  503 -0.13137595172E+02  0.33925736438E+02 -0.31515712028E+01  0.36818125981E+02  0.47000000000E+01 0. -1.
<mgrwt>
<rscale>  0 0.27395887E+03</rscale>
<asrwt>0</asrwt>
<pdfrwt beam="1">  1        1 0.71912426E-01 0.27395887E+03</pdfrwt>
<pdfrwt beam="2">  1       -1 0.61756134E-02 0.27395887E+03</pdfrwt>
<totfact> 0.62844613E+03</totfact>
</mgrwt>
</event>
<event>
 9    1  0.8186049E-001  0.2838028E+03  0.7818608E-02  0.1093630E+00
          1   -1    0    0  501    0  0.00000000000E+00  0.00000000000E+00  0.11696615399E+04  0.11696615399E+04  0.00000000000E+00 0. -1.
         -1   -1    0    0    0  501 -0.00000000000E+00 -0.00000000000E+00 -0.17215240712E+02  0.17215240712E+02  0.00000000000E+00 0. -1.
         35    2    1    2    0    0  0.00000000000E+00  0.71054273576E-14  0.11524462992E+04  0.11868767806E+04  0.28380278336E+03 0.  0.
         25    2    3    3    0    0 -0.45474444562E+02 -0.12969508469E+02  0.75245819558E+03  0.76422731011E+03  0.12495564078E+03 0.  0.
         25    2    3    3    0    0  0.45474444562E+02  0.12969508469E+02  0.39998810361E+03  0.42264947050E+03  0.12808574717E+03 0.  0.
          5    1    4    4  502    0 -0.52950077434E+02 -0.63181855480E+02  0.47545315440E+03  0.48256963186E+03  0.47000000000E+01 0. -1.
         -5    1    4    4    0  502  0.74756328713E+01  0.50212347011E+02  0.27700504118E+03  0.28165767825E+03  0.47000000000E+01 0. -1.
          5    1    5    5  503    0  0.65347981959E+02 -0.93566809262E+01  0.38148463285E+03  0.38718280091E+03  0.47000000000E+01 0. -1.
         -5    1    5    5    0  503 -0.19873537397E+02  0.22326189395E+02  0.18503470761E+02  0.35466669589E+02  0.47000000000E+01 0. -1.
<mgrwt>
<rscale>  0 0.28380278E+03</rscale>
<asrwt>0</asrwt>
<pdfrwt beam="1">  1        1 0.17994787E+00 0.28380278E+03</pdfrwt>
<pdfrwt beam="2">  1       -1 0.26484995E-02 0.28380278E+03</pdfrwt>
<totfact> 0.54585850E+03</totfact>
</mgrwt>
</event>
<event>
 9    1  0.8186049E-001  0.2724748E+03  0.7818608E-02  0.1099871E+00
         -2   -1    0    0    0  501 -0.00000000000E+00  0.00000000000E+00  0.64518912286E+03  0.64518912286E+03  0.00000000000E+00 0.  1.
          2   -1    0    0  501    0  0.00000000000E+00 -0.00000000000E+00 -0.28767741001E+02  0.28767741001E+02  0.00000000000E+00 0.  1.
         35    2    1    2    0    0  0.00000000000E+00  0.00000000000E+00  0.61642138186E+03  0.67395686386E+03  0.27247483247E+03 0.  0.
         25    2    3    3    0    0 -0.38496929957E+02  0.20481746221E+02  0.27063269367E+03  0.30379733389E+03  0.13095514364E+03 0.  0.
         25    2    3    3    0    0  0.38496929957E+02 -0.20481746221E+02  0.34578868818E+03  0.37015952997E+03  0.12468658793E+03 0.  0.
          5    1    4    4  502    0 -0.79359124061E+02  0.13501819534E+02  0.23657974263E+03  0.24994446248E+03  0.47000000000E+01 0.  1.
         -5    1    4    4    0  502  0.40862194105E+02  0.69799266866E+01  0.34052951041E+02  0.53852871402E+02  0.47000000000E+01 0.  1.
          5    1    5    5  503    0  0.32694688812E+02  0.18900891082E+02  0.22119279504E+02  0.44017483867E+02  0.47000000000E+01 0.  1.
         -5    1    5    5    0  503  0.58022411448E+01 -0.39382637302E+02  0.32366940868E+03  0.32614204611E+03  0.47000000000E+01 0.  1.
<mgrwt>
<rscale>  0 0.27247483E+03</rscale>
<asrwt>0</asrwt>
<pdfrwt beam="1">  1        2 0.44258068E-02 0.27247483E+03</pdfrwt>
<pdfrwt beam="2">  1       -2 0.99259854E-01 0.27247483E+03</pdfrwt>
<totfact> 0.16124196E+03</totfact>
</mgrwt>
</event>
<event>
 9    1  0.8186049E-001  0.2714756E+03  0.7818608E-02  0.1100438E+00
          2   -1    0    0  501    0  0.00000000000E+00  0.00000000000E+00  0.51474214383E+03  0.51474214383E+03  0.00000000000E+00 0. -1.
         -2   -1    0    0    0  501 -0.00000000000E+00 -0.00000000000E+00 -0.35794127910E+02  0.35794127910E+02  0.00000000000E+00 0. -1.
         35    2    1    2    0    0 -0.71054273576E-14  0.71054273576E-14  0.47894801592E+03  0.55053627174E+03  0.27147556897E+03 0.  0.
         25    2    3    3    0    0 -0.25587459201E+02  0.40340446938E+02  0.30056751464E+03  0.32780373949E+03  0.12178830419E+03 0.  0.
         25    2    3    3    0    0  0.25587459201E+02 -0.40340446938E+02  0.17838050128E+03  0.22273253225E+03  0.12453155407E+03 0.  0.
          5    1    4    4  502    0  0.44313905728E+01  0.59903793531E+01 -0.10310321778E+02  0.13561511803E+02  0.47000000000E+01 0.  1.
         -5    1    4    4    0  502 -0.30018849774E+02  0.34350067585E+02  0.31087783642E+03  0.31424222769E+03  0.47000000000E+01 0.  1.
          5    1    5    5  503    0  0.31082696781E+02 -0.16168640501E+01  0.18055624394E+03  0.18327955563E+03  0.47000000000E+01 0. -1.
         -5    1    5    5    0  503 -0.54952375801E+01 -0.38723582888E+02 -0.21757426589E+01  0.39452976616E+02  0.47000000000E+01 0. -1.
<mgrwt>
<rscale>  0 0.27147557E+03</rscale>
<asrwt>0</asrwt>
<pdfrwt beam="1">  1        2 0.79191094E-01 0.27147557E+03</pdfrwt>
<pdfrwt beam="2">  1       -2 0.55067893E-02 0.27147557E+03</pdfrwt>
<totfact> 0.10108347E+04</totfact>
</mgrwt>
</event>
<event>
 9    1  0.8186049E-001  0.2765723E+03  0.7818608E-02  0.1097576E+00
         -1   -1    0    0    0  501 -0.00000000000E+00  0.00000000000E+00  0.97830654724E+01  0.97830654724E+01  0.00000000000E+00 0.  1.
          1   -1    0    0  501    0  0.00000000000E+00 -0.00000000000E+00 -0.19547101270E+04  0.19547101270E+04  0.00000000000E+00 0.  1.
         35    2    1    2    0    0  0.00000000000E+00  0.17763568394E-14 -0.19449270616E+04  0.19644931925E+04  0.27657228460E+03 0.  0.
         25    2    3    3    0    0  0.49798104659E+02  0.66855316882E+01 -0.11954983262E+04  0.12030329403E+04  0.12468945316E+03 0.  0.
         25    2    3    3    0    0 -0.49798104659E+02 -0.66855316882E+01 -0.74942873534E+03  0.76146025227E+03  0.12511490269E+03 0.  0.
          5    1    4    4  502    0  0.66529064176E+02 -0.37671330242E+02 -0.49237700608E+03  0.49829956013E+03  0.47000000000E+01 0. -1.
         -5    1    4    4    0  502 -0.16730959517E+02  0.44356861931E+02 -0.70312132015E+03  0.70473338012E+03  0.47000000000E+01 0. -1.
          5    1    5    5  503    0  0.36073675434E+02 -0.12528719051E+02 -0.38762984926E+03  0.38953468254E+03  0.47000000000E+01 0. -1.
         -5    1    5    5    0  503 -0.85871780093E+02  0.58431873632E+01 -0.36179888608E+03  0.37192556973E+03  0.47000000000E+01 0. -1.
<mgrwt>
<rscale>  0 0.27657228E+03</rscale>
<asrwt>0</asrwt>
<pdfrwt beam="1">  1        1 0.30072469E+00 0.27657228E+03</pdfrwt>
<pdfrwt beam="2">  1       -1 0.15050867E-02 0.27657228E+03</pdfrwt>
<totfact> 0.37494848E+03</totfact>
</mgrwt>
</event>
<event>
 9    1  0.8186049E-001  0.2751855E+03  0.7818608E-02  0.1098348E+00
          4   -1    0    0  501    0  0.00000000000E+00  0.00000000000E+00  0.12693687734E+03  0.12693687734E+03  0.00000000000E+00 0.  1.
         -4   -1    0    0    0  501 -0.00000000000E+00 -0.00000000000E+00 -0.14914319169E+03  0.14914319169E+03  0.00000000000E+00 0.  1.
         35    2    1    2    0    0  0.35527136788E-14  0.00000000000E+00 -0.22206314348E+02  0.27608006903E+03  0.27518554490E+03 0.  0.
         25    2    3    3    0    0 -0.24064392185E+02 -0.31592862290E+02 -0.49832234336E+02  0.14354152727E+03  0.12862237190E+03 0.  0.
         25    2    3    3    0    0  0.24064392185E+02  0.31592862290E+02  0.27625919988E+02  0.13253854176E+03  0.12339396127E+03 0.  0.
          5    1    4    4  502    0 -0.70841010607E+01  0.32743773432E+02  0.25911167843E+02  0.42612413748E+02  0.47000000000E+01 0.  1.
         -5    1    4    4    0  502 -0.16980291124E+02 -0.64336635722E+02 -0.75743402179E+02  0.10092911352E+03  0.47000000000E+01 0.  1.
          5    1    5    5  503    0 -0.48074145711E+02  0.29298472274E+02  0.48166411320E+01  0.56699329760E+02  0.47000000000E+01 0.  1.
         -5    1    5    5    0  503  0.72138537896E+02  0.22943900159E+01  0.22809278856E+02  0.75839212003E+02  0.47000000000E+01 0.  1.
<mgrwt>
<rscale>  0 0.27518554E+03</rscale>
<asrwt>0</asrwt>
<pdfrwt beam="1">  1        4 0.19528751E-01 0.27518554E+03</pdfrwt>
<pdfrwt beam="2">  1       -4 0.22945106E-01 0.27518554E+03</pdfrwt>
<totfact> 0.77574556E+02</totfact>
</mgrwt>
</event>
<event>
 9    1  0.8186049E-001  0.2706896E+03  0.7818608E-02  0.1100886E+00
         -2   -1    0    0    0  501 -0.00000000000E+00  0.00000000000E+00  0.43527459367E+02  0.43527459367E+02  0.00000000000E+00 0.  1.
          2   -1    0    0  501    0  0.00000000000E+00 -0.00000000000E+00 -0.42084270511E+03  0.42084270511E+03  0.00000000000E+00 0.  1.
         35    2    1    2    0    0  0.00000000000E+00  0.35527136788E-14 -0.37731524574E+03  0.46437016447E+03  0.27068959157E+03 0.  0.
         25    2    3    3    0    0 -0.39123897177E+02 -0.26341646052E+02 -0.15788389616E+03  0.20735198137E+03  0.12586881211E+03 0.  0.
         25    2    3    3    0    0  0.39123897177E+02  0.26341646052E+02 -0.21943134958E+03  0.25701818311E+03  0.12523445062E+03 0.  0.
          5    1    4    4  502    0 -0.13319707962E+02 -0.38733033126E+02  0.53381632139E+01  0.41572207805E+02  0.47000000000E+01 0. -1.
         -5    1    4    4    0  502 -0.25804189214E+02  0.12391387074E+02 -0.16322205938E+03  0.16577977356E+03  0.47000000000E+01 0. -1.
          5    1    5    5  503    0  0.27211229507E+02  0.17539091209E+02 -0.23366563737E+03  0.23594446554E+03  0.47000000000E+01 0.  1.
         -5    1    5    5    0  503  0.11912667670E+02  0.88025548429E+01  0.14234287798E+02  0.21073717562E+02  0.47000000000E+01 0.  1.
<mgrwt>
<rscale>  0 0.27068959E+03</rscale>
<asrwt>0</asrwt>
<pdfrwt beam="1">  1        2 0.64745036E-01 0.27068959E+03</pdfrwt>
<pdfrwt beam="2">  1       -2 0.66965318E-02 0.27068959E+03</pdfrwt>
<totfact> 0.93544488E+03</totfact>
</mgrwt>
</event>
<event>
 9    1  0.8186049E-001  0.2662757E+03  0.7818608E-02  0.1103430E+00
          1   -1    0    0  501    0  0.00000000000E+00  0.00000000000E+00  0.11234393862E+04  0.11234393862E+04  0.00000000000E+00 0.  1.
         -1   -1    0    0    0  501 -0.00000000000E+00 -0.00000000000E+00 -0.15778055853E+02  0.15778055853E+02  0.00000000000E+00 0.  1.
         35    2    1    2    0    0 -0.35527136788E-14  0.35527136788E-14  0.11076613304E+04  0.11392174421E+04  0.26627571713E+03 0.  0.
         25    2    3    3    0    0 -0.16248709653E+02  0.61484228691E+01  0.37469140272E+03  0.39558252864E+03  0.12565852943E+03 0.  0.
         25    2    3    3    0    0  0.16248709653E+02 -0.61484228691E+01  0.73296992764E+03  0.74363491343E+03  0.12428252484E+03 0.  0.
          5    1    4    4  502    0 -0.27445244076E+02 -0.55643218366E+02  0.15436670153E+03  0.16643490533E+03  0.47000000000E+01 0.  1.
         -5    1    4    4    0  502  0.11196534423E+02  0.61791641235E+02  0.22032470119E+03  0.22914762330E+03  0.47000000000E+01 0.  1.
          5    1    5    5  503    0  0.50319589964E+02 -0.26192226944E+02  0.17035631245E+03  0.17961474627E+03  0.47000000000E+01 0.  1.
         -5    1    5    5    0  503 -0.34070880311E+02  0.20043804075E+02  0.56261361519E+03  0.56402016716E+03  0.47000000000E+01 0.  1.
<mgrwt>
<rscale>  0 0.26627572E+03</rscale>
<asrwt>0</asrwt>
<pdfrwt beam="1">  1        1 0.17283677E+00 0.26627572E+03</pdfrwt>
<pdfrwt beam="2">  1       -1 0.24273941E-02 0.26627572E+03</pdfrwt>
<totfact> 0.66845025E+03</totfact>
</mgrwt>
</event>
<event>
 9    1  0.8186049E-001  0.2742254E+03  0.7818608E-02  0.1098885E+00
         -2   -1    0    0    0  501 -0.00000000000E+00  0.00000000000E+00  0.68385017885E+02  0.68385017885E+02  0.00000000000E+00 0. -1.
          2   -1    0    0  501    0  0.00000000000E+00 -0.00000000000E+00 -0.27491235630E+03  0.27491235630E+03  0.00000000000E+00 0. -1.
         35    2    1    2    0    0 -0.71054273576E-14  0.00000000000E+00 -0.20652733842E+03  0.34329737419E+03  0.27422535552E+03 0.  0.
         25    2    3    3    0    0 -0.41630651086E+02 -0.33234891418E+02 -0.12539363961E+03  0.18487106715E+03  0.12496430490E+03 0.  0.
         25    2    3    3    0    0  0.41630651086E+02  0.33234891418E+02 -0.81133698812E+02  0.15842630704E+03  0.12521401104E+03 0.  0.
          5    1    4    4  502    0 -0.68068787329E+02 -0.31127111110E+02 -0.13649251459E+03  0.15573873440E+03  0.47000000000E+01 0.  1.
         -5    1    4    4    0  502  0.26438136244E+02 -0.21077803080E+01  0.11098874978E+02  0.29132332753E+02  0.47000000000E+01 0.  1.
          5    1    5    5  503    0 -0.21180038853E+02  0.28013857725E+02  0.18855354631E+02  0.40137073495E+02  0.47000000000E+01 0. -1.
         -5    1    5    5    0  503  0.62810689939E+02  0.52210336936E+01 -0.99989053443E+02  0.11828923354E+03  0.47000000000E+01 0. -1.
<mgrwt>
<rscale>  0 0.27422536E+03</rscale>
<asrwt>0</asrwt>
<pdfrwt beam="1">  1        2 0.42294209E-01 0.27422536E+03</pdfrwt>
<pdfrwt beam="2">  1       -2 0.10520772E-01 0.27422536E+03</pdfrwt>
<totfact> 0.72977443E+03</totfact>
</mgrwt>
</event>
<event>
 9    1  0.8186049E-001  0.2822327E+03  0.7818608E-02  0.1094476E+00
          1   -1    0    0  501    0  0.00000000000E+00  0.00000000000E+00  0.29100545399E+03  0.29100545399E+03  0.00000000000E+00 0.  1.
         -1   -1    0    0    0  501 -0.00000000000E+00 -0.00000000000E+00 -0.68431126075E+02  0.68431126075E+02  0.00000000000E+00 0.  1.
         35    2    1    2    0    0 -0.35527136788E-14  0.00000000000E+00  0.22257432792E+03  0.35943658007E+03  0.28223274729E+03 0.  0.
         25    2    3    3    0    0  0.17249582341E+02 -0.61900071340E+02  0.11458587691E+03  0.18176481801E+03  0.12561591840E+03 0.  0.
         25    2    3    3    0    0 -0.17249582341E+02  0.61900071340E+02  0.10798845100E+03  0.17767176205E+03  0.12560486678E+03 0.  0.
          5    1    4    4  502    0 -0.63665781043E+01 -0.66760726049E+02  0.27729590939E+01  0.67285267046E+02  0.47000000000E+01 0.  1.
         -5    1    4    4    0  502  0.23616160445E+02  0.48606547083E+01  0.11181291782E+03  0.11447955097E+03  0.47000000000E+01 0.  1.
          5    1    5    5  503    0 -0.65535059855E+02  0.48532305662E+02  0.34651218099E+02  0.88730072009E+02  0.47000000000E+01 0.  1.
         -5    1    5    5    0  503  0.48285477513E+02  0.13367765678E+02  0.73337232902E+02  0.88941690043E+02  0.47000000000E+01 0.  1.
<mgrwt>
<rscale>  0 0.28223275E+03</rscale>
<asrwt>0</asrwt>
<pdfrwt beam="1">  1        1 0.44770069E-01 0.28223275E+03</pdfrwt>
<pdfrwt beam="2">  1       -1 0.10527866E-01 0.28223275E+03</pdfrwt>
<totfact> 0.50965019E+03</totfact>
</mgrwt>
</event>
<event>
 9    1  0.8186049E-001  0.2732600E+03  0.7818608E-02  0.1099428E+00
         -4   -1    0    0    0  501 -0.00000000000E+00  0.00000000000E+00  0.55202612261E+02  0.55202612261E+02  0.00000000000E+00 0.  1.
          4   -1    0    0  501    0  0.00000000000E+00 -0.00000000000E+00 -0.33816801790E+03  0.33816801790E+03  0.00000000000E+00 0.  1.
         35    2    1    2    0    0  0.00000000000E+00  0.71054273576E-14 -0.28296540564E+03  0.39337063016E+03  0.27326000784E+03 0.  0.
         25    2    3    3    0    0 -0.31382157927E+02  0.25310277285E+02 -0.88950427041E+02  0.15960012611E+03  0.12623221384E+03 0.  0.
         25    2    3    3    0    0  0.31382157927E+02 -0.25310277285E+02 -0.19401497860E+03  0.23377050405E+03  0.12402171855E+03 0.  0.
          5    1    4    4  502    0 -0.41618647145E+02 -0.37652378863E+02 -0.75578496206E+02  0.94255039722E+02  0.47000000000E+01 0.  1.
         -5    1    4    4    0  502  0.10236489218E+02  0.62962656149E+02 -0.13371930836E+02  0.65345086388E+02  0.47000000000E+01 0.  1.
          5    1    5    5  503    0  0.23050159152E+02 -0.65010869103E+02 -0.53434459942E+02  0.87378798617E+02  0.47000000000E+01 0.  1.
         -5    1    5    5    0  503  0.83319987753E+01  0.39700591817E+02 -0.14058051865E+03  0.14639170543E+03  0.47000000000E+01 0.  1.
<mgrwt>
<rscale>  0 0.27326001E+03</rscale>
<asrwt>0</asrwt>
<pdfrwt beam="1">  1        4 0.52025849E-01 0.27326001E+03</pdfrwt>
<pdfrwt beam="2">  1       -4 0.84927095E-02 0.27326001E+03</pdfrwt>
<totfact> 0.66890818E+02</totfact>
</mgrwt>
</event>
<event>
 9    1  0.8186049E-001  0.2721341E+03  0.7818608E-02  0.1100064E+00
         -2   -1    0    0    0  501 -0.00000000000E+00  0.00000000000E+00  0.45188302556E+02  0.45188302556E+02  0.00000000000E+00 0.  1.
          2   -1    0    0  501    0  0.00000000000E+00 -0.00000000000E+00 -0.40971313826E+03  0.40971313826E+03  0.00000000000E+00 0.  1.
         35    2    1    2    0    0  0.71054273576E-14  0.22204460493E-14 -0.36452483571E+03  0.45490144082E+03  0.27213409381E+03 0.  0.
         25    2    3    3    0    0  0.46199216149E+02  0.15776051493E+01 -0.23086422627E+03  0.26695632417E+03  0.12581944060E+03 0.  0.
         25    2    3    3    0    0 -0.46199216149E+02 -0.15776051493E+01 -0.13366060944E+03  0.18794511665E+03  0.12377944880E+03 0.  0.
          5    1    4    4  502    0  0.71223356559E+02  0.44426494710E+02 -0.13931853027E+03  0.16272130416E+03  0.47000000000E+01 0. -1.
         -5    1    4    4    0  502 -0.25024140410E+02 -0.42848889560E+02 -0.91545695997E+02  0.10423502001E+03  0.47000000000E+01 0. -1.
          5    1    5    5  503    0 -0.12630334029E+01 -0.50302813367E+01  0.23428262720E+02  0.24451430997E+02  0.47000000000E+01 0.  1.
         -5    1    5    5    0  503 -0.44936182746E+02  0.34526761874E+01 -0.15708887216E+03  0.16349368565E+03  0.47000000000E+01 0.  1.
<mgrwt>
<rscale>  0 0.27213409E+03</rscale>
<asrwt>0</asrwt>
<pdfrwt beam="1">  1        2 0.63032794E-01 0.27213409E+03</pdfrwt>
<pdfrwt beam="2">  1       -2 0.69520462E-02 0.27213409E+03</pdfrwt>
<totfact> 0.90921199E+03</totfact>
</mgrwt>
</event>
<event>
 9    1  0.8186049E-001  0.2765645E+03  0.7818608E-02  0.1097580E+00
         -2   -1    0    0    0  501 -0.00000000000E+00  0.00000000000E+00  0.82410085551E+03  0.82410085551E+03  0.00000000000E+00 0. -1.
          2   -1    0    0  501    0  0.00000000000E+00 -0.00000000000E+00 -0.23203449798E+02  0.23203449798E+02  0.00000000000E+00 0. -1.
         35    2    1    2    0    0  0.00000000000E+00  0.71054273576E-14  0.80089740572E+03  0.84730430531E+03  0.27656451565E+03 0.  0.
         25    2    3    3    0    0  0.45002626373E+02 -0.36669430174E+02  0.36663755621E+03  0.39159522020E+03  0.12471501662E+03 0.  0.
         25    2    3    3    0    0 -0.45002626373E+02  0.36669430174E+02  0.43425984950E+03  0.45570908511E+03  0.12537651243E+03 0.  0.
          5    1    4    4  502    0 -0.69477826848E+01 -0.55466943089E+02  0.69433518911E+02  0.89263413604E+02  0.47000000000E+01 0.  1.
         -5    1    4    4    0  502  0.51950409058E+02  0.18797512914E+02  0.29720403730E+03  0.30233180660E+03  0.47000000000E+01 0.  1.
          5    1    5    5  503    0 -0.87637027984E+02  0.17987456416E+02  0.31829949075E+03  0.33066667972E+03  0.47000000000E+01 0. -1.
         -5    1    5    5    0  503  0.42634401612E+02  0.18681973759E+02  0.11596035875E+03  0.12504240539E+03  0.47000000000E+01 0. -1.
<mgrwt>
<rscale>  0 0.27656452E+03</rscale>
<asrwt>0</asrwt>
<pdfrwt beam="1">  1        2 0.35697621E-02 0.27656452E+03</pdfrwt>
<pdfrwt beam="2">  1       -2 0.12678472E+00 0.27656452E+03</pdfrwt>
<totfact> 0.11995706E+03</totfact>
</mgrwt>
</event>
<event>
 9    1  0.8186049E-001  0.2725792E+03  0.7818608E-02  0.1099812E+00
         -2   -1    0    0    0  501 -0.00000000000E+00  0.00000000000E+00  0.10473031347E+02  0.10473031347E+02  0.00000000000E+00 0. -1.
          2   -1    0    0  501    0  0.00000000000E+00 -0.00000000000E+00 -0.17735891038E+04  0.17735891038E+04  0.00000000000E+00 0. -1.
         35    2    1    2    0    0  0.00000000000E+00  0.00000000000E+00 -0.17631160724E+04  0.17840621351E+04  0.27257919421E+03 0.  0.
         25    2    3    3    0    0  0.16030722847E+02 -0.44463568399E+02 -0.71627276806E+03  0.72872647198E+03  0.12554520981E+03 0.  0.
         25    2    3    3    0    0 -0.16030722847E+02  0.44463568399E+02 -0.10468433044E+04  0.10553356631E+04  0.12497385732E+03 0.  0.
          5    1    4    4  502    0  0.27486733003E+02  0.65356020390E+01 -0.34076007499E+02  0.44514030061E+02  0.47000000000E+01 0. -1.
         -5    1    4    4    0  502 -0.11456010155E+02 -0.50999170438E+02 -0.68219676056E+03  0.68421244192E+03  0.47000000000E+01 0. -1.
          5    1    5    5  503    0 -0.45535471577E+02  0.66187323821E+02 -0.91137847465E+03  0.91492461714E+03  0.47000000000E+01 0.  1.
         -5    1    5    5    0  503  0.29504748730E+02 -0.21723755421E+02 -0.13546482971E+03  0.14041104599E+03  0.47000000000E+01 0.  1.
<mgrwt>
<rscale>  0 0.27257919E+03</rscale>
<asrwt>0</asrwt>
<pdfrwt beam="1">  1        2 0.27285958E+00 0.27257919E+03</pdfrwt>
<pdfrwt beam="2">  1       -2 0.16112373E-02 0.27257919E+03</pdfrwt>
<totfact> 0.10378918E+04</totfact>
</mgrwt>
</event>
<event>
 9    1  0.8186049E-001  0.2732405E+03  0.7818608E-02  0.1099439E+00
         -4   -1    0    0    0  501 -0.00000000000E+00  0.00000000000E+00  0.37595048914E+02  0.37595048914E+02  0.00000000000E+00 0. -1.
          4   -1    0    0  501    0  0.00000000000E+00 -0.00000000000E+00 -0.49647752020E+03  0.49647752020E+03  0.00000000000E+00 0. -1.
         35    2    1    2    0    0  0.00000000000E+00  0.00000000000E+00 -0.45888247129E+03  0.53407256912E+03  0.27324052889E+03 0.  0.
         25    2    3    3    0    0  0.17581742259E+02  0.36528718374E+02 -0.30393273417E+03  0.33109157404E+03  0.12491220345E+03 0.  0.
         25    2    3    3    0    0 -0.17581742259E+02 -0.36528718374E+02 -0.15494973712E+03  0.20298099508E+03  0.12469321715E+03 0.  0.
          5    1    4    4  502    0  0.19123907166E+02 -0.17345563779E+02 -0.42743083434E+01  0.26588571228E+02  0.47000000000E+01 0.  1.
         -5    1    4    4    0  502 -0.15421649072E+01  0.53874282154E+02 -0.29965842583E+03  0.30450300281E+03  0.47000000000E+01 0.  1.
          5    1    5    5  503    0 -0.33061956042E+02 -0.77744377506E+02 -0.11862881997E+03  0.14571262162E+03  0.47000000000E+01 0.  1.
         -5    1    5    5    0  503  0.15480213784E+02  0.41215659132E+02 -0.36320917146E+02  0.57268373460E+02  0.47000000000E+01 0.  1.
<mgrwt>
<rscale>  0 0.27324053E+03</rscale>
<asrwt>0</asrwt>
<pdfrwt beam="1">  1        4 0.76381154E-01 0.27324053E+03</pdfrwt>
<pdfrwt beam="2">  1       -4 0.57838539E-02 0.27324053E+03</pdfrwt>
<totfact> 0.55543530E+02</totfact>
</mgrwt>
</event>
<event>
 9    1  0.8186049E-001  0.2812573E+03  0.7818608E-02  0.1095004E+00
          2   -1    0    0  501    0  0.00000000000E+00  0.00000000000E+00  0.47664212386E+02  0.47664212386E+02  0.00000000000E+00 0.  1.
         -2   -1    0    0    0  501 -0.00000000000E+00 -0.00000000000E+00 -0.41491110275E+03  0.41491110275E+03  0.00000000000E+00 0.  1.
         35    2    1    2    0    0 -0.71054273576E-14 -0.35527136788E-14 -0.36724689037E+03  0.46257531514E+03  0.28125725536E+03 0.  0.
         25    2    3    3    0    0 -0.43777993656E+02 -0.16303508180E+02 -0.25622602015E+03  0.28890605045E+03  0.12503045821E+03 0.  0.
         25    2    3    3    0    0  0.43777993656E+02  0.16303508180E+02 -0.11102087022E+03  0.17366926469E+03  0.12511220071E+03 0.  0.
          5    1    4    4  502    0 -0.33876117149E+02  0.14290154412E+02 -0.25360861173E+03  0.25630298041E+03  0.47000000000E+01 0.  1.
         -5    1    4    4    0  502 -0.99018765071E+01 -0.30593662591E+02 -0.26174084204E+01  0.32603070039E+02  0.47000000000E+01 0.  1.
          5    1    5    5  503    0 -0.35591469248E+02 -0.23899542952E+02 -0.48055352378E+02  0.64570486515E+02  0.47000000000E+01 0.  1.
         -5    1    5    5    0  503  0.79369462904E+02  0.40203051132E+02 -0.62965517841E+02  0.10909877817E+03  0.47000000000E+01 0.  1.
<mgrwt>
<rscale>  0 0.28125726E+03</rscale>
<asrwt>0</asrwt>
<pdfrwt beam="1">  1        2 0.73329557E-02 0.28125726E+03</pdfrwt>
<pdfrwt beam="2">  1       -2 0.63832478E-01 0.28125726E+03</pdfrwt>
<totfact> 0.22054318E+03</totfact>
</mgrwt>
</event>
<event>
 9    1  0.8186049E-001  0.2771064E+03  0.7818608E-02  0.1097280E+00
          2   -1    0    0  501    0  0.00000000000E+00  0.00000000000E+00  0.12900848063E+04  0.12900848063E+04  0.00000000000E+00 0. -1.
         -2   -1    0    0    0  501 -0.00000000000E+00 -0.00000000000E+00 -0.14880406800E+02  0.14880406800E+02  0.00000000000E+00 0. -1.
         35    2    1    2    0    0 -0.71054273576E-14  0.71054273576E-14  0.12752043995E+04  0.13049652131E+04  0.27710638191E+03 0.  0.
         25    2    3    3    0    0  0.45154537876E+02 -0.27625980076E+02  0.77954551500E+03  0.79109315772E+03  0.12383475755E+03 0.  0.
         25    2    3    3    0    0 -0.45154537876E+02  0.27625980076E+02  0.49565888447E+03  0.51387205535E+03  0.12483842535E+03 0.  0.
          5    1    4    4  502    0  0.47535913115E+02 -0.73288617888E+02  0.55951859878E+03  0.56631619872E+03  0.47000000000E+01 0.  1.
         -5    1    4    4    0  502 -0.23813752391E+01  0.45662637811E+02  0.22002691621E+03  0.22477695900E+03  0.47000000000E+01 0.  1.
          5    1    5    5  503    0 -0.11456659363E+01  0.23726048609E+02  0.10020900997E+02  0.26205846482E+02  0.47000000000E+01 0.  1.
         -5    1    5    5    0  503 -0.44008871940E+02  0.38999314676E+01  0.48563798348E+03  0.48766620887E+03  0.47000000000E+01 0.  1.
<mgrwt>
<rscale>  0 0.27710638E+03</rscale>
<asrwt>0</asrwt>
<pdfrwt beam="1">  1        2 0.19847450E+00 0.27710638E+03</pdfrwt>
<pdfrwt beam="2">  1       -2 0.22892944E-02 0.27710638E+03</pdfrwt>
<totfact> 0.11246232E+04</totfact>
</mgrwt>
</event>
<event>
 9    1  0.8186049E-001  0.2744892E+03  0.7818608E-02  0.1098737E+00
         -2   -1    0    0    0  501 -0.00000000000E+00  0.00000000000E+00  0.26012921925E+02  0.26012921925E+02  0.00000000000E+00 0.  1.
          2   -1    0    0  501    0  0.00000000000E+00 -0.00000000000E+00 -0.72410451951E+03  0.72410451951E+03  0.00000000000E+00 0.  1.
         35    2    1    2    0    0  0.00000000000E+00  0.00000000000E+00 -0.69809159759E+03  0.75011744144E+03  0.27448915703E+03 0.  0.
         25    2    3    3    0    0  0.11090558919E+02  0.55183395713E+02 -0.37547497873E+03  0.39961303139E+03  0.12466317639E+03 0.  0.
         25    2    3    3    0    0 -0.11090558919E+02 -0.55183395713E+02 -0.32261661886E+03  0.35050441005E+03  0.12491457496E+03 0.  0.
          5    1    4    4  502    0 -0.42437582199E+02  0.61642214469E+02 -0.27998484318E+03  0.28985222683E+03  0.47000000000E+01 0. -1.
         -5    1    4    4    0  502  0.53528141117E+02 -0.64588187565E+01 -0.95490135550E+02  0.10976080456E+03  0.47000000000E+01 0. -1.
          5    1    5    5  503    0  0.16673808873E+02 -0.85609676914E+02 -0.26839440363E+03  0.28224931990E+03  0.47000000000E+01 0.  1.
         -5    1    5    5    0  503 -0.27764367791E+02  0.30426281202E+02 -0.54222215234E+02  0.68255090150E+02  0.47000000000E+01 0.  1.
<mgrwt>
<rscale>  0 0.27448916E+03</rscale>
<asrwt>0</asrwt>
<pdfrwt beam="1">  1        2 0.11140068E+00 0.27448916E+03</pdfrwt>
<pdfrwt beam="2">  1       -2 0.40019885E-02 0.27448916E+03</pdfrwt>
<totfact> 0.11004290E+04</totfact>
</mgrwt>
</event>
<event>
 9    1  0.8186049E-001  0.2796739E+03  0.7818608E-02  0.1095867E+00
          1   -1    0    0  501    0  0.00000000000E+00  0.00000000000E+00  0.24281307022E+03  0.24281307022E+03  0.00000000000E+00 0.  1.
         -1   -1    0    0    0  501 -0.00000000000E+00 -0.00000000000E+00 -0.80532646680E+02  0.80532646680E+02  0.00000000000E+00 0.  1.
         35    2    1    2    0    0  0.00000000000E+00  0.71054273576E-14  0.16228042354E+03  0.32334571690E+03  0.27967394725E+03 0.  0.
         25    2    3    3    0    0  0.32724216792E+02 -0.50561594285E+02  0.10463226495E+03  0.17375233292E+03  0.12495844567E+03 0.  0.
         25    2    3    3    0    0 -0.32724216792E+02  0.50561594285E+02  0.57648158586E+02  0.14959338398E+03  0.12420757288E+03 0.  0.
          5    1    4    4  502    0  0.51115079533E+02 -0.85052351061E+02  0.75581952914E+02  0.12482537956E+03  0.47000000000E+01 0. -1.
         -5    1    4    4    0  502 -0.18390862741E+02  0.34490756776E+02  0.29050312035E+02  0.48926953356E+02  0.47000000000E+01 0. -1.
          5    1    5    5  503    0  0.15244825300E+02  0.70701846056E+02  0.93029645516E+00  0.72485248055E+02  0.47000000000E+01 0.  1.
         -5    1    5    5    0  503 -0.47969042092E+02 -0.20140251771E+02  0.56717862131E+02  0.77108135921E+02  0.47000000000E+01 0.  1.
<mgrwt>
<rscale>  0 0.27967395E+03</rscale>
<asrwt>0</asrwt>
<pdfrwt beam="1">  1        1 0.37355857E-01 0.27967395E+03</pdfrwt>
<pdfrwt beam="2">  1       -1 0.12389638E-01 0.27967395E+03</pdfrwt>
<totfact> 0.49626062E+03</totfact>
</mgrwt>
</event>
<event>
 9    1  0.8186049E-001  0.2764130E+03  0.7818608E-02  0.1097664E+00
         -2   -1    0    0    0  501 -0.00000000000E+00  0.00000000000E+00  0.14170212003E+03  0.14170212003E+03  0.00000000000E+00 0. -1.
          2   -1    0    0  501    0  0.00000000000E+00 -0.00000000000E+00 -0.13479714629E+03  0.13479714629E+03  0.00000000000E+00 0. -1.
         35    2    1    2    0    0 -0.71054273576E-14  0.71054273576E-14  0.69049737354E+01  0.27649926632E+03  0.27641303445E+03 0.  0.
         25    2    3    3    0    0  0.56788760376E+02  0.12399159208E+02  0.10780947333E+02  0.13763890721E+03  0.12429616848E+03 0.  0.
         25    2    3    3    0    0 -0.56788760376E+02 -0.12399159208E+02 -0.38759735971E+01  0.13886035910E+03  0.12604948911E+03 0.  0.
          5    1    4    4  502    0  0.21676757957E+02  0.50795448973E+02  0.48139544759E+02  0.73413658413E+02  0.47000000000E+01 0. -1.
         -5    1    4    4    0  502  0.35112002419E+02 -0.38396289765E+02 -0.37358597427E+02  0.64225248799E+02  0.47000000000E+01 0. -1.
          5    1    5    5  503    0 -0.73295142084E+02 -0.47665136793E+02 -0.29056488527E+02  0.92252439774E+02  0.47000000000E+01 0. -1.
         -5    1    5    5    0  503  0.16506381708E+02  0.35265977585E+02  0.25180514930E+02  0.46607919330E+02  0.47000000000E+01 0. -1.
<mgrwt>
<rscale>  0 0.27641303E+03</rscale>
<asrwt>0</asrwt>
<pdfrwt beam="1">  1        2 0.20738023E-01 0.27641303E+03</pdfrwt>
<pdfrwt beam="2">  1       -2 0.21800326E-01 0.27641303E+03</pdfrwt>
<totfact> 0.47886759E+03</totfact>
</mgrwt>
</event>
<event>
 9    1  0.8186049E-001  0.2725151E+03  0.7818608E-02  0.1099849E+00
          1   -1    0    0  501    0  0.00000000000E+00  0.00000000000E+00  0.84426554340E+03  0.84426554340E+03  0.00000000000E+00 0.  1.
         -1   -1    0    0    0  501 -0.00000000000E+00 -0.00000000000E+00 -0.21990861581E+02  0.21990861581E+02  0.00000000000E+00 0.  1.
         35    2    1    2    0    0 -0.35527136788E-14  0.00000000000E+00  0.82227468182E+03  0.86625640498E+03  0.27251514969E+03 0.  0.
         25    2    3    3    0    0 -0.75891146765E-01 -0.26284963602E+02  0.26215956560E+03  0.29159479175E+03  0.12493590224E+03 0.  0.
         25    2    3    3    0    0  0.75891146765E-01  0.26284963602E+02  0.56011511622E+03  0.57466161323E+03  0.12576216138E+03 0.  0.
          5    1    4    4  502    0  0.53300310526E+02 -0.45522208092E+02  0.13203673487E+03  0.14956264202E+03  0.47000000000E+01 0. -1.
         -5    1    4    4    0  502 -0.53376201672E+02  0.19237244490E+02  0.13012283073E+03  0.14203214973E+03  0.47000000000E+01 0. -1.
          5    1    5    5  503    0 -0.24126899219E+02 -0.39894055986E+01  0.51241564934E+03  0.51302038002E+03  0.47000000000E+01 0.  1.
         -5    1    5    5    0  503  0.24202790366E+02  0.30274369200E+02  0.47699466880E+02  0.61641233218E+02  0.47000000000E+01 0.  1.
<mgrwt>
<rscale>  0 0.27251515E+03</rscale>
<asrwt>0</asrwt>
<pdfrwt beam="1">  1        1 0.12988698E+00 0.27251515E+03</pdfrwt>
<pdfrwt beam="2">  1       -1 0.33832101E-02 0.27251515E+03</pdfrwt>
<totfact> 0.66693777E+03</totfact>
</mgrwt>
</event>
<event>
 9    1  0.8186049E-001  0.2746407E+03  0.7818608E-02  0.1098653E+00
         -1   -1    0    0    0  501 -0.00000000000E+00  0.00000000000E+00  0.25278665205E+02  0.25278665205E+02  0.00000000000E+00 0.  1.
          1   -1    0    0  501    0  0.00000000000E+00 -0.00000000000E+00 -0.74596038926E+03  0.74596038926E+03  0.00000000000E+00 0.  1.
         35    2    1    2    0    0 -0.71054273576E-14  0.00000000000E+00 -0.72068172405E+03  0.77123905446E+03  0.27464073213E+03 0.  0.
         25    2    3    3    0    0  0.40838023885E+02  0.38270623514E+02 -0.35603149464E+03  0.38175542235E+03  0.12588245508E+03 0.  0.
         25    2    3    3    0    0 -0.40838023885E+02 -0.38270623514E+02 -0.36465022941E+03  0.38948363211E+03  0.12488124381E+03 0.  0.
          5    1    4    4  502    0  0.32724556902E+02  0.15173034553E+02 -0.35494439781E+03  0.35680349373E+03  0.47000000000E+01 0.  1.
         -5    1    4    4    0  502  0.81134669822E+01  0.23097588961E+02 -0.10870968318E+01  0.24951928619E+02  0.47000000000E+01 0.  1.
          5    1    5    5  503    0  0.26311614732E+02 -0.34950281277E+02 -0.45497345434E+02  0.63292350823E+02  0.47000000000E+01 0. -1.
         -5    1    5    5    0  503 -0.67149638617E+02 -0.33203422363E+01 -0.31915288398E+03  0.32619128129E+03  0.47000000000E+01 0. -1.
<mgrwt>
<rscale>  0 0.27464073E+03</rscale>
<asrwt>0</asrwt>
<pdfrwt beam="1">  1        1 0.11476312E+00 0.27464073E+03</pdfrwt>
<pdfrwt beam="2">  1       -1 0.38890260E-02 0.27464073E+03</pdfrwt>
<totfact> 0.65608809E+03</totfact>
</mgrwt>
</event>
<event>
 9    1  0.8186049E-001  0.2791063E+03  0.7818608E-02  0.1096178E+00
         -1   -1    0    0    0  501 -0.00000000000E+00  0.00000000000E+00  0.97000367920E+01  0.97000367920E+01  0.00000000000E+00 0. -1.
          1   -1    0    0  501    0  0.00000000000E+00 -0.00000000000E+00 -0.20077323772E+04  0.20077323772E+04  0.00000000000E+00 0. -1.
         35    2    1    2    0    0  0.00000000000E+00  0.00000000000E+00 -0.19980323404E+04  0.20174324140E+04  0.27910627314E+03 0.  0.
         25    2    3    3    0    0  0.37090810134E+02 -0.29476356014E+02 -0.13206044346E+04  0.13274018400E+04  0.12551887648E+03 0.  0.
         25    2    3    3    0    0 -0.37090810134E+02  0.29476356014E+02 -0.67742790576E+03  0.69003057396E+03  0.12242974203E+03 0.  0.
          5    1    4    4  502    0 -0.41130721209E+02 -0.72478997271E+01 -0.72975017441E+03  0.73095942113E+03  0.47000000000E+01 0. -1.
         -5    1    4    4    0  502  0.78221531343E+02 -0.22228456287E+02 -0.59085426020E+03  0.59644241888E+03  0.47000000000E+01 0. -1.
          5    1    5    5  503    0  0.28431711634E+02 -0.28494529055E+02 -0.15013175644E+03  0.15550541696E+03  0.47000000000E+01 0. -1.
         -5    1    5    5    0  503 -0.65522521768E+02  0.57970885069E+02 -0.52729614932E+03  0.53452515700E+03  0.47000000000E+01 0. -1.
<mgrwt>
<rscale>  0 0.27910627E+03</rscale>
<asrwt>0</asrwt>
<pdfrwt beam="1">  1        1 0.30888180E+00 0.27910627E+03</pdfrwt>
<pdfrwt beam="2">  1       -1 0.14923138E-02 0.27910627E+03</pdfrwt>
<totfact> 0.35067904E+03</totfact>
</mgrwt>
</event>
<event>
 9    1  0.8186049E-001  0.2799286E+03  0.7818608E-02  0.1095728E+00
         -2   -1    0    0    0  501 -0.00000000000E+00  0.00000000000E+00  0.11685735170E+02  0.11685735170E+02  0.00000000000E+00 0.  1.
          2   -1    0    0  501    0  0.00000000000E+00 -0.00000000000E+00 -0.16764030775E+04  0.16764030775E+04  0.00000000000E+00 0.  1.
         35    2    1    2    0    0  0.00000000000E+00  0.00000000000E+00 -0.16647173423E+04  0.16880888127E+04  0.27992857948E+03 0.  0.
         25    2    3    3    0    0  0.11826917377E+02 -0.41893764456E+02 -0.10823300117E+04  0.10903575069E+04  0.12468470278E+03 0.  0.
         25    2    3    3    0    0 -0.11826917377E+02  0.41893764456E+02 -0.58238733066E+03  0.59773130582E+03  0.12732928795E+03 0.  0.
          5    1    4    4  502    0  0.11426254866E+02  0.28132166545E+02 -0.75324984590E+03  0.75387624875E+03  0.47000000000E+01 0. -1.
         -5    1    4    4    0  502  0.40066251001E+00 -0.70025931001E+02 -0.32908016579E+03  0.33648125811E+03  0.47000000000E+01 0. -1.
          5    1    5    5  503    0  0.54247589918E+02  0.28397482494E+02 -0.36321684953E+03  0.36837180648E+03  0.47000000000E+01 0.  1.
         -5    1    5    5    0  503 -0.66074507294E+02  0.13496281961E+02 -0.21917048112E+03  0.22935949934E+03  0.47000000000E+01 0.  1.
<mgrwt>
<rscale>  0 0.27992858E+03</rscale>
<asrwt>0</asrwt>
<pdfrwt beam="1">  1        2 0.25790817E+00 0.27992858E+03</pdfrwt>
<pdfrwt beam="2">  1       -2 0.17978054E-02 0.27992858E+03</pdfrwt>
<totfact> 0.99471308E+03</totfact>
</mgrwt>
</event>
<event>
 9    1  0.8186049E-001  0.2792322E+03  0.7818608E-02  0.1096109E+00
         -2   -1    0    0    0  501 -0.00000000000E+00  0.00000000000E+00  0.29763480152E+02  0.29763480152E+02  0.00000000000E+00 0. -1.
          2   -1    0    0  501    0  0.00000000000E+00 -0.00000000000E+00 -0.65491840426E+03  0.65491840426E+03  0.00000000000E+00 0. -1.
         35    2    1    2    0    0  0.00000000000E+00  0.14210854715E-13 -0.62515492411E+03  0.68468188442E+03  0.27923216811E+03 0.  0.
         25    2    3    3    0    0 -0.80844569477E+00  0.39789521346E+02 -0.24116186807E+03  0.27859125964E+03  0.13367940659E+03 0.  0.
         25    2    3    3    0    0  0.80844569477E+00 -0.39789521346E+02 -0.38399305604E+03  0.40609062477E+03  0.12599630489E+03 0.  0.
          5    1    4    4  502    0  0.59952340053E+02  0.49279707748E+02 -0.13825703645E+03  0.15861863321E+03  0.47000000000E+01 0.  1.
         -5    1    4    4    0  502 -0.60760785748E+02 -0.94901864018E+01 -0.10290483162E+03  0.11997262643E+03  0.47000000000E+01 0.  1.
          5    1    5    5  503    0  0.59591465121E+02  0.20944781868E+00 -0.20149109383E+03  0.21017120991E+03  0.47000000000E+01 0.  1.
         -5    1    5    5    0  503 -0.58783019426E+02 -0.39998969165E+02 -0.18250196222E+03  0.19591941486E+03  0.47000000000E+01 0.  1.
<mgrwt>
<rscale>  0 0.27923217E+03</rscale>
<asrwt>0</asrwt>
<pdfrwt beam="1">  1        2 0.10075668E+00 0.27923217E+03</pdfrwt>
<pdfrwt beam="2">  1       -2 0.45789969E-02 0.27923217E+03</pdfrwt>
<totfact> 0.10144844E+04</totfact>
</mgrwt>
</event>
<event>
 9    1  0.8186049E-001  0.2779379E+03  0.7818608E-02  0.1096821E+00
          2   -1    0    0  501    0  0.00000000000E+00  0.00000000000E+00  0.10044280788E+03  0.10044280788E+03  0.00000000000E+00 0.  1.
         -2   -1    0    0    0  501 -0.00000000000E+00 -0.00000000000E+00 -0.19227231995E+03  0.19227231995E+03  0.00000000000E+00 0.  1.
         35    2    1    2    0    0 -0.35527136788E-14  0.71054273576E-14 -0.91829512067E+02  0.29271512783E+03  0.27793791893E+03 0.  0.
         25    2    3    3    0    0 -0.11802100942E+02  0.23477228385E+02 -0.78585386247E+01  0.14012492624E+03  0.13741458615E+03 0.  0.
         25    2    3    3    0    0  0.11802100942E+02 -0.23477228385E+02 -0.83970973442E+02  0.15259020159E+03  0.12466826141E+03 0.  0.
          5    1    4    4  502    0 -0.37260652986E+02  0.73322897577E+02  0.48976415331E+01  0.82526846920E+02  0.47000000000E+01 0.  1.
         -5    1    4    4    0  502  0.25458552044E+02 -0.49845669191E+02 -0.12756180158E+02  0.57598079321E+02  0.47000000000E+01 0.  1.
          5    1    5    5  503    0  0.19126021981E+02  0.32360179376E+02  0.13254512480E+02  0.40134250050E+02  0.47000000000E+01 0.  1.
         -5    1    5    5    0  503 -0.73239210388E+01 -0.55837407761E+02 -0.97225485921E+02  0.11245595154E+03  0.47000000000E+01 0.  1.
<mgrwt>
<rscale>  0 0.27793792E+03</rscale>
<asrwt>0</asrwt>
<pdfrwt beam="1">  1        2 0.15452740E-01 0.27793792E+03</pdfrwt>
<pdfrwt beam="2">  1       -2 0.29580357E-01 0.27793792E+03</pdfrwt>
<totfact> 0.39267956E+03</totfact>
</mgrwt>
</event>
<event>
 9    1  0.8186049E-001  0.2739295E+03  0.7818608E-02  0.1099051E+00
          2   -1    0    0  501    0  0.00000000000E+00  0.00000000000E+00  0.60119448462E+02  0.60119448462E+02  0.00000000000E+00 0.  1.
         -2   -1    0    0    0  501 -0.00000000000E+00 -0.00000000000E+00 -0.31203446830E+03  0.31203446830E+03  0.00000000000E+00 0.  1.
         35    2    1    2    0    0 -0.71054273576E-14 -0.71054273576E-14 -0.25191501983E+03  0.37215391676E+03  0.27392948096E+03 0.  0.
         25    2    3    3    0    0  0.49991892176E+01  0.58337711814E+02 -0.14615871904E+03  0.19954410674E+03  0.12258547577E+03 0.  0.
         25    2    3    3    0    0 -0.49991892176E+01 -0.58337711814E+02 -0.10575630079E+03  0.17260981002E+03  0.12321311150E+03 0.  0.
          5    1    4    4  502    0  0.39455706212E+02 -0.41861398477E+01 -0.36951909962E+01  0.40125066430E+02  0.47000000000E+01 0.  1.
         -5    1    4    4    0  502 -0.34456516994E+02  0.62523851662E+02 -0.14246352805E+03  0.15941904031E+03  0.47000000000E+01 0.  1.
          5    1    5    5  503    0 -0.16502434415E+02  0.75400128937E+01 -0.10386627496E+03  0.10554371232E+03  0.47000000000E+01 0.  1.
         -5    1    5    5    0  503  0.11503245197E+02 -0.65877724708E+02 -0.18900258303E+01  0.67066097698E+02  0.47000000000E+01 0.  1.
<mgrwt>
<rscale>  0 0.27392948E+03</rscale>
<asrwt>0</asrwt>
<pdfrwt beam="1">  1        2 0.92491461E-02 0.27392948E+03</pdfrwt>
<pdfrwt beam="2">  1       -2 0.48005302E-01 0.27392948E+03</pdfrwt>
<totfact> 0.29344734E+03</totfact>
</mgrwt>
</event>
<event>
 9    1  0.8186049E-001  0.2769241E+03  0.7818608E-02  0.1097381E+00
          2   -1    0    0  501    0  0.00000000000E+00  0.00000000000E+00  0.18976373765E+03  0.18976373765E+03  0.00000000000E+00 0. -1.
         -2   -1    0    0    0  501 -0.00000000000E+00 -0.00000000000E+00 -0.10102948555E+03  0.10102948555E+03  0.00000000000E+00 0. -1.
         35    2    1    2    0    0  0.00000000000E+00 -0.71054273576E-14  0.88734252099E+02  0.29079322320E+03  0.27692405306E+03 0.  0.
         25    2    3    3    0    0  0.39601000027E+02  0.32254716158E+02  0.73963749901E+02  0.15545326776E+03  0.12683247313E+03 0.  0.
         25    2    3    3    0    0 -0.39601000027E+02 -0.32254716158E+02  0.14770502198E+02  0.13533995544E+03  0.12445935033E+03 0.  0.
          5    1    4    4  502    0  0.29420438220E+02  0.80235855847E+02  0.59011628411E+02  0.10396065138E+03  0.47000000000E+01 0.  1.
         -5    1    4    4    0  502  0.10180561807E+02 -0.47981139689E+02  0.14952121490E+02  0.51492616379E+02  0.47000000000E+01 0.  1.
          5    1    5    5  503    0 -0.53232439111E+02 -0.71091090861E+02 -0.57246308152E+01  0.89120688795E+02  0.47000000000E+01 0.  1.
         -5    1    5    5    0  503  0.13631439083E+02  0.38836374703E+02  0.20495133013E+02  0.46219266640E+02  0.47000000000E+01 0.  1.
<mgrwt>
<rscale>  0 0.27692405E+03</rscale>
<asrwt>0</asrwt>
<pdfrwt beam="1">  1        2 0.29194421E-01 0.27692405E+03</pdfrwt>
<pdfrwt beam="2">  1       -2 0.15542998E-01 0.27692405E+03</pdfrwt>
<totfact> 0.57902392E+03</totfact>
</mgrwt>
</event>
<event>
 9    1  0.8186049E-001  0.2752083E+03  0.7818608E-02  0.1098335E+00
         -2   -1    0    0    0  501 -0.00000000000E+00  0.00000000000E+00  0.45116255698E+02  0.45116255698E+02  0.00000000000E+00 0. -1.
          2   -1    0    0  501    0  0.00000000000E+00 -0.00000000000E+00 -0.41969125509E+03  0.41969125509E+03  0.00000000000E+00 0. -1.
         35    2    1    2    0    0  0.71054273576E-14  0.00000000000E+00 -0.37457499939E+03  0.46480751078E+03  0.27520827007E+03 0.  0.
         25    2    3    3    0    0 -0.50537039763E+02  0.24983467843E+01 -0.23258102206E+03  0.26867013717E+03  0.12461732086E+03 0.  0.
         25    2    3    3    0    0  0.50537039763E+02 -0.24983467843E+01 -0.14199397733E+03  0.19613737362E+03  0.12548842818E+03 0.  0.
          5    1    4    4  502    0 -0.84409346592E+02 -0.21782345016E+02 -0.18898826390E+03  0.20817795810E+03  0.47000000000E+01 0. -1.
         -5    1    4    4    0  502  0.33872306829E+02  0.24280691801E+02 -0.43592758160E+02  0.60492179067E+02  0.47000000000E+01 0. -1.
          5    1    5    5  503    0  0.46148033736E+02 -0.59597322029E+02 -0.98246094441E+02  0.12391879149E+03  0.47000000000E+01 0.  1.
         -5    1    5    5    0  503  0.43890060266E+01  0.57098975244E+02 -0.43747882886E+02  0.72218582130E+02  0.47000000000E+01 0.  1.
<mgrwt>
<rscale>  0 0.27520827E+03</rscale>
<asrwt>0</asrwt>
<pdfrwt beam="1">  1        2 0.64567886E-01 0.27520827E+03</pdfrwt>
<pdfrwt beam="2">  1       -2 0.69409623E-02 0.27520827E+03</pdfrwt>
<totfact> 0.88824327E+03</totfact>
</mgrwt>
</event>
<event>
 9    1  0.8186049E-001  0.2768709E+03  0.7818608E-02  0.1097410E+00
         -1   -1    0    0    0  501 -0.00000000000E+00  0.00000000000E+00  0.24364214274E+02  0.24364214274E+02  0.00000000000E+00 0.  1.
          1   -1    0    0  501    0  0.00000000000E+00 -0.00000000000E+00 -0.78657882184E+03  0.78657882184E+03  0.00000000000E+00 0.  1.
         35    2    1    2    0    0 -0.35527136788E-14 -0.35527136788E-14 -0.76221460756E+03  0.81094303611E+03  0.27687090825E+03 0.  0.
         25    2    3    3    0    0 -0.15764287297E+02  0.94687327157E+01 -0.22249385097E+03  0.25611266046E+03  0.12550701763E+03 0.  0.
         25    2    3    3    0    0  0.15764287297E+02 -0.94687327157E+01 -0.53972075659E+03  0.55483037565E+03  0.12727953880E+03 0.  0.
          5    1    4    4  502    0  0.45672456557E+01  0.25720005858E+02 -0.22762756505E+03  0.22916975544E+03  0.47000000000E+01 0.  1.
         -5    1    4    4    0  502 -0.20331532952E+02 -0.16251273142E+02  0.51337140800E+01  0.26942905025E+02  0.47000000000E+01 0.  1.
          5    1    5    5  503    0 -0.50085229179E+02 -0.29827924948E+02 -0.21282868277E+03  0.22071785949E+03  0.47000000000E+01 0. -1.
         -5    1    5    5    0  503  0.65849516476E+02  0.20359192232E+02 -0.32689207382E+03  0.33411251616E+03  0.47000000000E+01 0. -1.
<mgrwt>
<rscale>  0 0.27687091E+03</rscale>
<asrwt>0</asrwt>
<pdfrwt beam="1">  1        1 0.12101214E+00 0.27687091E+03</pdfrwt>
<pdfrwt beam="2">  1       -1 0.37483403E-02 0.27687091E+03</pdfrwt>
<totfact> 0.63975668E+03</totfact>
</mgrwt>
</event>
<event>
 9    1  0.8186049E-001  0.2736068E+03  0.7818608E-02  0.1099233E+00
          1   -1    0    0  501    0  0.00000000000E+00  0.00000000000E+00  0.36202332179E+03  0.36202332179E+03  0.00000000000E+00 0.  1.
         -1   -1    0    0    0  501 -0.00000000000E+00 -0.00000000000E+00 -0.51696023113E+02  0.51696023113E+02  0.00000000000E+00 0.  1.
         35    2    1    2    0    0 -0.71054273576E-14  0.71054273576E-14  0.31032729868E+03  0.41371934490E+03  0.27360676900E+03 0.  0.
         25    2    3    3    0    0  0.15710508670E+02  0.55351220896E+02  0.14869467156E+03  0.20107092158E+03  0.12251054003E+03 0.  0.
         25    2    3    3    0    0 -0.15710508670E+02 -0.55351220896E+02  0.16163262712E+03  0.21264842332E+03  0.12563306911E+03 0.  0.
          5    1    4    4  502    0  0.33519656081E+02 -0.53035087391E+01 -0.51807924115E+01  0.34650038366E+02  0.47000000000E+01 0. -1.
         -5    1    4    4    0  502 -0.17809147411E+02  0.60654729635E+02  0.15387546397E+03  0.16642088321E+03  0.47000000000E+01 0. -1.
          5    1    5    5  503    0  0.17256479262E+02  0.34378126268E+02  0.26074000811E+02  0.46707442239E+02  0.47000000000E+01 0.  1.
         -5    1    5    5    0  503 -0.32966987932E+02 -0.89729347164E+02  0.13555862631E+03  0.16594098108E+03  0.47000000000E+01 0.  1.
<mgrwt>
<rscale>  0 0.27360677E+03</rscale>
<asrwt>0</asrwt>
<pdfrwt beam="1">  1        1 0.55695894E-01 0.27360677E+03</pdfrwt>
<pdfrwt beam="2">  1       -1 0.79532346E-02 0.27360677E+03</pdfrwt>
<totfact> 0.59490141E+03</totfact>
</mgrwt>
</event>
<event>
 9    1  0.8186049E-001  0.2717836E+03  0.7818608E-02  0.1100263E+00
          1   -1    0    0  501    0  0.00000000000E+00  0.00000000000E+00  0.34467953709E+03  0.34467953709E+03  0.00000000000E+00 0.  1.
         -1   -1    0    0    0  501 -0.00000000000E+00 -0.00000000000E+00 -0.53576095712E+02  0.53576095712E+02  0.00000000000E+00 0.  1.
         35    2    1    2    0    0  0.71054273576E-14 -0.35527136788E-14  0.29110344138E+03  0.39825563280E+03  0.27178361885E+03 0.  0.
         25    2    3    3    0    0  0.16906034125E+02  0.14157196848E+02  0.21864041114E+03  0.25280347247E+03  0.12497890261E+03 0.  0.
         25    2    3    3    0    0 -0.16906034125E+02 -0.14157196848E+02  0.72463030239E+02  0.14545216033E+03  0.12417407129E+03 0.  0.
          5    1    4    4  502    0 -0.58556800157E+01 -0.23062266437E+02  0.20560131736E+03  0.20702692777E+03  0.47000000000E+01 0.  1.
         -5    1    4    4    0  502  0.22761714141E+02  0.37219463285E+02  0.13039093777E+02  0.45776544697E+02  0.47000000000E+01 0.  1.
          5    1    5    5  503    0  0.52933429115E+02  0.49054330029E+01  0.34801806184E+02  0.63712376384E+02  0.47000000000E+01 0.  1.
         -5    1    5    5    0  503 -0.69839463240E+02 -0.19062629851E+02  0.37661224054E+02  0.81739783948E+02  0.47000000000E+01 0.  1.
<mgrwt>
<rscale>  0 0.27178362E+03</rscale>
<asrwt>0</asrwt>
<pdfrwt beam="1">  1        1 0.53027620E-01 0.27178362E+03</pdfrwt>
<pdfrwt beam="2">  1       -1 0.82424765E-02 0.27178362E+03</pdfrwt>
<totfact> 0.59937003E+03</totfact>
</mgrwt>
</event>
<event>
 9    1  0.8186049E-001  0.2768040E+03  0.7818608E-02  0.1097447E+00
         -2   -1    0    0    0  501 -0.00000000000E+00  0.00000000000E+00  0.14620295321E+02  0.14620295321E+02  0.00000000000E+00 0.  1.
          2   -1    0    0  501    0  0.00000000000E+00 -0.00000000000E+00 -0.13101732900E+04  0.13101732900E+04  0.00000000000E+00 0.  1.
         35    2    1    2    0    0 -0.71054273576E-14  0.00000000000E+00 -0.12955529947E+04  0.13247935853E+04  0.27680404926E+03 0.  0.
         25    2    3    3    0    0 -0.47771087269E+02  0.14878467967E+02 -0.46045715427E+03  0.47912247793E+03  0.12261367114E+03 0.  0.
         25    2    3    3    0    0  0.47771087269E+02 -0.14878467967E+02 -0.83509584042E+03  0.84567110740E+03  0.12357634734E+03 0.  0.
          5    1    4    4  502    0 -0.28409083089E+02 -0.28108015805E+02 -0.42646635969E+02  0.58634137786E+02  0.47000000000E+01 0. -1.
         -5    1    4    4    0  502 -0.19362004180E+02  0.42986483772E+02 -0.41781051831E+03  0.42048834015E+03  0.47000000000E+01 0. -1.
          5    1    5    5  503    0  0.45102201938E+01  0.38584814824E+02 -0.10052055968E+03  0.10786845201E+03  0.47000000000E+01 0.  1.
         -5    1    5    5    0  503  0.43260867076E+02 -0.53463282791E+02 -0.73457528074E+03  0.73780265539E+03  0.47000000000E+01 0.  1.
<mgrwt>
<rscale>  0 0.27680405E+03</rscale>
<asrwt>0</asrwt>
<pdfrwt beam="1">  1        2 0.20156506E+00 0.27680405E+03</pdfrwt>
<pdfrwt beam="2">  1       -2 0.22492769E-02 0.27680405E+03</pdfrwt>
<totfact> 0.11250539E+04</totfact>
</mgrwt>
</event>
<event>
 9    1  0.8186049E-001  0.2726621E+03  0.7818608E-02  0.1099766E+00
         -2   -1    0    0    0  501 -0.00000000000E+00  0.00000000000E+00  0.64900702645E+01  0.64900702645E+01  0.00000000000E+00 0.  1.
          2   -1    0    0  501    0  0.00000000000E+00 -0.00000000000E+00 -0.28637827097E+04  0.28637827097E+04  0.00000000000E+00 0.  1.
         35    2    1    2    0    0  0.17763568394E-14  0.00000000000E+00 -0.28572926395E+04  0.28702727800E+04  0.27266206930E+03 0.  0.
         25    2    3    3    0    0  0.99755300547E+01 -0.43560963084E+02 -0.17616444244E+04  0.17666371905E+04  0.12497526229E+03 0.  0.
         25    2    3    3    0    0 -0.99755300547E+01  0.43560963084E+02 -0.10956482151E+04  0.11036355895E+04  0.12477754000E+03 0.  0.
          5    1    4    4  502    0 -0.50190746939E+02 -0.41297828891E+02 -0.62466315193E+03  0.62805315470E+03  0.47000000000E+01 0.  1.
         -5    1    4    4    0  502  0.60166276994E+02 -0.22631341928E+01 -0.11369812724E+04  0.11385840358E+04  0.47000000000E+01 0.  1.
          5    1    5    5  503    0 -0.23460305832E+02  0.74708025955E+02 -0.42939184752E+03  0.43649870997E+03  0.47000000000E+01 0.  1.
         -5    1    5    5    0  503  0.13484775778E+02 -0.31147062871E+02 -0.66625636759E+03  0.66713687955E+03  0.47000000000E+01 0.  1.
<mgrwt>
<rscale>  0 0.27266207E+03</rscale>
<asrwt>0</asrwt>
<pdfrwt beam="1">  1        2 0.44058155E+00 0.27266207E+03</pdfrwt>
<pdfrwt beam="2">  1       -2 0.99847327E-03 0.27266207E+03</pdfrwt>
<totfact> 0.53506974E+03</totfact>
</mgrwt>
</event>
<event>
 9    1  0.8186049E-001  0.2776811E+03  0.7818608E-02  0.1096962E+00
          1   -1    0    0  501    0  0.00000000000E+00  0.00000000000E+00  0.85003187968E+03  0.85003187968E+03  0.00000000000E+00 0.  1.
         -1   -1    0    0    0  501 -0.00000000000E+00 -0.00000000000E+00 -0.22677613989E+02  0.22677613989E+02  0.00000000000E+00 0.  1.
         35    2    1    2    0    0  0.00000000000E+00  0.17763568394E-14  0.82735426569E+03  0.87270949367E+03  0.27768107495E+03 0.  0.
         25    2    3    3    0    0 -0.40950949401E+02  0.40133188666E+01  0.27936046494E+03  0.30896054498E+03  0.12538445675E+03 0.  0.
         25    2    3    3    0    0  0.40950949401E+02 -0.40133188666E+01  0.54799380075E+03  0.56374894869E+03  0.12578785516E+03 0.  0.
          5    1    4    4  502    0 -0.36757244596E+02  0.17657696995E+02  0.28847734549E+03  0.29138318097E+03  0.47000000000E+01 0. -1.
         -5    1    4    4    0  502 -0.41937048050E+01 -0.13644378128E+02 -0.91168805464E+01  0.17577364006E+02  0.47000000000E+01 0. -1.
          5    1    5    5  503    0  0.44897789018E+02  0.42443695996E+02  0.14033443536E+03  0.15340509293E+03  0.47000000000E+01 0. -1.
         -5    1    5    5    0  503 -0.39468396174E+01 -0.46457014863E+02  0.40765936538E+03  0.41034385576E+03  0.47000000000E+01 0. -1.
<mgrwt>
<rscale>  0 0.27768107E+03</rscale>
<asrwt>0</asrwt>
<pdfrwt beam="1">  1        1 0.13077411E+00 0.27768107E+03</pdfrwt>
<pdfrwt beam="2">  1       -1 0.34888644E-02 0.27768107E+03</pdfrwt>
<totfact> 0.63071787E+03</totfact>
</mgrwt>
</event>
<event>
 9    1  0.8186049E-001  0.2767603E+03  0.7818608E-02  0.1097472E+00
          3   -1    0    0  501    0  0.00000000000E+00  0.00000000000E+00  0.41801032988E+03  0.41801032988E+03  0.00000000000E+00 0.  1.
         -3   -1    0    0    0  501 -0.00000000000E+00 -0.00000000000E+00 -0.45810021192E+02  0.45810021192E+02  0.00000000000E+00 0.  1.
         35    2    1    2    0    0  0.71054273576E-14  0.71054273576E-14  0.37220030869E+03  0.46382035108E+03  0.27676027223E+03 0.  0.
         25    2    3    3    0    0  0.39482513329E+02  0.27750980783E+02  0.23682504187E+03  0.27231608543E+03  0.12546299906E+03 0.  0.
         25    2    3    3    0    0 -0.39482513329E+02 -0.27750980783E+02  0.13537526682E+03  0.19150426564E+03  0.12656395656E+03 0.  0.
          5    1    4    4  502    0 -0.83001463825E+01  0.59777706753E+02  0.55855556807E+02  0.82366254503E+02  0.47000000000E+01 0.  1.
         -5    1    4    4    0  502  0.47782659712E+02 -0.32026725970E+02  0.18096948506E+03  0.18994983093E+03  0.47000000000E+01 0.  1.
          5    1    5    5  503    0 -0.13923172269E+01 -0.73621402786E+02  0.58847374693E+02  0.94377714551E+02  0.47000000000E+01 0. -1.
         -5    1    5    5    0  503 -0.38090196102E+02  0.45870422003E+02  0.76527892127E+02  0.97126551094E+02  0.47000000000E+01 0. -1.
<mgrwt>
<rscale>  0 0.27676027E+03</rscale>
<asrwt>0</asrwt>
<pdfrwt beam="1">  1        3 0.64309279E-01 0.27676027E+03</pdfrwt>
<pdfrwt beam="2">  1       -3 0.70476959E-02 0.27676027E+03</pdfrwt>
<totfact> 0.79510383E+02</totfact>
</mgrwt>
</event>
<event>
 9    1  0.8186049E-001  0.2735779E+03  0.7818608E-02  0.1099249E+00
          1   -1    0    0  501    0  0.00000000000E+00  0.00000000000E+00  0.33789197788E+03  0.33789197788E+03  0.00000000000E+00 0. -1.
         -1   -1    0    0    0  501 -0.00000000000E+00 -0.00000000000E+00 -0.55376315767E+02  0.55376315767E+02  0.00000000000E+00 0. -1.
         35    2    1    2    0    0 -0.14210854715E-13  0.00000000000E+00  0.28251566211E+03  0.39326829365E+03  0.27357787091E+03 0.  0.
         25    2    3    3    0    0 -0.38937676365E+02 -0.35698521886E+02  0.15916283181E+03  0.20913154677E+03  0.12495066914E+03 0.  0.
         25    2    3    3    0    0  0.38937676365E+02  0.35698521886E+02  0.12335283030E+03  0.18413674688E+03  0.12609478063E+03 0.  0.
          5    1    4    4  502    0 -0.35138179258E+02  0.31696179230E+01  0.16550449867E+03  0.16928841425E+03  0.47000000000E+01 0.  1.
         -5    1    4    4    0  502 -0.37994971068E+01 -0.38868139809E+02 -0.63416668592E+01  0.39843132520E+02  0.47000000000E+01 0.  1.
          5    1    5    5  503    0  0.84189982964E+02  0.14974334534E+02  0.88776275960E+02  0.12335112930E+03  0.47000000000E+01 0.  1.
         -5    1    5    5    0  503 -0.45252306599E+02  0.20724187351E+02  0.34576554341E+02  0.60785617575E+02  0.47000000000E+01 0.  1.
<mgrwt>
<rscale>  0 0.27357787E+03</rscale>
<asrwt>0</asrwt>
<pdfrwt beam="1">  1        1 0.51983380E-01 0.27357787E+03</pdfrwt>
<pdfrwt beam="2">  1       -1 0.85194334E-02 0.27357787E+03</pdfrwt>
<totfact> 0.58445726E+03</totfact>
</mgrwt>
</event>
<event>
 9    1  0.8186049E-001  0.2746047E+03  0.7818608E-02  0.1098673E+00
         -2   -1    0    0    0  501 -0.00000000000E+00  0.00000000000E+00  0.69401877148E+02  0.69401877148E+02  0.00000000000E+00 0. -1.
          2   -1    0    0  501    0  0.00000000000E+00 -0.00000000000E+00 -0.27163442311E+03  0.27163442311E+03  0.00000000000E+00 0. -1.
         35    2    1    2    0    0  0.71054273576E-14 -0.71054273576E-14 -0.20223254596E+03  0.34103630026E+03  0.27460472583E+03 0.  0.
         25    2    3    3    0    0  0.42091719073E+02  0.63001400492E+01 -0.14346446918E+03  0.19626761643E+03  0.12699416823E+03 0.  0.
         25    2    3    3    0    0 -0.42091719073E+02 -0.63001400492E+01 -0.58768076786E+02  0.14476868383E+03  0.12527122730E+03 0.  0.
          5    1    4    4  502    0  0.80645688815E+01  0.56411215544E+02 -0.23544554011E+02  0.61836061760E+02  0.47000000000E+01 0. -1.
         -5    1    4    4    0  502  0.34027150191E+02 -0.50111075495E+02 -0.11991991516E+03  0.13443155467E+03  0.47000000000E+01 0. -1.
          5    1    5    5  503    0 -0.37455913536E+02 -0.59341391628E+02 -0.58241761276E+02  0.91315600944E+02  0.47000000000E+01 0.  1.
         -5    1    5    5    0  503 -0.46358055370E+01  0.53041251579E+02 -0.52631551009E+00  0.53453082886E+02  0.47000000000E+01 0.  1.
<mgrwt>
<rscale>  0 0.27460473E+03</rscale>
<asrwt>0</asrwt>
<pdfrwt beam="1">  1        2 0.41789911E-01 0.27460473E+03</pdfrwt>
<pdfrwt beam="2">  1       -2 0.10677212E-01 0.27460473E+03</pdfrwt>
<totfact> 0.72207153E+03</totfact>
</mgrwt>
</event>
<event>
 9    1  0.8186049E-001  0.2721473E+03  0.7818608E-02  0.1100057E+00
         -2   -1    0    0    0  501 -0.00000000000E+00  0.00000000000E+00  0.21495779248E+02  0.21495779248E+02  0.00000000000E+00 0.  1.
          2   -1    0    0  501    0  0.00000000000E+00 -0.00000000000E+00 -0.86138032945E+03  0.86138032945E+03  0.00000000000E+00 0.  1.
         35    2    1    2    0    0  0.00000000000E+00  0.00000000000E+00 -0.83988455020E+03  0.88287610870E+03  0.27214732342E+03 0.  0.
         25    2    3    3    0    0  0.27138059624E+02  0.24753184908E+02 -0.54675524090E+03  0.56199978757E+03  0.12471276331E+03 0.  0.
         25    2    3    3    0    0 -0.27138059624E+02 -0.24753184908E+02 -0.29312930930E+03  0.32087632113E+03  0.12525025767E+03 0.  0.
          5    1    4    4  502    0  0.65276295497E+02 -0.16499869265E+02 -0.21063307298E+03  0.22118232722E+03  0.47000000000E+01 0.  1.
         -5    1    4    4    0  502 -0.38138235873E+02  0.41253054173E+02 -0.33612216791E+03  0.34081746035E+03  0.47000000000E+01 0.  1.
          5    1    5    5  503    0 -0.19905859079E+02 -0.59910819234E+02 -0.68201969176E+02  0.93054543610E+02  0.47000000000E+01 0. -1.
         -5    1    5    5    0  503 -0.72322005451E+01  0.35157634326E+02 -0.22492734013E+03  0.22782177752E+03  0.47000000000E+01 0. -1.
<mgrwt>
<rscale>  0 0.27214732E+03</rscale>
<asrwt>0</asrwt>
<pdfrwt beam="1">  1        2 0.13252002E+00 0.27214732E+03</pdfrwt>
<pdfrwt beam="2">  1       -2 0.33070436E-02 0.27214732E+03</pdfrwt>
<totfact> 0.11749058E+04</totfact>
</mgrwt>
</event>
<event>
 9    1  0.8186049E-001  0.2797580E+03  0.7818608E-02  0.1095821E+00
         -2   -1    0    0    0  501 -0.00000000000E+00  0.00000000000E+00  0.14191066238E+03  0.14191066238E+03  0.00000000000E+00 0. -1.
          2   -1    0    0  501    0  0.00000000000E+00 -0.00000000000E+00 -0.13787639458E+03  0.13787639458E+03  0.00000000000E+00 0. -1.
         35    2    1    2    0    0  0.71054273576E-14  0.71054273576E-14  0.40342678007E+01  0.27978705695E+03  0.27975797025E+03 0.  0.
         25    2    3    3    0    0 -0.22749348515E+02 -0.26985925799E+02 -0.48293564291E+02  0.13968924857E+03  0.12623408718E+03 0.  0.
         25    2    3    3    0    0  0.22749348515E+02  0.26985925799E+02  0.52327832091E+02  0.14009780838E+03  0.12507366171E+03 0.  0.
          5    1    4    4  502    0  0.43136049479E+02 -0.35328652806E+02  0.24042025759E+01  0.56006273432E+02  0.47000000000E+01 0.  1.
         -5    1    4    4    0  502 -0.65885397993E+02  0.83427270072E+01 -0.50697766866E+02  0.83682975138E+02  0.47000000000E+01 0.  1.
          5    1    5    5  503    0 -0.31125292355E+02 -0.40596324336E+00 -0.26155568959E+02  0.40928625898E+02  0.47000000000E+01 0.  1.
         -5    1    5    5    0  503  0.53874640869E+02  0.27391889043E+02  0.78483401050E+02  0.99169182484E+02  0.47000000000E+01 0.  1.
<mgrwt>
<rscale>  0 0.27975797E+03</rscale>
<asrwt>0</asrwt>
<pdfrwt beam="1">  1        2 0.21211753E-01 0.27975797E+03</pdfrwt>
<pdfrwt beam="2">  1       -2 0.21832409E-01 0.27975797E+03</pdfrwt>
<totfact> 0.46570648E+03</totfact>
</mgrwt>
</event>
<event>
 8    1  0.8186049E-001  0.4832535E+03  0.7818608E-02  0.1018245E+00
          1   -1    0    0  501    0  0.00000000000E+00  0.00000000000E+00  0.61637262025E+02  0.61637262025E+02  0.00000000000E+00 0. -1.
         -1   -1    0    0    0  501 -0.00000000000E+00 -0.00000000000E+00 -0.94721097950E+03  0.94721097950E+03  0.00000000000E+00 0. -1.
         25    2    1    2    0    0 -0.16958901372E+02 -0.10959862265E+03 -0.80718635938E+03  0.82448115795E+03  0.12617408062E+03 0.  0.
         25    2    1    2    0    0  0.16958901372E+02  0.10959862265E+03 -0.78387358098E+02  0.18436708358E+03  0.12468833616E+03 0.  0.
          5    1    3    3  502    0  0.52567182238E+02 -0.63545065528E+02 -0.46248499123E+03  0.46980393901E+03  0.47000000000E+01 0.  1.
         -5    1    3    3    0  502 -0.69526083610E+02 -0.46053557127E+02 -0.34470136816E+03  0.35467721894E+03  0.47000000000E+01 0.  1.
          5    1    4    4  503    0  0.27487815407E+02  0.12213759100E+03 -0.97511139450E+02  0.15875668001E+03  0.47000000000E+01 0. -1.
         -5    1    4    4    0  503 -0.10528914035E+02 -0.12538968342E+02  0.19123781353E+02  0.25610403571E+02  0.47000000000E+01 0. -1.
<mgrwt>
<rscale>  0 0.48325352E+03</rscale>
<asrwt>0</asrwt>
<pdfrwt beam="1">  1        1 0.94826549E-02 0.48325352E+03</pdfrwt>
<pdfrwt beam="2">  1       -1 0.14572478E+00 0.48325352E+03</pdfrwt>
<totfact> 0.27902155E+02</totfact>
</mgrwt>
</event>
<event>
 9    1  0.8186049E-001  0.2755244E+03  0.7818608E-02  0.1098159E+00
         -2   -1    0    0    0  501 -0.00000000000E+00  0.00000000000E+00  0.32471282585E+02  0.32471282585E+02  0.00000000000E+00 0.  1.
          2   -1    0    0  501    0  0.00000000000E+00 -0.00000000000E+00 -0.58446775301E+03  0.58446775301E+03  0.00000000000E+00 0.  1.
         35    2    1    2    0    0  0.00000000000E+00  0.00000000000E+00 -0.55199647042E+03  0.61693903559E+03  0.27552435515E+03 0.  0.
         25    2    3    3    0    0 -0.45588558330E+01 -0.54477898981E+02 -0.27572938462E+03  0.30804394252E+03  0.12599901720E+03 0.  0.
         25    2    3    3    0    0  0.45588558330E+01  0.54477898981E+02 -0.27626708580E+03  0.30889509307E+03  0.12690173830E+03 0.  0.
          5    1    4    4  502    0 -0.14562122662E+02 -0.90162628627E+02 -0.13964891589E+03  0.16692892118E+03  0.47000000000E+01 0.  1.
         -5    1    4    4    0  502  0.10003266829E+02  0.35684729646E+02 -0.13608046873E+03  0.14111502134E+03  0.47000000000E+01 0.  1.
          5    1    5    5  503    0 -0.10875506814E+02  0.20571673300E+02  0.57201311624E+01  0.24418851147E+02  0.47000000000E+01 0. -1.
         -5    1    5    5    0  503  0.15434362647E+02  0.33906225681E+02 -0.28198721696E+03  0.28447624192E+03  0.47000000000E+01 0. -1.
<mgrwt>
<rscale>  0 0.27552436E+03</rscale>
<asrwt>0</asrwt>
<pdfrwt beam="1">  1        2 0.89918111E-01 0.27552436E+03</pdfrwt>
<pdfrwt beam="2">  1       -2 0.49955822E-02 0.27552436E+03</pdfrwt>
<totfact> 0.10152482E+04</totfact>
</mgrwt>
</event>
<event>
 9    1  0.8186049E-001  0.2822222E+03  0.7818608E-02  0.1094481E+00
         -1   -1    0    0    0  501 -0.00000000000E+00  0.00000000000E+00  0.56666468772E+01  0.56666468772E+01  0.00000000000E+00 0.  1.
          1   -1    0    0  501    0  0.00000000000E+00 -0.00000000000E+00 -0.35139542474E+04  0.35139542474E+04  0.00000000000E+00 0.  1.
         35    2    1    2    0    0 -0.35527136788E-14  0.71054273576E-14 -0.35082876006E+04  0.35196208943E+04  0.28222216683E+03 0.  0.
         25    2    3    3    0    0 -0.30419367008E+02  0.48572698861E+02 -0.13750802344E+04  0.13818976709E+04  0.12454267051E+03 0.  0.
         25    2    3    3    0    0  0.30419367008E+02 -0.48572698861E+02 -0.21332073662E+04  0.21377232234E+04  0.12650007120E+03 0.  0.
          5    1    4    4  502    0  0.40584797048E+02  0.20136926745E+02 -0.85389424224E+03  0.85510823204E+03  0.47000000000E+01 0. -1.
         -5    1    4    4    0  502 -0.71004164056E+02  0.28435772117E+02 -0.52118599215E+03  0.52678943883E+03  0.47000000000E+01 0. -1.
          5    1    5    5  503    0 -0.49267232656E+01  0.39642056541E+02 -0.43621388933E+03  0.43806439309E+03  0.47000000000E+01 0. -1.
         -5    1    5    5    0  503  0.35346090274E+02 -0.88214755402E+02 -0.16969934768E+04  0.16996588304E+04  0.47000000000E+01 0. -1.
<mgrwt>
<rscale>  0 0.28222217E+03</rscale>
<asrwt>0</asrwt>
<pdfrwt beam="1">  1        1 0.54060836E+00 0.28222217E+03</pdfrwt>
<pdfrwt beam="2">  1       -1 0.87179181E-03 0.28222217E+03</pdfrwt>
<totfact> 0.70148388E+02</totfact>
</mgrwt>
</event>
<event>
 9    1  0.8186049E-001  0.2763051E+03  0.7818608E-02  0.1097724E+00
          2   -1    0    0  501    0  0.00000000000E+00  0.00000000000E+00  0.99147634503E+02  0.99147634503E+02  0.00000000000E+00 0.  1.
         -2   -1    0    0    0  501 -0.00000000000E+00 -0.00000000000E+00 -0.19250208287E+03  0.19250208287E+03  0.00000000000E+00 0.  1.
         35    2    1    2    0    0  0.71054273576E-14  0.00000000000E+00 -0.93354448363E+02  0.29164971737E+03  0.27630509335E+03 0.  0.
         25    2    3    3    0    0 -0.55244131246E+02 -0.21778895042E+02 -0.51388754477E+02  0.14738711898E+03  0.12472339175E+03 0.  0.
         25    2    3    3    0    0  0.55244131246E+02  0.21778895042E+02 -0.41965693886E+02  0.14426259839E+03  0.12459672357E+03 0.  0.
          5    1    4    4  502    0 -0.49592997930E+02  0.11303205249E+02  0.29989776955E+02  0.59234319565E+02  0.47000000000E+01 0. -1.
         -5    1    4    4    0  502 -0.56511333159E+01 -0.33082100291E+02 -0.81378531431E+02  0.88152799419E+02  0.47000000000E+01 0. -1.
          5    1    5    5  503    0  0.42341812531E+02  0.34540780211E+02 -0.82808043193E+02  0.99323494721E+02  0.47000000000E+01 0.  1.
         -5    1    5    5    0  503  0.12902318714E+02 -0.12761885169E+02  0.40842349307E+02  0.44939103665E+02  0.47000000000E+01 0.  1.
<mgrwt>
<rscale>  0 0.27630509E+03</rscale>
<asrwt>0</asrwt>
<pdfrwt beam="1">  1        2 0.15253482E-01 0.27630509E+03</pdfrwt>
<pdfrwt beam="2">  1       -2 0.29615705E-01 0.27630509E+03</pdfrwt>
<totfact> 0.39781467E+03</totfact>
</mgrwt>
</event>
<event>
 9    1  0.8186049E-001  0.2748299E+03  0.7818608E-02  0.1098547E+00
          2   -1    0    0  501    0  0.00000000000E+00  0.00000000000E+00  0.82643712307E+03  0.82643712307E+03  0.00000000000E+00 0.  1.
         -2   -1    0    0    0  501 -0.00000000000E+00 -0.00000000000E+00 -0.22848526576E+02  0.22848526576E+02  0.00000000000E+00 0.  1.
         35    2    1    2    0    0  0.00000000000E+00  0.00000000000E+00  0.80358859650E+03  0.84928564965E+03  0.27482991518E+03 0.  0.
         25    2    3    3    0    0 -0.28177595500E+02  0.21490429624E+02  0.51755822742E+03  0.53412256270E+03  0.12713999276E+03 0.  0.
         25    2    3    3    0    0  0.28177595500E+02 -0.21490429624E+02  0.28603036908E+03  0.31516308695E+03  0.12750915218E+03 0.  0.
          5    1    4    4  502    0 -0.91787641265E+01 -0.15670374724E+02  0.47118014248E+03  0.47155341906E+03  0.47000000000E+01 0.  1.
         -5    1    4    4    0  502 -0.18998831373E+02  0.37160804348E+02  0.46378084938E+02  0.62569143640E+02  0.47000000000E+01 0.  1.
          5    1    5    5  503    0  0.15955998805E+02  0.29501426107E+01  0.28692455655E+03  0.28742144734E+03  0.47000000000E+01 0. -1.
         -5    1    5    5    0  503  0.12221596694E+02 -0.24440572235E+02 -0.89418747721E+00  0.27741639609E+02  0.47000000000E+01 0. -1.
<mgrwt>
<rscale>  0 0.27482992E+03</rscale>
<asrwt>0</asrwt>
<pdfrwt beam="1">  1        2 0.12714415E+00 0.27482992E+03</pdfrwt>
<pdfrwt beam="2">  1       -2 0.35151586E-02 0.27482992E+03</pdfrwt>
<totfact> 0.11322092E+04</totfact>
</mgrwt>
</event>
<event>
 9    1  0.8186049E-001  0.2766248E+03  0.7818608E-02  0.1097547E+00
          1   -1    0    0  501    0  0.00000000000E+00  0.00000000000E+00  0.18537990890E+03  0.18537990890E+03  0.00000000000E+00 0. -1.
         -1   -1    0    0    0  501 -0.00000000000E+00 -0.00000000000E+00 -0.10319518259E+03  0.10319518259E+03  0.00000000000E+00 0. -1.
         35    2    1    2    0    0  0.00000000000E+00  0.00000000000E+00  0.82184726308E+02  0.28857509149E+03  0.27662475339E+03 0.  0.
         25    2    3    3    0    0  0.31792526400E+02 -0.39155857569E+02  0.59986362649E+02  0.14720355791E+03  0.12460568944E+03 0.  0.
         25    2    3    3    0    0 -0.31792526400E+02  0.39155857569E+02  0.22198363659E+02  0.14137153358E+03  0.13018908265E+03 0.  0.
          5    1    4    4  502    0 -0.46014661964E+02 -0.35819384073E+01  0.34487288265E+02  0.57806941195E+02  0.47000000000E+01 0. -1.
         -5    1    4    4    0  502  0.77807188364E+02 -0.35573919162E+02  0.25499074384E+02  0.89396616715E+02  0.47000000000E+01 0. -1.
          5    1    5    5  503    0  0.49179125518E+02  0.10192552857E+02  0.22530791343E+02  0.55246729125E+02  0.47000000000E+01 0. -1.
         -5    1    5    5    0  503 -0.80971651918E+02  0.28963304712E+02 -0.33242768397E+00  0.86124804455E+02  0.47000000000E+01 0. -1.
<mgrwt>
<rscale>  0 0.27662475E+03</rscale>
<asrwt>0</asrwt>
<pdfrwt beam="1">  1        1 0.28519986E-01 0.27662475E+03</pdfrwt>
<pdfrwt beam="2">  1       -1 0.15876182E-01 0.27662475E+03</pdfrwt>
<totfact> 0.47106484E+03</totfact>
</mgrwt>
</event>
<event>
 9    1  0.8186049E-001  0.2750662E+03  0.7818608E-02  0.1098415E+00
         -2   -1    0    0    0  501 -0.00000000000E+00  0.00000000000E+00  0.12598068580E+03  0.12598068580E+03  0.00000000000E+00 0.  1.
          2   -1    0    0  501    0  0.00000000000E+00 -0.00000000000E+00 -0.15014489553E+03  0.15014489553E+03  0.00000000000E+00 0.  1.
         35    2    1    2    0    0  0.35527136788E-14  0.14210854715E-13 -0.24164209731E+02  0.27612558132E+03  0.27506622408E+03 0.  0.
         25    2    3    3    0    0 -0.13089469123E+02  0.56238253379E+02 -0.19498284102E+02  0.13879196749E+03  0.12469543621E+03 0.  0.
         25    2    3    3    0    0  0.13089469123E+02 -0.56238253379E+02 -0.46659256293E+01  0.13733361384E+03  0.12451777095E+03 0.  0.
          5    1    4    4  502    0 -0.62301892318E+02  0.80205084741E+01  0.98500875125E+01  0.63757106009E+02  0.47000000000E+01 0. -1.
         -5    1    4    4    0  502  0.49212423195E+02  0.48217744905E+02 -0.29348371614E+02  0.75034861477E+02  0.47000000000E+01 0. -1.
          5    1    5    5  503    0 -0.22700761759E+02 -0.74088771070E+02  0.30950243636E+02  0.83573190464E+02  0.47000000000E+01 0. -1.
         -5    1    5    5    0  503  0.35790230882E+02  0.17850517691E+02 -0.35616169265E+02  0.53760423376E+02  0.47000000000E+01 0. -1.
<mgrwt>
<rscale>  0 0.27506622E+03</rscale>
<asrwt>0</asrwt>
<pdfrwt beam="1">  1        2 0.23099215E-01 0.27506622E+03</pdfrwt>
<pdfrwt beam="2">  1       -2 0.19381644E-01 0.27506622E+03</pdfrwt>
<totfact> 0.51849905E+03</totfact>
</mgrwt>
</event>
<event>
 9    1  0.8186049E-001  0.2754391E+03  0.7818608E-02  0.1098206E+00
         -2   -1    0    0    0  501 -0.00000000000E+00  0.00000000000E+00  0.17593759345E+02  0.17593759345E+02  0.00000000000E+00 0. -1.
          2   -1    0    0  501    0  0.00000000000E+00 -0.00000000000E+00 -0.10780343098E+04  0.10780343098E+04  0.00000000000E+00 0. -1.
         35    2    1    2    0    0 -0.21316282073E-13 -0.35527136788E-14 -0.10604405505E+04  0.10956280692E+04  0.27543911278E+03 0.  0.
         25    2    3    3    0    0  0.54105527308E+02  0.53981611838E+01 -0.45422693155E+03  0.47426481560E+03  0.12509381179E+03 0.  0.
         25    2    3    3    0    0 -0.54105527308E+02 -0.53981611838E+01 -0.60621361892E+03  0.62136325355E+03  0.12506315553E+03 0.  0.
          5    1    4    4  502    0  0.10081763594E+02 -0.25164619605E+01 -0.41329282134E+03  0.41345014295E+03  0.47000000000E+01 0.  1.
         -5    1    4    4    0  502  0.44023763714E+02  0.79146231443E+01 -0.40934110206E+02  0.60814672649E+02  0.47000000000E+01 0.  1.
          5    1    5    5  503    0 -0.67880121657E+02 -0.46751189649E+02 -0.49471029665E+03  0.50155134559E+03  0.47000000000E+01 0. -1.
         -5    1    5    5    0  503  0.13774594349E+02  0.41353028465E+02 -0.11150332227E+03  0.11981190796E+03  0.47000000000E+01 0. -1.
<mgrwt>
<rscale>  0 0.27543911E+03</rscale>
<asrwt>0</asrwt>
<pdfrwt beam="1">  1        2 0.16585148E+00 0.27543911E+03</pdfrwt>
<pdfrwt beam="2">  1       -2 0.27067315E-02 0.27543911E+03</pdfrwt>
<totfact> 0.11602935E+04</totfact>
</mgrwt>
</event>
<event>
 9    1  0.8186049E-001  0.2761319E+03  0.7818608E-02  0.1097821E+00
          1   -1    0    0  501    0  0.00000000000E+00  0.00000000000E+00  0.38779728766E+03  0.38779728766E+03  0.00000000000E+00 0. -1.
         -1   -1    0    0    0  501 -0.00000000000E+00 -0.00000000000E+00 -0.49155086241E+02  0.49155086241E+02  0.00000000000E+00 0. -1.
         35    2    1    2    0    0 -0.35527136788E-14  0.00000000000E+00  0.33864220142E+03  0.43695237390E+03  0.27613191861E+03 0.  0.
         25    2    3    3    0    0  0.81320861682E+01 -0.56849300630E+02  0.19724525903E+03  0.23937541417E+03  0.12286953605E+03 0.  0.
         25    2    3    3    0    0 -0.81320861682E+01  0.56849300630E+02  0.14139694238E+03  0.19757695973E+03  0.12548141652E+03 0.  0.
          5    1    4    4  502    0  0.44040452725E+02  0.19746360706E+02  0.94387524828E+02  0.10611585688E+03  0.47000000000E+01 0. -1.
         -5    1    4    4    0  502 -0.35908366557E+02 -0.76595661336E+02  0.10285773421E+03  0.13325955730E+03  0.47000000000E+01 0. -1.
          5    1    5    5  503    0  0.13109689828E+01  0.78253052570E+02  0.15233474051E+03  0.17132782040E+03  0.47000000000E+01 0. -1.
         -5    1    5    5    0  503 -0.94430551509E+01 -0.21403751939E+02 -0.10937798128E+02  0.26249139330E+02  0.47000000000E+01 0. -1.
<mgrwt>
<rscale>  0 0.27613192E+03</rscale>
<asrwt>0</asrwt>
<pdfrwt beam="1">  1        1 0.59661119E-01 0.27613192E+03</pdfrwt>
<pdfrwt beam="2">  1       -1 0.75623212E-02 0.27613192E+03</pdfrwt>
<totfact> 0.58868742E+03</totfact>
</mgrwt>
</event>
<event>
 9    1  0.8186049E-001  0.2744804E+03  0.7818608E-02  0.1098742E+00
         -1   -1    0    0    0  501 -0.00000000000E+00  0.00000000000E+00  0.19664680788E+02  0.19664680788E+02  0.00000000000E+00 0. -1.
          1   -1    0    0  501    0  0.00000000000E+00 -0.00000000000E+00 -0.95780201570E+03  0.95780201570E+03  0.00000000000E+00 0. -1.
         35    2    1    2    0    0 -0.35527136788E-14  0.00000000000E+00 -0.93813733492E+03  0.97746669649E+03  0.27448038835E+03 0.  0.
         25    2    3    3    0    0 -0.23357728616E+02  0.41267784681E+02 -0.58701129245E+03  0.60169200873E+03  0.12329802258E+03 0.  0.
         25    2    3    3    0    0  0.23357728616E+02 -0.41267784681E+02 -0.35112604247E+03  0.37577468776E+03  0.12517389793E+03 0.  0.
          5    1    4    4  502    0 -0.39163481722E+02  0.24521799599E+02 -0.57183028045E+03  0.57371339238E+03  0.47000000000E+01 0. -1.
         -5    1    4    4    0  502  0.15805753106E+02  0.16745985082E+02 -0.15181011994E+02  0.27978616349E+02  0.47000000000E+01 0. -1.
          5    1    5    5  503    0  0.13834298964E+02  0.36777886009E+02 -0.21407630893E+03  0.21770336877E+03  0.47000000000E+01 0. -1.
         -5    1    5    5    0  503  0.95234296521E+01 -0.78045670690E+02 -0.13704973354E+03  0.15807131899E+03  0.47000000000E+01 0. -1.
<mgrwt>
<rscale>  0 0.27448039E+03</rscale>
<asrwt>0</asrwt>
<pdfrwt beam="1">  1        1 0.14735414E+00 0.27448039E+03</pdfrwt>
<pdfrwt beam="2">  1       -1 0.30253358E-02 0.27448039E+03</pdfrwt>
<totfact> 0.64076722E+03</totfact>
</mgrwt>
</event>
<event>
 9    1  0.8186049E-001  0.2743082E+03  0.7818608E-02  0.1098839E+00
          4   -1    0    0  501    0  0.00000000000E+00  0.00000000000E+00  0.43224558989E+02  0.43224558989E+02  0.00000000000E+00 0. -1.
         -4   -1    0    0    0  501 -0.00000000000E+00 -0.00000000000E+00 -0.43519802269E+03  0.43519802269E+03  0.00000000000E+00 0. -1.
         35    2    1    2    0    0  0.00000000000E+00  0.00000000000E+00 -0.39197346370E+03  0.47842258168E+03  0.27430816687E+03 0.  0.
         25    2    3    3    0    0 -0.45602450085E+02  0.34074179547E+02 -0.19453892116E+03  0.23811893417E+03  0.12495840026E+03 0.  0.
         25    2    3    3    0    0  0.45602450085E+02 -0.34074179547E+02 -0.19743454254E+03  0.24030364751E+03  0.12459860053E+03 0.  0.
          5    1    4    4  502    0  0.27899719904E+02  0.53381085016E+02 -0.98603477146E+02  0.11564026251E+03  0.47000000000E+01 0. -1.
         -5    1    4    4    0  502 -0.73502169990E+02 -0.19306905469E+02 -0.95935444014E+02  0.12247867165E+03  0.47000000000E+01 0. -1.
          5    1    5    5  503    0  0.53954624054E+02 -0.57670787360E+02 -0.56827972011E+02  0.97409083634E+02  0.47000000000E+01 0.  1.
         -5    1    5    5    0  503 -0.83521739684E+01  0.23596607813E+02 -0.14060657053E+03  0.14289456388E+03  0.47000000000E+01 0.  1.
<mgrwt>
<rscale>  0 0.27430817E+03</rscale>
<asrwt>0</asrwt>
<pdfrwt beam="1">  1        4 0.66499325E-02 0.27430817E+03</pdfrwt>
<pdfrwt beam="2">  1       -4 0.66953539E-01 0.27430817E+03</pdfrwt>
<totfact> 0.58961239E+02</totfact>
</mgrwt>
</event>
<event>
 9    1  0.8186049E-001  0.2763535E+03  0.7818608E-02  0.1097697E+00
         -2   -1    0    0    0  501 -0.00000000000E+00  0.00000000000E+00  0.84170145665E+03  0.84170145665E+03  0.00000000000E+00 0. -1.
          2   -1    0    0  501    0  0.00000000000E+00 -0.00000000000E+00 -0.22683600552E+02  0.22683600552E+02  0.00000000000E+00 0. -1.
         35    2    1    2    0    0  0.71054273576E-14 -0.14210854715E-13  0.81901785610E+03  0.86438505720E+03  0.27635353898E+03 0.  0.
         25    2    3    3    0    0 -0.32616536624E+02  0.49744424131E+02  0.46760981103E+03  0.48697262114E+03  0.12224995780E+03 0.  0.
         25    2    3    3    0    0  0.32616536624E+02 -0.49744424131E+02  0.35140804507E+03  0.37741243606E+03  0.12415388257E+03 0.  0.
          5    1    4    4  502    0  0.13386162984E+02 -0.38820461085E+01  0.70173497217E+00  0.14725558509E+02  0.47000000000E+01 0.  1.
         -5    1    4    4    0  502 -0.46002699608E+02  0.53626470240E+02  0.46690807606E+03  0.47224706264E+03  0.47000000000E+01 0.  1.
          5    1    5    5  503    0  0.12737602132E+02  0.16969830722E+02  0.26707918547E+03  0.26796194315E+03  0.47000000000E+01 0.  1.
         -5    1    5    5    0  503  0.19878934491E+02 -0.66714254853E+02  0.84328859595E+02  0.10945049291E+03  0.47000000000E+01 0.  1.
<mgrwt>
<rscale>  0 0.27635354E+03</rscale>
<asrwt>0</asrwt>
<pdfrwt beam="1">  1        2 0.34897854E-02 0.27635354E+03</pdfrwt>
<pdfrwt beam="2">  1       -2 0.12949251E+00 0.27635354E+03</pdfrwt>
<totfact> 0.11739579E+03</totfact>
</mgrwt>
</event>
<event>
 9    1  0.8186049E-001  0.2652511E+03  0.7818608E-02  0.1104029E+00
         -1   -1    0    0    0  501 -0.00000000000E+00  0.00000000000E+00  0.14412801572E+03  0.14412801572E+03  0.00000000000E+00 0.  1.
          1   -1    0    0  501    0  0.00000000000E+00 -0.00000000000E+00 -0.12204110650E+03  0.12204110650E+03  0.00000000000E+00 0.  1.
         35    2    1    2    0    0  0.00000000000E+00  0.00000000000E+00  0.22086909223E+02  0.26616912221E+03  0.26525114526E+03 0.  0.
         25    2    3    3    0    0  0.38207028548E+02 -0.17463909986E+02  0.33113106058E+02  0.13573613100E+03  0.12475197106E+03 0.  0.
         25    2    3    3    0    0 -0.38207028548E+02  0.17463909986E+02 -0.11026196836E+02  0.13043299122E+03  0.12298952394E+03 0.  0.
          5    1    4    4  502    0 -0.79649294011E+01 -0.49399176745E+02 -0.23841732246E+02  0.55625865925E+02  0.47000000000E+01 0.  1.
         -5    1    4    4    0  502  0.46171957949E+02  0.31935266759E+02  0.56954838304E+02  0.80110265073E+02  0.47000000000E+01 0.  1.
          5    1    5    5  503    0 -0.22180871742E+02  0.16173824366E+02 -0.66706736289E+02  0.72287359422E+02  0.47000000000E+01 0.  1.
         -5    1    5    5    0  503 -0.16026156806E+02  0.12900856206E+01  0.55680539453E+02  0.58145631794E+02  0.47000000000E+01 0.  1.
<mgrwt>
<rscale>  0 0.26525115E+03</rscale>
<asrwt>0</asrwt>
<pdfrwt beam="1">  1        1 0.18775555E-01 0.26525115E+03</pdfrwt>
<pdfrwt beam="2">  1       -1 0.22173541E-01 0.26525115E+03</pdfrwt>
<totfact> 0.46773386E+03</totfact>
</mgrwt>
</event>
<event>
 9    1  0.8186049E-001  0.2663873E+03  0.7818608E-02  0.1103365E+00
          2   -1    0    0  501    0  0.00000000000E+00  0.00000000000E+00  0.80217320248E+03  0.80217320248E+03  0.00000000000E+00 0. -1.
         -2   -1    0    0    0  501 -0.00000000000E+00 -0.00000000000E+00 -0.22115614602E+02  0.22115614602E+02  0.00000000000E+00 0. -1.
         35    2    1    2    0    0  0.71054273576E-14 -0.71054273576E-14  0.78005758788E+03  0.82428881709E+03  0.26638733746E+03 0.  0.
         25    2    3    3    0    0 -0.27104584448E+02  0.37022100501E+02  0.41937965927E+03  0.43996061412E+03  0.12482287025E+03 0.  0.
         25    2    3    3    0    0  0.27104584448E+02 -0.37022100501E+02  0.36067792861E+03  0.38432820297E+03  0.12455643295E+03 0.  0.
          5    1    4    4  502    0  0.33182047401E+02 -0.24793336915E+02  0.86334746698E+02  0.95872500293E+02  0.47000000000E+01 0.  1.
         -5    1    4    4    0  502 -0.60286631849E+02  0.61815437416E+02  0.33304491258E+03  0.34408811383E+03  0.47000000000E+01 0.  1.
          5    1    5    5  503    0  0.69361750431E+01 -0.68752543284E+02  0.10453584438E+03  0.12539878585E+03  0.47000000000E+01 0.  1.
         -5    1    5    5    0  503  0.20168409405E+02  0.31730442783E+02  0.25614208422E+03  0.25892941711E+03  0.47000000000E+01 0.  1.
<mgrwt>
<rscale>  0 0.26638734E+03</rscale>
<asrwt>0</asrwt>
<pdfrwt beam="1">  1        2 0.12341124E+00 0.26638734E+03</pdfrwt>
<pdfrwt beam="2">  1       -2 0.34024029E-02 0.26638734E+03</pdfrwt>
<totfact> 0.12336392E+04</totfact>
</mgrwt>
</event>
<event>
 9    1  0.8186049E-001  0.2793875E+03  0.7818608E-02  0.1096024E+00
          2   -1    0    0  501    0  0.00000000000E+00  0.00000000000E+00  0.10271536844E+03  0.10271536844E+03  0.00000000000E+00 0. -1.
         -2   -1    0    0    0  501 -0.00000000000E+00 -0.00000000000E+00 -0.18998462361E+03  0.18998462361E+03  0.00000000000E+00 0. -1.
         35    2    1    2    0    0  0.00000000000E+00  0.00000000000E+00 -0.87269255171E+02  0.29269999205E+03  0.27938747725E+03 0.  0.
         25    2    3    3    0    0  0.60473040916E+02 -0.92919131977E+01 -0.42448393867E+02  0.14589394501E+03  0.12545855380E+03 0.  0.
         25    2    3    3    0    0 -0.60473040916E+02  0.92919131977E+01 -0.44820861304E+02  0.14680604703E+03  0.12569716587E+03 0.  0.
          5    1    4    4  502    0  0.38911417742E+02 -0.32659966571E+02 -0.80983517494E+02  0.95714115745E+02  0.47000000000E+01 0.  1.
         -5    1    4    4    0  502  0.21561623174E+02  0.23368053374E+02  0.38535123628E+02  0.50179829268E+02  0.47000000000E+01 0.  1.
          5    1    5    5  503    0  0.13187690909E+02 -0.45350875869E+02 -0.94517476258E+01  0.48394655353E+02  0.47000000000E+01 0. -1.
         -5    1    5    5    0  503 -0.73660731826E+02  0.54642789066E+02 -0.35369113678E+02  0.98411391680E+02  0.47000000000E+01 0. -1.
<mgrwt>
<rscale>  0 0.27938748E+03</rscale>
<asrwt>0</asrwt>
<pdfrwt beam="1">  1        2 0.15802364E-01 0.27938748E+03</pdfrwt>
<pdfrwt beam="2">  1       -2 0.29228404E-01 0.27938748E+03</pdfrwt>
<totfact> 0.39089180E+03</totfact>
</mgrwt>
</event>
<event>
 9    1  0.8186049E-001  0.2722533E+03  0.7818608E-02  0.1099997E+00
         -2   -1    0    0    0  501 -0.00000000000E+00  0.00000000000E+00  0.10501632978E+04  0.10501632978E+04  0.00000000000E+00 0. -1.
          2   -1    0    0  501    0  0.00000000000E+00 -0.00000000000E+00 -0.17645320163E+02  0.17645320163E+02  0.00000000000E+00 0. -1.
         35    2    1    2    0    0 -0.71054273576E-14  0.17763568394E-14  0.10325179776E+04  0.10678086179E+04  0.27225332037E+03 0.  0.
         25    2    3    3    0    0 -0.29236122571E+02 -0.45571412659E+01  0.34571458555E+03  0.36920962397E+03  0.12618103410E+03 0.  0.
         25    2    3    3    0    0  0.29236122571E+02  0.45571412659E+01  0.68680339207E+03  0.69859899398E+03  0.12436292307E+03 0.  0.
          5    1    4    4  502    0 -0.53569669957E+02 -0.36441518101E+02  0.30508641555E+03  0.31192547946E+03  0.47000000000E+01 0.  1.
         -5    1    4    4    0  502  0.24333547386E+02  0.31884376835E+02  0.40628170005E+02  0.57284144513E+02  0.47000000000E+01 0.  1.
          5    1    5    5  503    0  0.96156917552E+01  0.12675914252E+02  0.62966114442E+01  0.17744792073E+02  0.47000000000E+01 0.  1.
         -5    1    5    5    0  503  0.19620430816E+02 -0.81187729856E+01  0.68050678062E+03  0.68085420191E+03  0.47000000000E+01 0.  1.
<mgrwt>
<rscale>  0 0.27225332E+03</rscale>
<asrwt>0</asrwt>
<pdfrwt beam="1">  1        2 0.27146655E-02 0.27225332E+03</pdfrwt>
<pdfrwt beam="2">  1       -2 0.16156354E+00 0.27225332E+03</pdfrwt>
<totfact> 0.93735844E+02</totfact>
</mgrwt>
</event>
<event>
 9    1  0.8186049E-001  0.2840785E+03  0.7818608E-02  0.1093482E+00
          2   -1    0    0  501    0  0.00000000000E+00  0.00000000000E+00  0.57134124526E+03  0.57134124526E+03  0.00000000000E+00 0.  1.
         -2   -1    0    0    0  501 -0.00000000000E+00 -0.00000000000E+00 -0.35311908322E+02  0.35311908322E+02  0.00000000000E+00 0.  1.
         35    2    1    2    0    0  0.71054273576E-14 -0.71054273576E-14  0.53602933694E+03  0.60665315358E+03  0.28407850798E+03 0.  0.
         25    2    3    3    0    0  0.18316321353E+02 -0.59284212208E+02  0.20642903923E+03  0.24886035083E+03  0.12437210513E+03 0.  0.
         25    2    3    3    0    0 -0.18316321353E+02  0.59284212208E+02  0.32960029771E+03  0.35779280275E+03  0.12461632318E+03 0.  0.
          5    1    4    4  502    0 -0.51052346701E+02 -0.79371600627E+01  0.89582017923E+02  0.10351989446E+03  0.47000000000E+01 0. -1.
         -5    1    4    4    0  502  0.69368668054E+02 -0.51347052146E+02  0.11684702130E+03  0.14534045637E+03  0.47000000000E+01 0. -1.
          5    1    5    5  503    0  0.28121448204E+02 -0.25344799700E+02  0.57185694669E+02  0.68742042417E+02  0.47000000000E+01 0.  1.
         -5    1    5    5    0  503 -0.46437769557E+02  0.84629011908E+02  0.27241460304E+03  0.28905076033E+03  0.47000000000E+01 0.  1.
<mgrwt>
<rscale>  0 0.28407851E+03</rscale>
<asrwt>0</asrwt>
<pdfrwt beam="1">  1        2 0.87898647E-01 0.28407851E+03</pdfrwt>
<pdfrwt beam="2">  1       -2 0.54326017E-02 0.28407851E+03</pdfrwt>
<totfact> 0.91818222E+03</totfact>
</mgrwt>
</event>
<event>
 9    1  0.8186049E-001  0.2753312E+03  0.7818608E-02  0.1098267E+00
         -1   -1    0    0    0  501 -0.00000000000E+00  0.00000000000E+00  0.13239946641E+02  0.13239946641E+02  0.00000000000E+00 0.  1.
          1   -1    0    0  501    0  0.00000000000E+00 -0.00000000000E+00 -0.14314122699E+04  0.14314122699E+04  0.00000000000E+00 0.  1.
         35    2    1    2    0    0  0.00000000000E+00  0.00000000000E+00 -0.14181723233E+04  0.14446522166E+04  0.27533123379E+03 0.  0.
         25    2    3    3    0    0 -0.34498657582E+02 -0.62078146873E+01 -0.97284559340E+03  0.98051047471E+03  0.11723287962E+03 0.  0.
         25    2    3    3    0    0  0.34498657582E+02  0.62078146873E+01 -0.44532672989E+03  0.46414174187E+03  0.12602763924E+03 0.  0.
          5    1    4    4  502    0 -0.83373232516E+01  0.52795469189E+02 -0.32021290937E+03  0.32467717790E+03  0.47000000000E+01 0.  1.
         -5    1    4    4    0  502 -0.26161334331E+02 -0.59003283876E+02 -0.65263268404E+03  0.65583329680E+03  0.47000000000E+01 0.  1.
          5    1    5    5  503    0  0.72057922584E+02 -0.27717655253E+02 -0.22152409961E+03  0.23463936015E+03  0.47000000000E+01 0. -1.
         -5    1    5    5    0  503 -0.37559265002E+02  0.33925469940E+02 -0.22380263027E+03  0.22950238172E+03  0.47000000000E+01 0. -1.
<mgrwt>
<rscale>  0 0.27533123E+03</rscale>
<asrwt>0</asrwt>
<pdfrwt beam="1">  1        1 0.22021720E+00 0.27533123E+03</pdfrwt>
<pdfrwt beam="2">  1       -1 0.20369156E-02 0.27533123E+03</pdfrwt>
<totfact> 0.53076308E+03</totfact>
</mgrwt>
</event>
<event>
 9    1  0.8186049E-001  0.2736983E+03  0.7818608E-02  0.1099181E+00
         -2   -1    0    0    0  501 -0.00000000000E+00  0.00000000000E+00  0.11836137680E+02  0.11836137680E+02  0.00000000000E+00 0. -1.
          2   -1    0    0  501    0  0.00000000000E+00 -0.00000000000E+00 -0.15822468981E+04  0.15822468981E+04  0.00000000000E+00 0. -1.
         35    2    1    2    0    0  0.00000000000E+00  0.71054273576E-14 -0.15704107604E+04  0.15940830358E+04  0.27369831661E+03 0.  0.
         25    2    3    3    0    0  0.75668746453E+01  0.46420259432E+02 -0.74169363601E+03  0.75401804864E+03  0.12736431957E+03 0.  0.
         25    2    3    3    0    0 -0.75668746453E+01 -0.46420259432E+02 -0.82871712438E+03  0.84006498711E+03  0.12932521892E+03 0.  0.
          5    1    4    4  502    0  0.40256730562E+02  0.64485047187E+02 -0.26190461813E+03  0.27275455022E+03  0.47000000000E+01 0.  1.
         -5    1    4    4    0  502 -0.32689855916E+02 -0.18064787755E+02 -0.47978901788E+03  0.48126349842E+03  0.47000000000E+01 0.  1.
          5    1    5    5  503    0  0.41465653217E+02 -0.32690626507E+02 -0.69315728530E+03  0.69518140771E+03  0.47000000000E+01 0. -1.
         -5    1    5    5    0  503 -0.49032527862E+02 -0.13729632925E+02 -0.13555983908E+03  0.14488357940E+03  0.47000000000E+01 0. -1.
<mgrwt>
<rscale>  0 0.27369832E+03</rscale>
<asrwt>0</asrwt>
<pdfrwt beam="1">  1        2 0.24342269E+00 0.27369832E+03</pdfrwt>
<pdfrwt beam="2">  1       -2 0.18209436E-02 0.27369832E+03</pdfrwt>
<totfact> 0.10944106E+04</totfact>
</mgrwt>
</event>
<event>
 9    1  0.8186049E-001  0.2839826E+03  0.7818608E-02  0.1093533E+00
          1   -1    0    0  501    0  0.00000000000E+00  0.00000000000E+00  0.97499654079E+03  0.97499654079E+03  0.00000000000E+00 0.  1.
         -1   -1    0    0    0  501 -0.00000000000E+00 -0.00000000000E+00 -0.20678569852E+02  0.20678569852E+02  0.00000000000E+00 0.  1.
         35    2    1    2    0    0  0.00000000000E+00  0.35527136788E-14  0.95431797094E+03  0.99567511064E+03  0.28398263379E+03 0.  0.
         25    2    3    3    0    0  0.45221306271E+02  0.13976551098E+02  0.33247795177E+03  0.35975108106E+03  0.12899202066E+03 0.  0.
         25    2    3    3    0    0 -0.45221306271E+02 -0.13976551098E+02  0.62184001918E+03  0.63592402958E+03  0.12439474036E+03 0.  0.
          5    1    4    4  502    0 -0.29353313834E+02  0.26032624501E+02  0.22411528049E+03  0.22757210620E+03  0.47000000000E+01 0. -1.
         -5    1    4    4    0  502  0.74574620105E+02 -0.12056073403E+02  0.10836267128E+03  0.13217897486E+03  0.47000000000E+01 0. -1.
          5    1    5    5  503    0  0.26405132255E+02 -0.33073413451E+02  0.39372145826E+03  0.39601737132E+03  0.47000000000E+01 0.  1.
         -5    1    5    5    0  503 -0.71626438526E+02  0.19096862353E+02  0.22811856091E+03  0.23990665827E+03  0.47000000000E+01 0.  1.
<mgrwt>
<rscale>  0 0.28398263E+03</rscale>
<asrwt>0</asrwt>
<pdfrwt beam="1">  1        1 0.14999943E+00 0.28398263E+03</pdfrwt>
<pdfrwt beam="2">  1       -1 0.31813192E-02 0.28398263E+03</pdfrwt>
<totfact> 0.57765509E+03</totfact>
</mgrwt>
</event>
<event>
 9    1  0.8186049E-001  0.2712847E+03  0.7818608E-02  0.1100547E+00
          2   -1    0    0  501    0  0.00000000000E+00  0.00000000000E+00  0.68309839371E+02  0.68309839371E+02  0.00000000000E+00 0.  1.
         -2   -1    0    0    0  501 -0.00000000000E+00 -0.00000000000E+00 -0.26934395303E+03  0.26934395303E+03  0.00000000000E+00 0.  1.
         35    2    1    2    0    0  0.17763568394E-14  0.71054273576E-14 -0.20103411366E+03  0.33765379240E+03  0.27128466353E+03 0.  0.
         25    2    3    3    0    0  0.51052532150E+01 -0.47729047236E+02 -0.14933206975E+03  0.19450607755E+03  0.11501487551E+03 0.  0.
         25    2    3    3    0    0 -0.51052532150E+01  0.47729047236E+02 -0.51702043901E+02  0.14314771484E+03  0.12455537468E+03 0.  0.
          5    1    4    4  502    0 -0.85348458835E+01  0.26254949616E+02 -0.10136091534E+03  0.10515840971E+03  0.47000000000E+01 0. -1.
         -5    1    4    4    0  502  0.13640099098E+02 -0.73983996851E+02 -0.47971154413E+02  0.89347667844E+02  0.47000000000E+01 0. -1.
          5    1    5    5  503    0  0.54984700733E+02  0.44238717904E+02 -0.41241119319E+02  0.81873691740E+02  0.47000000000E+01 0.  1.
         -5    1    5    5    0  503 -0.60089953948E+02  0.34903293313E+01 -0.10460924582E+02  0.61274023105E+02  0.47000000000E+01 0.  1.
<mgrwt>
<rscale>  0 0.27128466E+03</rscale>
<asrwt>0</asrwt>
<pdfrwt beam="1">  1        2 0.10509206E-01 0.27128466E+03</pdfrwt>
<pdfrwt beam="2">  1       -2 0.41437531E-01 0.27128466E+03</pdfrwt>
<totfact> 0.33342782E+03</totfact>
</mgrwt>
</event>
<event>
 9    1  0.8186049E-001  0.2735186E+03  0.7818608E-02  0.1099283E+00
         -3   -1    0    0    0  501 -0.00000000000E+00  0.00000000000E+00  0.48920600620E+03  0.48920600620E+03  0.00000000000E+00 0. -1.
          3   -1    0    0  501    0  0.00000000000E+00 -0.00000000000E+00 -0.38231542372E+02  0.38231542372E+02  0.00000000000E+00 0. -1.
         35    2    1    2    0    0  0.00000000000E+00  0.71054273576E-14  0.45097446383E+03  0.52743754857E+03  0.27351855626E+03 0.  0.
         25    2    3    3    0    0 -0.47672826145E+02 -0.27210512915E+02  0.23816939291E+03  0.27444830981E+03  0.12483631152E+03 0.  0.
         25    2    3    3    0    0  0.47672826145E+02  0.27210512915E+02  0.21280507091E+03  0.25298923876E+03  0.12531738249E+03 0.  0.
          5    1    4    4  502    0 -0.15161499383E+02 -0.75941054073E+02  0.13313643308E+03  0.15409190300E+03  0.47000000000E+01 0.  1.
         -5    1    4    4    0  502 -0.32511326762E+02  0.48730541158E+02  0.10503295983E+03  0.12035640681E+03  0.47000000000E+01 0.  1.
          5    1    5    5  503    0  0.54965343957E+02  0.82160869354E+01  0.20298324140E+02  0.59353223027E+02  0.47000000000E+01 0. -1.
         -5    1    5    5    0  503 -0.72925178117E+01  0.18994425979E+02  0.19250674677E+03  0.19363601573E+03  0.47000000000E+01 0. -1.
<mgrwt>
<rscale>  0 0.27351856E+03</rscale>
<asrwt>0</asrwt>
<pdfrwt beam="1">  1        3 0.58817761E-02 0.27351856E+03</pdfrwt>
<pdfrwt beam="2">  1       -3 0.75262458E-01 0.27351856E+03</pdfrwt>
<totfact> 0.75983023E+02</totfact>
</mgrwt>
</event>
<event>
 9    1  0.8186049E-001  0.2754616E+03  0.7818608E-02  0.1098194E+00
         -1   -1    0    0    0  501 -0.00000000000E+00  0.00000000000E+00  0.30824634305E+02  0.30824634305E+02  0.00000000000E+00 0. -1.
          1   -1    0    0  501    0  0.00000000000E+00 -0.00000000000E+00 -0.61540950696E+03  0.61540950696E+03  0.00000000000E+00 0. -1.
         35    2    1    2    0    0  0.71054273576E-14  0.00000000000E+00 -0.58458487265E+03  0.64623414126E+03  0.27546159805E+03 0.  0.
         25    2    3    3    0    0 -0.25935082627E+02 -0.21780812912E+02 -0.39623583380E+03  0.41724852298E+03  0.12627930002E+03 0.  0.
         25    2    3    3    0    0  0.25935082627E+02  0.21780812912E+02 -0.18834903885E+03  0.22898561829E+03  0.12574585729E+03 0.  0.
          5    1    4    4  502    0 -0.74433335747E+02 -0.20482610794E+02 -0.18606887619E+03  0.20150328906E+03  0.47000000000E+01 0. -1.
         -5    1    4    4    0  502  0.48498253120E+02 -0.12982021182E+01 -0.21016695762E+03  0.21574523392E+03  0.47000000000E+01 0. -1.
          5    1    5    5  503    0  0.18963770235E+01  0.70797564124E+02 -0.13492887796E+03  0.15245912055E+03  0.47000000000E+01 0.  1.
         -5    1    5    5    0  503  0.24038705603E+02 -0.49016751212E+02 -0.53420160890E+02  0.76526497737E+02  0.47000000000E+01 0.  1.
<mgrwt>
<rscale>  0 0.27546160E+03</rscale>
<asrwt>0</asrwt>
<pdfrwt beam="1">  1        1 0.94678388E-01 0.27546160E+03</pdfrwt>
<pdfrwt beam="2">  1       -1 0.47422513E-02 0.27546160E+03</pdfrwt>
<totfact> 0.64455876E+03</totfact>
</mgrwt>
</event>
<event>
 9    1  0.8186049E-001  0.2710379E+03  0.7818608E-02  0.1100687E+00
         -1   -1    0    0    0  501 -0.00000000000E+00  0.00000000000E+00  0.20227645001E+02  0.20227645001E+02  0.00000000000E+00 0. -1.
          1   -1    0    0  501    0  0.00000000000E+00 -0.00000000000E+00 -0.90793526976E+03  0.90793526976E+03  0.00000000000E+00 0. -1.
         35    2    1    2    0    0 -0.35527136788E-14  0.00000000000E+00 -0.88770762476E+03  0.92816291476E+03  0.27103794805E+03 0.  0.
         25    2    3    3    0    0 -0.28935753613E+02 -0.46119804014E+01 -0.57093449415E+03  0.58523470116E+03  0.12519948333E+03 0.  0.
         25    2    3    3    0    0  0.28935753613E+02  0.46119804014E+01 -0.31677313060E+03  0.34292821360E+03  0.12804684772E+03 0.  0.
          5    1    4    4  502    0 -0.10280604592E+02 -0.42136649861E+02 -0.50556674880E+03  0.50744557894E+03  0.47000000000E+01 0. -1.
         -5    1    4    4    0  502 -0.18655149021E+02  0.37524669460E+02 -0.65367745352E+02  0.77789122218E+02  0.47000000000E+01 0. -1.
          5    1    5    5  503    0 -0.47199203311E+02 -0.39819219472E+01 -0.17892295267E+03  0.18514624891E+03  0.47000000000E+01 0.  1.
         -5    1    5    5    0  503  0.76134956924E+02  0.85939023486E+01 -0.13785017794E+03  0.15778196469E+03  0.47000000000E+01 0.  1.
<mgrwt>
<rscale>  0 0.27103795E+03</rscale>
<asrwt>0</asrwt>
<pdfrwt beam="1">  1        1 0.13968238E+00 0.27103795E+03</pdfrwt>
<pdfrwt beam="2">  1       -1 0.31119448E-02 0.27103795E+03</pdfrwt>
<totfact> 0.67140872E+03</totfact>
</mgrwt>
</event>
<event>
 9    1  0.8186049E-001  0.2740770E+03  0.7818608E-02  0.1098969E+00
         -1   -1    0    0    0  501 -0.00000000000E+00  0.00000000000E+00  0.63579114787E+03  0.63579114787E+03  0.00000000000E+00 0. -1.
          1   -1    0    0  501    0  0.00000000000E+00 -0.00000000000E+00 -0.29537288780E+02  0.29537288780E+02  0.00000000000E+00 0. -1.
         35    2    1    2    0    0  0.00000000000E+00  0.71054273576E-14  0.60625385910E+03  0.66532843665E+03  0.27407697268E+03 0.  0.
         25    2    3    3    0    0  0.13053335633E+02 -0.49724058618E+02  0.35625405675E+03  0.38122879985E+03  0.12560084914E+03 0.  0.
         25    2    3    3    0    0 -0.13053335633E+02  0.49724058618E+02  0.24999980234E+03  0.28409963681E+03  0.12477912840E+03 0.  0.
          5    1    4    4  502    0  0.68262900027E+02 -0.40295868569E+02  0.21578999653E+03  0.22993693297E+03  0.47000000000E+01 0.  1.
         -5    1    4    4    0  502 -0.55209564393E+02 -0.94281900485E+01  0.14046406022E+03  0.15129186688E+03  0.47000000000E+01 0.  1.
          5    1    5    5  503    0  0.39840488125E+02  0.66634315015E+02  0.16566522122E+03  0.18301489544E+03  0.47000000000E+01 0. -1.
         -5    1    5    5    0  503 -0.52893823759E+02 -0.16910256398E+02  0.84334581123E+02  0.10108474136E+03  0.47000000000E+01 0. -1.
<mgrwt>
<rscale>  0 0.27407697E+03</rscale>
<asrwt>0</asrwt>
<pdfrwt beam="1">  1        1 0.45441988E-02 0.27407697E+03</pdfrwt>
<pdfrwt beam="2">  1       -1 0.97814012E-01 0.27407697E+03</pdfrwt>
<totfact> 0.20114382E+03</totfact>
</mgrwt>
</event>
<event>
 9    1  0.8186049E-001  0.2988762E+03  0.7818608E-02  0.1085804E+00
         -1   -1    0    0    0  501 -0.00000000000E+00  0.00000000000E+00  0.12284512967E+03  0.12284512967E+03  0.00000000000E+00 0. -1.
          1   -1    0    0  501    0  0.00000000000E+00 -0.00000000000E+00 -0.18178776575E+03  0.18178776575E+03  0.00000000000E+00 0. -1.
         35    2    1    2    0    0 -0.14210854715E-13 -0.35527136788E-14 -0.58942636075E+02  0.30463289542E+03  0.29887617273E+03 0.  0.
         25    2    3    3    0    0  0.77475237398E+02  0.20771323030E+01 -0.60096049955E+02  0.15700953660E+03  0.12261212206E+03 0.  0.
         25    2    3    3    0    0 -0.77475237398E+02 -0.20771323030E+01  0.11534138803E+01  0.14762335882E+03  0.12563677334E+03 0.  0.
          5    1    4    4  502    0 -0.21953504756E+01 -0.19151463313E+02  0.29248580137E+02  0.35343564489E+02  0.47000000000E+01 0. -1.
         -5    1    4    4    0  502  0.79670587874E+02  0.21228595616E+02 -0.89344630093E+02  0.12166597211E+03  0.47000000000E+01 0. -1.
          5    1    5    5  503    0 -0.43846155337E+02 -0.52992834568E+02  0.35394650683E+02  0.77495787953E+02  0.47000000000E+01 0.  1.
         -5    1    5    5    0  503 -0.33629082061E+02  0.50915702265E+02 -0.34241236803E+02  0.70127570863E+02  0.47000000000E+01 0.  1.
<mgrwt>
<rscale>  0 0.29887617E+03</rscale>
<asrwt>0</asrwt>
<pdfrwt beam="1">  1        1 0.27967349E-01 0.29887617E+03</pdfrwt>
<pdfrwt beam="2">  1       -1 0.18899251E-01 0.29887617E+03</pdfrwt>
<totfact> 0.36568432E+03</totfact>
</mgrwt>
</event>
<event>
 9    1  0.8186049E-001  0.2719073E+03  0.7818608E-02  0.1100193E+00
         -1   -1    0    0    0  501 -0.00000000000E+00  0.00000000000E+00  0.32460871998E+02  0.32460871998E+02  0.00000000000E+00 0. -1.
          1   -1    0    0  501    0  0.00000000000E+00 -0.00000000000E+00 -0.56940549847E+03  0.56940549847E+03  0.00000000000E+00 0. -1.
         35    2    1    2    0    0  0.00000000000E+00  0.00000000000E+00 -0.53694462648E+03  0.60186637047E+03  0.27190732981E+03 0.  0.
         25    2    3    3    0    0  0.48517934127E+02  0.21871979321E+02 -0.31427461490E+03  0.34272273187E+03  0.12592840808E+03 0.  0.
         25    2    3    3    0    0 -0.48517934127E+02 -0.21871979321E+02 -0.22267001158E+03  0.25914363860E+03  0.12141300572E+03 0.  0.
          5    1    4    4  502    0  0.28581610048E+02 -0.11951384288E+02 -0.29851645309E+03  0.30015647050E+03  0.47000000000E+01 0.  1.
         -5    1    4    4    0  502  0.19936324079E+02  0.33823363609E+02 -0.15758161809E+02  0.42566261372E+02  0.47000000000E+01 0.  1.
          5    1    5    5  503    0  0.88352000112E+01 -0.33217579395E+02 -0.66775717589E+01  0.35329142428E+02  0.47000000000E+01 0.  1.
         -5    1    5    5    0  503 -0.57353134138E+02  0.11345600074E+02 -0.21599243982E+03  0.22381449617E+03  0.47000000000E+01 0.  1.
<mgrwt>
<rscale>  0 0.27190733E+03</rscale>
<asrwt>0</asrwt>
<pdfrwt beam="1">  1        1 0.87600838E-01 0.27190733E+03</pdfrwt>
<pdfrwt beam="2">  1       -1 0.49939808E-02 0.27190733E+03</pdfrwt>
<totfact> 0.66399376E+03</totfact>
</mgrwt>
</event>
<event>
 9    1  0.8186049E-001  0.2782209E+03  0.7818608E-02  0.1096665E+00
          2   -1    0    0  501    0  0.00000000000E+00  0.00000000000E+00  0.16852292769E+04  0.16852292769E+04  0.00000000000E+00 0.  1.
         -2   -1    0    0    0  501 -0.00000000000E+00 -0.00000000000E+00 -0.11483134634E+02  0.11483134634E+02  0.00000000000E+00 0.  1.
         35    2    1    2    0    0  0.00000000000E+00  0.17763568394E-14  0.16737461423E+04  0.16967124116E+04  0.27822088114E+03 0.  0.
         25    2    3    3    0    0  0.57936401339E+02 -0.11691197529E+01  0.76447330293E+03  0.77695224073E+03  0.12600539685E+03 0.  0.
         25    2    3    3    0    0 -0.57936401339E+02  0.11691197529E+01  0.90927283936E+03  0.91976017083E+03  0.12579221760E+03 0.  0.
          5    1    4    4  502    0  0.87600914043E+02  0.11974542702E+02  0.68900246591E+03  0.69466812065E+03  0.47000000000E+01 0.  1.
         -5    1    4    4    0  502 -0.29664512704E+02 -0.13143662455E+02  0.75470837021E+02  0.82284120080E+02  0.47000000000E+01 0.  1.
          5    1    5    5  503    0 -0.57509863264E+02  0.65864022814E+01  0.91060328531E+03  0.91245339513E+03  0.47000000000E+01 0.  1.
         -5    1    5    5    0  503 -0.42653807515E+00 -0.54172825285E+01 -0.13304459494E+01  0.73067757012E+01  0.47000000000E+01 0.  1.
<mgrwt>
<rscale>  0 0.27822088E+03</rscale>
<asrwt>0</asrwt>
<pdfrwt beam="1">  1        2 0.25926585E+00 0.27822088E+03</pdfrwt>
<pdfrwt beam="2">  1       -2 0.17666374E-02 0.27822088E+03</pdfrwt>
<totfact> 0.10096076E+04</totfact>
</mgrwt>
</event>
<event>
 9    1  0.8186049E-001  0.2721014E+03  0.7818608E-02  0.1100083E+00
         -1   -1    0    0    0  501 -0.00000000000E+00  0.00000000000E+00  0.26901057806E+02  0.26901057806E+02  0.00000000000E+00 0. -1.
          1   -1    0    0  501    0  0.00000000000E+00 -0.00000000000E+00 -0.68806910814E+03  0.68806910814E+03  0.00000000000E+00 0. -1.
         35    2    1    2    0    0 -0.35527136788E-14  0.35527136788E-14 -0.66116805033E+03  0.71497016595E+03  0.27210135503E+03 0.  0.
         25    2    3    3    0    0 -0.16510886307E+02 -0.27878240049E+02 -0.21457929209E+03  0.25048451859E+03  0.12509362823E+03 0.  0.
         25    2    3    3    0    0  0.16510886307E+02  0.27878240049E+02 -0.44658875824E+03  0.46448564735E+03  0.12351352952E+03 0.  0.
          5    1    4    4  502    0  0.29452131540E+02 -0.23909713553E+02 -0.19734449493E+03  0.20101254223E+03  0.47000000000E+01 0.  1.
         -5    1    4    4    0  502 -0.45963017848E+02 -0.39685264961E+01 -0.17234797167E+02  0.49471976367E+02  0.47000000000E+01 0.  1.
          5    1    5    5  503    0  0.21483746470E+02 -0.61816089864E+01 -0.75278598221E+01  0.24052491046E+02  0.47000000000E+01 0.  1.
         -5    1    5    5    0  503 -0.49728601624E+01  0.34059849035E+02 -0.43906089842E+03  0.44043315631E+03  0.47000000000E+01 0.  1.
<mgrwt>
<rscale>  0 0.27210136E+03</rscale>
<asrwt>0</asrwt>
<pdfrwt beam="1">  1        1 0.10585678E+00 0.27210136E+03</pdfrwt>
<pdfrwt beam="2">  1       -1 0.41386243E-02 0.27210136E+03</pdfrwt>
<totfact> 0.67346664E+03</totfact>
</mgrwt>
</event>
<event>
 9    1  0.8186049E-001  0.2640996E+03  0.7818608E-02  0.1104705E+00
         -2   -1    0    0    0  501 -0.00000000000E+00  0.00000000000E+00  0.23835750538E+02  0.23835750538E+02  0.00000000000E+00 0.  1.
          2   -1    0    0  501    0  0.00000000000E+00 -0.00000000000E+00 -0.73155466740E+03  0.73155466740E+03  0.00000000000E+00 0.  1.
         35    2    1    2    0    0 -0.35527136788E-14  0.71054273576E-14 -0.70771891686E+03  0.75539041794E+03  0.26409963693E+03 0.  0.
         25    2    3    3    0    0 -0.20410274417E+02  0.31938087966E+02 -0.29994918537E+03  0.32718589225E+03  0.12507786980E+03 0.  0.
         25    2    3    3    0    0  0.20410274417E+02 -0.31938087966E+02 -0.40776973149E+03  0.42820452569E+03  0.12508533543E+03 0.  0.
          5    1    4    4  502    0 -0.54585262167E+00 -0.46609161397E+02 -0.14327592500E+03  0.15074081254E+03  0.47000000000E+01 0.  1.
         -5    1    4    4    0  502 -0.19864421795E+02  0.78547249364E+02 -0.15667326037E+03  0.17644507970E+03  0.47000000000E+01 0.  1.
          5    1    5    5  503    0 -0.80664698402E+01 -0.15734976653E+01 -0.37473254192E+03  0.37485211991E+03  0.47000000000E+01 0. -1.
         -5    1    5    5    0  503  0.28476744257E+02 -0.30364590301E+02 -0.33037189573E+02  0.53352405780E+02  0.47000000000E+01 0. -1.
<mgrwt>
<rscale>  0 0.26409964E+03</rscale>
<asrwt>0</asrwt>
<pdfrwt beam="1">  1        2 0.11254686E+00 0.26409964E+03</pdfrwt>
<pdfrwt beam="2">  1       -2 0.36670391E-02 0.26409964E+03</pdfrwt>
<totfact> 0.12372012E+04</totfact>
</mgrwt>
</event>
<event>
 9    1  0.8186049E-001  0.2730541E+03  0.7818608E-02  0.1099544E+00
         -4   -1    0    0    0  501 -0.00000000000E+00  0.00000000000E+00  0.70115982333E+03  0.70115982333E+03  0.00000000000E+00 0.  1.
          4   -1    0    0  501    0  0.00000000000E+00 -0.00000000000E+00 -0.26584000834E+02  0.26584000834E+02  0.00000000000E+00 0.  1.
         35    2    1    2    0    0 -0.71054273576E-14 -0.17763568394E-14  0.67457582250E+03  0.72774382417E+03  0.27305408496E+03 0.  0.
         25    2    3    3    0    0 -0.59203144351E+02 -0.10792731651E+02  0.38294045311E+03  0.40484188064E+03  0.11675642307E+03 0.  0.
         25    2    3    3    0    0  0.59203144351E+02  0.10792731651E+02  0.29163536939E+03  0.32290194353E+03  0.12487185873E+03 0.  0.
          5    1    4    4  502    0  0.31354725152E+02  0.12535177053E+02  0.14918803512E+03  0.15303401346E+03  0.47000000000E+01 0.  1.
         -5    1    4    4    0  502 -0.90557869503E+02 -0.23327908704E+02  0.23375241799E+03  0.25180786717E+03  0.47000000000E+01 0.  1.
          5    1    5    5  503    0  0.53088719517E+02 -0.47427896568E+02  0.21384256151E+03  0.22542969775E+03  0.47000000000E+01 0. -1.
         -5    1    5    5    0  503  0.61144248346E+01  0.58220628219E+02  0.77792807877E+02  0.97472245787E+02  0.47000000000E+01 0. -1.
<mgrwt>
<rscale>  0 0.27305408E+03</rscale>
<asrwt>0</asrwt>
<pdfrwt beam="1">  1        4 0.40898468E-02 0.27305408E+03</pdfrwt>
<pdfrwt beam="2">  1       -4 0.10787073E+00 0.27305408E+03</pdfrwt>
<totfact> 0.44085141E+02</totfact>
</mgrwt>
</event>
<event>
 9    1  0.8186049E-001  0.2755255E+03  0.7818608E-02  0.1098158E+00
          2   -1    0    0  501    0  0.00000000000E+00  0.00000000000E+00  0.82979709415E+03  0.82979709415E+03  0.00000000000E+00 0. -1.
         -2   -1    0    0    0  501 -0.00000000000E+00 -0.00000000000E+00 -0.22871345046E+02  0.22871345046E+02  0.00000000000E+00 0. -1.
         35    2    1    2    0    0 -0.71054273576E-14  0.71054273576E-14  0.80692574911E+03  0.85266843920E+03  0.27552550269E+03 0.  0.
         25    2    3    3    0    0  0.58259371827E+02  0.11880281256E+02  0.36381838263E+03  0.38848694580E+03  0.12256833210E+03 0.  0.
         25    2    3    3    0    0 -0.58259371827E+02 -0.11880281256E+02  0.44310736648E+03  0.46418149339E+03  0.12483999797E+03 0.  0.
          5    1    4    4  502    0  0.30942216551E+02 -0.55228893670E+02  0.16093859502E+03  0.17300570172E+03  0.47000000000E+01 0.  1.
         -5    1    4    4    0  502  0.27317155276E+02  0.67109174925E+02  0.20287978760E+03  0.21548124408E+03  0.47000000000E+01 0.  1.
          5    1    5    5  503    0 -0.53323156012E+02 -0.60639567117E+02  0.19283085327E+03  0.20910845043E+03  0.47000000000E+01 0. -1.
         -5    1    5    5    0  503 -0.49362158144E+01  0.48759285862E+02  0.25027651321E+03  0.25507304297E+03  0.47000000000E+01 0. -1.
<mgrwt>
<rscale>  0 0.27552550E+03</rscale>
<asrwt>0</asrwt>
<pdfrwt beam="1">  1        2 0.12766107E+00 0.27552550E+03</pdfrwt>
<pdfrwt beam="2">  1       -2 0.35186691E-02 0.27552550E+03</pdfrwt>
<totfact> 0.11247117E+04</totfact>
</mgrwt>
</event>
<event>
 9    1  0.8186049E-001  0.2760332E+03  0.7818608E-02  0.1097875E+00
         -1   -1    0    0    0  501 -0.00000000000E+00  0.00000000000E+00  0.40778270044E+02  0.40778270044E+02  0.00000000000E+00 0. -1.
          1   -1    0    0  501    0  0.00000000000E+00 -0.00000000000E+00 -0.46712587493E+03  0.46712587493E+03  0.00000000000E+00 0. -1.
         35    2    1    2    0    0 -0.71054273576E-14  0.00000000000E+00 -0.42634760489E+03  0.50790414497E+03  0.27603322316E+03 0.  0.
         25    2    3    3    0    0  0.53832885286E+02 -0.17262971068E+01 -0.25238401480E+03  0.28682057236E+03  0.12516944579E+03 0.  0.
         25    2    3    3    0    0 -0.53832885286E+02  0.17262971068E+01 -0.17396359009E+03  0.22108357262E+03  0.12535412146E+03 0.  0.
          5    1    4    4  502    0  0.45204542660E+02  0.40299239334E+02 -0.46596150121E+02  0.76555669771E+02  0.47000000000E+01 0.  1.
         -5    1    4    4    0  502  0.86283426256E+01 -0.42025536441E+02 -0.20578786468E+03  0.21026490258E+03  0.47000000000E+01 0.  1.
          5    1    5    5  503    0  0.26328651971E+02  0.38630812588E+02 -0.74008336371E+02  0.87663341530E+02  0.47000000000E+01 0.  1.
         -5    1    5    5    0  503 -0.80161537257E+02 -0.36904515481E+02 -0.99955253714E+02  0.13342023109E+03  0.47000000000E+01 0.  1.
<mgrwt>
<rscale>  0 0.27603322E+03</rscale>
<asrwt>0</asrwt>
<pdfrwt beam="1">  1        1 0.71865522E-01 0.27603322E+03</pdfrwt>
<pdfrwt beam="2">  1       -1 0.62735797E-02 0.27603322E+03</pdfrwt>
<totfact> 0.61434913E+03</totfact>
</mgrwt>
</event>
<event>
 9    1  0.8186049E-001  0.2761068E+03  0.7818608E-02  0.1097834E+00
         -3   -1    0    0    0  501 -0.00000000000E+00  0.00000000000E+00  0.13049061991E+03  0.13049061991E+03  0.00000000000E+00 0. -1.
          3   -1    0    0  501    0  0.00000000000E+00 -0.00000000000E+00 -0.14605454395E+03  0.14605454395E+03  0.00000000000E+00 0. -1.
         35    2    1    2    0    0  0.00000000000E+00  0.00000000000E+00 -0.15563924047E+02  0.27654516386E+03  0.27610684874E+03 0.  0.
         25    2    3    3    0    0 -0.39857940824E+02  0.40274086623E+02 -0.17819214366E+02  0.13807798411E+03  0.12464889809E+03 0.  0.
         25    2    3    3    0    0  0.39857940824E+02 -0.40274086623E+02  0.22552903190E+01  0.13846717975E+03  0.12632266634E+03 0.  0.
          5    1    4    4  502    0 -0.14015281172E+02 -0.24507708258E+02 -0.52688061885E+02  0.59959800997E+02  0.47000000000E+01 0.  1.
         -5    1    4    4    0  502 -0.25842659653E+02  0.64781794881E+02  0.34868847519E+02  0.78118183116E+02  0.47000000000E+01 0.  1.
          5    1    5    5  503    0  0.55503087249E+02 -0.21783532717E+02 -0.51751547149E+02  0.79091261364E+02  0.47000000000E+01 0.  1.
         -5    1    5    5    0  503 -0.15645146425E+02 -0.18490553906E+02  0.54006837468E+02  0.59375918382E+02  0.47000000000E+01 0.  1.
<mgrwt>
<rscale>  0 0.27610685E+03</rscale>
<asrwt>0</asrwt>
<pdfrwt beam="1">  1        3 0.22469930E-01 0.27610685E+03</pdfrwt>
<pdfrwt beam="2">  1       -3 0.20075480E-01 0.27610685E+03</pdfrwt>
<totfact> 0.10337206E+03</totfact>
</mgrwt>
</event>
<event>
 9    1  0.8186049E-001  0.2794838E+03  0.7818608E-02  0.1095971E+00
         -2   -1    0    0    0  501 -0.00000000000E+00  0.00000000000E+00  0.18304934136E+02  0.18304934136E+02  0.00000000000E+00 0.  1.
          2   -1    0    0  501    0  0.00000000000E+00 -0.00000000000E+00 -0.10668054027E+04  0.10668054027E+04  0.00000000000E+00 0.  1.
         35    2    1    2    0    0  0.00000000000E+00  0.71054273576E-14 -0.10485004686E+04  0.10851103369E+04  0.27948382875E+03 0.  0.
         25    2    3    3    0    0 -0.44559798100E+02  0.30795614319E+02 -0.67002723717E+03  0.68363465198E+03  0.12444232948E+03 0.  0.
         25    2    3    3    0    0  0.44559798100E+02 -0.30795614319E+02 -0.37847323143E+03  0.40147568489E+03  0.12250221706E+03 0.  0.
          5    1    4    4  502    0 -0.20216731143E+02  0.99356116969E+01 -0.14268731097E+02  0.27076175598E+02  0.47000000000E+01 0. -1.
         -5    1    4    4    0  502 -0.24343066957E+02  0.20860002622E+02 -0.65575850607E+03  0.65655847638E+03  0.47000000000E+01 0. -1.
          5    1    5    5  503    0 -0.39836845514E+02 -0.18135067253E+02 -0.18142156460E+03  0.18668617792E+03  0.47000000000E+01 0. -1.
         -5    1    5    5    0  503  0.84396643614E+02 -0.12660547066E+02 -0.19705166683E+03  0.21478950698E+03  0.47000000000E+01 0. -1.
<mgrwt>
<rscale>  0 0.27948383E+03</rscale>
<asrwt>0</asrwt>
<pdfrwt beam="1">  1        2 0.16412392E+00 0.27948383E+03</pdfrwt>
<pdfrwt beam="2">  1       -2 0.28161435E-02 0.27948383E+03</pdfrwt>
<totfact> 0.11114118E+04</totfact>
</mgrwt>
</event>
<event>
 9    1  0.8186049E-001  0.2730489E+03  0.7818608E-02  0.1099547E+00
          2   -1    0    0  501    0  0.00000000000E+00  0.00000000000E+00  0.17034007908E+04  0.17034007908E+04  0.00000000000E+00 0.  1.
         -2   -1    0    0    0  501 -0.00000000000E+00 -0.00000000000E+00 -0.10942185035E+02  0.10942185035E+02  0.00000000000E+00 0.  1.
         35    2    1    2    0    0  0.00000000000E+00  0.00000000000E+00  0.16924586058E+04  0.17143429759E+04  0.27304890875E+03 0.  0.
         25    2    3    3    0    0 -0.33165823096E+02  0.44239559864E+02  0.94551516208E+03  0.95531291540E+03  0.12476671886E+03 0.  0.
         25    2    3    3    0    0  0.33165823096E+02 -0.44239559864E+02  0.74694344371E+03  0.75903006045E+03  0.12306508073E+03 0.  0.
          5    1    4    4  502    0 -0.79817528781E+02  0.26838707426E+02  0.50872640579E+03  0.51567024353E+03  0.47000000000E+01 0. -1.
         -5    1    4    4    0  502  0.46651705685E+02  0.17400852438E+02  0.43678875629E+03  0.43964267187E+03  0.47000000000E+01 0. -1.
          5    1    5    5  503    0 -0.44326428557E+02 -0.19674747560E+02  0.18916542734E+03  0.19533964488E+03  0.47000000000E+01 0. -1.
         -5    1    5    5    0  503  0.77492251652E+02 -0.24564812303E+02  0.55777801636E+03  0.56369041557E+03  0.47000000000E+01 0. -1.
<mgrwt>
<rscale>  0 0.27304891E+03</rscale>
<asrwt>0</asrwt>
<pdfrwt beam="1">  1        2 0.26206145E+00 0.27304891E+03</pdfrwt>
<pdfrwt beam="2">  1       -2 0.16834144E-02 0.27304891E+03</pdfrwt>
<totfact> 0.10596971E+04</totfact>
</mgrwt>
</event>
<event>
 9    1  0.8186049E-001  0.2718901E+03  0.7818608E-02  0.1100203E+00
         -1   -1    0    0    0  501 -0.00000000000E+00  0.00000000000E+00  0.49542298960E+01  0.49542298960E+01  0.00000000000E+00 0. -1.
          1   -1    0    0  501    0  0.00000000000E+00 -0.00000000000E+00 -0.37303589524E+04  0.37303589524E+04  0.00000000000E+00 0. -1.
         35    2    1    2    0    0  0.71054273576E-14 -0.35527136788E-14 -0.37254047225E+04  0.37353131823E+04  0.27189009430E+03 0.  0.
         25    2    3    3    0    0 -0.43514146158E+02  0.13573472224E+02 -0.14662905831E+04  0.14722935739E+04  0.12475004496E+03 0.  0.
         25    2    3    3    0    0  0.43514146158E+02 -0.13573472224E+02 -0.22591141395E+04  0.22630196084E+04  0.12483322025E+03 0.  0.
          5    1    4    4  502    0 -0.87594684266E+02  0.10938433784E+02 -0.98362482844E+03  0.98758917125E+03  0.47000000000E+01 0.  1.
         -5    1    4    4    0  502  0.44080538109E+02  0.26350384408E+01 -0.48266575461E+03  0.48470440264E+03  0.47000000000E+01 0.  1.
          5    1    5    5  503    0 -0.39512253441E+02 -0.27342530749E+02 -0.90019512277E+03  0.90148886916E+03  0.47000000000E+01 0.  1.
         -5    1    5    5    0  503  0.83026399599E+02  0.13769058525E+02 -0.13589190167E+04  0.13615307393E+04  0.47000000000E+01 0.  1.
<mgrwt>
<rscale>  0 0.27189009E+03</rscale>
<asrwt>0</asrwt>
<pdfrwt beam="1">  1        1 0.57390396E+00 0.27189009E+03</pdfrwt>
<pdfrwt beam="2">  1       -1 0.76218579E-03 0.27189009E+03</pdfrwt>
<totfact> 0.58015745E+02</totfact>
</mgrwt>
</event>
<event>
 9    1  0.8186049E-001  0.3068144E+03  0.7818608E-02  0.1081883E+00
         -1   -1    0    0    0  501 -0.00000000000E+00  0.00000000000E+00  0.23296087243E+02  0.23296087243E+02  0.00000000000E+00 0. -1.
          1   -1    0    0  501    0  0.00000000000E+00 -0.00000000000E+00 -0.10102027441E+04  0.10102027441E+04  0.00000000000E+00 0. -1.
         35    2    1    2    0    0 -0.35527136788E-14  0.14210854715E-13 -0.98690665689E+03  0.10334988314E+04  0.30681441466E+03 0.  0.
         25    2    3    3    0    0 -0.21754561407E+01  0.87273229895E+02 -0.52597140603E+03  0.54804681877E+03  0.12683866261E+03 0.  0.
         25    2    3    3    0    0  0.21754561407E+01 -0.87273229895E+02 -0.46093525086E+03  0.48545201261E+03  0.12482388312E+03 0.  0.
          5    1    4    4  502    0  0.28487180657E+02  0.26353516433E+02 -0.42078513216E+03  0.42259702405E+03  0.47000000000E+01 0. -1.
         -5    1    4    4    0  502 -0.30662636798E+02  0.60919713462E+02 -0.10518627388E+03  0.12544979472E+03  0.47000000000E+01 0. -1.
          5    1    5    5  503    0  0.60875433224E+02 -0.61808665380E+02 -0.23344895019E+03  0.24909161333E+03  0.47000000000E+01 0. -1.
         -5    1    5    5    0  503 -0.58699977083E+02 -0.25464564516E+02 -0.22748630067E+03  0.23636039928E+03  0.47000000000E+01 0. -1.
<mgrwt>
<rscale>  0 0.30681441E+03</rscale>
<asrwt>0</asrwt>
<pdfrwt beam="1">  1        1 0.15541580E+00 0.30681441E+03</pdfrwt>
<pdfrwt beam="2">  1       -1 0.35840136E-02 0.30681441E+03</pdfrwt>
<totfact> 0.45593810E+03</totfact>
</mgrwt>
</event>
<event>
 9    1  0.8186049E-001  0.2764218E+03  0.7818608E-02  0.1097659E+00
          2   -1    0    0  501    0  0.00000000000E+00  0.00000000000E+00  0.15024292979E+04  0.15024292979E+04  0.00000000000E+00 0. -1.
         -2   -1    0    0    0  501 -0.00000000000E+00 -0.00000000000E+00 -0.12714244295E+02  0.12714244295E+02  0.00000000000E+00 0. -1.
         35    2    1    2    0    0  0.00000000000E+00 -0.35527136788E-14  0.14897150536E+04  0.15151435422E+04  0.27642180181E+03 0.  0.
         25    2    3    3    0    0 -0.45521535167E+02  0.29637227848E+02  0.61766327527E+03  0.63251079919E+03  0.12494564431E+03 0.  0.
         25    2    3    3    0    0  0.45521535167E+02 -0.29637227848E+02  0.87205177834E+03  0.88263274302E+03  0.12496271242E+03 0.  0.
          5    1    4    4  502    0  0.36968148058E+02  0.26991950015E+02  0.13029193834E+03  0.13817846624E+03  0.47000000000E+01 0. -1.
         -5    1    4    4    0  502 -0.82489683225E+02  0.26452778331E+01  0.48737133694E+03  0.49433233295E+03  0.47000000000E+01 0. -1.
          5    1    5    5  503    0 -0.28206542858E+02 -0.39667043483E+02  0.17821911519E+03  0.18480591554E+03  0.47000000000E+01 0. -1.
         -5    1    5    5    0  503  0.73728078024E+02  0.10029815635E+02  0.69383266315E+03  0.69782682747E+03  0.47000000000E+01 0. -1.
<mgrwt>
<rscale>  0 0.27642180E+03</rscale>
<asrwt>0</asrwt>
<pdfrwt beam="1">  1        2 0.23114283E+00 0.27642180E+03</pdfrwt>
<pdfrwt beam="2">  1       -2 0.19560388E-02 0.27642180E+03</pdfrwt>
<totfact> 0.10867476E+04</totfact>
</mgrwt>
</event>
<event>
 9    1  0.8186049E-001  0.2917852E+03  0.7818608E-02  0.1089421E+00
          2   -1    0    0  501    0  0.00000000000E+00  0.00000000000E+00  0.71900473792E+03  0.71900473792E+03  0.00000000000E+00 0. -1.
         -2   -1    0    0    0  501 -0.00000000000E+00 -0.00000000000E+00 -0.29602930702E+02  0.29602930702E+02  0.00000000000E+00 0. -1.
         35    2    1    2    0    0  0.00000000000E+00 -0.14210854715E-13  0.68940180722E+03  0.74860766863E+03  0.29178517735E+03 0.  0.
         25    2    3    3    0    0  0.16614312729E+02 -0.59964057373E+02  0.23775931597E+03  0.27572735794E+03  0.12499744007E+03 0.  0.
         25    2    3    3    0    0 -0.16614312729E+02  0.59964057373E+02  0.45164249125E+03  0.47288031068E+03  0.12555128339E+03 0.  0.
          5    1    4    4  502    0 -0.89686816044E+01  0.31152679390E+02  0.12100176347E+03  0.12535726323E+03  0.47000000000E+01 0. -1.
         -5    1    4    4    0  502  0.25582994333E+02 -0.91116736763E+02  0.11675755250E+03  0.15037009471E+03  0.47000000000E+01 0. -1.
          5    1    5    5  503    0 -0.35822227444E+02  0.45184797958E+02  0.44294292756E+03  0.44670507611E+03  0.47000000000E+01 0.  1.
         -5    1    5    5    0  503  0.19207914716E+02  0.14779259415E+02  0.86995636944E+01  0.26175234575E+02  0.47000000000E+01 0.  1.
<mgrwt>
<rscale>  0 0.29178518E+03</rscale>
<asrwt>0</asrwt>
<pdfrwt beam="1">  1        2 0.11061610E+00 0.29178518E+03</pdfrwt>
<pdfrwt beam="2">  1       -2 0.45542976E-02 0.29178518E+03</pdfrwt>
<totfact> 0.91504994E+03</totfact>
</mgrwt>
</event>
<event>
 9    1  0.8186049E-001  0.2742596E+03  0.7818608E-02  0.1098866E+00
          1   -1    0    0  501    0  0.00000000000E+00  0.00000000000E+00  0.22913237061E+03  0.22913237061E+03  0.00000000000E+00 0.  1.
         -1   -1    0    0    0  501 -0.00000000000E+00 -0.00000000000E+00 -0.82068669893E+02  0.82068669893E+02  0.00000000000E+00 0.  1.
         35    2    1    2    0    0  0.35527136788E-14  0.00000000000E+00  0.14706370071E+03  0.31120104050E+03  0.27425964986E+03 0.  0.
         25    2    3    3    0    0 -0.82376252531E-03  0.35750930334E+02  0.12844706533E+03  0.18158821986E+03  0.12327815694E+03 0.  0.
         25    2    3    3    0    0  0.82376252532E-03 -0.35750930334E+02  0.18616635383E+02  0.12961282064E+03  0.12318593727E+03 0.  0.
          5    1    4    4  502    0  0.59294194731E+02  0.33492880619E+02  0.77117175139E+02  0.10298894738E+03  0.47000000000E+01 0.  1.
         -5    1    4    4    0  502 -0.59295018494E+02  0.22580497144E+01  0.51329890190E+02  0.78599272475E+02  0.47000000000E+01 0.  1.
          5    1    5    5  503    0 -0.30350482506E+02  0.84148790912E+01 -0.39290019520E+02  0.50574278169E+02  0.47000000000E+01 0.  1.
         -5    1    5    5    0  503  0.30351306268E+02 -0.44165809425E+02  0.57906654903E+02  0.79038542474E+02  0.47000000000E+01 0.  1.
<mgrwt>
<rscale>  0 0.27425965E+03</rscale>
<asrwt>0</asrwt>
<pdfrwt beam="1">  1        1 0.35251134E-01 0.27425965E+03</pdfrwt>
<pdfrwt beam="2">  1       -1 0.12625949E-01 0.27425965E+03</pdfrwt>
<totfact> 0.51787702E+03</totfact>
</mgrwt>
</event>
<event>
 9    1  0.8186049E-001  0.2758840E+03  0.7818608E-02  0.1097958E+00
          3   -1    0    0  501    0  0.00000000000E+00  0.00000000000E+00  0.80464167334E+02  0.80464167334E+02  0.00000000000E+00 0.  1.
         -3   -1    0    0    0  501 -0.00000000000E+00 -0.00000000000E+00 -0.23647787419E+03  0.23647787419E+03  0.00000000000E+00 0.  1.
         35    2    1    2    0    0  0.00000000000E+00  0.71054273576E-14 -0.15601370685E+03  0.31694204152E+03  0.27588399910E+03 0.  0.
         25    2    3    3    0    0 -0.24781298037E+02  0.20000935775E+02 -0.23749071941E+02  0.13170224399E+03  0.12556795964E+03 0.  0.
         25    2    3    3    0    0  0.24781298037E+02 -0.20000935775E+02 -0.13226463491E+03  0.18523979753E+03  0.12572071738E+03 0.  0.
          5    1    4    4  502    0 -0.28536086749E+02  0.59385501089E+02  0.23307393901E+02  0.70044775658E+02  0.47000000000E+01 0.  1.
         -5    1    4    4    0  502  0.37547887119E+01 -0.39384565314E+02 -0.47056465841E+02  0.61657468329E+02  0.47000000000E+01 0.  1.
          5    1    5    5  503    0 -0.19817409287E+02 -0.63788972062E+02 -0.65699102437E+02  0.93809512996E+02  0.47000000000E+01 0. -1.
         -5    1    5    5    0  503  0.44598707324E+02  0.43788036287E+02 -0.66565532475E+02  0.91430284537E+02  0.47000000000E+01 0. -1.
<mgrwt>
<rscale>  0 0.27588400E+03</rscale>
<asrwt>0</asrwt>
<pdfrwt beam="1">  1        3 0.12379103E-01 0.27588400E+03</pdfrwt>
<pdfrwt beam="2">  1       -3 0.36381211E-01 0.27588400E+03</pdfrwt>
<totfact> 0.97770148E+02</totfact>
</mgrwt>
</event>
<event>
 9    1  0.8186049E-001  0.2729451E+03  0.7818608E-02  0.1099606E+00
         -1   -1    0    0    0  501 -0.00000000000E+00  0.00000000000E+00  0.14445608172E+02  0.14445608172E+02  0.00000000000E+00 0.  1.
          1   -1    0    0  501    0  0.00000000000E+00 -0.00000000000E+00 -0.12893026335E+04  0.12893026335E+04  0.00000000000E+00 0.  1.
         35    2    1    2    0    0  0.00000000000E+00  0.00000000000E+00 -0.12748570254E+04  0.13037482417E+04  0.27294512751E+03 0.  0.
         25    2    3    3    0    0 -0.33112665716E+00  0.25690484850E+02 -0.90587689172E+03  0.91475035783E+03  0.12447957073E+03 0.  0.
         25    2    3    3    0    0  0.33112665716E+00 -0.25690484850E+02 -0.36898013363E+03  0.38899788387E+03  0.12046951475E+03 0.  0.
          5    1    4    4  502    0 -0.76556194468E+01 -0.36340264997E+02 -0.65860992635E+03  0.65967291020E+03  0.47000000000E+01 0.  1.
         -5    1    4    4    0  502  0.73244927896E+01  0.62030749846E+02 -0.24726696537E+03  0.25507744762E+03  0.47000000000E+01 0.  1.
          5    1    5    5  503    0  0.11615259608E+02  0.23461888027E+01  0.50555480258E+01  0.13713767662E+02  0.47000000000E+01 0. -1.
         -5    1    5    5    0  503 -0.11284132951E+02 -0.28036673652E+02 -0.37403568166E+03  0.37528411621E+03  0.47000000000E+01 0. -1.
<mgrwt>
<rscale>  0 0.27294513E+03</rscale>
<asrwt>0</asrwt>
<pdfrwt beam="1">  1        1 0.19835429E+00 0.27294513E+03</pdfrwt>
<pdfrwt beam="2">  1       -1 0.22224009E-02 0.27294513E+03</pdfrwt>
<totfact> 0.58284134E+03</totfact>
</mgrwt>
</event>
<event>
 9    1  0.8186049E-001  0.2786034E+03  0.7818608E-02  0.1096454E+00
          1   -1    0    0  501    0  0.00000000000E+00  0.00000000000E+00  0.84957224402E+03  0.84957224402E+03  0.00000000000E+00 0. -1.
         -1   -1    0    0    0  501 -0.00000000000E+00 -0.00000000000E+00 -0.22840869505E+02  0.22840869505E+02  0.00000000000E+00 0. -1.
         35    2    1    2    0    0  0.00000000000E+00 -0.35527136788E-14  0.82673137452E+03  0.87241311353E+03  0.27860343688E+03 0.  0.
         25    2    3    3    0    0  0.23818304458E+02 -0.19515852088E+02  0.57960179868E+03  0.59352871893E+03  0.12405609643E+03 0.  0.
         25    2    3    3    0    0 -0.23818304458E+02  0.19515852088E+02  0.24712957584E+03  0.27888439459E+03  0.12552011067E+03 0.  0.
          5    1    4    4  502    0  0.92045855836E+01 -0.53973320976E+02  0.52064252790E+03  0.52353469382E+03  0.47000000000E+01 0.  1.
         -5    1    4    4    0  502  0.14613718875E+02  0.34457468888E+02  0.58959270777E+02  0.69994025117E+02  0.47000000000E+01 0.  1.
          5    1    5    5  503    0  0.31558626001E+02  0.31504901053E+02  0.28843079413E+02  0.53315278255E+02  0.47000000000E+01 0.  1.
         -5    1    5    5    0  503 -0.55376930460E+02 -0.11989048964E+02  0.21828649643E+03  0.22556911634E+03  0.47000000000E+01 0.  1.
<mgrwt>
<rscale>  0 0.27860344E+03</rscale>
<asrwt>0</asrwt>
<pdfrwt beam="1">  1        1 0.13070340E+00 0.27860344E+03</pdfrwt>
<pdfrwt beam="2">  1       -1 0.35139806E-02 0.27860344E+03</pdfrwt>
<totfact> 0.62463169E+03</totfact>
</mgrwt>
</event>
<event>
 9    1  0.8186049E-001  0.2755186E+03  0.7818608E-02  0.1098162E+00
          4   -1    0    0  501    0  0.00000000000E+00  0.00000000000E+00  0.68669816234E+02  0.68669816234E+02  0.00000000000E+00 0. -1.
         -4   -1    0    0    0  501 -0.00000000000E+00 -0.00000000000E+00 -0.27636041798E+03  0.27636041798E+03  0.00000000000E+00 0. -1.
         35    2    1    2    0    0  0.14210854715E-13  0.71054273576E-14 -0.20769060175E+03  0.34503023422E+03  0.27551855921E+03 0.  0.
         25    2    3    3    0    0  0.24673431327E+02  0.51534619311E+02 -0.11693424243E+03  0.17999943079E+03  0.12434461320E+03 0.  0.
         25    2    3    3    0    0 -0.24673431327E+02 -0.51534619311E+02 -0.90756359323E+02  0.16503080343E+03  0.12543466077E+03 0.  0.
          5    1    4    4  502    0  0.72514987505E+02  0.42683245863E+02 -0.93230038883E+02  0.12567502950E+03  0.47000000000E+01 0.  1.
         -5    1    4    4    0  502 -0.47841556177E+02  0.88513734479E+01 -0.23704203545E+02  0.54324401286E+02  0.47000000000E+01 0.  1.
          5    1    5    5  503    0 -0.61310320720E+02 -0.43437712765E+02 -0.10088884232E+03  0.12588263908E+03  0.47000000000E+01 0. -1.
         -5    1    5    5    0  503  0.36636889393E+02 -0.80969065458E+01  0.10132483002E+02  0.39148164347E+02  0.47000000000E+01 0. -1.
<mgrwt>
<rscale>  0 0.27551856E+03</rscale>
<asrwt>0</asrwt>
<pdfrwt beam="1">  1        4 0.10564587E-01 0.27551856E+03</pdfrwt>
<pdfrwt beam="2">  1       -4 0.42516987E-01 0.27551856E+03</pdfrwt>
<totfact> 0.69817387E+02</totfact>
</mgrwt>
</event>
<event>
 9    1  0.8186049E-001  0.2714509E+03  0.7818608E-02  0.1100452E+00
         -1   -1    0    0    0  501 -0.00000000000E+00  0.00000000000E+00  0.28191520714E+02  0.28191520714E+02  0.00000000000E+00 0.  1.
          1   -1    0    0  501    0  0.00000000000E+00 -0.00000000000E+00 -0.65343752709E+03  0.65343752709E+03  0.00000000000E+00 0.  1.
         35    2    1    2    0    0  0.00000000000E+00  0.35527136788E-14 -0.62524600638E+03  0.68162904780E+03  0.27145089854E+03 0.  0.
         25    2    3    3    0    0 -0.49891803716E+02  0.23766826741E+01 -0.34877664935E+03  0.37385336954E+03  0.12500540020E+03 0.  0.
         25    2    3    3    0    0  0.49891803716E+02 -0.23766826741E+01 -0.27646935702E+03  0.30777567827E+03  0.12568103303E+03 0.  0.
          5    1    4    4  502    0 -0.32712880245E+01 -0.30136354437E+02 -0.29120203471E+03  0.29281327874E+03  0.47000000000E+01 0. -1.
         -5    1    4    4    0  502 -0.46620515692E+02  0.32513037111E+02 -0.57574614641E+02  0.81040090799E+02  0.47000000000E+01 0. -1.
          5    1    5    5  503    0 -0.27350269182E+02 -0.25795524883E+02 -0.29828558115E+02  0.48221148965E+02  0.47000000000E+01 0. -1.
         -5    1    5    5    0  503  0.77242072898E+02  0.23418842209E+02 -0.24664079891E+03  0.25955452930E+03  0.47000000000E+01 0. -1.
<mgrwt>
<rscale>  0 0.27145090E+03</rscale>
<asrwt>0</asrwt>
<pdfrwt beam="1">  1        1 0.10052885E+00 0.27145090E+03</pdfrwt>
<pdfrwt beam="2">  1       -1 0.43371572E-02 0.27145090E+03</pdfrwt>
<totfact> 0.67642589E+03</totfact>
</mgrwt>
</event>
<event>
 9    1  0.8186049E-001  0.2753446E+03  0.7818608E-02  0.1098259E+00
         -2   -1    0    0    0  501 -0.00000000000E+00  0.00000000000E+00  0.14155027341E+02  0.14155027341E+02  0.00000000000E+00 0.  1.
          2   -1    0    0  501    0  0.00000000000E+00 -0.00000000000E+00 -0.13390060010E+04  0.13390060010E+04  0.00000000000E+00 0.  1.
         35    2    1    2    0    0  0.00000000000E+00  0.71054273576E-14 -0.13248509736E+04  0.13531610283E+04  0.27534463171E+03 0.  0.
         25    2    3    3    0    0 -0.41907701651E+01 -0.25585514244E+02 -0.93289087210E+03  0.94179515960E+03  0.12657235996E+03 0.  0.
         25    2    3    3    0    0  0.41907701651E+01  0.25585514244E+02 -0.39196010152E+03  0.41136586871E+03  0.12213507135E+03 0.  0.
          5    1    4    4  502    0 -0.24004577759E+02 -0.71943454468E+02 -0.64795342515E+03  0.65239390828E+03  0.47000000000E+01 0. -1.
         -5    1    4    4    0  502  0.19813807594E+02  0.46357940223E+02 -0.28493744695E+03  0.28940125132E+03  0.47000000000E+01 0. -1.
          5    1    5    5  503    0  0.57841851222E+02  0.38174915111E+02 -0.22573175931E+03  0.23617773193E+03  0.47000000000E+01 0.  1.
         -5    1    5    5    0  503 -0.53651081057E+02 -0.12589400867E+02 -0.16622834221E+03  0.17518813678E+03  0.47000000000E+01 0.  1.
<mgrwt>
<rscale>  0 0.27534463E+03</rscale>
<asrwt>0</asrwt>
<pdfrwt beam="1">  1        2 0.20600091E+00 0.27534463E+03</pdfrwt>
<pdfrwt beam="2">  1       -2 0.21776966E-02 0.27534463E+03</pdfrwt>
<totfact> 0.11374989E+04</totfact>
</mgrwt>
</event>
<event>
 9    1  0.8186049E-001  0.2812717E+03  0.7818608E-02  0.1094996E+00
          2   -1    0    0  501    0  0.00000000000E+00  0.00000000000E+00  0.38482937990E+04  0.38482937990E+04  0.00000000000E+00 0. -1.
         -2   -1    0    0    0  501 -0.00000000000E+00 -0.00000000000E+00 -0.51395349224E+01  0.51395349224E+01  0.00000000000E+00 0. -1.
         35    2    1    2    0    0 -0.71054273576E-14  0.00000000000E+00  0.38431542641E+04  0.38534333339E+04  0.28127168625E+03 0.  0.
         25    2    3    3    0    0 -0.60492018642E+02 -0.17609268691E+02  0.21870947891E+04  0.21914407294E+04  0.12271708582E+03 0.  0.
         25    2    3    3    0    0  0.60492018642E+02  0.17609268691E+02  0.16560594749E+04  0.16619926045E+04  0.12536770826E+03 0.  0.
          5    1    4    4  502    0 -0.66495629572E+02 -0.40332968437E+02  0.20892730791E+04  0.20907253540E+04  0.47000000000E+01 0.  1.
         -5    1    4    4    0  502  0.60036109298E+01  0.22723699746E+02  0.97821710087E+02  0.10071537538E+03  0.47000000000E+01 0.  1.
          5    1    5    5  503    0  0.54741203665E+02 -0.26379690315E+02  0.35683780280E+03  0.36200524160E+03  0.47000000000E+01 0.  1.
         -5    1    5    5    0  503  0.57508149773E+01  0.43988959006E+02  0.12992216721E+04  0.12999873629E+04  0.47000000000E+01 0.  1.
<mgrwt>
<rscale>  0 0.28127169E+03</rscale>
<asrwt>0</asrwt>
<pdfrwt beam="1">  1        2 0.59204290E+00 0.28127169E+03</pdfrwt>
<pdfrwt beam="2">  1       -2 0.79070076E-03 0.28127169E+03</pdfrwt>
<totfact> 0.17390618E+03</totfact>
</mgrwt>
</event>
<event>
 9    1  0.8186049E-001  0.2727314E+03  0.7818608E-02  0.1099726E+00
         -1   -1    0    0    0  501 -0.00000000000E+00  0.00000000000E+00  0.31743646159E+02  0.31743646159E+02  0.00000000000E+00 0.  1.
          1   -1    0    0  501    0  0.00000000000E+00 -0.00000000000E+00 -0.58580562271E+03  0.58580562271E+03  0.00000000000E+00 0.  1.
         35    2    1    2    0    0  0.00000000000E+00  0.71054273576E-14 -0.55406197655E+03  0.61754926886E+03  0.27273141663E+03 0.  0.
         25    2    3    3    0    0  0.91578083493E+01 -0.41510208793E+02 -0.33144701028E+03  0.35862567388E+03  0.13018560002E+03 0.  0.
         25    2    3    3    0    0 -0.91578083493E+01  0.41510208793E+02 -0.22261496627E+03  0.25892359498E+03  0.12520799474E+03 0.  0.
          5    1    4    4  502    0  0.57199265010E+02  0.61660794908E+01 -0.22586419038E+03  0.23312335565E+03  0.47000000000E+01 0.  1.
         -5    1    4    4    0  502 -0.48041456660E+02 -0.47676288283E+02 -0.10558281990E+03  0.12550231823E+03  0.47000000000E+01 0.  1.
          5    1    5    5  503    0  0.39290071229E+02 -0.21968634399E+02 -0.43577203971E+02  0.62828284239E+02  0.47000000000E+01 0. -1.
         -5    1    5    5    0  503 -0.48447879578E+02  0.63478843192E+02 -0.17903776230E+03  0.19609531075E+03  0.47000000000E+01 0. -1.
<mgrwt>
<rscale>  0 0.27273142E+03</rscale>
<asrwt>0</asrwt>
<pdfrwt beam="1">  1        1 0.90123932E-01 0.27273142E+03</pdfrwt>
<pdfrwt beam="2">  1       -1 0.48836384E-02 0.27273142E+03</pdfrwt>
<totfact> 0.66036977E+03</totfact>
</mgrwt>
</event>
<event>
 9    1  0.8186049E-001  0.2726523E+03  0.7818608E-02  0.1099771E+00
         -3   -1    0    0    0  501 -0.00000000000E+00  0.00000000000E+00  0.15336340217E+03  0.15336340217E+03  0.00000000000E+00 0.  1.
          3   -1    0    0  501    0  0.00000000000E+00 -0.00000000000E+00 -0.12118156301E+03  0.12118156301E+03  0.00000000000E+00 0.  1.
         35    2    1    2    0    0  0.17763568394E-14  0.00000000000E+00  0.32181839162E+02  0.27454496517E+03  0.27265228246E+03 0.  0.
         25    2    3    3    0    0 -0.11703036919E+02 -0.43474686234E+02  0.46213594124E+02  0.14040498918E+03  0.12470306849E+03 0.  0.
         25    2    3    3    0    0  0.11703036919E+02  0.43474686234E+02 -0.14031754963E+02  0.13413997599E+03  0.12557720173E+03 0.  0.
          5    1    4    4  502    0 -0.67519415608E+02 -0.32263360169E+02  0.20309213413E+02  0.77681079053E+02  0.47000000000E+01 0.  1.
         -5    1    4    4    0  502  0.55816378689E+02 -0.11211326065E+02  0.25904380712E+02  0.62723910131E+02  0.47000000000E+01 0.  1.
          5    1    5    5  503    0  0.85904243678E+00  0.61583932661E+02 -0.58259150553E+02  0.84908994453E+02  0.47000000000E+01 0. -1.
         -5    1    5    5    0  503  0.10843994483E+02 -0.18109246428E+02  0.44227395590E+02  0.49230981538E+02  0.47000000000E+01 0. -1.
<mgrwt>
<rscale>  0 0.27265228E+03</rscale>
<asrwt>0</asrwt>
<pdfrwt beam="1">  1        3 0.18643317E-01 0.27265228E+03</pdfrwt>
<pdfrwt beam="2">  1       -3 0.23594370E-01 0.27265228E+03</pdfrwt>
<totfact> 0.10775696E+03</totfact>
</mgrwt>
</event>
<event>
 9    1  0.8186049E-001  0.2864973E+03  0.7818608E-02  0.1092192E+00
         -1   -1    0    0    0  501 -0.00000000000E+00  0.00000000000E+00  0.43550884742E+03  0.43550884742E+03  0.00000000000E+00 0.  1.
          1   -1    0    0  501    0  0.00000000000E+00 -0.00000000000E+00 -0.47117708556E+02  0.47117708556E+02  0.00000000000E+00 0.  1.
         35    2    1    2    0    0  0.00000000000E+00 -0.71054273576E-14  0.38839113886E+03  0.48262655597E+03  0.28649732247E+03 0.  0.
         25    2    3    3    0    0  0.63296843349E+02 -0.26629947270E+02  0.21539864070E+03  0.25851239293E+03  0.12536522011E+03 0.  0.
         25    2    3    3    0    0 -0.63296843349E+02  0.26629947270E+02  0.17299249816E+03  0.22411416304E+03  0.12484033478E+03 0.  0.
          5    1    4    4  502    0  0.55277767852E+02  0.38957573566E+02  0.63877112924E+02  0.93143436228E+02  0.47000000000E+01 0.  1.
         -5    1    4    4    0  502  0.80190754967E+01 -0.65587520836E+02  0.15152152777E+03  0.16536895670E+03  0.47000000000E+01 0.  1.
          5    1    5    5  503    0 -0.75739710456E+02  0.47419446733E+02  0.17772811427E+03  0.19898361809E+03  0.47000000000E+01 0.  1.
         -5    1    5    5    0  503  0.12442867107E+02 -0.20789499464E+02 -0.47356161021E+01  0.25130544953E+02  0.47000000000E+01 0.  1.
<mgrwt>
<rscale>  0 0.28649732E+03</rscale>
<asrwt>0</asrwt>
<pdfrwt beam="1">  1        1 0.72488785E-02 0.28649732E+03</pdfrwt>
<pdfrwt beam="2">  1       -1 0.67001358E-01 0.28649732E+03</pdfrwt>
<totfact> 0.23270778E+03</totfact>
</mgrwt>
</event>
<event>
 9    1  0.8186049E-001  0.2822795E+03  0.7818608E-02  0.1094450E+00
          2   -1    0    0  501    0  0.00000000000E+00  0.00000000000E+00  0.22127412401E+04  0.22127412401E+04  0.00000000000E+00 0.  1.
         -2   -1    0    0    0  501 -0.00000000000E+00 -0.00000000000E+00 -0.90026039733E+01  0.90026039733E+01  0.00000000000E+00 0.  1.
         35    2    1    2    0    0 -0.71054273576E-14  0.00000000000E+00  0.22037386361E+04  0.22217438441E+04  0.28227952870E+03 0.  0.
         25    2    3    3    0    0 -0.41951765736E+02 -0.20188751630E+02  0.14521856888E+04  0.14582698481E+04  0.12466009319E+03 0.  0.
         25    2    3    3    0    0  0.41951765736E+02  0.20188751630E+02  0.75155294737E+03  0.76347399600E+03  0.12606813049E+03 0.  0.
          5    1    4    4  502    0 -0.55715336039E+02 -0.40152834051E+02  0.13846337528E+04  0.13863438131E+04  0.47000000000E+01 0.  1.
         -5    1    4    4    0  502  0.13763570303E+02  0.19964082421E+02  0.67551935958E+02  0.71926034967E+02  0.47000000000E+01 0.  1.
          5    1    5    5  503    0 -0.22860521898E+02  0.40462750011E+02  0.52078283686E+03  0.52287349404E+03  0.47000000000E+01 0. -1.
         -5    1    5    5    0  503  0.64812287634E+02 -0.20273998381E+02  0.23077011051E+03  0.24060050196E+03  0.47000000000E+01 0. -1.
<mgrwt>
<rscale>  0 0.28227953E+03</rscale>
<asrwt>0</asrwt>
<pdfrwt beam="1">  1        2 0.34042130E+00 0.28227953E+03</pdfrwt>
<pdfrwt beam="2">  1       -2 0.13850178E-02 0.28227953E+03</pdfrwt>
<totfact> 0.76017992E+03</totfact>
</mgrwt>
</event>
<event>
 9    1  0.8186049E-001  0.2574119E+03  0.7818608E-02  0.1108708E+00
         -2   -1    0    0    0  501 -0.00000000000E+00  0.00000000000E+00  0.53621550015E+02  0.53621550015E+02  0.00000000000E+00 0.  1.
          2   -1    0    0  501    0  0.00000000000E+00 -0.00000000000E+00 -0.30892841734E+03  0.30892841734E+03  0.00000000000E+00 0.  1.
         35    2    1    2    0    0  0.00000000000E+00  0.35527136788E-14 -0.25530686732E+03  0.36254996735E+03  0.25741189235E+03 0.  0.
         25    2    3    3    0    0  0.23530819118E+02  0.27717914509E+02 -0.12542442858E+03  0.17845164989E+03  0.12162122278E+03 0.  0.
         25    2    3    3    0    0 -0.23530819118E+02 -0.27717914509E+02 -0.12988243874E+03  0.18409831746E+03  0.12530267501E+03 0.  0.
          5    1    4    4  502    0  0.25550777408E+02  0.22651430741E+02  0.15180467772E+02  0.37662529688E+02  0.47000000000E+01 0.  1.
         -5    1    4    4    0  502 -0.20199582900E+01  0.50664837680E+01 -0.14060489635E+03  0.14078912020E+03  0.47000000000E+01 0.  1.
          5    1    5    5  503    0 -0.72228369478E+02 -0.18920936573E+02 -0.49901150125E+02  0.89928604915E+02  0.47000000000E+01 0.  1.
         -5    1    5    5    0  503  0.48697550360E+02 -0.87969779355E+01 -0.79981288620E+02  0.94169712547E+02  0.47000000000E+01 0.  1.
<mgrwt>
<rscale>  0 0.25741189E+03</rscale>
<asrwt>0</asrwt>
<pdfrwt beam="1">  1        2 0.47527448E-01 0.25741189E+03</pdfrwt>
<pdfrwt beam="2">  1       -2 0.82494693E-02 0.25741189E+03</pdfrwt>
<totfact> 0.94285910E+03</totfact>
</mgrwt>
</event>
<event>
 9    1  0.8186049E-001  0.2873471E+03  0.7818608E-02  0.1091742E+00
         -1   -1    0    0    0  501 -0.00000000000E+00  0.00000000000E+00  0.23821433872E+02  0.23821433872E+02  0.00000000000E+00 0.  1.
          1   -1    0    0  501    0  0.00000000000E+00 -0.00000000000E+00 -0.86653431630E+03  0.86653431630E+03  0.00000000000E+00 0.  1.
         35    2    1    2    0    0  0.00000000000E+00  0.00000000000E+00 -0.84271288243E+03  0.89035575018E+03  0.28734710657E+03 0.  0.
         25    2    3    3    0    0  0.78340520496E+01  0.25249079748E+02 -0.61003401027E+03  0.62375140349E+03  0.12737908493E+03 0.  0.
         25    2    3    3    0    0 -0.78340520496E+01 -0.25249079748E+02 -0.23267887216E+03  0.26660434668E+03  0.12743442125E+03 0.  0.
          5    1    4    4  502    0  0.32537216341E+02 -0.46676044743E+01 -0.55639591625E+03  0.55738582920E+03  0.47000000000E+01 0.  1.
         -5    1    4    4    0  502 -0.24703164292E+02  0.29916684222E+02 -0.53638094017E+02  0.66365574288E+02  0.47000000000E+01 0.  1.
          5    1    5    5  503    0 -0.33490848047E+02 -0.14465282626E+02 -0.49282575430E+01  0.37111440645E+02  0.47000000000E+01 0. -1.
         -5    1    5    5    0  503  0.25656795997E+02 -0.10783797121E+02 -0.22775061462E+03  0.22949290604E+03  0.47000000000E+01 0. -1.
<mgrwt>
<rscale>  0 0.28734711E+03</rscale>
<asrwt>0</asrwt>
<pdfrwt beam="1">  1        1 0.13331298E+00 0.28734711E+03</pdfrwt>
<pdfrwt beam="2">  1       -1 0.36648358E-02 0.28734711E+03</pdfrwt>
<totfact> 0.56905960E+03</totfact>
</mgrwt>
</event>
<event>
 9    1  0.8186049E-001  0.2732226E+03  0.7818608E-02  0.1099449E+00
          1   -1    0    0  501    0  0.00000000000E+00  0.00000000000E+00  0.16550600670E+03  0.16550600670E+03  0.00000000000E+00 0.  1.
         -1   -1    0    0    0  501 -0.00000000000E+00 -0.00000000000E+00 -0.11276113132E+03  0.11276113132E+03  0.00000000000E+00 0.  1.
         35    2    1    2    0    0  0.00000000000E+00 -0.71054273576E-14  0.52744875381E+02  0.27826713801E+03  0.27322258000E+03 0.  0.
         25    2    3    3    0    0 -0.30079235086E+02  0.41940902557E+02  0.45962072608E+02  0.14261543751E+03  0.12475115714E+03 0.  0.
         25    2    3    3    0    0  0.30079235086E+02 -0.41940902557E+02  0.67828027722E+01  0.13565170050E+03  0.12526602790E+03 0.  0.
          5    1    4    4  502    0 -0.41562282712E+02  0.71079716463E+02  0.65573351893E+02  0.10536462364E+03  0.47000000000E+01 0.  1.
         -5    1    4    4    0  502  0.11483047627E+02 -0.29138813905E+02 -0.19611279285E+02  0.37250813867E+02  0.47000000000E+01 0.  1.
          5    1    5    5  503    0 -0.45475608081E+01 -0.19383674859E+02 -0.56406940125E+02  0.60002000421E+02  0.47000000000E+01 0.  1.
         -5    1    5    5    0  503  0.34626795894E+02 -0.22557227699E+02  0.63189742897E+02  0.75649700083E+02  0.47000000000E+01 0.  1.
<mgrwt>
<rscale>  0 0.27322258E+03</rscale>
<asrwt>0</asrwt>
<pdfrwt beam="1">  1        1 0.25462462E-01 0.27322258E+03</pdfrwt>
<pdfrwt beam="2">  1       -1 0.17347866E-01 0.27322258E+03</pdfrwt>
<totfact> 0.47182819E+03</totfact>
</mgrwt>
</event>
<event>
 9    1  0.8186049E-001  0.2761337E+03  0.7818608E-02  0.1097820E+00
          2   -1    0    0  501    0  0.00000000000E+00  0.00000000000E+00  0.38979302841E+03  0.38979302841E+03  0.00000000000E+00 0. -1.
         -2   -1    0    0    0  501 -0.00000000000E+00 -0.00000000000E+00 -0.48904042469E+02  0.48904042469E+02  0.00000000000E+00 0. -1.
         35    2    1    2    0    0  0.71054273576E-14  0.35527136788E-14  0.34088898594E+03  0.43869707088E+03  0.27613369816E+03 0.  0.
         25    2    3    3    0    0  0.58544556732E+02  0.10559087920E+02  0.17857037319E+03  0.22624881772E+03  0.12554756022E+03 0.  0.
         25    2    3    3    0    0 -0.58544556732E+02 -0.10559087920E+02  0.16231861275E+03  0.21244825316E+03  0.12348266585E+03 0.  0.
          5    1    4    4  502    0  0.27818772055E+02 -0.41666688802E+02  0.15164494828E+03  0.15977570959E+03  0.47000000000E+01 0.  1.
         -5    1    4    4    0  502  0.30725784677E+02  0.52225776722E+02  0.26925424911E+02  0.66473108133E+02  0.47000000000E+01 0.  1.
          5    1    5    5  503    0 -0.37218325742E+02  0.24599332670E+02 -0.78376080432E-01  0.44860083389E+02  0.47000000000E+01 0.  1.
         -5    1    5    5    0  503 -0.21326230990E+02 -0.35158420590E+02  0.16239698883E+03  0.16758816977E+03  0.47000000000E+01 0.  1.
<mgrwt>
<rscale>  0 0.27613370E+03</rscale>
<asrwt>0</asrwt>
<pdfrwt beam="1">  1        2 0.59968156E-01 0.27613370E+03</pdfrwt>
<pdfrwt beam="2">  1       -2 0.75236991E-02 0.27613370E+03</pdfrwt>
<totfact> 0.84954068E+03</totfact>
</mgrwt>
</event>
<event>
 9    1  0.8186049E-001  0.2714631E+03  0.7818608E-02  0.1100445E+00
         -1   -1    0    0    0  501 -0.00000000000E+00  0.00000000000E+00  0.17710102394E+02  0.17710102394E+02  0.00000000000E+00 0. -1.
          1   -1    0    0  501    0  0.00000000000E+00 -0.00000000000E+00 -0.10402570335E+04  0.10402570335E+04  0.00000000000E+00 0. -1.
         35    2    1    2    0    0  0.71054273576E-14  0.71054273576E-14 -0.10225469311E+04  0.10579671359E+04  0.27146313620E+03 0.  0.
         25    2    3    3    0    0 -0.44619368249E+02 -0.22498535758E+02 -0.41865098899E+03  0.43917039674E+03  0.12290205311E+03 0.  0.
         25    2    3    3    0    0  0.44619368249E+02  0.22498535758E+02 -0.60389594210E+03  0.61879673913E+03  0.12538749278E+03 0.  0.
          5    1    4    4  502    0 -0.25445505215E+02  0.48260946480E+02 -0.23664289912E+03  0.24289615970E+03  0.47000000000E+01 0. -1.
         -5    1    4    4    0  502 -0.19173863034E+02 -0.70759482238E+02 -0.18200808986E+03  0.19627423704E+03  0.47000000000E+01 0. -1.
          5    1    5    5  503    0 -0.35399628345E+02  0.58552937211E+01 -0.35372725804E+03  0.35557345406E+03  0.47000000000E+01 0.  1.
         -5    1    5    5    0  503  0.80018996593E+02  0.16643242037E+02 -0.25016868406E+03  0.26322328507E+03  0.47000000000E+01 0.  1.
<mgrwt>
<rscale>  0 0.27146314E+03</rscale>
<asrwt>0</asrwt>
<pdfrwt beam="1">  1        1 0.16003953E+00 0.27146314E+03</pdfrwt>
<pdfrwt beam="2">  1       -1 0.27246313E-02 0.27146314E+03</pdfrwt>
<totfact> 0.64839254E+03</totfact>
</mgrwt>
</event>
<event>
 9    1  0.8186049E-001  0.2740014E+03  0.7818608E-02  0.1099011E+00
          1   -1    0    0  501    0  0.00000000000E+00  0.00000000000E+00  0.52750980330E+02  0.52750980330E+02  0.00000000000E+00 0.  1.
         -1   -1    0    0    0  501 -0.00000000000E+00 -0.00000000000E+00 -0.35580743448E+03  0.35580743448E+03  0.00000000000E+00 0.  1.
         35    2    1    2    0    0 -0.35527136788E-14  0.00000000000E+00 -0.30305645415E+03  0.40855841481E+03  0.27400139399E+03 0.  0.
         25    2    3    3    0    0 -0.90135421584E+01 -0.46181603081E+02 -0.18667221456E+03  0.23037755078E+03  0.12654373083E+03 0.  0.
         25    2    3    3    0    0  0.90135421584E+01  0.46181603081E+02 -0.11638423959E+03  0.17818086403E+03  0.12644818969E+03 0.  0.
          5    1    4    4  502    0 -0.53029771001E+02 -0.45574736026E+01 -0.27693512359E+02  0.60182620455E+02  0.47000000000E+01 0. -1.
         -5    1    4    4    0  502  0.44016228843E+02 -0.41624129478E+02 -0.15897870220E+03  0.17019493033E+03  0.47000000000E+01 0. -1.
          5    1    5    5  503    0  0.25513527711E+02 -0.38421811191E+02 -0.56658583293E+02  0.73208337860E+02  0.47000000000E+01 0. -1.
         -5    1    5    5    0  503 -0.16499985553E+02  0.84603414272E+02 -0.59725656301E+02  0.10497252617E+03  0.47000000000E+01 0. -1.
<mgrwt>
<rscale>  0 0.27400139E+03</rscale>
<asrwt>0</asrwt>
<pdfrwt beam="1">  1        1 0.81155356E-02 0.27400139E+03</pdfrwt>
<pdfrwt beam="2">  1       -1 0.54739604E-01 0.27400139E+03</pdfrwt>
<totfact> 0.29438972E+03</totfact>
</mgrwt>
</event>
<event>
 9    1  0.8186049E-001  0.2760380E+03  0.7818608E-02  0.1097873E+00
          1   -1    0    0  501    0  0.00000000000E+00  0.00000000000E+00  0.23903258878E+02  0.23903258878E+02  0.00000000000E+00 0.  1.
         -1   -1    0    0    0  501 -0.00000000000E+00 -0.00000000000E+00 -0.79693085563E+03  0.79693085563E+03  0.00000000000E+00 0.  1.
         35    2    1    2    0    0  0.00000000000E+00  0.14210854715E-13 -0.77302759675E+03  0.82083411451E+03  0.27603800137E+03 0.  0.
         25    2    3    3    0    0  0.32525540547E+02 -0.36769841854E+02 -0.49531221349E+03  0.51252855547E+03  0.12223501663E+03 0.  0.
         25    2    3    3    0    0 -0.32525540547E+02  0.36769841854E+02 -0.27771538326E+03  0.30830555903E+03  0.12456545095E+03 0.  0.
          5    1    4    4  502    0  0.48587888605E+02  0.33531559054E+02 -0.20790190175E+03  0.21617224411E+03  0.47000000000E+01 0. -1.
         -5    1    4    4    0  502 -0.16062348058E+02 -0.70301400909E+02 -0.28741031173E+03  0.29635631136E+03  0.47000000000E+01 0. -1.
          5    1    5    5  503    0  0.34237872784E+02 -0.23683219331E+02 -0.65914438716E+02  0.78102048897E+02  0.47000000000E+01 0. -1.
         -5    1    5    5    0  503 -0.66763413331E+02  0.60453061185E+02 -0.21180094455E+03  0.23020351013E+03  0.47000000000E+01 0. -1.
<mgrwt>
<rscale>  0 0.27603800E+03</rscale>
<asrwt>0</asrwt>
<pdfrwt beam="1">  1        1 0.36774249E-02 0.27603800E+03</pdfrwt>
<pdfrwt beam="2">  1       -1 0.12260473E+00 0.27603800E+03</pdfrwt>
<totfact> 0.16062945E+03</totfact>
</mgrwt>
</event>
<event>
 9    1  0.8186049E-001  0.2751595E+03  0.7818608E-02  0.1098363E+00
          1   -1    0    0  501    0  0.00000000000E+00  0.00000000000E+00  0.20653114073E+03  0.20653114073E+03  0.00000000000E+00 0. -1.
         -1   -1    0    0    0  501 -0.00000000000E+00 -0.00000000000E+00 -0.91648071582E+02  0.91648071582E+02  0.00000000000E+00 0. -1.
         35    2    1    2    0    0  0.00000000000E+00  0.00000000000E+00  0.11488306915E+03  0.29817921231E+03  0.27515945028E+03 0.  0.
         25    2    3    3    0    0  0.51002857703E+02 -0.90674711562E+01  0.82228456606E+02  0.15879455838E+03  0.12558137667E+03 0.  0.
         25    2    3    3    0    0 -0.51002857703E+02  0.90674711562E+01  0.32654612544E+02  0.13938465394E+03  0.12521280887E+03 0.  0.
          5    1    4    4  502    0 -0.21601679690E+02 -0.19926939479E+02  0.79824891190E+02  0.85192832656E+02  0.47000000000E+01 0. -1.
         -5    1    4    4    0  502  0.72604537393E+02  0.10859468323E+02  0.24035654155E+01  0.73601725721E+02  0.47000000000E+01 0. -1.
          5    1    5    5  503    0 -0.82035140244E+01  0.62279447486E+02 -0.12341860378E+01  0.63005082626E+02  0.47000000000E+01 0.  1.
         -5    1    5    5    0  503 -0.42799343679E+02 -0.53211976330E+02  0.33888798581E+02  0.76379571310E+02  0.47000000000E+01 0.  1.
<mgrwt>
<rscale>  0 0.27515945E+03</rscale>
<asrwt>0</asrwt>
<pdfrwt beam="1">  1        1 0.31774021E-01 0.27515945E+03</pdfrwt>
<pdfrwt beam="2">  1       -1 0.14099703E-01 0.27515945E+03</pdfrwt>
<totfact> 0.49609510E+03</totfact>
</mgrwt>
</event>
<event>
 9    1  0.8186049E-001  0.2743240E+03  0.7818608E-02  0.1098830E+00
          1   -1    0    0  501    0  0.00000000000E+00  0.00000000000E+00  0.22942100114E+04  0.22942100114E+04  0.00000000000E+00 0.  1.
         -1   -1    0    0    0  501 -0.00000000000E+00 -0.00000000000E+00 -0.82003918156E+01  0.82003918156E+01  0.00000000000E+00 0.  1.
         35    2    1    2    0    0 -0.14210854715E-13  0.00000000000E+00  0.22860096196E+04  0.23024104032E+04  0.27432404926E+03 0.  0.
         25    2    3    3    0    0  0.28599677634E+02  0.25535437041E+02  0.14533351843E+04  0.14591336200E+04  0.12416828471E+03 0.  0.
         25    2    3    3    0    0 -0.28599677634E+02 -0.25535437041E+02  0.83267443531E+03  0.84327678326E+03  0.12766760694E+03 0.  0.
          5    1    4    4  502    0 -0.53620554315E+01  0.13439489537E+02  0.13404894462E+04  0.13405757781E+04  0.47000000000E+01 0. -1.
         -5    1    4    4    0  502  0.33961733066E+02  0.12095947505E+02  0.11284573814E+03  0.11855784189E+03  0.47000000000E+01 0. -1.
          5    1    5    5  503    0  0.43398308234E+02 -0.28891419728E+02  0.50665464639E+03  0.50935169382E+03  0.47000000000E+01 0. -1.
         -5    1    5    5    0  503 -0.71997985868E+02  0.33559826862E+01  0.32601978892E+03  0.33392508944E+03  0.47000000000E+01 0. -1.
<mgrwt>
<rscale>  0 0.27432405E+03</rscale>
<asrwt>0</asrwt>
<pdfrwt beam="1">  1        1 0.35295487E+00 0.27432405E+03</pdfrwt>
<pdfrwt beam="2">  1       -1 0.12616006E-02 0.27432405E+03</pdfrwt>
<totfact> 0.29118226E+03</totfact>
</mgrwt>
</event>
<event>
 9    1  0.8186049E-001  0.2751302E+03  0.7818608E-02  0.1098379E+00
          1   -1    0    0  501    0  0.00000000000E+00  0.00000000000E+00  0.30683104233E+02  0.30683104233E+02  0.00000000000E+00 0. -1.
         -1   -1    0    0    0  501 -0.00000000000E+00 -0.00000000000E+00 -0.61676162402E+03  0.61676162402E+03  0.00000000000E+00 0. -1.
         35    2    1    2    0    0 -0.88817841970E-14  0.14210854715E-13 -0.58607851979E+03  0.64744472826E+03  0.27513023241E+03 0.  0.
         25    2    3    3    0    0 -0.11158477547E+02 -0.55202091160E+02 -0.26458950590E+03  0.29801459556E+03  0.12503323577E+03 0.  0.
         25    2    3    3    0    0  0.11158477547E+02  0.55202091160E+02 -0.32148901389E+03  0.34943013269E+03  0.12479763255E+03 0.  0.
          5    1    4    4  502    0 -0.24382799482E+02  0.19496930698E+02 -0.18608753198E+03  0.18874668414E+03  0.47000000000E+01 0.  1.
         -5    1    4    4    0  502  0.13224321934E+02 -0.74699021858E+02 -0.78501973922E+02  0.10926791142E+03  0.47000000000E+01 0.  1.
          5    1    5    5  503    0  0.65359887397E+02  0.48814463250E+02 -0.17875897749E+03  0.19654930357E+03  0.47000000000E+01 0.  1.
         -5    1    5    5    0  503 -0.54201409850E+02  0.63876279105E+01 -0.14273003641E+03  0.15288082912E+03  0.47000000000E+01 0.  1.
<mgrwt>
<rscale>  0 0.27513023E+03</rscale>
<asrwt>0</asrwt>
<pdfrwt beam="1">  1        1 0.47204776E-02 0.27513023E+03</pdfrwt>
<pdfrwt beam="2">  1       -1 0.94886404E-01 0.27513023E+03</pdfrwt>
<totfact> 0.20397627E+03</totfact>
</mgrwt>
</event>
<event>
 9    1  0.8186049E-001  0.2731879E+03  0.7818608E-02  0.1099469E+00
          1   -1    0    0  501    0  0.00000000000E+00  0.00000000000E+00  0.20342350608E+04  0.20342350608E+04  0.00000000000E+00 0.  1.
         -1   -1    0    0    0  501 -0.00000000000E+00 -0.00000000000E+00 -0.91719525621E+01  0.91719525621E+01  0.00000000000E+00 0.  1.
         35    2    1    2    0    0 -0.71054273576E-14  0.35527136788E-14  0.20250631083E+04  0.20434070134E+04  0.27318790221E+03 0.  0.
         25    2    3    3    0    0 -0.35679227831E+02  0.30647783034E+02  0.83349583811E+03  0.84419188516E+03  0.12542859692E+03 0.  0.
         25    2    3    3    0    0  0.35679227831E+02 -0.30647783034E+02  0.11915672701E+04  0.11992151282E+04  0.12677567021E+03 0.  0.
          5    1    4    4  502    0  0.16014452246E+02 -0.87777201446E+01  0.63475331965E+03  0.63503336751E+03  0.47000000000E+01 0.  1.
         -5    1    4    4    0  502 -0.51693680077E+02  0.39425503178E+02  0.19874251846E+03  0.20915851765E+03  0.47000000000E+01 0.  1.
          5    1    5    5  503    0  0.78894731745E+02 -0.37685305239E+02  0.65185922424E+03  0.65771353882E+03  0.47000000000E+01 0. -1.
         -5    1    5    5    0  503 -0.43215503914E+02  0.70375222054E+01  0.53970804591E+03  0.54150158939E+03  0.47000000000E+01 0. -1.
<mgrwt>
<rscale>  0 0.27318790E+03</rscale>
<asrwt>0</asrwt>
<pdfrwt beam="1">  1        1 0.31295888E+00 0.27318790E+03</pdfrwt>
<pdfrwt beam="2">  1       -1 0.14110712E-02 0.27318790E+03</pdfrwt>
<totfact> 0.36569016E+03</totfact>
</mgrwt>
</event>
<event>
 9    1  0.8186049E-001  0.2747932E+03  0.7818608E-02  0.1098567E+00
          2   -1    0    0  501    0  0.00000000000E+00  0.00000000000E+00  0.13674978609E+04  0.13674978609E+04  0.00000000000E+00 0. -1.
         -2   -1    0    0    0  501 -0.00000000000E+00 -0.00000000000E+00 -0.13804650630E+02  0.13804650630E+02  0.00000000000E+00 0. -1.
         35    2    1    2    0    0  0.00000000000E+00 -0.71054273576E-14  0.13536932103E+04  0.13813025115E+04  0.27479323286E+03 0.  0.
         25    2    3    3    0    0  0.41250215574E+02  0.27975750997E+02  0.81797944149E+03  0.82890440437E+03  0.12453080727E+03 0.  0.
         25    2    3    3    0    0 -0.41250215574E+02 -0.27975750997E+02  0.53571376877E+03  0.55239810715E+03  0.12518068462E+03 0.  0.
          5    1    4    4  502    0 -0.17596334156E+02  0.33853576051E+02  0.82284971673E+02  0.90821815388E+02  0.47000000000E+01 0. -1.
         -5    1    4    4    0  502  0.58846549730E+02 -0.58778250539E+01  0.73569446982E+03  0.73808258898E+03  0.47000000000E+01 0. -1.
          5    1    5    5  503    0 -0.30423635028E+01 -0.49532223261E+02  0.78032341940E+02  0.92594997195E+02  0.47000000000E+01 0.  1.
         -5    1    5    5    0  503 -0.38207852072E+02  0.21556472265E+02  0.45768142683E+03  0.45980310996E+03  0.47000000000E+01 0.  1.
<mgrwt>
<rscale>  0 0.27479323E+03</rscale>
<asrwt>0</asrwt>
<pdfrwt beam="1">  1        2 0.21038418E+00 0.27479323E+03</pdfrwt>
<pdfrwt beam="2">  1       -2 0.21237935E-02 0.27479323E+03</pdfrwt>
<totfact> 0.11385952E+04</totfact>
</mgrwt>
</event>
<event>
 9    1  0.8186049E-001  0.2712281E+03  0.7818608E-02  0.1100579E+00
          1   -1    0    0  501    0  0.00000000000E+00  0.00000000000E+00  0.35856752911E+02  0.35856752911E+02  0.00000000000E+00 0. -1.
         -1   -1    0    0    0  501 -0.00000000000E+00 -0.00000000000E+00 -0.51290690514E+03  0.51290690514E+03  0.00000000000E+00 0. -1.
         35    2    1    2    0    0  0.35527136788E-14 -0.71054273576E-14 -0.47705015222E+03  0.54876365805E+03  0.27122814134E+03 0.  0.
         25    2    3    3    0    0 -0.14347949971E+02 -0.47634968234E+02 -0.21342657828E+03  0.25229979955E+03  0.12501732148E+03 0.  0.
         25    2    3    3    0    0  0.14347949971E+02  0.47634968234E+02 -0.26362357394E+03  0.29646385849E+03  0.12616844609E+03 0.  0.
          5    1    4    4  502    0  0.21253009087E+02  0.36810295881E+02 -0.65614942872E+02  0.78320489058E+02  0.47000000000E+01 0.  1.
         -5    1    4    4    0  502 -0.35600959058E+02 -0.84445264115E+02 -0.14781163541E+03  0.17397931049E+03  0.47000000000E+01 0.  1.
          5    1    5    5  503    0  0.49235182463E+02  0.64336149284E+02 -0.23354297599E+03  0.24724007550E+03  0.47000000000E+01 0. -1.
         -5    1    5    5    0  503 -0.34887232492E+02 -0.16701181051E+02 -0.30080597947E+02  0.49223782994E+02  0.47000000000E+01 0. -1.
<mgrwt>
<rscale>  0 0.27122814E+03</rscale>
<asrwt>0</asrwt>
<pdfrwt beam="1">  1        1 0.55164238E-02 0.27122814E+03</pdfrwt>
<pdfrwt beam="2">  1       -1 0.78908751E-01 0.27122814E+03</pdfrwt>
<totfact> 0.24310485E+03</totfact>
</mgrwt>
</event>
<event>
 9    1  0.8186049E-001  0.2608707E+03  0.7818608E-02  0.1106621E+00
         -2   -1    0    0    0  501 -0.00000000000E+00  0.00000000000E+00  0.14215633209E+02  0.14215633209E+02  0.00000000000E+00 0.  1.
          2   -1    0    0  501    0  0.00000000000E+00 -0.00000000000E+00 -0.11968076193E+04  0.11968076193E+04  0.00000000000E+00 0.  1.
         35    2    1    2    0    0  0.00000000000E+00 -0.35527136788E-14 -0.11825919861E+04  0.12110232525E+04  0.26087068166E+03 0.  0.
         25    2    3    3    0    0  0.24776935144E+02 -0.30268746487E+02 -0.57259251231E+03  0.58725080448E+03  0.12438339388E+03 0.  0.
         25    2    3    3    0    0 -0.24776935144E+02  0.30268746487E+02 -0.60999947377E+03  0.62377244802E+03  0.12434876511E+03 0.  0.
          5    1    4    4  502    0  0.25448939690E+02 -0.43053205143E+02 -0.79959177497E+02  0.94428740701E+02  0.47000000000E+01 0. -1.
         -5    1    4    4    0  502 -0.67200454614E+00  0.12784458656E+02 -0.49263333481E+03  0.49282206378E+03  0.47000000000E+01 0. -1.
          5    1    5    5  503    0  0.10480885221E+01  0.54950161330E+02 -0.11585741094E+03  0.12831854266E+03  0.47000000000E+01 0.  1.
         -5    1    5    5    0  503 -0.25825023666E+02 -0.24681414843E+02 -0.49414206282E+03  0.49545390536E+03  0.47000000000E+01 0.  1.
<mgrwt>
<rscale>  0 0.26087068E+03</rscale>
<asrwt>0</asrwt>
<pdfrwt beam="1">  1        2 0.18412431E+00 0.26087068E+03</pdfrwt>
<pdfrwt beam="2">  1       -2 0.21870197E-02 0.26087068E+03</pdfrwt>
<totfact> 0.13547823E+04</totfact>
</mgrwt>
</event>
<event>
 9    1  0.8186049E-001  0.2776984E+03  0.7818608E-02  0.1096953E+00
         -4   -1    0    0    0  501 -0.00000000000E+00  0.00000000000E+00  0.43683606417E+02  0.43683606417E+02  0.00000000000E+00 0. -1.
          4   -1    0    0  501    0  0.00000000000E+00 -0.00000000000E+00 -0.44133505921E+03  0.44133505921E+03  0.00000000000E+00 0. -1.
         35    2    1    2    0    0 -0.71054273576E-14  0.00000000000E+00 -0.39765145280E+03  0.48501866563E+03  0.27769844814E+03 0.  0.
         25    2    3    3    0    0  0.53642789917E+02 -0.17191185015E+02 -0.21523671187E+03  0.25649575644E+03  0.12763285308E+03 0.  0.
         25    2    3    3    0    0 -0.53642789917E+02  0.17191185015E+02 -0.18241474093E+03  0.22852290919E+03  0.12559656270E+03 0.  0.
          5    1    4    4  502    0 -0.20394227076E+02  0.38202821045E+02 -0.44499489760E+02  0.62270977371E+02  0.47000000000E+01 0. -1.
         -5    1    4    4    0  502  0.74037016993E+02 -0.55394006060E+02 -0.17073722211E+03  0.19422477907E+03  0.47000000000E+01 0. -1.
          5    1    5    5  503    0 -0.81437805928E+02 -0.17631864348E+02 -0.15488252112E+03  0.17593659148E+03  0.47000000000E+01 0.  1.
         -5    1    5    5    0  503  0.27795016011E+02  0.34823049363E+02 -0.27532219809E+02  0.52586317703E+02  0.47000000000E+01 0.  1.
<mgrwt>
<rscale>  0 0.27769845E+03</rscale>
<asrwt>0</asrwt>
<pdfrwt beam="1">  1        4 0.67897705E-01 0.27769845E+03</pdfrwt>
<pdfrwt beam="2">  1       -4 0.67205545E-02 0.27769845E+03</pdfrwt>
<totfact> 0.56303898E+02</totfact>
</mgrwt>
</event>
<event>
 9    1  0.8186049E-001  0.2756528E+03  0.7818608E-02  0.1098087E+00
          2   -1    0    0  501    0  0.00000000000E+00  0.00000000000E+00  0.59805569294E+03  0.59805569294E+03  0.00000000000E+00 0.  1.
         -2   -1    0    0    0  501 -0.00000000000E+00 -0.00000000000E+00 -0.31763119737E+02  0.31763119737E+02  0.00000000000E+00 0.  1.
         35    2    1    2    0    0 -0.71054273576E-14  0.35527136788E-14  0.56629257320E+03  0.62981881268E+03  0.27565278583E+03 0.  0.
         25    2    3    3    0    0  0.37641859763E+02  0.30219987609E+02  0.21025253689E+03  0.24962873010E+03  0.12561137035E+03 0.  0.
         25    2    3    3    0    0 -0.37641859763E+02 -0.30219987609E+02  0.35604003631E+03  0.38019008258E+03  0.12429736191E+03 0.  0.
          5    1    4    4  502    0  0.40702637695E+02 -0.77601990468E+01  0.20693336648E+03  0.21109342379E+03  0.47000000000E+01 0. -1.
         -5    1    4    4    0  502 -0.30607779324E+01  0.37980186656E+02  0.33191704128E+01  0.38535306307E+02  0.47000000000E+01 0. -1.
          5    1    5    5  503    0 -0.60579061598E+02 -0.90163412336E+01  0.73055282006E+02  0.95447793806E+02  0.47000000000E+01 0. -1.
         -5    1    5    5    0  503  0.22937201835E+02 -0.21203646375E+02  0.28298475430E+03  0.28474228877E+03  0.47000000000E+01 0. -1.
<mgrwt>
<rscale>  0 0.27565279E+03</rscale>
<asrwt>0</asrwt>
<pdfrwt beam="1">  1        2 0.92008560E-01 0.27565279E+03</pdfrwt>
<pdfrwt beam="2">  1       -2 0.48866342E-02 0.27565279E+03</pdfrwt>
<totfact> 0.10222857E+04</totfact>
</mgrwt>
</event>
<event>
 9    1  0.8186049E-001  0.2732435E+03  0.7818608E-02  0.1099437E+00
          2   -1    0    0  501    0  0.00000000000E+00  0.00000000000E+00  0.32205390387E+04  0.32205390387E+04  0.00000000000E+00 0.  1.
         -2   -1    0    0    0  501 -0.00000000000E+00 -0.00000000000E+00 -0.57957713094E+01  0.57957713094E+01  0.00000000000E+00 0.  1.
         35    2    1    2    0    0 -0.35527136788E-14  0.00000000000E+00  0.32147432674E+04  0.32263348100E+04  0.27324353798E+03 0.  0.
         25    2    3    3    0    0 -0.28801999517E+02  0.46250391672E+02  0.16718231769E+04  0.16773864214E+04  0.12515517540E+03 0.  0.
         25    2    3    3    0    0  0.28801999517E+02 -0.46250391672E+02  0.15429200905E+04  0.15489483886E+04  0.12518007457E+03 0.  0.
          5    1    4    4  502    0 -0.46598429663E+02  0.82950968356E+02  0.12073027400E+04  0.12110550247E+04  0.47000000000E+01 0. -1.
         -5    1    4    4    0  502  0.17796430147E+02 -0.36700576684E+02  0.46452043691E+03  0.46633139671E+03  0.47000000000E+01 0. -1.
          5    1    5    5  503    0  0.60317083573E+01  0.36746646556E+02  0.21639230434E+03  0.21962335239E+03  0.47000000000E+01 0. -1.
         -5    1    5    5    0  503  0.22770291159E+02 -0.82997038229E+02  0.13265277862E+04  0.13293250362E+04  0.47000000000E+01 0. -1.
<mgrwt>
<rscale>  0 0.27324354E+03</rscale>
<asrwt>0</asrwt>
<pdfrwt beam="1">  1        2 0.49546612E+00 0.27324354E+03</pdfrwt>
<pdfrwt beam="2">  1       -2 0.89165970E-03 0.27324354E+03</pdfrwt>
<totfact> 0.38577890E+03</totfact>
</mgrwt>
</event>
<event>
 9    1  0.8186049E-001  0.2788802E+03  0.7818608E-02  0.1096302E+00
          2   -1    0    0  501    0  0.00000000000E+00  0.00000000000E+00  0.12861144808E+04  0.12861144808E+04  0.00000000000E+00 0.  1.
         -2   -1    0    0    0  501 -0.00000000000E+00 -0.00000000000E+00 -0.15118048080E+02  0.15118048080E+02  0.00000000000E+00 0.  1.
         35    2    1    2    0    0  0.00000000000E+00 -0.71054273576E-14  0.12709964327E+04  0.13012325289E+04  0.27888019332E+03 0.  0.
         25    2    3    3    0    0 -0.43555216479E+02  0.42249980535E+02  0.63374277677E+03  0.64869609220E+03  0.12447728786E+03 0.  0.
         25    2    3    3    0    0  0.43555216479E+02 -0.42249980535E+02  0.63725365593E+03  0.65253643666E+03  0.12660750937E+03 0.  0.
          5    1    4    4  502    0  0.24873969212E+02  0.47648016424E+02  0.43599706882E+03  0.43932286742E+03  0.47000000000E+01 0.  1.
         -5    1    4    4    0  502 -0.68429185692E+02 -0.53980358884E+01  0.19774570794E+03  0.20937322478E+03  0.47000000000E+01 0.  1.
          5    1    5    5  503    0  0.10831597799E+02  0.93207490277E+01  0.52024666743E+03  0.52046410524E+03  0.47000000000E+01 0. -1.
         -5    1    5    5    0  503  0.32723618680E+02 -0.51570729563E+02  0.11700698850E+03  0.13207233141E+03  0.47000000000E+01 0. -1.
<mgrwt>
<rscale>  0 0.27888019E+03</rscale>
<asrwt>0</asrwt>
<pdfrwt beam="1">  1        2 0.19786368E+00 0.27888019E+03</pdfrwt>
<pdfrwt beam="2">  1       -2 0.23258546E-02 0.27888019E+03</pdfrwt>
<totfact> 0.11043783E+04</totfact>
</mgrwt>
</event>
<event>
 9    1  0.8186049E-001  0.2781845E+03  0.7818608E-02  0.1096685E+00
         -2   -1    0    0    0  501 -0.00000000000E+00  0.00000000000E+00  0.89298491932E+02  0.89298491932E+02  0.00000000000E+00 0.  1.
          2   -1    0    0  501    0  0.00000000000E+00 -0.00000000000E+00 -0.21665153838E+03  0.21665153838E+03  0.00000000000E+00 0.  1.
         35    2    1    2    0    0  0.00000000000E+00 -0.14210854715E-13 -0.12735304645E+03  0.30595003032E+03  0.27818451181E+03 0.  0.
         25    2    3    3    0    0 -0.20716641433E+02  0.54785616999E+02 -0.76596578788E+02  0.15786829941E+03  0.12499888406E+03 0.  0.
         25    2    3    3    0    0  0.20716641433E+02 -0.54785616999E+02 -0.50756467665E+02  0.14808173090E+03  0.12617978029E+03 0.  0.
          5    1    4    4  502    0 -0.37353031207E+02  0.87702961255E+02 -0.73680221058E+02  0.12057331101E+03  0.47000000000E+01 0. -1.
         -5    1    4    4    0  502  0.16636389774E+02 -0.32917344256E+02 -0.29163577300E+01  0.37294988403E+02  0.47000000000E+01 0. -1.
          5    1    5    5  503    0  0.66096554012E+01 -0.47403819445E+02  0.35795697199E+02  0.59951910565E+02  0.47000000000E+01 0. -1.
         -5    1    5    5    0  503  0.14106986032E+02 -0.73817975546E+01 -0.86552164864E+02  0.88129820337E+02  0.47000000000E+01 0. -1.
<mgrwt>
<rscale>  0 0.27818451E+03</rscale>
<asrwt>0</asrwt>
<pdfrwt beam="1">  1        2 0.33331006E-01 0.27818451E+03</pdfrwt>
<pdfrwt beam="2">  1       -2 0.13738230E-01 0.27818451E+03</pdfrwt>
<totfact> 0.61391692E+03</totfact>
</mgrwt>
</event>
<event>
 9    1  0.8186049E-001  0.2676636E+03  0.7818608E-02  0.1102624E+00
         -2   -1    0    0    0  501 -0.00000000000E+00  0.00000000000E+00  0.47722333263E+02  0.47722333263E+02  0.00000000000E+00 0. -1.
          2   -1    0    0  501    0  0.00000000000E+00 -0.00000000000E+00 -0.37531598705E+03  0.37531598705E+03  0.00000000000E+00 0. -1.
         35    2    1    2    0    0  0.00000000000E+00  0.00000000000E+00 -0.32759365378E+03  0.42303832031E+03  0.26766362930E+03 0.  0.
         25    2    3    3    0    0  0.14870645533E+02 -0.81455620684E+01 -0.24203331128E+03  0.27207378592E+03  0.12311187975E+03 0.  0.
         25    2    3    3    0    0 -0.14870645533E+02  0.81455620684E+01 -0.85560342503E+02  0.15096453439E+03  0.12321620086E+03 0.  0.
          5    1    4    4  502    0 -0.31712964646E+02  0.40976787445E+02 -0.70616316682E+02  0.87712960374E+02  0.47000000000E+01 0.  1.
         -5    1    4    4    0  502  0.46583610180E+02 -0.49122349513E+02 -0.17141699460E+03  0.18436082555E+03  0.47000000000E+01 0.  1.
          5    1    5    5  503    0  0.51541136743E+01 -0.29931190317E+02 -0.10056783357E+03  0.10515902335E+03  0.47000000000E+01 0. -1.
         -5    1    5    5    0  503 -0.20024759207E+02  0.38076752386E+02  0.15007491070E+02  0.45805511041E+02  0.47000000000E+01 0. -1.
<mgrwt>
<rscale>  0 0.26766363E+03</rscale>
<asrwt>0</asrwt>
<pdfrwt beam="1">  1        2 0.57740923E-01 0.26766363E+03</pdfrwt>
<pdfrwt beam="2">  1       -2 0.73418972E-02 0.26766363E+03</pdfrwt>
<totfact> 0.91824017E+03</totfact>
</mgrwt>
</event>
<event>
 9    1  0.8186049E-001  0.2764205E+03  0.7818608E-02  0.1097660E+00
         -1   -1    0    0    0  501 -0.00000000000E+00  0.00000000000E+00  0.28065953924E+03  0.28065953924E+03  0.00000000000E+00 0.  1.
          1   -1    0    0  501    0  0.00000000000E+00 -0.00000000000E+00 -0.68061377536E+02  0.68061377536E+02  0.00000000000E+00 0.  1.
         35    2    1    2    0    0  0.00000000000E+00  0.00000000000E+00  0.21259816170E+03  0.34872091678E+03  0.27642051197E+03 0.  0.
         25    2    3    3    0    0  0.54377320748E+02 -0.23049574696E+02  0.96021460212E+02  0.16826755404E+03  0.12492266814E+03 0.  0.
         25    2    3    3    0    0 -0.54377320748E+02  0.23049574696E+02  0.11657670149E+03  0.18045336274E+03  0.12443919354E+03 0.  0.
          5    1    4    4  502    0  0.55497993518E+02  0.43770449332E+02  0.55310883449E+02  0.89873596496E+02  0.47000000000E+01 0. -1.
         -5    1    4    4    0  502 -0.11206727698E+01 -0.66820024028E+02  0.40710576763E+02  0.78393957541E+02  0.47000000000E+01 0. -1.
          5    1    5    5  503    0  0.59379520396E+01  0.83950610076E+01 -0.24099863082E+02  0.26620100006E+02  0.47000000000E+01 0. -1.
         -5    1    5    5    0  503 -0.60315272788E+02  0.14654513688E+02  0.14067656457E+03  0.15383326273E+03  0.47000000000E+01 0. -1.
<mgrwt>
<rscale>  0 0.27642051E+03</rscale>
<asrwt>0</asrwt>
<pdfrwt beam="1">  1        1 0.10470981E-01 0.27642051E+03</pdfrwt>
<pdfrwt beam="2">  1       -1 0.43178390E-01 0.27642051E+03</pdfrwt>
<totfact> 0.32298787E+03</totfact>
</mgrwt>
</event>
<event>
 9    1  0.8186049E-001  0.2750635E+03  0.7818608E-02  0.1098416E+00
          1   -1    0    0  501    0  0.00000000000E+00  0.00000000000E+00  0.11464618338E+04  0.11464618338E+04  0.00000000000E+00 0. -1.
         -1   -1    0    0    0  501 -0.00000000000E+00 -0.00000000000E+00 -0.16498576791E+02  0.16498576791E+02  0.00000000000E+00 0. -1.
         35    2    1    2    0    0 -0.35527136788E-14  0.71054273576E-14  0.11299632570E+04  0.11629604106E+04  0.27506354614E+03 0.  0.
         25    2    3    3    0    0 -0.16990026934E+02 -0.54992086758E+02  0.50782423140E+03  0.52628517776E+03  0.12560990293E+03 0.  0.
         25    2    3    3    0    0  0.16990026934E+02  0.54992086758E+02  0.62213902563E+03  0.63667523285E+03  0.12241566196E+03 0.  0.
          5    1    4    4  502    0  0.36320970068E+02 -0.41896817092E+02  0.41207560811E+03  0.41581600853E+03  0.47000000000E+01 0.  1.
         -5    1    4    4    0  502 -0.53310997002E+02 -0.13095269666E+02  0.95748623286E+02  0.11046916923E+03  0.47000000000E+01 0.  1.
          5    1    5    5  503    0  0.11042594189E+02 -0.38934223342E+02  0.16894073455E+03  0.17378398783E+03  0.47000000000E+01 0.  1.
         -5    1    5    5    0  503  0.59474327444E+01  0.93926310100E+02  0.45319829107E+03  0.46289124502E+03  0.47000000000E+01 0.  1.
<mgrwt>
<rscale>  0 0.27506355E+03</rscale>
<asrwt>0</asrwt>
<pdfrwt beam="1">  1        1 0.17637868E+00 0.27506355E+03</pdfrwt>
<pdfrwt beam="2">  1       -1 0.25382435E-02 0.27506355E+03</pdfrwt>
<totfact> 0.60319933E+03</totfact>
</mgrwt>
</event>
<event>
 9    1  0.8186049E-001  0.2731113E+03  0.7818608E-02  0.1099512E+00
          2   -1    0    0  501    0  0.00000000000E+00  0.00000000000E+00  0.13620412718E+04  0.13620412718E+04  0.00000000000E+00 0.  1.
         -2   -1    0    0    0  501 -0.00000000000E+00 -0.00000000000E+00 -0.13690807974E+02  0.13690807974E+02  0.00000000000E+00 0.  1.
         35    2    1    2    0    0  0.00000000000E+00  0.71054273576E-14  0.13483504638E+04  0.13757320797E+04  0.27311129969E+03 0.  0.
         25    2    3    3    0    0 -0.47588894350E+02 -0.25120888150E+02  0.72942520838E+03  0.74206204239E+03  0.12529636166E+03 0.  0.
         25    2    3    3    0    0  0.47588894350E+02  0.25120888150E+02  0.61892525542E+03  0.63367003736E+03  0.12479376013E+03 0.  0.
          5    1    4    4  502    0 -0.20098991686E+02 -0.21612785946E+02  0.70250933382E+03  0.70314474761E+03  0.47000000000E+01 0. -1.
         -5    1    4    4    0  502 -0.27489902664E+02 -0.35081022032E+01  0.26915874556E+02  0.38917294776E+02  0.47000000000E+01 0. -1.
          5    1    5    5  503    0  0.86373570376E+02 -0.24152129667E+01  0.44267216144E+03  0.45105094993E+03  0.47000000000E+01 0.  1.
         -5    1    5    5    0  503 -0.38784676026E+02  0.27536101116E+02  0.17625309398E+03  0.18261908744E+03  0.47000000000E+01 0.  1.
<mgrwt>
<rscale>  0 0.27311130E+03</rscale>
<asrwt>0</asrwt>
<pdfrwt beam="1">  1        2 0.20954470E+00 0.27311130E+03</pdfrwt>
<pdfrwt beam="2">  1       -2 0.21062792E-02 0.27311130E+03</pdfrwt>
<totfact> 0.11603379E+04</totfact>
</mgrwt>
</event>
<event>
 9    1  0.8186049E-001  0.2747102E+03  0.7818608E-02  0.1098614E+00
         -3   -1    0    0    0  501 -0.00000000000E+00  0.00000000000E+00  0.19516134263E+03  0.19516134263E+03  0.00000000000E+00 0.  1.
          3   -1    0    0  501    0  0.00000000000E+00 -0.00000000000E+00 -0.96670870892E+02  0.96670870892E+02  0.00000000000E+00 0.  1.
         35    2    1    2    0    0 -0.71054273576E-14  0.00000000000E+00  0.98490471733E+02  0.29183221352E+03  0.27471015239E+03 0.  0.
         25    2    3    3    0    0  0.49816468519E+02  0.19161958018E+02  0.65675097812E+02  0.15101174737E+03  0.12506985328E+03 0.  0.
         25    2    3    3    0    0 -0.49816468519E+02 -0.19161958018E+02  0.32815373922E+02  0.14082046615E+03  0.12611381268E+03 0.  0.
          5    1    4    4  502    0  0.74260563199E+01  0.37741048050E+02 -0.27058747665E+02  0.47263081211E+02  0.47000000000E+01 0. -1.
         -5    1    4    4    0  502  0.42390412199E+02 -0.18579090032E+02  0.92733845477E+02  0.10374866616E+03  0.47000000000E+01 0. -1.
          5    1    5    5  503    0 -0.41056316314E+02  0.22563978231E+02  0.69791890795E+02  0.84188789299E+02  0.47000000000E+01 0.  1.
         -5    1    5    5    0  503 -0.87601522053E+01 -0.41725936249E+02 -0.36976516873E+02  0.56631676848E+02  0.47000000000E+01 0.  1.
<mgrwt>
<rscale>  0 0.27471015E+03</rscale>
<asrwt>0</asrwt>
<pdfrwt beam="1">  1        3 0.14872442E-01 0.27471015E+03</pdfrwt>
<pdfrwt beam="2">  1       -3 0.30024822E-01 0.27471015E+03</pdfrwt>
<totfact> 0.10267994E+03</totfact>
</mgrwt>
</event>
<event>
 9    1  0.8186049E-001  0.2757221E+03  0.7818608E-02  0.1098049E+00
         -2   -1    0    0    0  501 -0.00000000000E+00  0.00000000000E+00  0.67232635827E+02  0.67232635827E+02  0.00000000000E+00 0. -1.
          2   -1    0    0  501    0  0.00000000000E+00 -0.00000000000E+00 -0.28268527235E+03  0.28268527235E+03  0.00000000000E+00 0. -1.
         35    2    1    2    0    0  0.00000000000E+00  0.00000000000E+00 -0.21545263653E+03  0.34991790818E+03  0.27572214978E+03 0.  0.
         25    2    3    3    0    0  0.56250061584E+02  0.12538559222E+01 -0.13064333471E+03  0.18846373797E+03  0.12363356358E+03 0.  0.
         25    2    3    3    0    0 -0.56250061584E+02 -0.12538559222E+01 -0.84809301817E+02  0.16145417021E+03  0.12533630687E+03 0.  0.
          5    1    4    4  502    0  0.34316353793E+02 -0.60518795671E+02 -0.74331659050E+02  0.10191870439E+03  0.47000000000E+01 0.  1.
         -5    1    4    4    0  502  0.21933707791E+02  0.61772651593E+02 -0.56311675658E+02  0.86545033582E+02  0.47000000000E+01 0.  1.
          5    1    5    5  503    0 -0.78222856838E+01 -0.42573029439E+02  0.12299783082E+02  0.45244067598E+02  0.47000000000E+01 0. -1.
         -5    1    5    5    0  503 -0.48427775901E+02  0.41319173517E+02 -0.97109084899E+02  0.11621010261E+03  0.47000000000E+01 0. -1.
<mgrwt>
<rscale>  0 0.27572215E+03</rscale>
<asrwt>0</asrwt>
<pdfrwt beam="1">  1        2 0.43490042E-01 0.27572215E+03</pdfrwt>
<pdfrwt beam="2">  1       -2 0.10343482E-01 0.27572215E+03</pdfrwt>
<totfact> 0.72781962E+03</totfact>
</mgrwt>
</event>
<event>
 9    1  0.8186049E-001  0.2587774E+03  0.7818608E-02  0.1107880E+00
         -1   -1    0    0    0  501 -0.00000000000E+00  0.00000000000E+00  0.39902670606E+02  0.39902670606E+02  0.00000000000E+00 0.  1.
          1   -1    0    0  501    0  0.00000000000E+00 -0.00000000000E+00 -0.41955676463E+03  0.41955676463E+03  0.00000000000E+00 0.  1.
         35    2    1    2    0    0  0.00000000000E+00  0.71054273576E-14 -0.37965409402E+03  0.45945943524E+03  0.25877739762E+03 0.  0.
         25    2    3    3    0    0  0.29705954091E+02 -0.99958813287E+01 -0.19648777157E+03  0.23539570287E+03  0.12578287325E+03 0.  0.
         25    2    3    3    0    0 -0.29705954091E+02  0.99958813287E+01 -0.18316632246E+03  0.22406373236E+03  0.12518902958E+03 0.  0.
          5    1    4    4  502    0  0.12677302883E+02 -0.66913069097E+02 -0.85395191035E+02  0.10932749643E+03  0.47000000000E+01 0.  1.
         -5    1    4    4    0  502  0.17028651208E+02  0.56917187768E+02 -0.11109258053E+03  0.12606820644E+03  0.47000000000E+01 0.  1.
          5    1    5    5  503    0 -0.34710841331E+02  0.17388527984E+01  0.51453097467E+01  0.35446160968E+02  0.47000000000E+01 0. -1.
         -5    1    5    5    0  503  0.50048872404E+01  0.82570285303E+01 -0.18831163220E+03  0.18861757140E+03  0.47000000000E+01 0. -1.
<mgrwt>
<rscale>  0 0.25877740E+03</rscale>
<asrwt>0</asrwt>
<pdfrwt beam="1">  1        1 0.64547197E-01 0.25877740E+03</pdfrwt>
<pdfrwt beam="2">  1       -1 0.61388722E-02 0.25877740E+03</pdfrwt>
<totfact> 0.72831358E+03</totfact>
</mgrwt>
</event>
<event>
 9    1  0.8186049E-001  0.2642924E+03  0.7818608E-02  0.1104591E+00
          3   -1    0    0  501    0  0.00000000000E+00  0.00000000000E+00  0.40929213068E+03  0.40929213068E+03  0.00000000000E+00 0.  1.
         -3   -1    0    0    0  501 -0.00000000000E+00 -0.00000000000E+00 -0.42665399741E+02  0.42665399741E+02  0.00000000000E+00 0.  1.
         35    2    1    2    0    0  0.00000000000E+00 -0.17763568394E-14  0.36662673094E+03  0.45195753042E+03  0.26429235605E+03 0.  0.
         25    2    3    3    0    0 -0.38277510478E+02 -0.15529050543E+02  0.16731839233E+03  0.21251554117E+03  0.12434263793E+03 0.  0.
         25    2    3    3    0    0  0.38277510478E+02  0.15529050543E+02  0.19930833861E+03  0.23944198926E+03  0.12610445337E+03 0.  0.
          5    1    4    4  502    0 -0.74984834231E+02  0.17092156904E+02  0.12812594791E+03  0.14950991846E+03  0.47000000000E+01 0.  1.
         -5    1    4    4    0  502  0.36707323753E+02 -0.32621207447E+02  0.39192444420E+02  0.63005622701E+02  0.47000000000E+01 0.  1.
          5    1    5    5  503    0 -0.17950585772E+02 -0.14959435287E+02 -0.58084858826E+01  0.24532361115E+02  0.47000000000E+01 0.  1.
         -5    1    5    5    0  503  0.56228096250E+02  0.30488485830E+02  0.20511682450E+03  0.21490962814E+03  0.47000000000E+01 0.  1.
<mgrwt>
<rscale>  0 0.26429236E+03</rscale>
<asrwt>0</asrwt>
<pdfrwt beam="1">  1        3 0.62968017E-01 0.26429236E+03</pdfrwt>
<pdfrwt beam="2">  1       -3 0.65639079E-02 0.26429236E+03</pdfrwt>
<totfact> 0.92841644E+02</totfact>
</mgrwt>
</event>
<event>
 9    1  0.8186049E-001  0.2748970E+03  0.7818608E-02  0.1098509E+00
         -2   -1    0    0    0  501 -0.00000000000E+00  0.00000000000E+00  0.14014858617E+02  0.14014858617E+02  0.00000000000E+00 0.  1.
          2   -1    0    0  501    0  0.00000000000E+00 -0.00000000000E+00 -0.13480041156E+04  0.13480041156E+04  0.00000000000E+00 0.  1.
         35    2    1    2    0    0 -0.71054273576E-14  0.71054273576E-14 -0.13339892570E+04  0.13620189743E+04  0.27489697776E+03 0.  0.
         25    2    3    3    0    0 -0.12924613359E+02  0.46174825297E+02 -0.81350264325E+03  0.82452169880E+03  0.12550028324E+03 0.  0.
         25    2    3    3    0    0  0.12924613359E+02 -0.46174825297E+02 -0.52048661378E+03  0.53749727546E+03  0.12529104471E+03 0.  0.
          5    1    4    4  502    0 -0.59589188816E+02  0.34044050685E+02 -0.65953655111E+03  0.66311418403E+03  0.47000000000E+01 0.  1.
         -5    1    4    4    0  502  0.46664575457E+02  0.12130774612E+02 -0.15396609213E+03  0.16140751476E+03  0.47000000000E+01 0.  1.
          5    1    5    5  503    0 -0.16494865841E+02  0.12704988110E+02 -0.11489212798E+02  0.24240242010E+02  0.47000000000E+01 0. -1.
         -5    1    5    5    0  503  0.29419479201E+02 -0.58879813407E+02 -0.50899740098E+03  0.51325703345E+03  0.47000000000E+01 0. -1.
<mgrwt>
<rscale>  0 0.27489698E+03</rscale>
<asrwt>0</asrwt>
<pdfrwt beam="1">  1        2 0.20738537E+00 0.27489698E+03</pdfrwt>
<pdfrwt beam="2">  1       -2 0.21561308E-02 0.27489698E+03</pdfrwt>
<totfact> 0.11412156E+04</totfact>
</mgrwt>
</event>
<event>
 9    1  0.8186049E-001  0.2754915E+03  0.7818608E-02  0.1098177E+00
         -4   -1    0    0    0  501 -0.00000000000E+00  0.00000000000E+00  0.96681366753E+03  0.96681366753E+03  0.00000000000E+00 0.  1.
          4   -1    0    0  501    0  0.00000000000E+00 -0.00000000000E+00 -0.19625183740E+02  0.19625183740E+02  0.00000000000E+00 0.  1.
         35    2    1    2    0    0  0.71054273576E-14  0.00000000000E+00  0.94718848379E+03  0.98643885127E+03  0.27549153067E+03 0.  0.
         25    2    3    3    0    0  0.33759792267E+02 -0.34491068056E+02  0.58641406104E+03  0.60145777141E+03  0.12466211313E+03 0.  0.
         25    2    3    3    0    0 -0.33759792267E+02  0.34491068056E+02  0.36077442275E+03  0.38498107986E+03  0.12539095021E+03 0.  0.
          5    1    4    4  502    0 -0.23453873132E+02  0.29504660856E+02  0.90508844196E+02  0.98155743871E+02  0.47000000000E+01 0.  1.
         -5    1    4    4    0  502  0.57213665399E+02 -0.63995728912E+02  0.49590521685E+03  0.50330202754E+03  0.47000000000E+01 0.  1.
          5    1    5    5  503    0  0.32701586703E+02 -0.27695289367E+02  0.10871689708E+03  0.11695245417E+03  0.47000000000E+01 0.  1.
         -5    1    5    5    0  503 -0.66461378970E+02  0.62186357423E+02  0.25205752567E+03  0.26802862569E+03  0.47000000000E+01 0.  1.
<mgrwt>
<rscale>  0 0.27549153E+03</rscale>
<asrwt>0</asrwt>
<pdfrwt beam="1">  1        4 0.30192598E-02 0.27549153E+03</pdfrwt>
<pdfrwt beam="2">  1       -4 0.14874053E+00 0.27549153E+03</pdfrwt>
<totfact> 0.32312409E+02</totfact>
</mgrwt>
</event>
<event>
 9    1  0.8186049E-001  0.2715422E+03  0.7818608E-02  0.1100400E+00
          2   -1    0    0  501    0  0.00000000000E+00  0.00000000000E+00  0.10479403694E+04  0.10479403694E+04  0.00000000000E+00 0. -1.
         -2   -1    0    0    0  501 -0.00000000000E+00 -0.00000000000E+00 -0.17590496286E+02  0.17590496286E+02  0.00000000000E+00 0. -1.
         35    2    1    2    0    0  0.00000000000E+00  0.00000000000E+00  0.10303498731E+04  0.10655308657E+04  0.27154219692E+03 0.  0.
         25    2    3    3    0    0  0.18743352036E+02  0.49109990017E+02  0.47660596122E+03  0.49571913288E+03  0.12578200216E+03 0.  0.
         25    2    3    3    0    0 -0.18743352036E+02 -0.49109990017E+02  0.55374391192E+03  0.56981173283E+03  0.12365268506E+03 0.  0.
          5    1    4    4  502    0 -0.39340681301E+02  0.45069640902E+02  0.36349758165E+03  0.36841762119E+03  0.47000000000E+01 0. -1.
         -5    1    4    4    0  502  0.58084033337E+02  0.40403491150E+01  0.11310837957E+03  0.12730151169E+03  0.47000000000E+01 0. -1.
          5    1    5    5  503    0 -0.19938441058E+02  0.16674644116E+02  0.23117969744E+02  0.35101505855E+02  0.47000000000E+01 0.  1.
         -5    1    5    5    0  503  0.11950890217E+01 -0.65784634132E+02  0.53062594218E+03  0.53471022698E+03  0.47000000000E+01 0.  1.
<mgrwt>
<rscale>  0 0.27154220E+03</rscale>
<asrwt>0</asrwt>
<pdfrwt beam="1">  1        2 0.16122155E+00 0.27154220E+03</pdfrwt>
<pdfrwt beam="2">  1       -2 0.27062310E-02 0.27154220E+03</pdfrwt>
<totfact> 0.12089999E+04</totfact>
</mgrwt>
</event>
<event>
 9    1  0.8186049E-001  0.2771984E+03  0.7818608E-02  0.1097229E+00
          1   -1    0    0  501    0  0.00000000000E+00  0.00000000000E+00  0.22924756282E+03  0.22924756282E+03  0.00000000000E+00 0. -1.
         -1   -1    0    0    0  501 -0.00000000000E+00 -0.00000000000E+00 -0.83794703937E+02  0.83794703937E+02  0.00000000000E+00 0. -1.
         35    2    1    2    0    0  0.00000000000E+00 -0.14210854715E-13  0.14545285888E+03  0.31304226676E+03  0.27719835248E+03 0.  0.
         25    2    3    3    0    0 -0.41507672188E+02  0.41420821771E+02  0.66569778363E+02  0.15345704143E+03  0.12521564138E+03 0.  0.
         25    2    3    3    0    0  0.41507672188E+02 -0.41420821771E+02  0.78883080519E+02  0.15958522533E+03  0.12572323741E+03 0.  0.
          5    1    4    4  502    0 -0.49751840845E+02  0.62021380327E+02  0.90451149773E+02  0.12052135819E+03  0.47000000000E+01 0. -1.
         -5    1    4    4    0  502  0.82441686569E+01 -0.20600558556E+02 -0.23881371410E+02  0.32935683234E+02  0.47000000000E+01 0. -1.
          5    1    5    5  503    0 -0.43939691999E+01  0.15349415294E+02  0.84584750566E+02  0.86206621228E+02  0.47000000000E+01 0. -1.
         -5    1    5    5    0  503  0.45901641388E+02 -0.56770237065E+02 -0.57016700471E+01  0.73378604101E+02  0.47000000000E+01 0. -1.
<mgrwt>
<rscale>  0 0.27719835E+03</rscale>
<asrwt>0</asrwt>
<pdfrwt beam="1">  1        1 0.35268856E-01 0.27719835E+03</pdfrwt>
<pdfrwt beam="2">  1       -1 0.12891493E-01 0.27719835E+03</pdfrwt>
<totfact> 0.50109958E+03</totfact>
</mgrwt>
</event>
<event>
 9    1  0.8186049E-001  0.2966382E+03  0.7818608E-02  0.1086933E+00
          2   -1    0    0  501    0  0.00000000000E+00  0.00000000000E+00  0.32408887357E+04  0.32408887357E+04  0.00000000000E+00 0. -1.
         -2   -1    0    0    0  501 -0.00000000000E+00 -0.00000000000E+00 -0.67878143027E+01  0.67878143027E+01  0.00000000000E+00 0. -1.
         35    2    1    2    0    0  0.71054273576E-14  0.00000000000E+00  0.32341009214E+04  0.32476765500E+04  0.29663816959E+03 0.  0.
         25    2    3    3    0    0  0.56818328628E+02  0.54845490479E+02  0.14535849421E+04  0.14610721203E+04  0.12484472963E+03 0.  0.
         25    2    3    3    0    0 -0.56818328628E+02 -0.54845490479E+02  0.17805159793E+04  0.17866044297E+04  0.12442622479E+03 0.  0.
          5    1    4    4  502    0  0.68561781817E+02  0.65161657743E+02  0.14250905185E+04  0.14282338168E+04  0.47000000000E+01 0.  1.
         -5    1    4    4    0  502 -0.11743453188E+02 -0.10316167265E+02  0.28494423634E+02  0.32838303520E+02  0.47000000000E+01 0.  1.
          5    1    5    5  503    0  0.75153799639E+01 -0.27470566971E+02  0.13587787548E+04  0.13590853201E+04  0.47000000000E+01 0. -1.
         -5    1    5    5    0  503 -0.64333708592E+02 -0.27374923507E+02  0.42173722457E+03  0.42751910962E+03  0.47000000000E+01 0. -1.
<mgrwt>
<rscale>  0 0.29663817E+03</rscale>
<asrwt>0</asrwt>
<pdfrwt beam="1">  1        2 0.49859703E+00 0.29663817E+03</pdfrwt>
<pdfrwt beam="2">  1       -2 0.10442817E-02 0.29663817E+03</pdfrwt>
<totfact> 0.29709713E+03</totfact>
</mgrwt>
</event>
<event>
 9    1  0.8186049E-001  0.2794581E+03  0.7818608E-02  0.1095985E+00
          4   -1    0    0  501    0  0.00000000000E+00  0.00000000000E+00  0.58210714456E+02  0.58210714456E+02  0.00000000000E+00 0. -1.
         -4   -1    0    0    0  501 -0.00000000000E+00 -0.00000000000E+00 -0.33540566967E+03  0.33540566967E+03  0.00000000000E+00 0. -1.
         35    2    1    2    0    0  0.00000000000E+00  0.00000000000E+00 -0.27719495522E+03  0.39361638413E+03  0.27945807316E+03 0.  0.
         25    2    3    3    0    0 -0.36556012932E+02  0.35696043865E+02 -0.91248568049E+02  0.16216448499E+03  0.12393736076E+03 0.  0.
         25    2    3    3    0    0  0.36556012932E+02 -0.35696043865E+02 -0.18594638717E+03  0.23145189913E+03  0.12799755108E+03 0.  0.
          5    1    4    4  502    0 -0.57692398549E+02 -0.18139350766E+02 -0.84108238469E+02  0.10370021540E+03  0.47000000000E+01 0.  1.
         -5    1    4    4    0  502  0.21136385617E+02  0.53835394631E+02 -0.71403295796E+01  0.58464269589E+02  0.47000000000E+01 0.  1.
          5    1    5    5  503    0 -0.88321253405E+01 -0.12702824281E+02  0.16235063621E+02  0.22913652557E+02  0.47000000000E+01 0. -1.
         -5    1    5    5    0  503  0.45388138272E+02 -0.22993219585E+02 -0.20218145079E+03  0.20853824658E+03  0.47000000000E+01 0. -1.
<mgrwt>
<rscale>  0 0.27945807E+03</rscale>
<asrwt>0</asrwt>
<pdfrwt beam="1">  1        4 0.89554946E-02 0.27945807E+03</pdfrwt>
<pdfrwt beam="2">  1       -4 0.51600872E-01 0.27945807E+03</pdfrwt>
<totfact> 0.62419435E+02</totfact>
</mgrwt>
</event>
<event>
 9    1  0.8186049E-001  0.2742373E+03  0.7818608E-02  0.1098879E+00
          3   -1    0    0  501    0  0.00000000000E+00  0.00000000000E+00  0.16311919903E+03  0.16311919903E+03  0.00000000000E+00 0.  1.
         -3   -1    0    0    0  501 -0.00000000000E+00 -0.00000000000E+00 -0.11526250862E+03  0.11526250862E+03  0.00000000000E+00 0.  1.
         35    2    1    2    0    0  0.35527136788E-14  0.00000000000E+00  0.47856690414E+02  0.27838170765E+03  0.27423732849E+03 0.  0.
         25    2    3    3    0    0  0.15141306904E+02 -0.40931159076E+02 -0.10936708201E+02  0.13347006837E+03  0.12565838057E+03 0.  0.
         25    2    3    3    0    0 -0.15141306904E+02  0.40931159076E+02  0.58793398614E+02  0.14491163928E+03  0.12505239110E+03 0.  0.
          5    1    4    4  502    0 -0.10631598224E+02 -0.82639385861E+02 -0.24366927306E+01  0.83488480928E+02  0.47000000000E+01 0. -1.
         -5    1    4    4    0  502  0.25772905128E+02  0.41708226785E+02 -0.85000154702E+01  0.49981587442E+02  0.47000000000E+01 0. -1.
          5    1    5    5  503    0 -0.50393415256E+02  0.66058585488E+02  0.17788116039E+02  0.85098414146E+02  0.47000000000E+01 0.  1.
         -5    1    5    5    0  503  0.35252108352E+02 -0.25127426412E+02  0.41005282575E+02  0.59813225130E+02  0.47000000000E+01 0.  1.
<mgrwt>
<rscale>  0 0.27423733E+03</rscale>
<asrwt>0</asrwt>
<pdfrwt beam="1">  1        3 0.25095261E-01 0.27423733E+03</pdfrwt>
<pdfrwt beam="2">  1       -3 0.17732694E-01 0.27423733E+03</pdfrwt>
<totfact> 0.10527134E+03</totfact>
</mgrwt>
</event>
<event>
 9    1  0.8186049E-001  0.2784618E+03  0.7818608E-02  0.1096532E+00
          2   -1    0    0  501    0  0.00000000000E+00  0.00000000000E+00  0.13475229326E+04  0.13475229326E+04  0.00000000000E+00 0.  1.
         -2   -1    0    0    0  501 -0.00000000000E+00 -0.00000000000E+00 -0.14385832188E+02  0.14385832188E+02  0.00000000000E+00 0.  1.
         35    2    1    2    0    0  0.71054273576E-14  0.35527136788E-14  0.13331371004E+04  0.13619087648E+04  0.27846176598E+03 0.  0.
         25    2    3    3    0    0 -0.47899696462E+02 -0.65146114685E+01  0.48350343386E+03  0.50180287644E+03  0.12527463894E+03 0.  0.
         25    2    3    3    0    0  0.47899696462E+02  0.65146114685E+01  0.84963366654E+03  0.86010588834E+03  0.12477159434E+03 0.  0.
          5    1    4    4  502    0  0.33420860860E+02  0.16793105891E+02  0.26110990911E+03  0.26381705211E+03  0.47000000000E+01 0. -1.
         -5    1    4    4    0  502 -0.81320557322E+02 -0.23307717359E+02  0.22239352475E+03  0.23798582433E+03  0.47000000000E+01 0. -1.
          5    1    5    5  503    0  0.42562112159E+02 -0.34948058668E+02  0.16166958093E+03  0.17085679265E+03  0.47000000000E+01 0. -1.
         -5    1    5    5    0  503  0.53375843025E+01  0.41462670137E+02  0.68796408562E+03  0.68924909570E+03  0.47000000000E+01 0. -1.
<mgrwt>
<rscale>  0 0.27846177E+03</rscale>
<asrwt>0</asrwt>
<pdfrwt beam="1">  1        2 0.20731112E+00 0.27846177E+03</pdfrwt>
<pdfrwt beam="2">  1       -2 0.22132060E-02 0.27846177E+03</pdfrwt>
<totfact> 0.10990856E+04</totfact>
</mgrwt>
</event>
<event>
 9    1  0.8186049E-001  0.2765799E+03  0.7818608E-02  0.1097572E+00
          2   -1    0    0  501    0  0.00000000000E+00  0.00000000000E+00  0.17069214175E+04  0.17069214175E+04  0.00000000000E+00 0. -1.
         -2   -1    0    0    0  501 -0.00000000000E+00 -0.00000000000E+00 -0.11203864323E+02  0.11203864323E+02  0.00000000000E+00 0. -1.
         35    2    1    2    0    0  0.00000000000E+00 -0.71054273576E-14  0.16957175531E+04  0.17181252818E+04  0.27657994122E+03 0.  0.
         25    2    3    3    0    0  0.12078560901E+02  0.53971574937E+02  0.72357802798E+03  0.73654626540E+03  0.12600165068E+03 0.  0.
         25    2    3    3    0    0 -0.12078560901E+02 -0.53971574937E+02  0.97213952517E+03  0.98157901639E+03  0.12402937751E+03 0.  0.
          5    1    4    4  502    0  0.30107481701E+02 -0.23551667024E+02  0.88951593985E+02  0.96930993735E+02  0.47000000000E+01 0. -1.
         -5    1    4    4    0  502 -0.18028920801E+02  0.77523241961E+02  0.63462643399E+03  0.63961527167E+03  0.47000000000E+01 0. -1.
          5    1    5    5  503    0  0.17755173602E+02 -0.82700307660E+02  0.79963208681E+03  0.80410705216E+03  0.47000000000E+01 0.  1.
         -5    1    5    5    0  503 -0.29833734502E+02  0.28728732723E+02  0.17250743836E+03  0.17747196423E+03  0.47000000000E+01 0.  1.
<mgrwt>
<rscale>  0 0.27657994E+03</rscale>
<asrwt>0</asrwt>
<pdfrwt beam="1">  1        2 0.26260309E+00 0.27657994E+03</pdfrwt>
<pdfrwt beam="2">  1       -2 0.17236728E-02 0.27657994E+03</pdfrwt>
<totfact> 0.10194614E+04</totfact>
</mgrwt>
</event>
<event>
 9    1  0.8186049E-001  0.2710750E+03  0.7818608E-02  0.1100666E+00
          1   -1    0    0  501    0  0.00000000000E+00  0.00000000000E+00  0.32275983072E+03  0.32275983072E+03  0.00000000000E+00 0. -1.
         -1   -1    0    0    0  501 -0.00000000000E+00 -0.00000000000E+00 -0.56916651208E+02  0.56916651208E+02  0.00000000000E+00 0. -1.
         35    2    1    2    0    0  0.00000000000E+00 -0.71054273576E-14  0.26584317951E+03  0.37967648193E+03  0.27107496166E+03 0.  0.
         25    2    3    3    0    0  0.24385398073E+02 -0.39785398866E+02  0.10321290125E+03  0.16821998190E+03  0.12436853993E+03 0.  0.
         25    2    3    3    0    0 -0.24385398073E+02  0.39785398866E+02  0.16263027826E+03  0.21145650002E+03  0.12683736986E+03 0.  0.
          5    1    4    4  502    0  0.35673180177E+02  0.24488768436E+02  0.92085890650E+02  0.10185370303E+03  0.47000000000E+01 0.  1.
         -5    1    4    4    0  502 -0.11287782105E+02 -0.64274167302E+02  0.11127010600E+02  0.66366278878E+02  0.47000000000E+01 0.  1.
          5    1    5    5  503    0  0.18789215035E+02  0.33760972079E+02  0.16302731421E+03  0.16760916746E+03  0.47000000000E+01 0. -1.
         -5    1    5    5    0  503 -0.43174613107E+02  0.60244267868E+01 -0.39703595457E+00  0.43847332560E+02  0.47000000000E+01 0. -1.
<mgrwt>
<rscale>  0 0.27107496E+03</rscale>
<asrwt>0</asrwt>
<pdfrwt beam="1">  1        1 0.49655358E-01 0.27107496E+03</pdfrwt>
<pdfrwt beam="2">  1       -1 0.87564080E-02 0.27107496E+03</pdfrwt>
<totfact> 0.59359027E+03</totfact>
</mgrwt>
</event>
<event>
 9    1  0.8186049E-001  0.2871072E+03  0.7818608E-02  0.1091869E+00
         -2   -1    0    0    0  501 -0.00000000000E+00  0.00000000000E+00  0.19817354458E+02  0.19817354458E+02  0.00000000000E+00 0.  1.
          2   -1    0    0  501    0  0.00000000000E+00 -0.00000000000E+00 -0.10398779471E+04  0.10398779471E+04  0.00000000000E+00 0.  1.
         35    2    1    2    0    0  0.00000000000E+00  0.00000000000E+00 -0.10200605927E+04  0.10596953016E+04  0.28710715680E+03 0.  0.
         25    2    3    3    0    0 -0.44209765258E+02 -0.46180434182E+02 -0.55612334615E+03  0.57352098444E+03  0.12476380731E+03 0.  0.
         25    2    3    3    0    0  0.44209765258E+02  0.46180434182E+02 -0.46393724653E+03  0.48617431716E+03  0.13053950398E+03 0.  0.
          5    1    4    4  502    0 -0.99815461208E+01 -0.84069265108E+02 -0.40961813959E+03  0.41830178446E+03  0.47000000000E+01 0. -1.
         -5    1    4    4    0  502 -0.34228219137E+02  0.37888830926E+02 -0.14650520655E+03  0.15521919998E+03  0.47000000000E+01 0. -1.
          5    1    5    5  503    0 -0.95631533806E+01  0.77595101064E+02 -0.31665270274E+03  0.32619545945E+03  0.47000000000E+01 0.  1.
         -5    1    5    5    0  503  0.53772918638E+02 -0.31414666882E+02 -0.14728454380E+03  0.15997885771E+03  0.47000000000E+01 0.  1.
<mgrwt>
<rscale>  0 0.28710716E+03</rscale>
<asrwt>0</asrwt>
<pdfrwt beam="1">  1        2 0.15998125E+00 0.28710716E+03</pdfrwt>
<pdfrwt beam="2">  1       -2 0.30488233E-02 0.28710716E+03</pdfrwt>
<totfact> 0.10256788E+04</totfact>
</mgrwt>
</event>
<event>
 9    1  0.8186049E-001  0.2743037E+03  0.7818608E-02  0.1098841E+00
          1   -1    0    0  501    0  0.00000000000E+00  0.00000000000E+00  0.98950627602E+02  0.98950627602E+02  0.00000000000E+00 0. -1.
         -1   -1    0    0    0  501 -0.00000000000E+00 -0.00000000000E+00 -0.19010111923E+03  0.19010111923E+03  0.00000000000E+00 0. -1.
         35    2    1    2    0    0  0.35527136788E-14 -0.71054273576E-14 -0.91150491632E+02  0.28905174684E+03  0.27430366426E+03 0.  0.
         25    2    3    3    0    0 -0.17580408729E+02  0.50056059123E+02 -0.29971451868E+02  0.14040570374E+03  0.12649424449E+03 0.  0.
         25    2    3    3    0    0  0.17580408729E+02 -0.50056059123E+02 -0.61179039764E+02  0.14864604309E+03  0.12465188083E+03 0.  0.
          5    1    4    4  502    0 -0.18180383830E+02  0.77134413119E+02 -0.60137165447E+02  0.99593236273E+02  0.47000000000E+01 0. -1.
         -5    1    4    4    0  502  0.59997510048E+00 -0.27078353996E+02  0.30165713578E+02  0.40812467469E+02  0.47000000000E+01 0. -1.
          5    1    5    5  503    0  0.12002967530E+02  0.41283787787E+02 -0.13227829481E+02  0.45227069730E+02  0.47000000000E+01 0. -1.
         -5    1    5    5    0  503  0.55774411990E+01 -0.91339846910E+02 -0.47951210283E+02  0.10341897336E+03  0.47000000000E+01 0. -1.
<mgrwt>
<rscale>  0 0.27430366E+03</rscale>
<asrwt>0</asrwt>
<pdfrwt beam="1">  1        1 0.15223174E-01 0.27430366E+03</pdfrwt>
<pdfrwt beam="2">  1       -1 0.29246326E-01 0.27430366E+03</pdfrwt>
<totfact> 0.38780752E+03</totfact>
</mgrwt>
</event>
<event>
 9    1  0.8186049E-001  0.2634270E+03  0.7818608E-02  0.1105102E+00
          2   -1    0    0  501    0  0.00000000000E+00  0.00000000000E+00  0.48284208202E+03  0.48284208202E+03  0.00000000000E+00 0.  1.
         -2   -1    0    0    0  501 -0.00000000000E+00 -0.00000000000E+00 -0.35929843441E+02  0.35929843441E+02  0.00000000000E+00 0.  1.
         35    2    1    2    0    0 -0.71054273576E-14  0.00000000000E+00  0.44691223858E+03  0.51877192546E+03  0.26342695696E+03 0.  0.
         25    2    3    3    0    0  0.99952745900E+01  0.34905736469E+02  0.24041713181E+03  0.27380914638E+03  0.12590764640E+03 0.  0.
         25    2    3    3    0    0 -0.99952745900E+01 -0.34905736469E+02  0.20649510677E+03  0.24496277908E+03  0.12668156165E+03 0.  0.
          5    1    4    4  502    0 -0.34340708061E+02  0.16506227556E+02  0.11805005113E+02  0.40164510753E+02  0.47000000000E+01 0. -1.
         -5    1    4    4    0  502  0.44335982651E+02  0.18399508913E+02  0.22861212669E+03  0.23364463563E+03  0.47000000000E+01 0. -1.
          5    1    5    5  503    0  0.51772605481E+02 -0.11230183392E+02  0.14529178239E+03  0.15472010771E+03  0.47000000000E+01 0.  1.
         -5    1    5    5    0  503 -0.61767880071E+02 -0.23675553076E+02  0.61203324380E+02  0.90242671376E+02  0.47000000000E+01 0.  1.
<mgrwt>
<rscale>  0 0.26342696E+03</rscale>
<asrwt>0</asrwt>
<pdfrwt beam="1">  1        2 0.74283393E-01 0.26342696E+03</pdfrwt>
<pdfrwt beam="2">  1       -2 0.55276686E-02 0.26342696E+03</pdfrwt>
<totfact> 0.10781625E+04</totfact>
</mgrwt>
</event>
<event>
 9    1  0.8186049E-001  0.2666348E+03  0.7818608E-02  0.1103221E+00
          3   -1    0    0  501    0  0.00000000000E+00  0.00000000000E+00  0.65340555368E+02  0.65340555368E+02  0.00000000000E+00 0. -1.
         -3   -1    0    0    0  501 -0.00000000000E+00 -0.00000000000E+00 -0.27201373041E+03  0.27201373041E+03  0.00000000000E+00 0. -1.
         35    2    1    2    0    0  0.00000000000E+00  0.00000000000E+00 -0.20667317504E+03  0.33735428578E+03  0.26663479302E+03 0.  0.
         25    2    3    3    0    0  0.22708197391E+02  0.17460968146E+02 -0.36349763747E+02  0.13042616030E+03  0.12193904350E+03 0.  0.
         25    2    3    3    0    0 -0.22708197391E+02 -0.17460968146E+02 -0.17032341130E+03  0.20692812547E+03  0.11396770174E+03 0.  0.
          5    1    4    4  502    0 -0.79667458542E+01  0.17694943000E+02 -0.76850854251E+02  0.79402291191E+02  0.47000000000E+01 0.  1.
         -5    1    4    4    0  502  0.30674943245E+02 -0.23397485466E+00  0.40501090504E+02  0.51023869114E+02  0.47000000000E+01 0.  1.
          5    1    5    5  503    0  0.19896114190E+02  0.18885090636E+02 -0.14064936524E+03  0.14337655300E+03  0.47000000000E+01 0.  1.
         -5    1    5    5    0  503 -0.42604311582E+02 -0.36346058782E+02 -0.29674046053E+02  0.63551572471E+02  0.47000000000E+01 0.  1.
<mgrwt>
<rscale>  0 0.26663479E+03</rscale>
<asrwt>0</asrwt>
<pdfrwt beam="1">  1        3 0.10052393E-01 0.26663479E+03</pdfrwt>
<pdfrwt beam="2">  1       -3 0.41848267E-01 0.26663479E+03</pdfrwt>
<totfact> 0.10541926E+03</totfact>
</mgrwt>
</event>
<event>
 9    1  0.8186049E-001  0.2756145E+03  0.7818608E-02  0.1098109E+00
          2   -1    0    0  501    0  0.00000000000E+00  0.00000000000E+00  0.56168296916E+03  0.56168296916E+03  0.00000000000E+00 0. -1.
         -2   -1    0    0    0  501 -0.00000000000E+00 -0.00000000000E+00 -0.33810593395E+02  0.33810593395E+02  0.00000000000E+00 0. -1.
         35    2    1    2    0    0  0.35527136788E-14 -0.35527136788E-14  0.52787237577E+03  0.59549356256E+03  0.27561447340E+03 0.  0.
         25    2    3    3    0    0  0.31692240863E+01  0.17169208568E+02  0.14393415104E+03  0.19145921082E+03  0.12503904937E+03 0.  0.
         25    2    3    3    0    0 -0.31692240863E+01 -0.17169208568E+02  0.38393822473E+03  0.40403435174E+03  0.12462091025E+03 0.  0.
          5    1    4    4  502    0  0.52114340109E+02 -0.96119773087E+01  0.22548242981E+02  0.57782417864E+02  0.47000000000E+01 0. -1.
         -5    1    4    4    0  502 -0.48945116022E+02  0.26781185877E+02  0.12138590806E+03  0.13367679295E+03  0.47000000000E+01 0. -1.
          5    1    5    5  503    0  0.19333703718E+02  0.24262859894E+01  0.11723784446E+01  0.20078432070E+02  0.47000000000E+01 0.  1.
         -5    1    5    5    0  503 -0.22502927804E+02 -0.19595494557E+02  0.38276584629E+03  0.38395591967E+03  0.47000000000E+01 0.  1.
<mgrwt>
<rscale>  0 0.27561447E+03</rscale>
<asrwt>0</asrwt>
<pdfrwt beam="1">  1        2 0.86412758E-01 0.27561447E+03</pdfrwt>
<pdfrwt beam="2">  1       -2 0.52016302E-02 0.27561447E+03</pdfrwt>
<totfact> 0.99934993E+03</totfact>
</mgrwt>
</event>
<event>
 9    1  0.8186049E-001  0.2761854E+03  0.7818608E-02  0.1097791E+00
         -1   -1    0    0    0  501 -0.00000000000E+00  0.00000000000E+00  0.16560648469E+03  0.16560648469E+03  0.00000000000E+00 0.  1.
          1   -1    0    0  501    0  0.00000000000E+00 -0.00000000000E+00 -0.11515001861E+03  0.11515001861E+03  0.00000000000E+00 0.  1.
         35    2    1    2    0    0  0.35527136788E-14  0.14210854715E-13  0.50456466080E+02  0.28075650329E+03  0.27618537103E+03 0.  0.
         25    2    3    3    0    0 -0.95584012832E+01 -0.43337803034E+02  0.64320943237E+02  0.14726136591E+03  0.12481665732E+03 0.  0.
         25    2    3    3    0    0  0.95584012832E+01  0.43337803034E+02 -0.13864477157E+02  0.13349513738E+03  0.12513672431E+03 0.  0.
          5    1    4    4  502    0 -0.22219333382E+02 -0.82319135833E+02  0.22049631130E+02  0.88195323760E+02  0.47000000000E+01 0. -1.
         -5    1    4    4    0  502  0.12660932099E+02  0.38981332798E+02  0.42271312107E+02  0.59066042153E+02  0.47000000000E+01 0. -1.
          5    1    5    5  503    0 -0.56964493432E+02  0.19452779603E+02  0.37731286914E+01  0.60495377067E+02  0.47000000000E+01 0.  1.
         -5    1    5    5    0  503  0.66522894716E+02  0.23885023431E+02 -0.17637605848E+02  0.72999760313E+02  0.47000000000E+01 0.  1.
<mgrwt>
<rscale>  0 0.27618537E+03</rscale>
<asrwt>0</asrwt>
<pdfrwt beam="1">  1        1 0.17715388E-01 0.27618537E+03</pdfrwt>
<pdfrwt beam="2">  1       -1 0.25477921E-01 0.27618537E+03</pdfrwt>
<totfact> 0.40132044E+03</totfact>
</mgrwt>
</event>
<event>
 9    1  0.8186049E-001  0.2758416E+03  0.7818608E-02  0.1097982E+00
         -2   -1    0    0    0  501 -0.00000000000E+00  0.00000000000E+00  0.33680190851E+03  0.33680190851E+03  0.00000000000E+00 0. -1.
          2   -1    0    0  501    0  0.00000000000E+00 -0.00000000000E+00 -0.56478735180E+02  0.56478735180E+02  0.00000000000E+00 0. -1.
         35    2    1    2    0    0  0.00000000000E+00 -0.71054273576E-14  0.28032317333E+03  0.39328064369E+03  0.27584159076E+03 0.  0.
         25    2    3    3    0    0 -0.70560610157E+01  0.33893508171E+02  0.10084511892E+03  0.17144740258E+03  0.13426062696E+03 0.  0.
         25    2    3    3    0    0  0.70560610157E+01 -0.33893508171E+02  0.17947805441E+03  0.22183324111E+03  0.12569429959E+03 0.  0.
          5    1    4    4  502    0  0.41126897670E+02  0.34729815475E+02 -0.57813172822E+01  0.54342390676E+02  0.47000000000E+01 0. -1.
         -5    1    4    4    0  502 -0.48182958686E+02 -0.83630730348E+00  0.10662643620E+03  0.11710501191E+03  0.47000000000E+01 0. -1.
          5    1    5    5  503    0  0.56922251814E+02 -0.51866846950E+02  0.10747604000E+03  0.13230080022E+03  0.47000000000E+01 0. -1.
         -5    1    5    5    0  503 -0.49866190799E+02  0.17973338779E+02  0.72002014412E+02  0.89532440886E+02  0.47000000000E+01 0. -1.
<mgrwt>
<rscale>  0 0.27584159E+03</rscale>
<asrwt>0</asrwt>
<pdfrwt beam="1">  1        2 0.86890364E-02 0.27584159E+03</pdfrwt>
<pdfrwt beam="2">  1       -2 0.51815677E-01 0.27584159E+03</pdfrwt>
<totfact> 0.27262754E+03</totfact>
</mgrwt>
</event>
<event>
 9    1  0.8186049E-001  0.2759898E+03  0.7818608E-02  0.1097900E+00
          2   -1    0    0  501    0  0.00000000000E+00  0.00000000000E+00  0.71475281342E+03  0.71475281342E+03  0.00000000000E+00 0. -1.
         -2   -1    0    0    0  501 -0.00000000000E+00 -0.00000000000E+00 -0.26642204972E+02  0.26642204972E+02  0.00000000000E+00 0. -1.
         35    2    1    2    0    0 -0.71054273576E-14  0.00000000000E+00  0.68811060845E+03  0.74139501839E+03  0.27598978937E+03 0.  0.
         25    2    3    3    0    0 -0.34607194592E+02  0.42396987220E+02  0.39837092037E+03  0.42099354500E+03  0.12466359653E+03 0.  0.
         25    2    3    3    0    0  0.34607194592E+02 -0.42396987220E+02  0.28973968808E+03  0.32040147339E+03  0.12535092682E+03 0.  0.
          5    1    4    4  502    0 -0.68621938930E+02  0.31923918125E+02  0.13213217876E+03  0.15234536328E+03  0.47000000000E+01 0. -1.
         -5    1    4    4    0  502  0.34014744338E+02  0.10473069095E+02  0.26623874161E+03  0.26864818172E+03  0.47000000000E+01 0. -1.
          5    1    5    5  503    0 -0.22964195518E+02 -0.68965206692E+02  0.16619776834E+03  0.18145892706E+03  0.47000000000E+01 0. -1.
         -5    1    5    5    0  503  0.57571390110E+02  0.26568219472E+02  0.12354191975E+03  0.13894254633E+03  0.47000000000E+01 0. -1.
<mgrwt>
<rscale>  0 0.27598979E+03</rscale>
<asrwt>0</asrwt>
<pdfrwt beam="1">  1        2 0.10996196E+00 0.27598979E+03</pdfrwt>
<pdfrwt beam="2">  1       -2 0.40988013E-02 0.27598979E+03</pdfrwt>
<totfact> 0.10787908E+04</totfact>
</mgrwt>
</event>
<event>
 9    1  0.8186049E-001  0.2739692E+03  0.7818608E-02  0.1099029E+00
         -1   -1    0    0    0  501 -0.00000000000E+00  0.00000000000E+00  0.72617843195E+01  0.72617843195E+01  0.00000000000E+00 0. -1.
          1   -1    0    0  501    0  0.00000000000E+00 -0.00000000000E+00 -0.25840448379E+04  0.25840448379E+04  0.00000000000E+00 0. -1.
         35    2    1    2    0    0  0.00000000000E+00  0.71054273576E-14 -0.25767830536E+04  0.25913066222E+04  0.27396916823E+03 0.  0.
         25    2    3    3    0    0  0.25578398191E+02  0.48370750678E+02 -0.11530790146E+04  0.11610605783E+04  0.12440445642E+03 0.  0.
         25    2    3    3    0    0 -0.25578398191E+02 -0.48370750678E+02 -0.14237040390E+04  0.14302460439E+04  0.12520611542E+03 0.  0.
          5    1    4    4  502    0 -0.32497123798E+02  0.15856031864E+02 -0.11075079607E+03  0.11659890922E+03  0.47000000000E+01 0. -1.
         -5    1    4    4    0  502  0.58075521989E+02  0.32514718814E+02 -0.10423282185E+04  0.10444616691E+04  0.47000000000E+01 0. -1.
          5    1    5    5  503    0 -0.26076766020E+02 -0.44668913049E+02 -0.20336279874E+03  0.20989003652E+03  0.47000000000E+01 0. -1.
         -5    1    5    5    0  503  0.49836782841E+00 -0.37018376286E+01 -0.12203412403E+04  0.12203560074E+04  0.47000000000E+01 0. -1.
<mgrwt>
<rscale>  0 0.27396917E+03</rscale>
<asrwt>0</asrwt>
<pdfrwt beam="1">  1        1 0.39754577E+00 0.27396917E+03</pdfrwt>
<pdfrwt beam="2">  1       -1 0.11171964E-02 0.27396917E+03</pdfrwt>
<totfact> 0.22324271E+03</totfact>
</mgrwt>
</event>
<event>
 9    1  0.8186049E-001  0.2748686E+03  0.7818608E-02  0.1098525E+00
          4   -1    0    0  501    0  0.00000000000E+00  0.00000000000E+00  0.68250124031E+03  0.68250124031E+03  0.00000000000E+00 0.  1.
         -4   -1    0    0    0  501 -0.00000000000E+00 -0.00000000000E+00 -0.27674944250E+02  0.27674944250E+02  0.00000000000E+00 0.  1.
         35    2    1    2    0    0  0.00000000000E+00 -0.35527136788E-14  0.65482629606E+03  0.71017618456E+03  0.27486857788E+03 0.  0.
         25    2    3    3    0    0  0.33387534879E+02  0.28051721217E+02  0.41598807899E+03  0.43654570843E+03  0.12499778854E+03 0.  0.
         25    2    3    3    0    0 -0.33387534879E+02 -0.28051721217E+02  0.23883821707E+03  0.27363047613E+03  0.12620743633E+03 0.  0.
          5    1    4    4  502    0  0.26919396013E+02  0.57071330407E+01  0.96825823151E+01  0.29547718178E+02  0.47000000000E+01 0. -1.
         -5    1    4    4    0  502  0.64681388653E+01  0.22344588176E+02  0.40630549668E+03  0.40699799025E+03  0.47000000000E+01 0. -1.
          5    1    5    5  503    0  0.26122066504E+02  0.25072277641E+02  0.14894154351E+03  0.15335140967E+03  0.47000000000E+01 0.  1.
         -5    1    5    5    0  503 -0.59509601383E+02 -0.53123998858E+02  0.89896673564E+02  0.12027906646E+03  0.47000000000E+01 0.  1.
<mgrwt>
<rscale>  0 0.27486858E+03</rscale>
<asrwt>0</asrwt>
<pdfrwt beam="1">  1        4 0.10500018E+00 0.27486858E+03</pdfrwt>
<pdfrwt beam="2">  1       -4 0.42576842E-02 0.27486858E+03</pdfrwt>
<totfact> 0.44100779E+02</totfact>
</mgrwt>
</event>
<event>
 9    1  0.8186049E-001  0.2724406E+03  0.7818608E-02  0.1099891E+00
          1   -1    0    0  501    0  0.00000000000E+00  0.00000000000E+00  0.93127662198E+03  0.93127662198E+03  0.00000000000E+00 0. -1.
         -1   -1    0    0    0  501 -0.00000000000E+00 -0.00000000000E+00 -0.19925310347E+02  0.19925310347E+02  0.00000000000E+00 0. -1.
         35    2    1    2    0    0 -0.71054273576E-14 -0.17763568394E-14  0.91135131163E+03  0.95120193233E+03  0.27244064096E+03 0.  0.
         25    2    3    3    0    0 -0.20184615030E+02  0.34537139611E+01  0.28616009156E+03  0.31340434424E+03  0.12615600724E+03 0.  0.
         25    2    3    3    0    0  0.20184615030E+02 -0.34537139611E+01  0.62519122007E+03  0.63779758809E+03  0.12450845309E+03 0.  0.
          5    1    4    4  502    0  0.49971357821E+02  0.18334895694E+02  0.92322548264E+02  0.10667168284E+03  0.47000000000E+01 0. -1.
         -5    1    4    4    0  502 -0.70155972851E+02 -0.14881181733E+02  0.19383754329E+03  0.20673266139E+03  0.47000000000E+01 0. -1.
          5    1    5    5  503    0  0.47531290085E+02 -0.13193079193E+02  0.58938017060E+03  0.59145951372E+03  0.47000000000E+01 0.  1.
         -5    1    5    5    0  503 -0.27346675055E+02  0.97393652315E+01  0.35811049477E+02  0.46338074370E+02  0.47000000000E+01 0.  1.
<mgrwt>
<rscale>  0 0.27244064E+03</rscale>
<asrwt>0</asrwt>
<pdfrwt beam="1">  1        1 0.14327329E+00 0.27244064E+03</pdfrwt>
<pdfrwt beam="2">  1       -1 0.30654331E-02 0.27244064E+03</pdfrwt>
<totfact> 0.65849358E+03</totfact>
</mgrwt>
</event>
<event>
 9    1  0.8186049E-001  0.2639505E+03  0.7818608E-02  0.1104793E+00
         -4   -1    0    0    0  501 -0.00000000000E+00  0.00000000000E+00  0.30655146881E+03  0.30655146881E+03  0.00000000000E+00 0.  1.
          4   -1    0    0  501    0  0.00000000000E+00 -0.00000000000E+00 -0.56817443273E+02  0.56817443273E+02  0.00000000000E+00 0.  1.
         35    2    1    2    0    0 -0.35527136788E-14  0.71054273576E-14  0.24973402554E+03  0.36336891209E+03  0.26395053089E+03 0.  0.
         25    2    3    3    0    0  0.26696443551E+02  0.34333612672E+02  0.11136948965E+03  0.17225984819E+03  0.12401126971E+03 0.  0.
         25    2    3    3    0    0 -0.26696443551E+02 -0.34333612672E+02  0.13836453589E+03  0.19110906389E+03  0.12444449547E+03 0.  0.
          5    1    4    4  502    0  0.36442096394E+02 -0.11389425173E+02 -0.11958607622E+02  0.40284534149E+02  0.47000000000E+01 0. -1.
         -5    1    4    4    0  502 -0.97456528422E+01  0.45723037845E+02  0.12332809728E+03  0.13197531404E+03  0.47000000000E+01 0. -1.
          5    1    5    5  503    0 -0.22471684344E+01 -0.74361541279E+02  0.11841017009E+03  0.13992050231E+03  0.47000000000E+01 0. -1.
         -5    1    5    5    0  503 -0.24449275117E+02  0.40027928607E+02  0.19954365800E+02  0.51188561582E+02  0.47000000000E+01 0. -1.
<mgrwt>
<rscale>  0 0.26395053E+03</rscale>
<asrwt>0</asrwt>
<pdfrwt beam="1">  1        4 0.87411454E-02 0.26395053E+03</pdfrwt>
<pdfrwt beam="2">  1       -4 0.47161763E-01 0.26395053E+03</pdfrwt>
<totfact> 0.77581844E+02</totfact>
</mgrwt>
</event>
<event>
 9    1  0.8186049E-001  0.2743399E+03  0.7818608E-02  0.1098821E+00
          3   -1    0    0  501    0  0.00000000000E+00  0.00000000000E+00  0.28796105474E+03  0.28796105474E+03  0.00000000000E+00 0.  1.
         -3   -1    0    0    0  501 -0.00000000000E+00 -0.00000000000E+00 -0.65340767236E+02  0.65340767236E+02  0.00000000000E+00 0.  1.
         35    2    1    2    0    0  0.00000000000E+00  0.00000000000E+00  0.22262028751E+03  0.35330182198E+03  0.27433990779E+03 0.  0.
         25    2    3    3    0    0  0.30611951457E-01 -0.61853316283E+02  0.10902963536E+03  0.17343288486E+03  0.11985687502E+03 0.  0.
         25    2    3    3    0    0 -0.30611951457E-01  0.61853316283E+02  0.11359065214E+03  0.17986893712E+03  0.12499665842E+03 0.  0.
          5    1    4    4  502    0  0.43049797066E+02  0.10305105601E+02  0.14354364043E+02  0.46771978747E+02  0.47000000000E+01 0.  1.
         -5    1    4    4    0  502 -0.43019185115E+02 -0.72158421884E+02  0.94675271322E+02  0.12666090611E+03  0.47000000000E+01 0.  1.
          5    1    5    5  503    0  0.46475903437E+02  0.38953458198E+02  0.11240277541E+03  0.12780397265E+03  0.47000000000E+01 0. -1.
         -5    1    5    5    0  503 -0.46506515388E+02  0.22899858085E+02  0.11878767290E+01  0.52064964467E+02  0.47000000000E+01 0. -1.
<mgrwt>
<rscale>  0 0.27433991E+03</rscale>
<asrwt>0</asrwt>
<pdfrwt beam="1">  1        3 0.44301700E-01 0.27433991E+03</pdfrwt>
<pdfrwt beam="2">  1       -3 0.10052426E-01 0.27433991E+03</pdfrwt>
<totfact> 0.94565258E+02</totfact>
</mgrwt>
</event>
<event>
 9    1  0.8186049E-001  0.2752734E+03  0.7818608E-02  0.1098299E+00
          1   -1    0    0  501    0  0.00000000000E+00  0.00000000000E+00  0.23116086574E+02  0.23116086574E+02  0.00000000000E+00 0.  1.
         -1   -1    0    0    0  501 -0.00000000000E+00 -0.00000000000E+00 -0.81951009299E+03  0.81951009299E+03  0.00000000000E+00 0.  1.
         35    2    1    2    0    0  0.00000000000E+00 -0.35527136788E-14 -0.79639400642E+03  0.84262617957E+03  0.27527343685E+03 0.  0.
         25    2    3    3    0    0  0.53583193681E+02  0.21961749442E+02 -0.39479055739E+03  0.41824310602E+03  0.12535642964E+03 0.  0.
         25    2    3    3    0    0 -0.53583193681E+02 -0.21961749442E+02 -0.40160344903E+03  0.42438307354E+03  0.12434703757E+03 0.  0.
          5    1    4    4  502    0 -0.34627512768E+02  0.33996503123E+02 -0.14993922979E+03  0.15766638670E+03  0.47000000000E+01 0.  1.
         -5    1    4    4    0  502  0.88210706449E+02 -0.12034753681E+02 -0.24485132760E+03  0.26057671933E+03  0.47000000000E+01 0.  1.
          5    1    5    5  503    0  0.16317163334E+02 -0.54472979779E+02 -0.21465162140E+03  0.22210574939E+03  0.47000000000E+01 0.  1.
         -5    1    5    5    0  503 -0.69900357015E+02  0.32511230337E+02 -0.18695182764E+03  0.20227732415E+03  0.47000000000E+01 0.  1.
<mgrwt>
<rscale>  0 0.27527344E+03</rscale>
<asrwt>0</asrwt>
<pdfrwt beam="1">  1        1 0.35563208E-02 0.27527344E+03</pdfrwt>
<pdfrwt beam="2">  1       -1 0.12607848E+00 0.27527344E+03</pdfrwt>
<totfact> 0.15732793E+03</totfact>
</mgrwt>
</event>
<event>
 9    1  0.8186049E-001  0.2725144E+03  0.7818608E-02  0.1099849E+00
         -1   -1    0    0    0  501 -0.00000000000E+00  0.00000000000E+00  0.99604435594E+01  0.99604435594E+01  0.00000000000E+00 0. -1.
          1   -1    0    0  501    0  0.00000000000E+00 -0.00000000000E+00 -0.18639758068E+04  0.18639758068E+04  0.00000000000E+00 0. -1.
         35    2    1    2    0    0  0.00000000000E+00 -0.71054273576E-14 -0.18540153632E+04  0.18739362504E+04  0.27251440930E+03 0.  0.
         25    2    3    3    0    0 -0.46374815618E+02 -0.20680422036E+02 -0.10667587237E+04  0.10753026137E+04  0.12539231660E+03 0.  0.
         25    2    3    3    0    0  0.46374815618E+02  0.20680422036E+02 -0.78725663952E+03  0.79863363663E+03  0.12435580293E+03 0.  0.
          5    1    4    4  502    0  0.31341210048E+02 -0.30596338870E+02 -0.19008622977E+03  0.19512373548E+03  0.47000000000E+01 0. -1.
         -5    1    4    4    0  502 -0.77716025666E+02  0.99159168348E+01 -0.87667249395E+03  0.88017887824E+03  0.47000000000E+01 0. -1.
          5    1    5    5  503    0  0.24837920498E+02 -0.52296874709E+02 -0.34314904067E+03  0.34803051520E+03  0.47000000000E+01 0. -1.
         -5    1    5    5    0  503  0.21536895120E+02  0.72977296745E+02 -0.44410759885E+03  0.45060312143E+03  0.47000000000E+01 0. -1.
<mgrwt>
<rscale>  0 0.27251441E+03</rscale>
<asrwt>0</asrwt>
<pdfrwt beam="1">  1        1 0.28676551E+00 0.27251441E+03</pdfrwt>
<pdfrwt beam="2">  1       -1 0.15323759E-02 0.27251441E+03</pdfrwt>
<totfact> 0.41832595E+03</totfact>
</mgrwt>
</event>
<event>
 9    1  0.8186049E-001  0.2752771E+03  0.7818608E-02  0.1098297E+00
          2   -1    0    0  501    0  0.00000000000E+00  0.00000000000E+00  0.60967121540E+02  0.60967121540E+02  0.00000000000E+00 0.  1.
         -2   -1    0    0    0  501 -0.00000000000E+00 -0.00000000000E+00 -0.31073095236E+03  0.31073095236E+03  0.00000000000E+00 0.  1.
         35    2    1    2    0    0  0.17763568394E-14  0.00000000000E+00 -0.24976383082E+03  0.37169807390E+03  0.27527710939E+03 0.  0.
         25    2    3    3    0    0  0.34944320428E+01 -0.46670064222E+02 -0.17213294377E+03  0.21851344726E+03  0.12620645924E+03 0.  0.
         25    2    3    3    0    0 -0.34944320428E+01  0.46670064222E+02 -0.77630887055E+02  0.15318462664E+03  0.12348550225E+03 0.  0.
          5    1    4    4  502    0  0.12449968451E+02 -0.89248284896E+02 -0.12537063673E+03  0.15446729306E+03  0.47000000000E+01 0.  1.
         -5    1    4    4    0  502 -0.89555364079E+01  0.42578220674E+02 -0.46762307039E+02  0.64046154199E+02  0.47000000000E+01 0.  1.
          5    1    5    5  503    0 -0.19298461708E+02  0.79272691703E+02 -0.18680675227E+02  0.83831067636E+02  0.47000000000E+01 0.  1.
         -5    1    5    5    0  503  0.15804029666E+02 -0.32602627481E+02 -0.58950211828E+02  0.69353559007E+02  0.47000000000E+01 0.  1.
<mgrwt>
<rscale>  0 0.27527711E+03</rscale>
<asrwt>0</asrwt>
<pdfrwt beam="1">  1        2 0.93795571E-02 0.27527711E+03</pdfrwt>
<pdfrwt beam="2">  1       -2 0.47804762E-01 0.27527711E+03</pdfrwt>
<totfact> 0.29078952E+03</totfact>
</mgrwt>
</event>
<event>
 9    1  0.8186049E-001  0.2758274E+03  0.7818608E-02  0.1097990E+00
          1   -1    0    0  501    0  0.00000000000E+00  0.00000000000E+00  0.13246369420E+04  0.13246369420E+04  0.00000000000E+00 0. -1.
         -1   -1    0    0    0  501 -0.00000000000E+00 -0.00000000000E+00 -0.14358797620E+02  0.14358797620E+02  0.00000000000E+00 0. -1.
         35    2    1    2    0    0  0.71054273576E-14  0.35527136788E-14  0.13102781444E+04  0.13389957396E+04  0.27582743715E+03 0.  0.
         25    2    3    3    0    0 -0.23983306046E+02  0.13892336248E+02  0.90196235184E+03  0.91097164993E+03  0.12476003713E+03 0.  0.
         25    2    3    3    0    0  0.23983306046E+02 -0.13892336248E+02  0.40831579255E+03  0.42802408970E+03  0.12535804299E+03 0.  0.
          5    1    4    4  502    0 -0.27540223235E+02  0.61006056201E+02  0.31368088311E+03  0.32077716443E+03  0.47000000000E+01 0.  1.
         -5    1    4    4    0  502  0.35569171888E+01 -0.47113719953E+02  0.58828146873E+03  0.59019448550E+03  0.47000000000E+01 0.  1.
          5    1    5    5  503    0  0.43109884804E+02  0.24008148487E+02  0.36057145220E+03  0.36396251937E+03  0.47000000000E+01 0. -1.
         -5    1    5    5    0  503 -0.19126578758E+02 -0.37900484735E+02  0.47744340347E+02  0.64061570332E+02  0.47000000000E+01 0. -1.
<mgrwt>
<rscale>  0 0.27582744E+03</rscale>
<asrwt>0</asrwt>
<pdfrwt beam="1">  1        1 0.20379020E+00 0.27582744E+03</pdfrwt>
<pdfrwt beam="2">  1       -1 0.22090468E-02 0.27582744E+03</pdfrwt>
<totfact> 0.55631728E+03</totfact>
</mgrwt>
</event>
<event>
 9    1  0.8186049E-001  0.2767440E+03  0.7818608E-02  0.1097481E+00
         -2   -1    0    0    0  501 -0.00000000000E+00  0.00000000000E+00  0.28934831684E+02  0.28934831684E+02  0.00000000000E+00 0.  1.
          2   -1    0    0  501    0  0.00000000000E+00 -0.00000000000E+00 -0.66172185175E+03  0.66172185175E+03  0.00000000000E+00 0.  1.
         35    2    1    2    0    0  0.71054273576E-14  0.00000000000E+00 -0.63278702007E+03  0.69065668343E+03  0.27674400013E+03 0.  0.
         25    2    3    3    0    0  0.31954234231E+02  0.24672166481E+02 -0.41234307000E+03  0.43374026336E+03  0.12835115814E+03 0.  0.
         25    2    3    3    0    0 -0.31954234231E+02 -0.24672166481E+02 -0.22044395006E+03  0.25691642008E+03  0.12562134731E+03 0.  0.
          5    1    4    4  502    0  0.28249548175E+02  0.74312445972E+02 -0.30656262493E+03  0.31673823514E+03  0.47000000000E+01 0. -1.
         -5    1    4    4    0  502  0.37046860563E+01 -0.49640279491E+02 -0.10578044508E+03  0.11700202822E+03  0.47000000000E+01 0. -1.
          5    1    5    5  503    0 -0.73721078309E+01  0.13269921568E+02  0.12099080434E+02  0.19972895124E+02  0.47000000000E+01 0.  1.
         -5    1    5    5    0  503 -0.24582126400E+02 -0.37942088048E+02 -0.23254303050E+03  0.23694352495E+03  0.47000000000E+01 0.  1.
<mgrwt>
<rscale>  0 0.27674400E+03</rscale>
<asrwt>0</asrwt>
<pdfrwt beam="1">  1        2 0.10180335E+00 0.27674400E+03</pdfrwt>
<pdfrwt beam="2">  1       -2 0.44515129E-02 0.27674400E+03</pdfrwt>
<totfact> 0.10454595E+04</totfact>
</mgrwt>
</event>
<event>
 9    1  0.8186049E-001  0.2679175E+03  0.7818608E-02  0.1102477E+00
         -1   -1    0    0    0  501 -0.00000000000E+00  0.00000000000E+00  0.71805986852E+01  0.71805986852E+01  0.00000000000E+00 0.  1.
          1   -1    0    0  501    0  0.00000000000E+00 -0.00000000000E+00 -0.24990881035E+04  0.24990881035E+04  0.00000000000E+00 0.  1.
         35    2    1    2    0    0  0.71054273576E-14 -0.44408920985E-15 -0.24919075048E+04  0.25062687022E+04  0.26791751529E+03 0.  0.
         25    2    3    3    0    0 -0.47435107330E+02  0.11387992143E+01 -0.13950562502E+04  0.14014573133E+04  0.12509705697E+03 0.  0.
         25    2    3    3    0    0  0.47435107330E+02 -0.11387992143E+01 -0.10968512547E+04  0.11048113889E+04  0.12358860736E+03 0.  0.
          5    1    4    4  502    0 -0.87239176405E+02 -0.15781768335E+02 -0.83218531211E+03  0.83690753480E+03  0.47000000000E+01 0. -1.
         -5    1    4    4    0  502  0.39804069075E+02  0.16920567549E+02 -0.56287093805E+03  0.56454977851E+03  0.47000000000E+01 0. -1.
          5    1    5    5  503    0 -0.42231328898E+02 -0.20893786519E+01 -0.33913511556E+03  0.34179316442E+03  0.47000000000E+01 0.  1.
         -5    1    5    5    0  503  0.89666436228E+02  0.95057943751E+00 -0.75771613912E+03  0.76301822447E+03  0.47000000000E+01 0.  1.
<mgrwt>
<rscale>  0 0.26791752E+03</rscale>
<asrwt>0</asrwt>
<pdfrwt beam="1">  1        1 0.38447483E+00 0.26791752E+03</pdfrwt>
<pdfrwt beam="2">  1       -1 0.11047083E-02 0.26791752E+03</pdfrwt>
<totfact> 0.25863950E+03</totfact>
</mgrwt>
</event>
<event>
 9    1  0.8186049E-001  0.2731237E+03  0.7818608E-02  0.1099505E+00
          2   -1    0    0  501    0  0.00000000000E+00  0.00000000000E+00  0.14585960942E+04  0.14585960942E+04  0.00000000000E+00 0. -1.
         -2   -1    0    0    0  501 -0.00000000000E+00 -0.00000000000E+00 -0.12785677326E+02  0.12785677326E+02  0.00000000000E+00 0. -1.
         35    2    1    2    0    0 -0.14210854715E-13  0.26645352591E-14  0.14458104169E+04  0.14713817715E+04  0.27312370098E+03 0.  0.
         25    2    3    3    0    0 -0.53947722779E+02  0.78013799149E+01  0.71205245628E+03  0.72510751598E+03  0.12566220955E+03 0.  0.
         25    2    3    3    0    0  0.53947722779E+02 -0.78013799149E+01  0.73375796059E+03  0.74627425555E+03  0.12471287600E+03 0.  0.
          5    1    4    4  502    0  0.37529508589E+02  0.11429549444E+02  0.12972348409E+03  0.13560741477E+03  0.47000000000E+01 0. -1.
         -5    1    4    4    0  502 -0.91477231367E+02 -0.36281695291E+01  0.58232897219E+03  0.58950010121E+03  0.47000000000E+01 0. -1.
          5    1    5    5  503    0  0.53984620165E+02 -0.60631701345E+02  0.38382366051E+03  0.39234326143E+03  0.47000000000E+01 0.  1.
         -5    1    5    5    0  503 -0.36897385737E-01  0.52830321430E+02  0.34993430008E+03  0.35393099412E+03  0.47000000000E+01 0.  1.
<mgrwt>
<rscale>  0 0.27312370E+03</rscale>
<asrwt>0</asrwt>
<pdfrwt beam="1">  1        2 0.22439927E+00 0.27312370E+03</pdfrwt>
<pdfrwt beam="2">  1       -2 0.19670284E-02 0.27312370E+03</pdfrwt>
<totfact> 0.11375228E+04</totfact>
</mgrwt>
</event>
<event>
 9    1  0.8186049E-001  0.2736646E+03  0.7818608E-02  0.1099200E+00
          4   -1    0    0  501    0  0.00000000000E+00  0.00000000000E+00  0.60981634376E+03  0.60981634376E+03  0.00000000000E+00 0. -1.
         -4   -1    0    0    0  501 -0.00000000000E+00 -0.00000000000E+00 -0.30702807824E+02  0.30702807824E+02  0.00000000000E+00 0. -1.
         35    2    1    2    0    0 -0.71054273576E-14  0.00000000000E+00  0.57911353594E+03  0.64051915159E+03  0.27366456848E+03 0.  0.
         25    2    3    3    0    0 -0.25671947971E+02 -0.36250405873E+02  0.21261078908E+03  0.25094739179E+03  0.12569051266E+03 0.  0.
         25    2    3    3    0    0  0.25671947971E+02  0.36250405873E+02  0.36650274686E+03  0.38957175980E+03  0.12437343663E+03 0.  0.
          5    1    4    4  502    0 -0.69442281695E+02 -0.39175607881E+02  0.17722546075E+03  0.19439113323E+03  0.47000000000E+01 0. -1.
         -5    1    4    4    0  502  0.43770333723E+02  0.29252020082E+01  0.35385328327E+02  0.56556258556E+02  0.47000000000E+01 0. -1.
          5    1    5    5  503    0  0.57889983213E+02  0.62103293044E+02  0.29340884610E+03  0.30548143992E+03  0.47000000000E+01 0.  1.
         -5    1    5    5    0  503 -0.32218035242E+02 -0.25852887171E+02  0.73093900757E+02  0.84090319881E+02  0.47000000000E+01 0.  1.
<mgrwt>
<rscale>  0 0.27366457E+03</rscale>
<asrwt>0</asrwt>
<pdfrwt beam="1">  1        4 0.93817890E-01 0.27366457E+03</pdfrwt>
<pdfrwt beam="2">  1       -4 0.47235094E-02 0.27366457E+03</pdfrwt>
<totfact> 0.48515370E+02</totfact>
</mgrwt>
</event>
<event>
 9    1  0.8186049E-001  0.2698766E+03  0.7818608E-02  0.1101350E+00
          2   -1    0    0  501    0  0.00000000000E+00  0.00000000000E+00  0.21049200486E+03  0.21049200486E+03  0.00000000000E+00 0. -1.
         -2   -1    0    0    0  501 -0.00000000000E+00 -0.00000000000E+00 -0.86503752268E+02  0.86503752268E+02  0.00000000000E+00 0. -1.
         35    2    1    2    0    0  0.00000000000E+00  0.00000000000E+00  0.12398825259E+03  0.29699575713E+03  0.26987662546E+03 0.  0.
         25    2    3    3    0    0 -0.16861322431E+01 -0.49430843978E+02  0.50756919368E+02  0.14404225425E+03  0.12540197274E+03 0.  0.
         25    2    3    3    0    0  0.16861322431E+01  0.49430843978E+02  0.73231333225E+02  0.15295350288E+03  0.12484267900E+03 0.  0.
          5    1    4    4  502    0  0.23463543983E+02  0.16016898261E+02  0.66114179700E+02  0.72112784467E+02  0.47000000000E+01 0.  1.
         -5    1    4    4    0  502 -0.25149676226E+02 -0.65447742239E+02 -0.15357260332E+02  0.71929469783E+02  0.47000000000E+01 0.  1.
          5    1    5    5  503    0 -0.53785845374E+02 -0.38392966655E+01  0.46618543206E+02  0.71435536899E+02  0.47000000000E+01 0. -1.
         -5    1    5    5    0  503  0.55471977617E+02  0.53270140644E+02  0.26612790020E+02  0.81517965980E+02  0.47000000000E+01 0. -1.
<mgrwt>
<rscale>  0 0.26987663E+03</rscale>
<asrwt>0</asrwt>
<pdfrwt beam="1">  1        2 0.32383385E-01 0.26987663E+03</pdfrwt>
<pdfrwt beam="2">  1       -2 0.13308270E-01 0.26987663E+03</pdfrwt>
<totfact> 0.66656315E+03</totfact>
</mgrwt>
</event>
<event>
 9    1  0.8186049E-001  0.2776174E+03  0.7818608E-02  0.1096997E+00
         -1   -1    0    0    0  501 -0.00000000000E+00  0.00000000000E+00  0.23607301393E+02  0.23607301393E+02  0.00000000000E+00 0.  1.
          1   -1    0    0  501    0  0.00000000000E+00 -0.00000000000E+00 -0.81618202152E+03  0.81618202152E+03  0.00000000000E+00 0.  1.
         35    2    1    2    0    0  0.00000000000E+00  0.00000000000E+00 -0.79257472013E+03  0.83978932291E+03  0.27761739840E+03 0.  0.
         25    2    3    3    0    0  0.30511832391E+02  0.49721491474E+02 -0.34653533226E+03  0.37300124129E+03  0.12505994910E+03 0.  0.
         25    2    3    3    0    0 -0.30511832391E+02 -0.49721491474E+02 -0.44603938787E+03  0.46678808162E+03  0.12464661642E+03 0.  0.
          5    1    4    4  502    0 -0.19174679314E+02  0.44806941978E+02 -0.30196199143E+03  0.30590597354E+03  0.47000000000E+01 0.  1.
         -5    1    4    4    0  502  0.49686511706E+02  0.49145494957E+01 -0.44573340824E+02  0.67095267750E+02  0.47000000000E+01 0.  1.
          5    1    5    5  503    0  0.28493066538E+02  0.27801327898E+02 -0.12986416700E+03  0.13591011936E+03  0.47000000000E+01 0. -1.
         -5    1    5    5    0  503 -0.59004898929E+02 -0.77522819372E+02 -0.31617522087E+03  0.33087796226E+03  0.47000000000E+01 0. -1.
<mgrwt>
<rscale>  0 0.27761740E+03</rscale>
<asrwt>0</asrwt>
<pdfrwt beam="1">  1        1 0.12556646E+00 0.27761740E+03</pdfrwt>
<pdfrwt beam="2">  1       -1 0.36318927E-02 0.27761740E+03</pdfrwt>
<totfact> 0.63335634E+03</totfact>
</mgrwt>
</event>
<event>
 9    1  0.8186049E-001  0.2735465E+03  0.7818608E-02  0.1099267E+00
         -1   -1    0    0    0  501 -0.00000000000E+00  0.00000000000E+00  0.44157898638E+02  0.44157898638E+02  0.00000000000E+00 0. -1.
          1   -1    0    0  501    0  0.00000000000E+00 -0.00000000000E+00 -0.42363715896E+03  0.42363715896E+03  0.00000000000E+00 0. -1.
         35    2    1    2    0    0 -0.71054273576E-14  0.71054273576E-14 -0.37947926032E+03  0.46779505760E+03  0.27354653516E+03 0.  0.
         25    2    3    3    0    0 -0.40340856911E+02  0.34978555978E+02 -0.22044586578E+03  0.25872809226E+03  0.12447072695E+03 0.  0.
         25    2    3    3    0    0  0.40340856911E+02 -0.34978555978E+02 -0.15903339454E+03  0.20906696534E+03  0.12476574571E+03 0.  0.
          5    1    4    4  502    0 -0.74334222961E+02  0.23520341557E+02 -0.73007508559E+02  0.10691571202E+03  0.47000000000E+01 0. -1.
         -5    1    4    4    0  502  0.33993366050E+02  0.11458214420E+02 -0.14743835723E+03  0.15181238024E+03  0.47000000000E+01 0. -1.
          5    1    5    5  503    0  0.29260311683E+02  0.32380464606E+02 -0.12532314962E+03  0.13278795939E+03  0.47000000000E+01 0. -1.
         -5    1    5    5    0  503  0.11080545229E+02 -0.67359020584E+02 -0.33710244919E+02  0.76279005952E+02  0.47000000000E+01 0. -1.
<mgrwt>
<rscale>  0 0.27354654E+03</rscale>
<asrwt>0</asrwt>
<pdfrwt beam="1">  1        1 0.65174949E-01 0.27354654E+03</pdfrwt>
<pdfrwt beam="2">  1       -1 0.67935228E-02 0.27354654E+03</pdfrwt>
<totfact> 0.61828054E+03</totfact>
</mgrwt>
</event>
<event>
 9    1  0.8186049E-001  0.3180919E+03  0.7818608E-02  0.1076531E+00
         -2   -1    0    0    0  501 -0.00000000000E+00  0.00000000000E+00  0.12717440951E+03  0.12717440951E+03  0.00000000000E+00 0.  1.
          2   -1    0    0  501    0  0.00000000000E+00 -0.00000000000E+00 -0.19890492007E+03  0.19890492007E+03  0.00000000000E+00 0.  1.
         35    2    1    2    0    0  0.00000000000E+00  0.00000000000E+00 -0.71730510552E+02  0.32607932958E+03  0.31809190973E+03 0.  0.
         25    2    3    3    0    0  0.10076577996E+02 -0.76020106580E+02 -0.99452297698E+02  0.17694568635E+03  0.12465320842E+03 0.  0.
         25    2    3    3    0    0 -0.10076577996E+02  0.76020106580E+02  0.27721787146E+02  0.14913364323E+03  0.12486693731E+03 0.  0.
          5    1    4    4  502    0  0.57335819707E+02 -0.48952053987E+02 -0.96024232244E+02  0.12217382285E+03  0.47000000000E+01 0.  1.
         -5    1    4    4    0  502 -0.47259241711E+02 -0.27068052593E+02 -0.34280654536E+01  0.54771863498E+02  0.47000000000E+01 0.  1.
          5    1    5    5  503    0  0.53408955779E+02  0.48602795558E+02 -0.48929072296E+01  0.72531226617E+02  0.47000000000E+01 0. -1.
         -5    1    5    5    0  503 -0.63485533775E+02  0.27417311022E+02  0.32614694376E+02  0.76602416617E+02  0.47000000000E+01 0. -1.
<mgrwt>
<rscale>  0 0.31809191E+03</rscale>
<asrwt>0</asrwt>
<pdfrwt beam="1">  1        2 0.30600757E-01 0.31809191E+03</pdfrwt>
<pdfrwt beam="2">  1       -2 0.19565294E-01 0.31809191E+03</pdfrwt>
<totfact> 0.37465891E+03</totfact>
</mgrwt>
</event>
<event>
 9    1  0.8186049E-001  0.2730517E+03  0.7818608E-02  0.1099546E+00
          2   -1    0    0  501    0  0.00000000000E+00  0.00000000000E+00  0.18353364728E+04  0.18353364728E+04  0.00000000000E+00 0.  1.
         -2   -1    0    0    0  501 -0.00000000000E+00 -0.00000000000E+00 -0.10155801483E+02  0.10155801483E+02  0.00000000000E+00 0.  1.
         35    2    1    2    0    0  0.00000000000E+00  0.00000000000E+00  0.18251806713E+04  0.18454922743E+04  0.27305173775E+03 0.  0.
         25    2    3    3    0    0 -0.50994463008E+02  0.97837420566E+00  0.77153419060E+03  0.78323192517E+03  0.12484329721E+03 0.  0.
         25    2    3    3    0    0  0.50994463008E+02 -0.97837420566E+00  0.10536464807E+04  0.10622603491E+04  0.12499900203E+03 0.  0.
          5    1    4    4  502    0 -0.85444381973E+02 -0.16311717785E+02  0.64549126910E+03  0.65134313771E+03  0.47000000000E+01 0.  1.
         -5    1    4    4    0  502  0.34449918965E+02  0.17290091990E+02  0.12604292150E+03  0.13188878746E+03  0.47000000000E+01 0.  1.
          5    1    5    5  503    0  0.55008837818E+02 -0.98009269967E+01  0.17964705030E+03  0.18819453523E+03  0.47000000000E+01 0. -1.
         -5    1    5    5    0  503 -0.40143748098E+01  0.88225527910E+01  0.87399943042E+03  0.87406581389E+03  0.47000000000E+01 0. -1.
<mgrwt>
<rscale>  0 0.27305174E+03</rscale>
<asrwt>0</asrwt>
<pdfrwt beam="1">  1        2 0.28235919E+00 0.27305174E+03</pdfrwt>
<pdfrwt beam="2">  1       -2 0.15624325E-02 0.27305174E+03</pdfrwt>
<totfact> 0.10076483E+04</totfact>
</mgrwt>
</event>
<event>
 9    1  0.8186049E-001  0.2752053E+03  0.7818608E-02  0.1098337E+00
          2   -1    0    0  501    0  0.00000000000E+00  0.00000000000E+00  0.35783158445E+02  0.35783158445E+02  0.00000000000E+00 0.  1.
         -2   -1    0    0    0  501 -0.00000000000E+00 -0.00000000000E+00 -0.52914531987E+03  0.52914531987E+03  0.00000000000E+00 0.  1.
         35    2    1    2    0    0  0.00000000000E+00  0.00000000000E+00 -0.49336216142E+03  0.56492847831E+03  0.27520531115E+03 0.  0.
         25    2    3    3    0    0  0.12887814056E+02 -0.92460646869E+01 -0.13331841398E+03  0.18321364834E+03  0.12466698026E+03 0.  0.
         25    2    3    3    0    0 -0.12887814056E+02  0.92460646869E+01 -0.36004374744E+03  0.38171482998E+03  0.12579000710E+03 0.  0.
          5    1    4    4  502    0  0.37961965360E+02  0.37750595332E+02 -0.18992986573E+02  0.57000366673E+02  0.47000000000E+01 0. -1.
         -5    1    4    4    0  502 -0.25074151304E+02 -0.46996660019E+02 -0.11432542741E+03  0.12621328166E+03  0.47000000000E+01 0. -1.
          5    1    5    5  503    0 -0.26621312426E+02 -0.37110669660E+02 -0.49973511263E+02  0.67862639986E+02  0.47000000000E+01 0.  1.
         -5    1    5    5    0  503  0.13733498370E+02  0.46356734347E+02 -0.31007023618E+03  0.31385218999E+03  0.47000000000E+01 0.  1.
<mgrwt>
<rscale>  0 0.27520531E+03</rscale>
<asrwt>0</asrwt>
<pdfrwt beam="1">  1        2 0.55051019E-02 0.27520531E+03</pdfrwt>
<pdfrwt beam="2">  1       -2 0.81406963E-01 0.27520531E+03</pdfrwt>
<totfact> 0.18928325E+03</totfact>
</mgrwt>
</event>
<event>
 9    1  0.8186049E-001  0.2751250E+03  0.7818608E-02  0.1098382E+00
          2   -1    0    0  501    0  0.00000000000E+00  0.00000000000E+00  0.59019896699E+03  0.59019896699E+03  0.00000000000E+00 0.  1.
         -2   -1    0    0    0  501 -0.00000000000E+00 -0.00000000000E+00 -0.32062810198E+02  0.32062810198E+02  0.00000000000E+00 0.  1.
         35    2    1    2    0    0 -0.71054273576E-14  0.00000000000E+00  0.55813615679E+03  0.62226177719E+03  0.27512497130E+03 0.  0.
         25    2    3    3    0    0 -0.19274370551E+02 -0.28028952907E+02  0.38453145276E+03  0.40570544526E+03  0.12480122833E+03 0.  0.
         25    2    3    3    0    0  0.19274370551E+02  0.28028952907E+02  0.17360470403E+03  0.21655633193E+03  0.12490367518E+03 0.  0.
          5    1    4    4  502    0 -0.90125817004E+01 -0.69125482750E+02  0.32539808608E+03  0.33281460818E+03  0.47000000000E+01 0. -1.
         -5    1    4    4    0  502 -0.10261788850E+02  0.41096529843E+02  0.59133366686E+02  0.72890837086E+02  0.47000000000E+01 0. -1.
          5    1    5    5  503    0 -0.19088026138E+02  0.62587710289E+02  0.49892646885E+02  0.82419296492E+02  0.47000000000E+01 0. -1.
         -5    1    5    5    0  503  0.38362396689E+02 -0.34558757382E+02  0.12371205715E+03  0.13413703543E+03  0.47000000000E+01 0. -1.
<mgrwt>
<rscale>  0 0.27512497E+03</rscale>
<asrwt>0</asrwt>
<pdfrwt beam="1">  1        2 0.90799833E-01 0.27512497E+03</pdfrwt>
<pdfrwt beam="2">  1       -2 0.49327405E-02 0.27512497E+03</pdfrwt>
<totfact> 0.10233011E+04</totfact>
</mgrwt>
</event>
<event>
 9    1  0.8186049E-001  0.2723867E+03  0.7818608E-02  0.1099921E+00
          1   -1    0    0  501    0  0.00000000000E+00  0.00000000000E+00  0.42930792504E+02  0.42930792504E+02  0.00000000000E+00 0. -1.
         -1   -1    0    0    0  501 -0.00000000000E+00 -0.00000000000E+00 -0.43205889097E+03  0.43205889097E+03  0.00000000000E+00 0. -1.
         35    2    1    2    0    0  0.00000000000E+00  0.00000000000E+00 -0.38912809846E+03  0.47498968347E+03  0.27238671478E+03 0.  0.
         25    2    3    3    0    0  0.32958317275E+02  0.36929293485E+01 -0.12124186366E+03  0.17766065813E+03  0.12555409806E+03 0.  0.
         25    2    3    3    0    0 -0.32958317275E+02 -0.36929293485E+01 -0.26788623480E+03  0.29732902534E+03  0.12466605836E+03 0.  0.
          5    1    4    4  502    0 -0.25144981747E+02 -0.46123811220E+02 -0.42318378550E+02  0.67621085702E+02  0.47000000000E+01 0. -1.
         -5    1    4    4    0  502  0.58103299022E+02  0.49816740568E+02 -0.78923485107E+02  0.11003957242E+03  0.47000000000E+01 0. -1.
          5    1    5    5  503    0 -0.33768878277E+01 -0.46528634246E+02 -0.34632936609E+02  0.58291058271E+02  0.47000000000E+01 0.  1.
         -5    1    5    5    0  503 -0.29581429447E+02  0.42835704897E+02 -0.23325329820E+03  0.23903796707E+03  0.47000000000E+01 0.  1.
<mgrwt>
<rscale>  0 0.27238671E+03</rscale>
<asrwt>0</asrwt>
<pdfrwt beam="1">  1        1 0.66047376E-02 0.27238671E+03</pdfrwt>
<pdfrwt beam="2">  1       -1 0.66470595E-01 0.27238671E+03</pdfrwt>
<totfact> 0.26821654E+03</totfact>
</mgrwt>
</event>
<event>
 9    1  0.8186049E-001  0.2745355E+03  0.7818608E-02  0.1098712E+00
         -2   -1    0    0    0  501 -0.00000000000E+00  0.00000000000E+00  0.12814867581E+02  0.12814867581E+02  0.00000000000E+00 0. -1.
          2   -1    0    0  501    0  0.00000000000E+00 -0.00000000000E+00 -0.14703576360E+04  0.14703576360E+04  0.00000000000E+00 0. -1.
         35    2    1    2    0    0 -0.71054273576E-14  0.71054273576E-14 -0.14575427684E+04  0.14831725036E+04  0.27453552340E+03 0.  0.
         25    2    3    3    0    0  0.50442207679E+02 -0.19139803379E+02 -0.63551295068E+03  0.65004731567E+03  0.12559479976E+03 0.  0.
         25    2    3    3    0    0 -0.50442207679E+02  0.19139803379E+02 -0.82202981771E+03  0.83312518790E+03  0.12431335047E+03 0.  0.
          5    1    4    4  502    0  0.63740377450E+02  0.21214671199E+01 -0.61206009322E+03  0.61539173219E+03  0.47000000000E+01 0. -1.
         -5    1    4    4    0  502 -0.13298169770E+02 -0.21261270499E+02 -0.23452857464E+02  0.34655583471E+02  0.47000000000E+01 0. -1.
          5    1    5    5  503    0  0.40414581288E+01  0.64169684688E+02 -0.41476114109E+03  0.41974155855E+03  0.47000000000E+01 0. -1.
         -5    1    5    5    0  503 -0.54483665808E+02 -0.45029881309E+02 -0.40726867662E+03  0.41338362934E+03  0.47000000000E+01 0. -1.
<mgrwt>
<rscale>  0 0.27453552E+03</rscale>
<asrwt>0</asrwt>
<pdfrwt beam="1">  1        2 0.22620894E+00 0.27453552E+03</pdfrwt>
<pdfrwt beam="2">  1       -2 0.19715175E-02 0.27453552E+03</pdfrwt>
<totfact> 0.11174528E+04</totfact>
</mgrwt>
</event>
<event>
 9    1  0.8186049E-001  0.2705784E+03  0.7818608E-02  0.1100949E+00
          2   -1    0    0  501    0  0.00000000000E+00  0.00000000000E+00  0.35743101294E+03  0.35743101294E+03  0.00000000000E+00 0.  1.
         -2   -1    0    0    0  501 -0.00000000000E+00 -0.00000000000E+00 -0.51207564370E+02  0.51207564370E+02  0.00000000000E+00 0.  1.
         35    2    1    2    0    0  0.71054273576E-14  0.00000000000E+00  0.30622344857E+03  0.40863857731E+03  0.27057842932E+03 0.  0.
         25    2    3    3    0    0 -0.11704759063E+02 -0.49759856502E+02  0.13082514976E+03  0.18781877277E+03  0.12469012347E+03 0.  0.
         25    2    3    3    0    0  0.11704759063E+02  0.49759856502E+02  0.17539829881E+03  0.22081980454E+03  0.12403135953E+03 0.  0.
          5    1    4    4  502    0 -0.55856569615E+02 -0.17284863121E+02  0.11733252352E+03  0.13117825253E+03  0.47000000000E+01 0.  1.
         -5    1    4    4    0  502  0.44151810551E+02 -0.32474993381E+02  0.13492626241E+02  0.56640520239E+02  0.47000000000E+01 0.  1.
          5    1    5    5  503    0  0.63453997786E+02  0.23919045536E+02  0.13158372102E+03  0.14810434232E+03  0.47000000000E+01 0.  1.
         -5    1    5    5    0  503 -0.51749238723E+02  0.25840810966E+02  0.43814577789E+02  0.72715462225E+02  0.47000000000E+01 0.  1.
<mgrwt>
<rscale>  0 0.27057843E+03</rscale>
<asrwt>0</asrwt>
<pdfrwt beam="1">  1        2 0.54989385E-01 0.27057843E+03</pdfrwt>
<pdfrwt beam="2">  1       -2 0.78780871E-02 0.27057843E+03</pdfrwt>
<totfact> 0.86781495E+03</totfact>
</mgrwt>
</event>
<event>
 9    1  0.8186049E-001  0.2745019E+03  0.7818608E-02  0.1098730E+00
         -2   -1    0    0    0  501 -0.00000000000E+00  0.00000000000E+00  0.13100491801E+02  0.13100491801E+02  0.00000000000E+00 0. -1.
          2   -1    0    0  501    0  0.00000000000E+00 -0.00000000000E+00 -0.14379476061E+04  0.14379476061E+04  0.00000000000E+00 0. -1.
         35    2    1    2    0    0  0.00000000000E+00  0.00000000000E+00 -0.14248471143E+04  0.14510480979E+04  0.27450188213E+03 0.  0.
         25    2    3    3    0    0  0.22340240552E+02 -0.30010822432E+02 -0.60453343883E+03  0.62051456573E+03  0.13482548652E+03 0.  0.
         25    2    3    3    0    0 -0.22340240552E+02  0.30010822432E+02 -0.82031367546E+03  0.83053353216E+03  0.12438523255E+03 0.  0.
          5    1    4    4  502    0  0.45355497786E+02 -0.72796583746E+02 -0.29851617650E+03  0.31062913807E+03  0.47000000000E+01 0. -1.
         -5    1    4    4    0  502 -0.23015257234E+02  0.42785761314E+02 -0.30601726233E+03  0.30988542766E+03  0.47000000000E+01 0. -1.
          5    1    5    5  503    0 -0.34936244820E+02  0.36432244333E+02 -0.81178440253E+03  0.81336575771E+03  0.47000000000E+01 0.  1.
         -5    1    5    5    0  503  0.12596004267E+02 -0.64214219007E+01 -0.85292729375E+01  0.17167774450E+02  0.47000000000E+01 0.  1.
<mgrwt>
<rscale>  0 0.27450188E+03</rscale>
<asrwt>0</asrwt>
<pdfrwt beam="1">  1        2 0.22122265E+00 0.27450188E+03</pdfrwt>
<pdfrwt beam="2">  1       -2 0.20154608E-02 0.27450188E+03</pdfrwt>
<totfact> 0.11261556E+04</totfact>
</mgrwt>
</event>
<event>
 9    1  0.8186049E-001  0.2786689E+03  0.7818608E-02  0.1096418E+00
         -1   -1    0    0    0  501 -0.00000000000E+00  0.00000000000E+00  0.38110683670E+02  0.38110683670E+02  0.00000000000E+00 0.  1.
          1   -1    0    0  501    0  0.00000000000E+00 -0.00000000000E+00 -0.50941347807E+03  0.50941347807E+03  0.00000000000E+00 0.  1.
         35    2    1    2    0    0  0.71054273576E-14  0.71054273576E-14 -0.47130279440E+03  0.54752416174E+03  0.27866894997E+03 0.  0.
         25    2    3    3    0    0 -0.47730508737E+02 -0.22628961577E+02 -0.29512696743E+03  0.32504385485E+03  0.12555201832E+03 0.  0.
         25    2    3    3    0    0  0.47730508737E+02  0.22628961577E+02 -0.17617582697E+03  0.22248030689E+03  0.12517704893E+03 0.  0.
          5    1    4    4  502    0 -0.64571439090E+02 -0.62619461567E+02 -0.16782656376E+03  0.19046919231E+03  0.47000000000E+01 0. -1.
         -5    1    4    4    0  502  0.16840930353E+02  0.39990499990E+02 -0.12730040367E+03  0.13457466254E+03  0.47000000000E+01 0. -1.
          5    1    5    5  503    0  0.35920119463E+02 -0.46310354616E+02 -0.11618010932E+03  0.13021064368E+03  0.47000000000E+01 0.  1.
         -5    1    5    5    0  503  0.11810389274E+02  0.68939316193E+02 -0.59995717645E+02  0.92269663204E+02  0.47000000000E+01 0.  1.
<mgrwt>
<rscale>  0 0.27866895E+03</rscale>
<asrwt>0</asrwt>
<pdfrwt beam="1">  1        1 0.78371302E-01 0.27866895E+03</pdfrwt>
<pdfrwt beam="2">  1       -1 0.58631823E-02 0.27866895E+03</pdfrwt>
<totfact> 0.60687857E+03</totfact>
</mgrwt>
</event>
<event>
 9    1  0.8186049E-001  0.2726362E+03  0.7818608E-02  0.1099780E+00
         -1   -1    0    0    0  501 -0.00000000000E+00  0.00000000000E+00  0.17833761751E+03  0.17833761751E+03  0.00000000000E+00 0. -1.
          1   -1    0    0  501    0  0.00000000000E+00 -0.00000000000E+00 -0.10419913249E+03  0.10419913249E+03  0.00000000000E+00 0. -1.
         35    2    1    2    0    0  0.53290705182E-14  0.14210854715E-13  0.74138485017E+02  0.28253675000E+03  0.27263620475E+03 0.  0.
         25    2    3    3    0    0  0.14865677706E+02  0.50652619522E+02  0.30870843816E+02  0.13958727151E+03  0.12547876765E+03 0.  0.
         25    2    3    3    0    0 -0.14865677706E+02 -0.50652619522E+02  0.43267641201E+02  0.14294947849E+03  0.12560170536E+03 0.  0.
          5    1    4    4  502    0  0.37805295776E+02 -0.17940496625E+02 -0.24192100518E+02  0.48563870679E+02  0.47000000000E+01 0. -1.
         -5    1    4    4    0  502 -0.22939618070E+02  0.68593116147E+02  0.55062944334E+02  0.91023400830E+02  0.47000000000E+01 0. -1.
          5    1    5    5  503    0 -0.25230836838E+02  0.38499474938E+02  0.12137256616E+02  0.47835213977E+02  0.47000000000E+01 0. -1.
         -5    1    5    5    0  503  0.10365159132E+02 -0.89152094460E+02  0.31130384584E+02  0.95114264518E+02  0.47000000000E+01 0. -1.
<mgrwt>
<rscale>  0 0.27263620E+03</rscale>
<asrwt>0</asrwt>
<pdfrwt beam="1">  1        1 0.16030636E-01 0.27263620E+03</pdfrwt>
<pdfrwt beam="2">  1       -1 0.27436557E-01 0.27263620E+03</pdfrwt>
<totfact> 0.40365331E+03</totfact>
</mgrwt>
</event>
<event>
 9    1  0.8186049E-001  0.2711373E+03  0.7818608E-02  0.1100630E+00
          1   -1    0    0  501    0  0.00000000000E+00  0.00000000000E+00  0.16174906542E+04  0.16174906542E+04  0.00000000000E+00 0.  1.
         -1   -1    0    0    0  501 -0.00000000000E+00 -0.00000000000E+00 -0.11362575165E+02  0.11362575165E+02  0.00000000000E+00 0.  1.
         35    2    1    2    0    0  0.00000000000E+00  0.00000000000E+00  0.16061280791E+04  0.16288532294E+04  0.27113730202E+03 0.  0.
         25    2    3    3    0    0  0.39087549850E+02  0.28867749677E+00  0.61573913520E+03  0.62943023809E+03  0.12457857810E+03 0.  0.
         25    2    3    3    0    0 -0.39087549850E+02 -0.28867749677E+00  0.99038894386E+03  0.99942299130E+03  0.12825028469E+03 0.  0.
          5    1    4    4  502    0  0.32658134344E+01 -0.17898859461E+02  0.81277216637E+01  0.20473997334E+02  0.47000000000E+01 0.  1.
         -5    1    4    4    0  502  0.35821736416E+02  0.18187536958E+02  0.60761141353E+03  0.60895624076E+03  0.47000000000E+01 0.  1.
          5    1    5    5  503    0 -0.19812592873E+02  0.37597933101E+02  0.11033086703E+03  0.11832638602E+03  0.47000000000E+01 0. -1.
         -5    1    5    5    0  503 -0.19274956977E+02 -0.37886610598E+02  0.88005807684E+03  0.88109660528E+03  0.47000000000E+01 0. -1.
<mgrwt>
<rscale>  0 0.27113730E+03</rscale>
<asrwt>0</asrwt>
<pdfrwt beam="1">  1        1 0.24884453E+00 0.27113730E+03</pdfrwt>
<pdfrwt beam="2">  1       -1 0.17480898E-02 0.27113730E+03</pdfrwt>
<totfact> 0.49975821E+03</totfact>
</mgrwt>
</event>
<event>
 9    1  0.8186049E-001  0.2756086E+03  0.7818608E-02  0.1098112E+00
          1   -1    0    0  501    0  0.00000000000E+00  0.00000000000E+00  0.40193980330E+03  0.40193980330E+03  0.00000000000E+00 0. -1.
         -1   -1    0    0    0  501 -0.00000000000E+00 -0.00000000000E+00 -0.47245931706E+02  0.47245931706E+02  0.00000000000E+00 0. -1.
         35    2    1    2    0    0  0.00000000000E+00  0.00000000000E+00  0.35469387159E+03  0.44918573500E+03  0.27560856660E+03 0.  0.
         25    2    3    3    0    0 -0.27547007642E+02  0.74927674422E+00  0.26132268082E+03  0.29072289040E+03  0.12438189758E+03 0.  0.
         25    2    3    3    0    0  0.27547007642E+02 -0.74927674422E+00  0.93371190770E+02  0.15846284460E+03  0.12503157524E+03 0.  0.
          5    1    4    4  502    0 -0.17113123018E+02 -0.58164877557E+02  0.85356862812E+02  0.10480408384E+03  0.47000000000E+01 0.  1.
         -5    1    4    4    0  502 -0.10433884625E+02  0.58914154301E+02  0.17596581801E+03  0.18591880656E+03  0.47000000000E+01 0.  1.
          5    1    5    5  503    0  0.58759511915E+01  0.61442122201E+02  0.48385766259E+02  0.78568018681E+02  0.47000000000E+01 0.  1.
         -5    1    5    5    0  503  0.21671056451E+02 -0.62191398945E+02  0.44985424511E+02  0.79894825921E+02  0.47000000000E+01 0.  1.
<mgrwt>
<rscale>  0 0.27560857E+03</rscale>
<asrwt>0</asrwt>
<pdfrwt beam="1">  1        1 0.61836891E-01 0.27560857E+03</pdfrwt>
<pdfrwt beam="2">  1       -1 0.72686051E-02 0.27560857E+03</pdfrwt>
<totfact> 0.59719612E+03</totfact>
</mgrwt>
</event>
<event>
 9    1  0.8186049E-001  0.2719049E+03  0.7818608E-02  0.1100194E+00
         -2   -1    0    0    0  501 -0.00000000000E+00  0.00000000000E+00  0.12517854552E+02  0.12517854552E+02  0.00000000000E+00 0.  1.
          2   -1    0    0  501    0  0.00000000000E+00 -0.00000000000E+00 -0.14765362940E+04  0.14765362940E+04  0.00000000000E+00 0.  1.
         35    2    1    2    0    0 -0.71054273576E-14  0.00000000000E+00 -0.14640184394E+04  0.14890541485E+04  0.27190488461E+03 0.  0.
         25    2    3    3    0    0 -0.47052828022E+02 -0.19001753621E+02 -0.80080448669E+03  0.81208934238E+03  0.12500495525E+03 0.  0.
         25    2    3    3    0    0  0.47052828022E+02  0.19001753621E+02 -0.66321395272E+03  0.67696480614E+03  0.12591094630E+03 0.  0.
          5    1    4    4  502    0  0.39684855435E+02 -0.18175706138E+02 -0.18215497794E+03  0.18737067548E+03  0.47000000000E+01 0. -1.
         -5    1    4    4    0  502 -0.86737683457E+02 -0.82604748240E+00 -0.61864950875E+03  0.62471866689E+03  0.47000000000E+01 0. -1.
          5    1    5    5  503    0  0.60779587232E+02  0.57768859785E+02 -0.30447687776E+03  0.31584752410E+03  0.47000000000E+01 0. -1.
         -5    1    5    5    0  503 -0.13726759210E+02 -0.38767106164E+02 -0.35873707496E+03  0.36111728204E+03  0.47000000000E+01 0. -1.
<mgrwt>
<rscale>  0 0.27190488E+03</rscale>
<asrwt>0</asrwt>
<pdfrwt beam="1">  1        2 0.22715954E+00 0.27190488E+03</pdfrwt>
<pdfrwt beam="2">  1       -2 0.19258229E-02 0.27190488E+03</pdfrwt>
<totfact> 0.11475993E+04</totfact>
</mgrwt>
</event>
<event>
 9    1  0.8186049E-001  0.2731887E+03  0.7818608E-02  0.1099468E+00
         -1   -1    0    0    0  501 -0.00000000000E+00  0.00000000000E+00  0.16185700256E+02  0.16185700256E+02  0.00000000000E+00 0.  1.
          1   -1    0    0  501    0  0.00000000000E+00 -0.00000000000E+00 -0.11527471030E+04  0.11527471030E+04  0.00000000000E+00 0.  1.
         35    2    1    2    0    0  0.00000000000E+00 -0.71054273576E-14 -0.11365614027E+04  0.11689328032E+04  0.27318871924E+03 0.  0.
         25    2    3    3    0    0  0.41997724950E+02  0.35199903659E+02 -0.60340576823E+03  0.61853905616E+03  0.12445561756E+03 0.  0.
         25    2    3    3    0    0 -0.41997724950E+02 -0.35199903659E+02 -0.53315563448E+03  0.55039374707E+03  0.12520185347E+03 0.  0.
          5    1    4    4  502    0 -0.30855922102E+02 -0.78457855526E+01 -0.34701290880E+03  0.34850207051E+03  0.47000000000E+01 0. -1.
         -5    1    4    4    0  502  0.72853647052E+02  0.43045689212E+02 -0.25639285944E+03  0.27003698565E+03  0.47000000000E+01 0. -1.
          5    1    5    5  503    0 -0.68363343152E+01 -0.36133161650E+01  0.48695928513E+01  0.10275916266E+02  0.47000000000E+01 0. -1.
         -5    1    5    5    0  503 -0.35161390635E+02 -0.31586587494E+02 -0.53802522733E+03  0.54011783080E+03  0.47000000000E+01 0. -1.
<mgrwt>
<rscale>  0 0.27318872E+03</rscale>
<asrwt>0</asrwt>
<pdfrwt beam="1">  1        1 0.17734572E+00 0.27318872E+03</pdfrwt>
<pdfrwt beam="2">  1       -1 0.24901076E-02 0.27318872E+03</pdfrwt>
<totfact> 0.61399530E+03</totfact>
</mgrwt>
</event>
<event>
 9    1  0.8186049E-001  0.2726924E+03  0.7818608E-02  0.1099749E+00
          1   -1    0    0  501    0  0.00000000000E+00  0.00000000000E+00  0.54515463104E+03  0.54515463104E+03  0.00000000000E+00 0. -1.
         -1   -1    0    0    0  501 -0.00000000000E+00 -0.00000000000E+00 -0.34100935103E+02  0.34100935103E+02  0.00000000000E+00 0. -1.
         35    2    1    2    0    0  0.00000000000E+00 -0.71054273576E-14  0.51105369593E+03  0.57925556614E+03  0.27269237389E+03 0.  0.
         25    2    3    3    0    0 -0.15230678201E+01  0.43054333736E+02  0.32605994701E+03  0.35187327400E+03  0.12507484370E+03 0.  0.
         25    2    3    3    0    0  0.15230678201E+01 -0.43054333736E+02  0.18499374893E+03  0.22738229214E+03  0.12499609693E+03 0.  0.
          5    1    4    4  502    0  0.23581656298E+02  0.39459511256E+02  0.30899259698E+02  0.55587784559E+02  0.47000000000E+01 0. -1.
         -5    1    4    4    0  502 -0.25104724118E+02  0.35948224796E+01  0.29516068731E+03  0.29628548944E+03  0.47000000000E+01 0. -1.
          5    1    5    5  503    0  0.60331997450E+02 -0.39574359960E+02  0.89201042554E+02  0.11482593729E+03  0.47000000000E+01 0.  1.
         -5    1    5    5    0  503 -0.58808929630E+02 -0.34799737756E+01  0.95792706372E+02  0.11255635484E+03  0.47000000000E+01 0.  1.
<mgrwt>
<rscale>  0 0.27269237E+03</rscale>
<asrwt>0</asrwt>
<pdfrwt beam="1">  1        1 0.83869936E-01 0.27269237E+03</pdfrwt>
<pdfrwt beam="2">  1       -1 0.52462981E-02 0.27269237E+03</pdfrwt>
<totfact> 0.65440666E+03</totfact>
</mgrwt>
</event>
<event>
 9    1  0.8186049E-001  0.2757453E+03  0.7818608E-02  0.1098036E+00
          2   -1    0    0  501    0  0.00000000000E+00  0.00000000000E+00  0.18285891854E+03  0.18285891854E+03  0.00000000000E+00 0. -1.
         -2   -1    0    0    0  501 -0.00000000000E+00 -0.00000000000E+00 -0.10395371303E+03  0.10395371303E+03  0.00000000000E+00 0. -1.
         35    2    1    2    0    0  0.00000000000E+00 -0.10658141036E-13  0.78905205516E+02  0.28681263157E+03  0.27574527044E+03 0.  0.
         25    2    3    3    0    0  0.51344128234E+02  0.22491603324E+02  0.19077192370E+02  0.13731879813E+03  0.12389681725E+03 0.  0.
         25    2    3    3    0    0 -0.51344128234E+02 -0.22491603324E+02  0.59828013146E+02  0.14949383344E+03  0.12500769319E+03 0.  0.
          5    1    4    4  502    0  0.25419267778E+02  0.70175177731E+02 -0.10190746592E+02  0.75476062828E+02  0.47000000000E+01 0. -1.
         -5    1    4    4    0  502  0.25924860457E+02 -0.47683574407E+02  0.29267938962E+02  0.61842735297E+02  0.47000000000E+01 0. -1.
          5    1    5    5  503    0 -0.73797689938E+02 -0.51445341730E+02  0.66483153580E+02  0.11195901900E+03  0.47000000000E+01 0. -1.
         -5    1    5    5    0  503  0.22453561704E+02  0.28953738406E+02 -0.66551404340E+01  0.37534814441E+02  0.47000000000E+01 0. -1.
<mgrwt>
<rscale>  0 0.27574527E+03</rscale>
<asrwt>0</asrwt>
<pdfrwt beam="1">  1        2 0.28132141E-01 0.27574527E+03</pdfrwt>
<pdfrwt beam="2">  1       -2 0.15992879E-01 0.27574527E+03</pdfrwt>
<totfact> 0.57514930E+03</totfact>
</mgrwt>
</event>
<event>
 9    1  0.8186049E-001  0.2747102E+03  0.7818608E-02  0.1098614E+00
         -1   -1    0    0    0  501 -0.00000000000E+00  0.00000000000E+00  0.30167144847E+02  0.30167144847E+02  0.00000000000E+00 0. -1.
          1   -1    0    0  501    0  0.00000000000E+00 -0.00000000000E+00 -0.62539640022E+03  0.62539640022E+03  0.00000000000E+00 0. -1.
         35    2    1    2    0    0  0.00000000000E+00  0.71054273576E-14 -0.59522925538E+03  0.65556354507E+03  0.27471020216E+03 0.  0.
         25    2    3    3    0    0  0.33603878903E+02 -0.31589837470E+02 -0.37689627407E+03  0.39981917885E+03  0.12520956775E+03 0.  0.
         25    2    3    3    0    0 -0.33603878903E+02  0.31589837470E+02 -0.21833298130E+03  0.25574436622E+03  0.12493498958E+03 0.  0.
          5    1    4    4  502    0  0.32885397822E+02 -0.75319096442E+02 -0.17794931574E+03  0.19606750024E+03  0.47000000000E+01 0.  1.
         -5    1    4    4    0  502  0.71848108078E+00  0.43729258972E+02 -0.19894695834E+03  0.20375167861E+03  0.47000000000E+01 0.  1.
          5    1    5    5  503    0 -0.43715334639E+02 -0.39089457804E+02 -0.73031228215E+02  0.93779883176E+02  0.47000000000E+01 0.  1.
         -5    1    5    5    0  503  0.10111455736E+02  0.70679295274E+02 -0.14530175309E+03  0.16196448305E+03  0.47000000000E+01 0.  1.
<mgrwt>
<rscale>  0 0.27471020E+03</rscale>
<asrwt>0</asrwt>
<pdfrwt beam="1">  1        1 0.96214823E-01 0.27471020E+03</pdfrwt>
<pdfrwt beam="2">  1       -1 0.46410996E-02 0.27471020E+03</pdfrwt>
<totfact> 0.65076263E+03</totfact>
</mgrwt>
</event>
<event>
 9    1  0.8186049E-001  0.2758380E+03  0.7818608E-02  0.1097984E+00
          3   -1    0    0  501    0  0.00000000000E+00  0.00000000000E+00  0.58258266922E+02  0.58258266922E+02  0.00000000000E+00 0.  1.
         -3   -1    0    0    0  501 -0.00000000000E+00 -0.00000000000E+00 -0.32650555906E+03  0.32650555906E+03  0.00000000000E+00 0.  1.
         35    2    1    2    0    0 -0.21316282073E-13  0.00000000000E+00 -0.26824729214E+03  0.38476382598E+03  0.27583798151E+03 0.  0.
         25    2    3    3    0    0  0.39659922924E+02 -0.19449730298E+01 -0.73657182083E+02  0.15015689503E+03  0.12467967055E+03 0.  0.
         25    2    3    3    0    0 -0.39659922924E+02  0.19449730298E+01 -0.19459011005E+03  0.23460693095E+03  0.12489358955E+03 0.  0.
          5    1    4    4  502    0 -0.24322716616E+02  0.44851843201E+02 -0.32988833795E+02  0.60939605654E+02  0.47000000000E+01 0. -1.
         -5    1    4    4    0  502  0.63982639540E+02 -0.46796816231E+02 -0.40668348288E+02  0.89217289380E+02  0.47000000000E+01 0. -1.
          5    1    5    5  503    0 -0.75115728699E+02  0.31435499483E+02 -0.14737016467E+03  0.16843580011E+03  0.47000000000E+01 0. -1.
         -5    1    5    5    0  503  0.35455805775E+02 -0.29490526453E+02 -0.47219945387E+02  0.66171130835E+02  0.47000000000E+01 0. -1.
<mgrwt>
<rscale>  0 0.27583798E+03</rscale>
<asrwt>0</asrwt>
<pdfrwt beam="1">  1        3 0.89628105E-02 0.27583798E+03</pdfrwt>
<pdfrwt beam="2">  1       -3 0.50231624E-01 0.27583798E+03</pdfrwt>
<totfact> 0.89056868E+02</totfact>
</mgrwt>
</event>
<event>
 9    1  0.8186049E-001  0.2695121E+03  0.7818608E-02  0.1101559E+00
          1   -1    0    0  501    0  0.00000000000E+00  0.00000000000E+00  0.46423493232E+03  0.46423493232E+03  0.00000000000E+00 0. -1.
         -1   -1    0    0    0  501 -0.00000000000E+00 -0.00000000000E+00 -0.39116384258E+02  0.39116384258E+02  0.00000000000E+00 0. -1.
         35    2    1    2    0    0  0.00000000000E+00  0.00000000000E+00  0.42511854806E+03  0.50335131658E+03  0.26951209248E+03 0.  0.
         25    2    3    3    0    0 -0.30398343016E+02  0.30089108836E+02  0.25428075122E+03  0.28631091147E+03  0.12444205018E+03 0.  0.
         25    2    3    3    0    0  0.30398343016E+02 -0.30089108836E+02  0.17083779684E+03  0.21704040511E+03  0.12685255573E+03 0.  0.
          5    1    4    4  502    0 -0.47297632402E+02  0.32097284284E+02  0.26114450674E+03  0.26736836966E+03  0.47000000000E+01 0. -1.
         -5    1    4    4    0  502  0.16899289386E+02 -0.20081754484E+01 -0.68637555198E+01  0.18942541810E+02  0.47000000000E+01 0. -1.
          5    1    5    5  503    0  0.68309446255E+02 -0.25219639837E+02  0.16178726501E+03  0.17748075896E+03  0.47000000000E+01 0. -1.
         -5    1    5    5    0  503 -0.37911103239E+02 -0.48694689986E+01  0.90505318216E+01  0.39559646148E+02  0.47000000000E+01 0. -1.
<mgrwt>
<rscale>  0 0.26951209E+03</rscale>
<asrwt>0</asrwt>
<pdfrwt beam="1">  1        1 0.71420755E-01 0.26951209E+03</pdfrwt>
<pdfrwt beam="2">  1       -1 0.60179056E-02 0.26951209E+03</pdfrwt>
<totfact> 0.65901817E+03</totfact>
</mgrwt>
</event>
<event>
 9    1  0.8186049E-001  0.2748981E+03  0.7818608E-02  0.1098509E+00
         -2   -1    0    0    0  501 -0.00000000000E+00  0.00000000000E+00  0.65574169092E+02  0.65574169092E+02  0.00000000000E+00 0. -1.
          2   -1    0    0  501    0  0.00000000000E+00 -0.00000000000E+00 -0.28810490612E+03  0.28810490612E+03  0.00000000000E+00 0. -1.
         35    2    1    2    0    0  0.00000000000E+00  0.00000000000E+00 -0.22253073703E+03  0.35367907521E+03  0.27489808897E+03 0.  0.
         25    2    3    3    0    0  0.44356209321E+02  0.33855314188E+02 -0.96077342855E+02  0.16724497950E+03  0.12500548690E+03 0.  0.
         25    2    3    3    0    0 -0.44356209321E+02 -0.33855314188E+02 -0.12645339417E+03  0.18643409571E+03  0.12511417002E+03 0.  0.
          5    1    4    4  502    0 -0.41983093509E+02 -0.39002267660E+01 -0.26613441579E+02  0.50081505389E+02  0.47000000000E+01 0. -1.
         -5    1    4    4    0  502  0.86339302830E+02  0.37755540954E+02 -0.69463901276E+02  0.11716347411E+03  0.47000000000E+01 0. -1.
          5    1    5    5  503    0 -0.13012115133E+02  0.46401444771E+02 -0.29746805044E+02  0.56827560456E+02  0.47000000000E+01 0. -1.
         -5    1    5    5    0  503 -0.31344094187E+02 -0.80256758959E+02 -0.96706589127E+02  0.12960653525E+03  0.47000000000E+01 0. -1.
<mgrwt>
<rscale>  0 0.27489809E+03</rscale>
<asrwt>0</asrwt>
<pdfrwt beam="1">  1        2 0.44323832E-01 0.27489809E+03</pdfrwt>
<pdfrwt beam="2">  1       -2 0.10088334E-01 0.27489809E+03</pdfrwt>
<totfact> 0.74195082E+03</totfact>
</mgrwt>
</event>
<event>
 9    1  0.8186049E-001  0.2776228E+03  0.7818608E-02  0.1096994E+00
         -1   -1    0    0    0  501 -0.00000000000E+00  0.00000000000E+00  0.60773791586E+02  0.60773791586E+02  0.00000000000E+00 0.  1.
          1   -1    0    0  501    0  0.00000000000E+00 -0.00000000000E+00 -0.31705443501E+03  0.31705443501E+03  0.00000000000E+00 0.  1.
         35    2    1    2    0    0 -0.35527136788E-14  0.00000000000E+00 -0.25628064342E+03  0.37782822660E+03  0.27762276675E+03 0.  0.
         25    2    3    3    0    0 -0.12996529684E+02  0.44068301834E+02 -0.91527301287E+02  0.16580946625E+03  0.13040171474E+03 0.  0.
         25    2    3    3    0    0  0.12996529684E+02 -0.44068301834E+02 -0.16475334214E+03  0.21201876034E+03  0.12528912955E+03 0.  0.
          5    1    4    4  502    0  0.17416403524E+02  0.59988044898E+02 -0.10996930561E+03  0.12655921467E+03  0.47000000000E+01 0. -1.
         -5    1    4    4    0  502 -0.30412933208E+02 -0.15919743064E+02  0.18442004323E+02  0.39250251579E+02  0.47000000000E+01 0. -1.
          5    1    5    5  503    0  0.14882707010E+01 -0.26777339282E+02 -0.18236358144E+03  0.18438494159E+03  0.47000000000E+01 0. -1.
         -5    1    5    5    0  503  0.11508258983E+02 -0.17290962552E+02  0.17610239302E+02  0.27633818757E+02  0.47000000000E+01 0. -1.
<mgrwt>
<rscale>  0 0.27762277E+03</rscale>
<asrwt>0</asrwt>
<pdfrwt beam="1">  1        1 0.48777604E-01 0.27762277E+03</pdfrwt>
<pdfrwt beam="2">  1       -1 0.93498143E-02 0.27762277E+03</pdfrwt>
<totfact> 0.54931935E+03</totfact>
</mgrwt>
</event>
<event>
 9    1  0.8186049E-001  0.2870797E+03  0.7818608E-02  0.1091884E+00
          2   -1    0    0  501    0  0.00000000000E+00  0.00000000000E+00  0.12567557451E+04  0.12567557451E+04  0.00000000000E+00 0. -1.
         -2   -1    0    0    0  501 -0.00000000000E+00 -0.00000000000E+00 -0.16394343849E+02  0.16394343849E+02  0.00000000000E+00 0. -1.
         35    2    1    2    0    0 -0.35527136788E-14  0.00000000000E+00  0.12403614013E+04  0.12731500890E+04  0.28707968107E+03 0.  0.
         25    2    3    3    0    0 -0.12967127618E+02  0.62758680092E+02  0.74630503352E+03  0.75944934669E+03  0.12524100291E+03 0.  0.
         25    2    3    3    0    0  0.12967127618E+02 -0.62758680092E+02  0.49405636777E+03  0.51370074230E+03  0.12525956959E+03 0.  0.
          5    1    4    4  502    0 -0.51530438978E+02  0.55625414464E+02  0.66205966914E+03  0.66640428298E+03  0.47000000000E+01 0.  1.
         -5    1    4    4    0  502  0.38563311360E+02  0.71332656283E+01  0.84245364382E+02  0.93045063713E+02  0.47000000000E+01 0.  1.
          5    1    5    5  503    0 -0.24846448358E+01 -0.49489584203E+02  0.55123037657E+02  0.74269991821E+02  0.47000000000E+01 0.  1.
         -5    1    5    5    0  503  0.15451772454E+02 -0.13269095888E+02  0.43893333012E+03  0.43943075048E+03  0.47000000000E+01 0.  1.
<mgrwt>
<rscale>  0 0.28707968E+03</rscale>
<asrwt>0</asrwt>
<pdfrwt beam="1">  1        2 0.19334696E+00 0.28707968E+03</pdfrwt>
<pdfrwt beam="2">  1       -2 0.25222077E-02 0.28707968E+03</pdfrwt>
<totfact> 0.10179211E+04</totfact>
</mgrwt>
</event>
<event>
 9    1  0.8186049E-001  0.2752451E+03  0.7818608E-02  0.1098315E+00
         -1   -1    0    0    0  501 -0.00000000000E+00  0.00000000000E+00  0.58594951415E+02  0.58594951415E+02  0.00000000000E+00 0. -1.
          1   -1    0    0  501    0  0.00000000000E+00 -0.00000000000E+00 -0.32323534728E+03  0.32323534728E+03  0.00000000000E+00 0. -1.
         35    2    1    2    0    0  0.00000000000E+00  0.00000000000E+00 -0.26464039586E+03  0.38183029869E+03  0.27524505059E+03 0.  0.
         25    2    3    3    0    0  0.44454708095E+01 -0.40047984220E+02 -0.79725446126E+02  0.15417537143E+03  0.12565944113E+03 0.  0.
         25    2    3    3    0    0 -0.44454708095E+01  0.40047984220E+02 -0.18491494973E+03  0.22765492726E+03  0.12652914297E+03 0.  0.
          5    1    4    4  502    0  0.25755485468E+02 -0.80961519280E+02 -0.45086792347E+02  0.96296528909E+02  0.47000000000E+01 0. -1.
         -5    1    4    4    0  502 -0.21310014658E+02  0.40913535060E+02 -0.34638653780E+02  0.57878842521E+02  0.47000000000E+01 0. -1.
          5    1    5    5  503    0 -0.38064013714E+02  0.29284416654E+02 -0.10165664815E+02  0.49314064322E+02  0.47000000000E+01 0. -1.
         -5    1    5    5    0  503  0.33618542905E+02  0.10763567566E+02 -0.17474928492E+03  0.17834086294E+03  0.47000000000E+01 0. -1.
<mgrwt>
<rscale>  0 0.27524505E+03</rscale>
<asrwt>0</asrwt>
<pdfrwt beam="1">  1        1 0.49728516E-01 0.27524505E+03</pdfrwt>
<pdfrwt beam="2">  1       -1 0.90146077E-02 0.27524505E+03</pdfrwt>
<totfact> 0.56692130E+03</totfact>
</mgrwt>
</event>
<event>
 9    1  0.8186049E-001  0.2775598E+03  0.7818608E-02  0.1097029E+00
         -2   -1    0    0    0  501 -0.00000000000E+00  0.00000000000E+00  0.21560252887E+02  0.21560252887E+02  0.00000000000E+00 0. -1.
          2   -1    0    0  501    0  0.00000000000E+00 -0.00000000000E+00 -0.89330416484E+03  0.89330416484E+03  0.00000000000E+00 0. -1.
         35    2    1    2    0    0 -0.71054273576E-14  0.35527136788E-14 -0.87174391195E+03  0.91486441773E+03  0.27755982201E+03 0.  0.
         25    2    3    3    0    0 -0.49799828506E+02  0.27026921325E+02 -0.50188932254E+03  0.52017959212E+03  0.12443246593E+03 0.  0.
         25    2    3    3    0    0  0.49799828506E+02 -0.27026921325E+02 -0.36985458941E+03  0.39468482561E+03  0.12559146811E+03 0.  0.
          5    1    4    4  502    0 -0.87226396901E+02  0.90686553204E+01 -0.40908125575E+03  0.41840201796E+03  0.47000000000E+01 0. -1.
         -5    1    4    4    0  502  0.37426568396E+02  0.17958266005E+02 -0.92808066789E+02  0.10177757415E+03  0.47000000000E+01 0. -1.
          5    1    5    5  503    0  0.14514886940E+02 -0.65574165403E+02 -0.10534344783E+03  0.12501993886E+03  0.47000000000E+01 0. -1.
         -5    1    5    5    0  503  0.35284941566E+02  0.38547244077E+02 -0.26451114158E+03  0.26966488675E+03  0.47000000000E+01 0. -1.
<mgrwt>
<rscale>  0 0.27755982E+03</rscale>
<asrwt>0</asrwt>
<pdfrwt beam="1">  1        2 0.13743144E+00 0.27755982E+03</pdfrwt>
<pdfrwt beam="2">  1       -2 0.33169613E-02 0.27755982E+03</pdfrwt>
<totfact> 0.11154172E+04</totfact>
</mgrwt>
</event>
<event>
 9    1  0.8186049E-001  0.2882162E+03  0.7818608E-02  0.1091284E+00
          1   -1    0    0  501    0  0.00000000000E+00  0.00000000000E+00  0.86075898157E+03  0.86075898157E+03  0.00000000000E+00 0.  1.
         -1   -1    0    0    0  501 -0.00000000000E+00 -0.00000000000E+00 -0.24126552345E+02  0.24126552345E+02  0.00000000000E+00 0.  1.
         35    2    1    2    0    0  0.71054273576E-14  0.35527136788E-14  0.83663242923E+03  0.88488553392E+03  0.28821621485E+03 0.  0.
         25    2    3    3    0    0 -0.47492626436E+02 -0.29283636963E+02  0.27392250222E+03  0.30609123050E+03  0.12468048447E+03 0.  0.
         25    2    3    3    0    0  0.47492626436E+02  0.29283636963E+02  0.56270992701E+03  0.57879430342E+03  0.12347996904E+03 0.  0.
          5    1    4    4  502    0  0.37973522345E+02  0.68456793655E+01  0.47692646637E+02  0.61526663070E+02  0.47000000000E+01 0.  1.
         -5    1    4    4    0  502 -0.85466148781E+02 -0.36129316328E+02  0.22622985558E+03  0.24456456743E+03  0.47000000000E+01 0.  1.
          5    1    5    5  503    0  0.38988245324E+01  0.31771527184E+02  0.50616548558E+03  0.50719840257E+03  0.47000000000E+01 0.  1.
         -5    1    5    5    0  503  0.43593801904E+02 -0.24878902213E+01  0.56544441425E+02  0.71595900848E+02  0.47000000000E+01 0.  1.
<mgrwt>
<rscale>  0 0.28821621E+03</rscale>
<asrwt>0</asrwt>
<pdfrwt beam="1">  1        1 0.13242444E+00 0.28821621E+03</pdfrwt>
<pdfrwt beam="2">  1       -1 0.37117779E-02 0.28821621E+03</pdfrwt>
<totfact> 0.56443262E+03</totfact>
</mgrwt>
</event>
<event>
 9    1  0.8186049E-001  0.2750993E+03  0.7818608E-02  0.1098396E+00
         -2   -1    0    0    0  501 -0.00000000000E+00  0.00000000000E+00  0.27921788269E+03  0.27921788269E+03  0.00000000000E+00 0. -1.
          2   -1    0    0  501    0  0.00000000000E+00 -0.00000000000E+00 -0.67760389789E+02  0.67760389789E+02  0.00000000000E+00 0. -1.
         35    2    1    2    0    0  0.35527136788E-14  0.00000000000E+00  0.21145749290E+03  0.34697827248E+03  0.27509934618E+03 0.  0.
         25    2    3    3    0    0 -0.30683277502E+02 -0.51816385921E+01  0.46708441671E+02  0.13728483566E+03  0.12528820647E+03 0.  0.
         25    2    3    3    0    0  0.30683277502E+02  0.51816385921E+01  0.16474905123E+03  0.20969343682E+03  0.12593956752E+03 0.  0.
          5    1    4    4  502    0 -0.51987007737E+02 -0.34261481836E+02  0.70239963341E+02  0.93980000857E+02  0.47000000000E+01 0.  1.
         -5    1    4    4    0  502  0.21303730235E+02  0.29079843243E+02 -0.23531521670E+02  0.43304834801E+02  0.47000000000E+01 0.  1.
          5    1    5    5  503    0 -0.23456419265E+02  0.29480806745E+02  0.14028900334E+03  0.14533552914E+03  0.47000000000E+01 0.  1.
         -5    1    5    5    0  503  0.54139696767E+02 -0.24299168153E+02  0.24460047894E+02  0.64357907687E+02  0.47000000000E+01 0.  1.
<mgrwt>
<rscale>  0 0.27509935E+03</rscale>
<asrwt>0</asrwt>
<pdfrwt beam="1">  1        2 0.10424675E-01 0.27509935E+03</pdfrwt>
<pdfrwt beam="2">  1       -2 0.42956597E-01 0.27509935E+03</pdfrwt>
<totfact> 0.31431111E+03</totfact>
</mgrwt>
</event>
<event>
 9    1  0.8186049E-001  0.2746220E+03  0.7818608E-02  0.1098663E+00
         -2   -1    0    0    0  501 -0.00000000000E+00  0.00000000000E+00  0.15689311035E+03  0.15689311035E+03  0.00000000000E+00 0. -1.
          2   -1    0    0  501    0  0.00000000000E+00 -0.00000000000E+00 -0.12017299332E+03  0.12017299332E+03  0.00000000000E+00 0. -1.
         35    2    1    2    0    0  0.00000000000E+00  0.00000000000E+00  0.36720117032E+02  0.27706610367E+03  0.27462202900E+03 0.  0.
         25    2    3    3    0    0  0.34664881506E+02  0.43355466283E+02  0.31030690040E+02  0.13999117400E+03  0.12471276842E+03 0.  0.
         25    2    3    3    0    0 -0.34664881506E+02 -0.43355466283E+02  0.56894269919E+01  0.13707492968E+03  0.12520310020E+03 0.  0.
          5    1    4    4  502    0  0.55036942346E+02 -0.25999564302E+02 -0.34266451652E+00  0.61051206258E+02  0.47000000000E+01 0. -1.
         -5    1    4    4    0  502 -0.20372060839E+02  0.69355030585E+02  0.31373354557E+02  0.78939967738E+02  0.47000000000E+01 0. -1.
          5    1    5    5  503    0  0.16062137964E+02 -0.19920240226E+02 -0.51052148463E+02  0.57299390131E+02  0.47000000000E+01 0. -1.
         -5    1    5    5    0  503 -0.50727019470E+02 -0.23435226057E+02  0.56741575455E+02  0.79775539546E+02  0.47000000000E+01 0. -1.
<mgrwt>
<rscale>  0 0.27462203E+03</rscale>
<asrwt>0</asrwt>
<pdfrwt beam="1">  1        2 0.18488153E-01 0.27462203E+03</pdfrwt>
<pdfrwt beam="2">  1       -2 0.24137402E-01 0.27462203E+03</pdfrwt>
<totfact> 0.45739894E+03</totfact>
</mgrwt>
</event>
<event>
 9    1  0.8186049E-001  0.2791763E+03  0.7818608E-02  0.1096140E+00
          1   -1    0    0  501    0  0.00000000000E+00  0.00000000000E+00  0.37996105618E+03  0.37996105618E+03  0.00000000000E+00 0. -1.
         -1   -1    0    0    0  501 -0.00000000000E+00 -0.00000000000E+00 -0.51281162619E+02  0.51281162619E+02  0.00000000000E+00 0. -1.
         35    2    1    2    0    0 -0.14210854715E-13 -0.35527136788E-14  0.32867989356E+03  0.43124221880E+03  0.27917625050E+03 0.  0.
         25    2    3    3    0    0 -0.35753973963E+02 -0.80346643410E+01  0.24131393939E+03  0.27425560166E+03  0.12506324485E+03 0.  0.
         25    2    3    3    0    0  0.35753973963E+02  0.80346643410E+01  0.87365954168E+02  0.15698661714E+03  0.12517621790E+03 0.  0.
          5    1    4    4  502    0  0.31964809500E+02  0.25654575066E+02  0.15011176003E+03  0.15567766945E+03  0.47000000000E+01 0.  1.
         -5    1    4    4    0  502 -0.67718783463E+02 -0.33689239407E+02  0.91202179365E+02  0.11857793221E+03  0.47000000000E+01 0.  1.
          5    1    5    5  503    0  0.29656099279E+02 -0.20208450708E+01  0.11908713229E+03  0.12283079059E+03  0.47000000000E+01 0. -1.
         -5    1    5    5    0  503  0.60978746842E+01  0.10055509412E+02 -0.31721178127E+02  0.34155826545E+02  0.47000000000E+01 0. -1.
<mgrwt>
<rscale>  0 0.27917625E+03</rscale>
<asrwt>0</asrwt>
<pdfrwt beam="1">  1        1 0.58455545E-01 0.27917625E+03</pdfrwt>
<pdfrwt beam="2">  1       -1 0.78894099E-02 0.27917625E+03</pdfrwt>
<totfact> 0.56664584E+03</totfact>
</mgrwt>
</event>
<event>
 9    1  0.8186049E-001  0.2828810E+03  0.7818608E-02  0.1094126E+00
         -2   -1    0    0    0  501 -0.00000000000E+00  0.00000000000E+00  0.38363472200E+03  0.38363472200E+03  0.00000000000E+00 0.  1.
          2   -1    0    0  501    0  0.00000000000E+00 -0.00000000000E+00 -0.52147056794E+02  0.52147056794E+02  0.00000000000E+00 0.  1.
         35    2    1    2    0    0  0.00000000000E+00  0.71054273576E-14  0.33148766520E+03  0.43578177879E+03  0.28288104664E+03 0.  0.
         25    2    3    3    0    0 -0.49989656955E+02 -0.34853199776E+02  0.21084399115E+03  0.25101323736E+03  0.12181438907E+03 0.  0.
         25    2    3    3    0    0  0.49989656955E+02  0.34853199776E+02  0.12064367405E+03  0.18476854144E+03  0.12597938910E+03 0.  0.
          5    1    4    4  502    0 -0.19404205653E+02  0.61650604357E+00 -0.11966475486E+02  0.23284969664E+02  0.47000000000E+01 0.  1.
         -5    1    4    4    0  502 -0.30585451302E+02 -0.35469705819E+02  0.22281046664E+03  0.22772826769E+03  0.47000000000E+01 0.  1.
          5    1    5    5  503    0 -0.23042017146E+02 -0.14755380261E+02  0.85039542065E+02  0.89456523046E+02  0.47000000000E+01 0. -1.
         -5    1    5    5    0  503  0.73031674101E+02  0.49608580036E+02  0.35604131986E+02  0.95312018391E+02  0.47000000000E+01 0. -1.
<mgrwt>
<rscale>  0 0.28288105E+03</rscale>
<asrwt>0</asrwt>
<pdfrwt beam="1">  1        2 0.80226244E-02 0.28288105E+03</pdfrwt>
<pdfrwt beam="2">  1       -2 0.59020725E-01 0.28288105E+03</pdfrwt>
<totfact> 0.23150717E+03</totfact>
</mgrwt>
</event>
<event>
 9    1  0.8186049E-001  0.2749854E+03  0.7818608E-02  0.1098460E+00
          3   -1    0    0  501    0  0.00000000000E+00  0.00000000000E+00  0.32156057128E+03  0.32156057128E+03  0.00000000000E+00 0. -1.
         -3   -1    0    0    0  501 -0.00000000000E+00 -0.00000000000E+00 -0.58789036597E+02  0.58789036597E+02  0.00000000000E+00 0. -1.
         35    2    1    2    0    0 -0.14210854715E-13  0.00000000000E+00  0.26277153468E+03  0.38034960788E+03  0.27498535374E+03 0.  0.
         25    2    3    3    0    0  0.42592825314E+02 -0.29644493725E+02  0.10466294670E+03  0.17211218717E+03  0.12639354328E+03 0.  0.
         25    2    3    3    0    0 -0.42592825314E+02  0.29644493725E+02  0.15810858798E+03  0.20823742071E+03  0.12518607356E+03 0.  0.
          5    1    4    4  502    0 -0.29247746458E+02  0.60799934553E+01  0.83783561592E+02  0.89073970307E+02  0.47000000000E+01 0.  1.
         -5    1    4    4    0  502  0.71840571772E+02 -0.35724487180E+02  0.20879385112E+02  0.83038216861E+02  0.47000000000E+01 0.  1.
          5    1    5    5  503    0 -0.85569203740E+02  0.19901570081E+02  0.82560116428E+02  0.12065000599E+03  0.47000000000E+01 0. -1.
         -5    1    5    5    0  503  0.42976378426E+02  0.97429236436E+01  0.75548471552E+02  0.87587414721E+02  0.47000000000E+01 0. -1.
<mgrwt>
<rscale>  0 0.27498535E+03</rscale>
<asrwt>0</asrwt>
<pdfrwt beam="1">  1        3 0.49470856E-01 0.27498535E+03</pdfrwt>
<pdfrwt beam="2">  1       -3 0.90444674E-02 0.27498535E+03</pdfrwt>
<totfact> 0.90488544E+02</totfact>
</mgrwt>
</event>
<event>
 9    1  0.8186049E-001  0.2767014E+03  0.7818608E-02  0.1097504E+00
          1   -1    0    0  501    0  0.00000000000E+00  0.00000000000E+00  0.30706352760E+03  0.30706352760E+03  0.00000000000E+00 0. -1.
         -1   -1    0    0    0  501 -0.00000000000E+00 -0.00000000000E+00 -0.62335383091E+02  0.62335383091E+02  0.00000000000E+00 0. -1.
         35    2    1    2    0    0  0.00000000000E+00  0.35527136788E-14  0.24472814451E+03  0.36939891069E+03  0.27670144652E+03 0.  0.
         25    2    3    3    0    0  0.47690116842E+02  0.20871320731E+02  0.16017971689E+03  0.21018811893E+03  0.12574396352E+03 0.  0.
         25    2    3    3    0    0 -0.47690116842E+02 -0.20871320731E+02  0.84548427611E+02  0.15921079176E+03  0.12445754428E+03 0.  0.
          5    1    4    4  502    0  0.56460538650E+02 -0.30475909680E+02  0.32215758534E+02  0.71948027029E+02  0.47000000000E+01 0.  1.
         -5    1    4    4    0  502 -0.87704218081E+01  0.51347230411E+02  0.12796395836E+03  0.13824009190E+03  0.47000000000E+01 0.  1.
          5    1    5    5  503    0 -0.82572851102E+02  0.21150162425E+01  0.25208520179E+02  0.86488776858E+02  0.47000000000E+01 0.  1.
         -5    1    5    5    0  503  0.34882734260E+02 -0.22986336974E+02  0.59339907432E+02  0.72722014899E+02  0.47000000000E+01 0.  1.
<mgrwt>
<rscale>  0 0.27670145E+03</rscale>
<asrwt>0</asrwt>
<pdfrwt beam="1">  1        1 0.47240542E-01 0.27670145E+03</pdfrwt>
<pdfrwt beam="2">  1       -1 0.95900591E-02 0.27670145E+03</pdfrwt>
<totfact> 0.54994334E+03</totfact>
</mgrwt>
</event>
<event>
 9    1  0.8186049E-001  0.2707787E+03  0.7818608E-02  0.1100835E+00
          2   -1    0    0  501    0  0.00000000000E+00  0.00000000000E+00  0.14376957201E+04  0.14376957201E+04  0.00000000000E+00 0.  1.
         -2   -1    0    0    0  501 -0.00000000000E+00 -0.00000000000E+00 -0.12749759420E+02  0.12749759420E+02  0.00000000000E+00 0.  1.
         35    2    1    2    0    0  0.00000000000E+00 -0.71054273576E-14  0.14249459607E+04  0.14504454795E+04  0.27077868861E+03 0.  0.
         25    2    3    3    0    0  0.36979583371E+02  0.39702614754E+02  0.74174413825E+03  0.75409969431E+03  0.12465229694E+03 0.  0.
         25    2    3    3    0    0 -0.36979583371E+02 -0.39702614754E+02  0.68320182244E+03  0.69634578521E+03  0.12324339819E+03 0.  0.
          5    1    4    4  502    0  0.31077372437E+02 -0.27806577606E+02  0.95734954726E+02  0.10452884957E+03  0.47000000000E+01 0.  1.
         -5    1    4    4    0  502  0.59022109342E+01  0.67509192361E+02  0.64600918352E+03  0.64957084475E+03  0.47000000000E+01 0.  1.
          5    1    5    5  503    0  0.14947943751E+02 -0.36983821617E+02  0.57295202451E+03  0.57435821268E+03  0.47000000000E+01 0.  1.
         -5    1    5    5    0  503 -0.51927527122E+02 -0.27187931378E+01  0.11024979792E+03  0.12198757253E+03  0.47000000000E+01 0.  1.
<mgrwt>
<rscale>  0 0.27077869E+03</rscale>
<asrwt>0</asrwt>
<pdfrwt beam="1">  1        2 0.22118383E+00 0.27077869E+03</pdfrwt>
<pdfrwt beam="2">  1       -2 0.19615026E-02 0.27077869E+03</pdfrwt>
<totfact> 0.11720072E+04</totfact>
</mgrwt>
</event>
<event>
 9    1  0.8186049E-001  0.2746210E+03  0.7818608E-02  0.1098664E+00
         -1   -1    0    0    0  501 -0.00000000000E+00  0.00000000000E+00  0.16489990208E+02  0.16489990208E+02  0.00000000000E+00 0. -1.
          1   -1    0    0  501    0  0.00000000000E+00 -0.00000000000E+00 -0.11433709780E+04  0.11433709780E+04  0.00000000000E+00 0. -1.
         35    2    1    2    0    0 -0.35527136788E-14 -0.35527136788E-14 -0.11268809878E+04  0.11598609683E+04  0.27462102055E+03 0.  0.
         25    2    3    3    0    0  0.18652883467E+02  0.31672649992E+02 -0.75561318557E+03  0.76724158841E+03  0.12789559010E+03 0.  0.
         25    2    3    3    0    0 -0.18652883467E+02 -0.31672649992E+02 -0.37126780227E+03  0.39261937984E+03  0.12230743888E+03 0.  0.
          5    1    4    4  502    0  0.45250993109E+02  0.23207401479E+02 -0.71972206119E+03  0.72153182274E+03  0.47000000000E+01 0.  1.
         -5    1    4    4    0  502 -0.26598109642E+02  0.84652485130E+01 -0.35891124377E+02  0.45709765674E+02  0.47000000000E+01 0.  1.
          5    1    5    5  503    0  0.46743343265E+02 -0.10956065962E+02 -0.23598493456E+03  0.24086501377E+03  0.47000000000E+01 0.  1.
         -5    1    5    5    0  503 -0.65396226733E+02 -0.20716584030E+02 -0.13528286771E+03  0.15175436607E+03  0.47000000000E+01 0.  1.
<mgrwt>
<rscale>  0 0.27462102E+03</rscale>
<asrwt>0</asrwt>
<pdfrwt beam="1">  1        1 0.17590319E+00 0.27462102E+03</pdfrwt>
<pdfrwt beam="2">  1       -1 0.25369221E-02 0.27462102E+03</pdfrwt>
<totfact> 0.60670454E+03</totfact>
</mgrwt>
</event>
<event>
 9    1  0.8186049E-001  0.2769614E+03  0.7818608E-02  0.1097360E+00
         -2   -1    0    0    0  501 -0.00000000000E+00  0.00000000000E+00  0.34267446447E+02  0.34267446447E+02  0.00000000000E+00 0.  1.
          2   -1    0    0  501    0  0.00000000000E+00 -0.00000000000E+00 -0.55962448274E+03  0.55962448274E+03  0.00000000000E+00 0.  1.
         35    2    1    2    0    0 -0.66613381478E-14 -0.71054273576E-14 -0.52535703630E+03  0.59389192919E+03  0.27696138354E+03 0.  0.
         25    2    3    3    0    0  0.11864427275E+01 -0.55665879023E+02 -0.31134785796E+03  0.33990893547E+03  0.12450099607E+03 0.  0.
         25    2    3    3    0    0 -0.11864427275E+01  0.55665879023E+02 -0.21400917834E+03  0.25398299373E+03  0.12492931983E+03 0.  0.
          5    1    4    4  502    0 -0.42748487092E+02  0.18351429784E+02 -0.14800237720E+03  0.15521276294E+03  0.47000000000E+01 0. -1.
         -5    1    4    4    0  502  0.43934929819E+02 -0.74017308807E+02 -0.16334548076E+03  0.18469617252E+03  0.47000000000E+01 0. -1.
          5    1    5    5  503    0 -0.18208590348E+01  0.25677130509E+02 -0.22123207518E+03  0.22277421675E+03  0.47000000000E+01 0.  1.
         -5    1    5    5    0  503  0.63441630734E+00  0.29988748514E+02  0.72228968409E+01  0.31208776975E+02  0.47000000000E+01 0.  1.
<mgrwt>
<rscale>  0 0.27696138E+03</rscale>
<asrwt>0</asrwt>
<pdfrwt beam="1">  1        2 0.86096064E-01 0.27696138E+03</pdfrwt>
<pdfrwt beam="2">  1       -2 0.52719155E-02 0.27696138E+03</pdfrwt>
<totfact> 0.98342621E+03</totfact>
</mgrwt>
</event>
<event>
 9    1  0.8186049E-001  0.2734377E+03  0.7818608E-02  0.1099328E+00
         -1   -1    0    0    0  501 -0.00000000000E+00  0.00000000000E+00  0.26812509609E+02  0.26812509609E+02  0.00000000000E+00 0.  1.
          1   -1    0    0  501    0  0.00000000000E+00 -0.00000000000E+00 -0.69713914276E+03  0.69713914276E+03  0.00000000000E+00 0.  1.
         35    2    1    2    0    0  0.10658141036E-13  0.00000000000E+00 -0.67032663316E+03  0.72395165237E+03  0.27343774402E+03 0.  0.
         25    2    3    3    0    0  0.26448405503E+02 -0.48016655975E+02 -0.34938616582E+03  0.37481481767E+03  0.12413837953E+03 0.  0.
         25    2    3    3    0    0 -0.26448405503E+02  0.48016655975E+02 -0.32094046733E+03  0.34913683470E+03  0.12605010262E+03 0.  0.
          5    1    4    4  502    0 -0.45109432131E+02 -0.35934152391E+02 -0.20695753672E+03  0.21489447685E+03  0.47000000000E+01 0. -1.
         -5    1    4    4    0  502  0.71557837634E+02 -0.12082503584E+02 -0.14242862911E+03  0.15992034082E+03  0.47000000000E+01 0. -1.
          5    1    5    5  503    0  0.20560483085E+02  0.29950516325E+02 -0.28437386234E+03  0.28672347389E+03  0.47000000000E+01 0. -1.
         -5    1    5    5    0  503 -0.47008888588E+02  0.18066139651E+02 -0.36566604987E+02  0.62413360817E+02  0.47000000000E+01 0. -1.
<mgrwt>
<rscale>  0 0.27343774E+03</rscale>
<asrwt>0</asrwt>
<pdfrwt beam="1">  1        1 0.10725219E+00 0.27343774E+03</pdfrwt>
<pdfrwt beam="2">  1       -1 0.41250011E-02 0.27343774E+03</pdfrwt>
<totfact> 0.66410826E+03</totfact>
</mgrwt>
</event>
<event>
 9    1  0.8186049E-001  0.2750692E+03  0.7818608E-02  0.1098413E+00
          1   -1    0    0  501    0  0.00000000000E+00  0.00000000000E+00  0.65549894674E+03  0.65549894674E+03  0.00000000000E+00 0.  1.
         -1   -1    0    0    0  501 -0.00000000000E+00 -0.00000000000E+00 -0.28857044284E+02  0.28857044284E+02  0.00000000000E+00 0.  1.
         35    2    1    2    0    0  0.00000000000E+00  0.71054273576E-14  0.62664190245E+03  0.68435599102E+03  0.27506917046E+03 0.  0.
         25    2    3    3    0    0 -0.41743225516E+01  0.42247131224E+02  0.21668992629E+03  0.25366596577E+03  0.12485853182E+03 0.  0.
         25    2    3    3    0    0  0.41743225516E+01 -0.42247131224E+02  0.40995197616E+03  0.43069002525E+03  0.12502411778E+03 0.  0.
          5    1    4    4  502    0 -0.54830593189E+02  0.49965451876E+02  0.88744087776E+02  0.11576071633E+03  0.47000000000E+01 0.  1.
         -5    1    4    4    0  502  0.50656270637E+02 -0.77183206524E+01  0.12794583852E+03  0.13790524944E+03  0.47000000000E+01 0.  1.
          5    1    5    5  503    0  0.44440315642E+02 -0.69884764691E+02  0.25396820481E+03  0.26717178190E+03  0.47000000000E+01 0. -1.
         -5    1    5    5    0  503 -0.40265993091E+02  0.27637633467E+02  0.15598377135E+03  0.16351824335E+03  0.47000000000E+01 0. -1.
<mgrwt>
<rscale>  0 0.27506917E+03</rscale>
<asrwt>0</asrwt>
<pdfrwt beam="1">  1        1 0.10084598E+00 0.27506917E+03</pdfrwt>
<pdfrwt beam="2">  1       -1 0.44395458E-02 0.27506917E+03</pdfrwt>
<totfact> 0.65060861E+03</totfact>
</mgrwt>
</event>
<event>
 9    1  0.8186049E-001  0.3002753E+03  0.7818608E-02  0.1085103E+00
         -1   -1    0    0    0  501 -0.00000000000E+00  0.00000000000E+00  0.19142208488E+03  0.19142208488E+03  0.00000000000E+00 0. -1.
          1   -1    0    0  501    0  0.00000000000E+00 -0.00000000000E+00 -0.11775710738E+03  0.11775710738E+03  0.00000000000E+00 0. -1.
         35    2    1    2    0    0  0.17763568394E-14  0.00000000000E+00  0.73664977496E+02  0.30917919226E+03  0.30027528039E+03 0.  0.
         25    2    3    3    0    0 -0.80390742616E+01 -0.25498630800E+02  0.11781782618E+03  0.17423185942E+03  0.12554239835E+03 0.  0.
         25    2    3    3    0    0  0.80390742616E+01  0.25498630800E+02 -0.44152848685E+02  0.13494733284E+03  0.12468561146E+03 0.  0.
          5    1    4    4  502    0  0.20333842001E+02 -0.65083221172E+02  0.10205287563E+03  0.12282577186E+03  0.47000000000E+01 0.  1.
         -5    1    4    4    0  502 -0.28372916263E+02  0.39584590372E+02  0.15764950547E+02  0.51406087557E+02  0.47000000000E+01 0.  1.
          5    1    5    5  503    0  0.76759217209E+01 -0.29524939543E+02 -0.68088572661E+02  0.74758180530E+02  0.47000000000E+01 0.  1.
         -5    1    5    5    0  503  0.36315254068E+00  0.55023570343E+02  0.23935723976E+02  0.60189152306E+02  0.47000000000E+01 0.  1.
<mgrwt>
<rscale>  0 0.30027528E+03</rscale>
<asrwt>0</asrwt>
<pdfrwt beam="1">  1        1 0.18116478E-01 0.30027528E+03</pdfrwt>
<pdfrwt beam="2">  1       -1 0.29449552E-01 0.30027528E+03</pdfrwt>
<totfact> 0.30607427E+03</totfact>
</mgrwt>
</event>
<event>
 9    1  0.8186049E-001  0.2757111E+03  0.7818608E-02  0.1098055E+00
         -1   -1    0    0    0  501 -0.00000000000E+00  0.00000000000E+00  0.43580273036E+02  0.43580273036E+02  0.00000000000E+00 0.  1.
          1   -1    0    0  501    0  0.00000000000E+00 -0.00000000000E+00 -0.43607232521E+03  0.43607232521E+03  0.00000000000E+00 0.  1.
         35    2    1    2    0    0  0.71054273576E-14 -0.14210854715E-13 -0.39249205217E+03  0.47965259825E+03  0.27571108789E+03 0.  0.
         25    2    3    3    0    0 -0.26204535211E+01 -0.52856149696E+02 -0.20415559422E+03  0.24515453284E+03  0.12498239468E+03 0.  0.
         25    2    3    3    0    0  0.26204535211E+01  0.52856149696E+02 -0.18833645795E+03  0.23449806541E+03  0.12929842207E+03 0.  0.
          5    1    4    4  502    0  0.47767611691E+02  0.15170857520E+02 -0.87418594771E+02  0.10087616347E+03  0.47000000000E+01 0.  1.
         -5    1    4    4    0  502 -0.50388065212E+02 -0.68027007216E+02 -0.11673699945E+03  0.14427836937E+03  0.47000000000E+01 0.  1.
          5    1    5    5  503    0 -0.34805940787E+02  0.27551294149E+02 -0.41929571398E+01  0.44835234057E+02  0.47000000000E+01 0. -1.
         -5    1    5    5    0  503  0.37426394309E+02  0.25304855547E+02 -0.18414350081E+03  0.18966283135E+03  0.47000000000E+01 0. -1.
<mgrwt>
<rscale>  0 0.27571109E+03</rscale>
<asrwt>0</asrwt>
<pdfrwt beam="1">  1        1 0.67088051E-01 0.27571109E+03</pdfrwt>
<pdfrwt beam="2">  1       -1 0.67046573E-02 0.27571109E+03</pdfrwt>
<totfact> 0.60770742E+03</totfact>
</mgrwt>
</event>
<event>
 9    1  0.8186049E-001  0.2855413E+03  0.7818608E-02  0.1092700E+00
         -2   -1    0    0    0  501 -0.00000000000E+00  0.00000000000E+00  0.47330404981E+02  0.47330404981E+02  0.00000000000E+00 0.  1.
          2   -1    0    0  501    0  0.00000000000E+00 -0.00000000000E+00 -0.43066305329E+03  0.43066305329E+03  0.00000000000E+00 0.  1.
         35    2    1    2    0    0  0.00000000000E+00  0.00000000000E+00 -0.38333264831E+03  0.47799345827E+03  0.28554128754E+03 0.  0.
         25    2    3    3    0    0 -0.60112179988E+02  0.33513495397E+02 -0.22275394144E+03  0.26461507667E+03  0.12516066402E+03 0.  0.
         25    2    3    3    0    0  0.60112179988E+02 -0.33513495397E+02 -0.16057870687E+03  0.21337838160E+03  0.12250789394E+03 0.  0.
          5    1    4    4  502    0 -0.91385908818E+02  0.39418851071E+02 -0.20485368996E+03  0.22779893424E+03  0.47000000000E+01 0.  1.
         -5    1    4    4    0  502  0.31273728830E+02 -0.59053556735E+01 -0.17900251482E+02  0.36816142434E+02  0.47000000000E+01 0.  1.
          5    1    5    5  503    0  0.56347278950E+02  0.38298440725E+02 -0.83219621303E+02  0.10765399099E+03  0.47000000000E+01 0. -1.
         -5    1    5    5    0  503  0.37649010375E+01 -0.71811936122E+02 -0.77359085567E+02  0.10572439061E+03  0.47000000000E+01 0. -1.
<mgrwt>
<rscale>  0 0.28554129E+03</rscale>
<asrwt>0</asrwt>
<pdfrwt beam="1">  1        2 0.66255853E-01 0.28554129E+03</pdfrwt>
<pdfrwt beam="2">  1       -2 0.72816009E-02 0.28554129E+03</pdfrwt>
<totfact> 0.80274810E+03</totfact>
</mgrwt>
</event>
<event>
 9    1  0.8186049E-001  0.2778361E+03  0.7818608E-02  0.1096877E+00
         -2   -1    0    0    0  501 -0.00000000000E+00  0.00000000000E+00  0.42417998799E+02  0.42417998799E+02  0.00000000000E+00 0.  1.
          2   -1    0    0  501    0  0.00000000000E+00 -0.00000000000E+00 -0.45495378836E+03  0.45495378836E+03  0.00000000000E+00 0.  1.
         35    2    1    2    0    0  0.00000000000E+00 -0.71054273576E-14 -0.41253578956E+03  0.49737178716E+03  0.27783613335E+03 0.  0.
         25    2    3    3    0    0  0.37733590003E+02  0.38692165515E+02 -0.25480364149E+03  0.28890360802E+03  0.12497796414E+03 0.  0.
         25    2    3    3    0    0 -0.37733590003E+02 -0.38692165515E+02 -0.15773214807E+03  0.20846817915E+03  0.12513450241E+03 0.  0.
          5    1    4    4  502    0  0.57745055895E+02  0.44114903406E+02 -0.64082921996E+02  0.97001685936E+02  0.47000000000E+01 0.  1.
         -5    1    4    4    0  502 -0.20011465892E+02 -0.54227378910E+01 -0.19072071950E+03  0.19190192208E+03  0.47000000000E+01 0.  1.
          5    1    5    5  503    0 -0.44210163995E+02 -0.44097319210E+02 -0.13684652374E+02  0.64097362446E+02  0.47000000000E+01 0.  1.
         -5    1    5    5    0  503  0.64765739923E+01  0.54051536945E+01 -0.14404749570E+03  0.14437081670E+03  0.47000000000E+01 0.  1.
<mgrwt>
<rscale>  0 0.27783613E+03</rscale>
<asrwt>0</asrwt>
<pdfrwt beam="1">  1        2 0.69992887E-01 0.27783613E+03</pdfrwt>
<pdfrwt beam="2">  1       -2 0.65258463E-02 0.27783613E+03</pdfrwt>
<totfact> 0.89458486E+03</totfact>
</mgrwt>
</event>
<event>
 9    1  0.8186049E-001  0.2775038E+03  0.7818608E-02  0.1097060E+00
         -1   -1    0    0    0  501 -0.00000000000E+00  0.00000000000E+00  0.12618944584E+03  0.12618944584E+03  0.00000000000E+00 0.  1.
          1   -1    0    0  501    0  0.00000000000E+00 -0.00000000000E+00 -0.15256494439E+03  0.15256494439E+03  0.00000000000E+00 0.  1.
         35    2    1    2    0    0 -0.71054273576E-14  0.35527136788E-14 -0.26375498552E+02  0.27875439022E+03  0.27750377141E+03 0.  0.
         25    2    3    3    0    0  0.52143461365E+02 -0.20321996907E+01  0.17052184012E+02  0.13651263638E+03  0.12498740941E+03 0.  0.
         25    2    3    3    0    0 -0.52143461365E+02  0.20321996907E+01 -0.43427682564E+02  0.14224175385E+03  0.12499472999E+03 0.  0.
          5    1    4    4  502    0  0.65618805365E+02  0.21182765522E+02 -0.35215355906E+02  0.77567702456E+02  0.47000000000E+01 0.  1.
         -5    1    4    4    0  502 -0.13475344000E+02 -0.23214965213E+02  0.52267539917E+02  0.58944933919E+02  0.47000000000E+01 0.  1.
          5    1    5    5  503    0 -0.76619146819E+02  0.42502651244E+02 -0.24682507089E+02  0.91149795273E+02  0.47000000000E+01 0. -1.
         -5    1    5    5    0  503  0.24475685454E+02 -0.40470451554E+02 -0.18745175475E+02  0.51091958575E+02  0.47000000000E+01 0. -1.
<mgrwt>
<rscale>  0 0.27750377E+03</rscale>
<asrwt>0</asrwt>
<pdfrwt beam="1">  1        1 0.23471530E-01 0.27750377E+03</pdfrwt>
<pdfrwt beam="2">  1       -1 0.19413761E-01 0.27750377E+03</pdfrwt>
<totfact> 0.43675433E+03</totfact>
</mgrwt>
</event>
<event>
 9    1  0.8186049E-001  0.2732201E+03  0.7818608E-02  0.1099451E+00
          1   -1    0    0  501    0  0.00000000000E+00  0.00000000000E+00  0.73127767110E+03  0.73127767110E+03  0.00000000000E+00 0.  1.
         -1   -1    0    0    0  501 -0.00000000000E+00 -0.00000000000E+00 -0.25520135739E+02  0.25520135739E+02  0.00000000000E+00 0.  1.
         35    2    1    2    0    0  0.71054273576E-14  0.00000000000E+00  0.70575753536E+03  0.75679780683E+03  0.27322009757E+03 0.  0.
         25    2    3    3    0    0  0.31367804248E+02  0.43817058951E+02  0.32540396942E+03  0.35279588191E+03  0.12519311954E+03 0.  0.
         25    2    3    3    0    0 -0.31367804248E+02 -0.43817058951E+02  0.38035356594E+03  0.40400192493E+03  0.12507936050E+03 0.  0.
          5    1    4    4  502    0  0.65987010065E+02  0.53436739768E+01  0.26465808001E+03  0.27285312837E+03  0.47000000000E+01 0. -1.
         -5    1    4    4    0  502 -0.34619205817E+02  0.38473384974E+02  0.60745889407E+02  0.79942753534E+02  0.47000000000E+01 0. -1.
          5    1    5    5  503    0  0.48218880027E+02 -0.23781115550E+02  0.14737877337E+03  0.15694965654E+03  0.47000000000E+01 0.  1.
         -5    1    5    5    0  503 -0.79586684275E+02 -0.20035943401E+02  0.23297479257E+03  0.24705226839E+03  0.47000000000E+01 0.  1.
<mgrwt>
<rscale>  0 0.27322010E+03</rscale>
<asrwt>0</asrwt>
<pdfrwt beam="1">  1        1 0.11250424E+00 0.27322010E+03</pdfrwt>
<pdfrwt beam="2">  1       -1 0.39261753E-02 0.27322010E+03</pdfrwt>
<totfact> 0.66622146E+03</totfact>
</mgrwt>
</event>
<event>
 9    1  0.8186049E-001  0.2719741E+03  0.7818608E-02  0.1100155E+00
          1   -1    0    0  501    0  0.00000000000E+00  0.00000000000E+00  0.76168232717E+03  0.76168232717E+03  0.00000000000E+00 0.  1.
         -1   -1    0    0    0  501 -0.00000000000E+00 -0.00000000000E+00 -0.24278461420E+02  0.24278461420E+02  0.00000000000E+00 0.  1.
         35    2    1    2    0    0  0.00000000000E+00  0.00000000000E+00  0.73740386575E+03  0.78596078859E+03  0.27197407960E+03 0.  0.
         25    2    3    3    0    0 -0.19184313915E+02  0.47116302199E+02  0.31169819906E+03  0.33948622962E+03  0.12452770362E+03 0.  0.
         25    2    3    3    0    0  0.19184313915E+02 -0.47116302199E+02  0.42570566669E+03  0.44647455897E+03  0.12460430701E+03 0.  0.
          5    1    4    4  502    0  0.53473757086E+00 -0.42046829831E+02  0.82400413430E+02  0.92629044994E+02  0.47000000000E+01 0. -1.
         -5    1    4    4    0  502 -0.19719051485E+02  0.89163132029E+02  0.22929778563E+03  0.24685718462E+03  0.47000000000E+01 0. -1.
          5    1    5    5  503    0  0.49456879572E+02 -0.63946121936E+02  0.16898115829E+03  0.18738145934E+03  0.47000000000E+01 0. -1.
         -5    1    5    5    0  503 -0.30272565658E+02  0.16829819737E+02  0.25672450840E+03  0.25909309963E+03  0.47000000000E+01 0. -1.
<mgrwt>
<rscale>  0 0.27197408E+03</rscale>
<asrwt>0</asrwt>
<pdfrwt beam="1">  1        1 0.11718188E+00 0.27197408E+03</pdfrwt>
<pdfrwt beam="2">  1       -1 0.37351485E-02 0.27197408E+03</pdfrwt>
<totfact> 0.67497978E+03</totfact>
</mgrwt>
</event>
<event>
 9    1  0.8186049E-001  0.2767195E+03  0.7818608E-02  0.1097494E+00
          2   -1    0    0  501    0  0.00000000000E+00  0.00000000000E+00  0.44416204130E+03  0.44416204130E+03  0.00000000000E+00 0. -1.
         -2   -1    0    0    0  501 -0.00000000000E+00 -0.00000000000E+00 -0.43100077328E+02  0.43100077328E+02  0.00000000000E+00 0. -1.
         35    2    1    2    0    0 -0.71054273576E-14  0.00000000000E+00  0.40106196397E+03  0.48726211863E+03  0.27671948487E+03 0.  0.
         25    2    3    3    0    0  0.10806427696E+02  0.57804689877E+02  0.18495483896E+03  0.23114704158E+03  0.12554880057E+03 0.  0.
         25    2    3    3    0    0 -0.10806427696E+02 -0.57804689877E+02  0.21610712502E+03  0.25611507705E+03  0.12423559135E+03 0.  0.
          5    1    4    4  502    0 -0.42137348076E+02  0.11147339966E+01  0.16277253042E+02  0.45429480531E+02  0.47000000000E+01 0. -1.
         -5    1    4    4    0  502  0.52943775772E+02  0.56689955881E+02  0.16867758592E+03  0.18571756105E+03  0.47000000000E+01 0. -1.
          5    1    5    5  503    0 -0.45012784313E+02 -0.13841321795E+02  0.18738047579E+03  0.19326475532E+03  0.47000000000E+01 0. -1.
         -5    1    5    5    0  503  0.34206356617E+02 -0.43963368082E+02  0.28726649225E+02  0.62850321732E+02  0.47000000000E+01 0. -1.
<mgrwt>
<rscale>  0 0.27671948E+03</rscale>
<asrwt>0</asrwt>
<pdfrwt beam="1">  1        2 0.68332619E-01 0.27671948E+03</pdfrwt>
<pdfrwt beam="2">  1       -2 0.66307814E-02 0.27671948E+03</pdfrwt>
<totfact> 0.89608073E+03</totfact>
</mgrwt>
</event>
<event>
 9    1  0.8186049E-001  0.2649606E+03  0.7818608E-02  0.1104199E+00
          2   -1    0    0  501    0  0.00000000000E+00  0.00000000000E+00  0.21774417145E+04  0.21774417145E+04  0.00000000000E+00 0. -1.
         -2   -1    0    0    0  501 -0.00000000000E+00 -0.00000000000E+00 -0.80603924817E+01  0.80603924817E+01  0.00000000000E+00 0. -1.
         35    2    1    2    0    0  0.35527136788E-14  0.00000000000E+00  0.21693813220E+04  0.21855021070E+04  0.26496063727E+03 0.  0.
         25    2    3    3    0    0  0.10352994823E+02 -0.49440104711E+01  0.14341021727E+04  0.14395883308E+04  0.12503556523E+03 0.  0.
         25    2    3    3    0    0 -0.10352994823E+02  0.49440104711E+01  0.73527914928E+03  0.74591377619E+03  0.12498122417E+03 0.  0.
          5    1    4    4  502    0  0.31221589917E+02 -0.51184377930E+02  0.42889123487E+03  0.43308706927E+03  0.47000000000E+01 0.  1.
         -5    1    4    4    0  502 -0.20868595094E+02  0.46240367459E+02  0.10052109379E+04  0.10065012615E+04  0.47000000000E+01 0.  1.
          5    1    5    5  503    0 -0.61502541269E+02 -0.18176085767E+02  0.28737656539E+03  0.29448312857E+03  0.47000000000E+01 0. -1.
         -5    1    5    5    0  503  0.51149546446E+02  0.23120096238E+02  0.44790258389E+03  0.45143064761E+03  0.47000000000E+01 0. -1.
<mgrwt>
<rscale>  0 0.26496064E+03</rscale>
<asrwt>0</asrwt>
<pdfrwt beam="1">  1        2 0.33499056E+00 0.26496064E+03</pdfrwt>
<pdfrwt beam="2">  1       -2 0.12400621E-02 0.26496064E+03</pdfrwt>
<totfact> 0.93240738E+03</totfact>
</mgrwt>
</event>
<event>
 9    1  0.8186049E-001  0.2793403E+03  0.7818608E-02  0.1096050E+00
          2   -1    0    0  501    0  0.00000000000E+00  0.00000000000E+00  0.11639655054E+04  0.11639655054E+04  0.00000000000E+00 0.  1.
         -2   -1    0    0    0  501 -0.00000000000E+00 -0.00000000000E+00 -0.16759731384E+02  0.16759731384E+02  0.00000000000E+00 0.  1.
         35    2    1    2    0    0 -0.35527136788E-14 -0.14210854715E-13  0.11472057740E+04  0.11807252368E+04  0.27934028861E+03 0.  0.
         25    2    3    3    0    0  0.38340228886E+01  0.57396657391E+02  0.67583710479E+03  0.68974127814E+03  0.12521246960E+03 0.  0.
         25    2    3    3    0    0 -0.38340228886E+01 -0.57396657391E+02  0.47136866921E+03  0.49098395863E+03  0.12477078708E+03 0.  0.
          5    1    4    4  502    0  0.32323086471E+02  0.88588245580E+02  0.42854519890E+03  0.43882312687E+03  0.47000000000E+01 0. -1.
         -5    1    4    4    0  502 -0.28489063583E+02 -0.31191588188E+02  0.24729190589E+03  0.25091815127E+03  0.47000000000E+01 0. -1.
          5    1    5    5  503    0 -0.57779471306E+02 -0.48090915969E+02  0.19164408549E+03  0.20591442156E+03  0.47000000000E+01 0. -1.
         -5    1    5    5    0  503  0.53945448418E+02 -0.93057414224E+01  0.27972458372E+03  0.28506953707E+03  0.47000000000E+01 0. -1.
<mgrwt>
<rscale>  0 0.27934029E+03</rscale>
<asrwt>0</asrwt>
<pdfrwt beam="1">  1        2 0.17907155E+00 0.27934029E+03</pdfrwt>
<pdfrwt beam="2">  1       -2 0.25784211E-02 0.27934029E+03</pdfrwt>
<totfact> 0.11114482E+04</totfact>
</mgrwt>
</event>
<event>
 9    1  0.8186049E-001  0.2748375E+03  0.7818608E-02  0.1098542E+00
         -2   -1    0    0    0  501 -0.00000000000E+00  0.00000000000E+00  0.64944486005E+03  0.64944486005E+03  0.00000000000E+00 0.  1.
          2   -1    0    0  501    0  0.00000000000E+00 -0.00000000000E+00 -0.29077007097E+02  0.29077007097E+02  0.00000000000E+00 0.  1.
         35    2    1    2    0    0  0.00000000000E+00  0.00000000000E+00  0.62036785296E+03  0.67852186715E+03  0.27483749966E+03 0.  0.
         25    2    3    3    0    0  0.32158655763E+02 -0.45316265079E+01  0.18663384761E+03  0.22713320825E+03  0.12530996145E+03 0.  0.
         25    2    3    3    0    0 -0.32158655763E+02  0.45316265079E+01  0.43373400535E+03  0.45138865890E+03  0.12071379047E+03 0.  0.
          5    1    4    4  502    0  0.32226969481E+02  0.36081978704E+02  0.17907656890E+03  0.18555590607E+03  0.47000000000E+01 0. -1.
         -5    1    4    4    0  502 -0.68313718570E-01 -0.40613605211E+02  0.75572787100E+01  0.41577302180E+02  0.47000000000E+01 0. -1.
          5    1    5    5  503    0 -0.33930287248E+02  0.59446214850E+02  0.27168579180E+03  0.28021487526E+03  0.47000000000E+01 0. -1.
         -5    1    5    5    0  503  0.17716314857E+01 -0.54914588342E+02  0.16204821355E+03  0.17117378364E+03  0.47000000000E+01 0. -1.
<mgrwt>
<rscale>  0 0.27483750E+03</rscale>
<asrwt>0</asrwt>
<pdfrwt beam="1">  1        2 0.44733862E-02 0.27483750E+03</pdfrwt>
<pdfrwt beam="2">  1       -2 0.99914583E-01 0.27483750E+03</pdfrwt>
<totfact> 0.15659352E+03</totfact>
</mgrwt>
</event>
<event>
 9    1  0.8186049E-001  0.2789444E+03  0.7818608E-02  0.1096267E+00
          2   -1    0    0  501    0  0.00000000000E+00  0.00000000000E+00  0.12972511953E+04  0.12972511953E+04  0.00000000000E+00 0.  1.
         -2   -1    0    0    0  501 -0.00000000000E+00 -0.00000000000E+00 -0.14995166072E+02  0.14995166072E+02  0.00000000000E+00 0.  1.
         35    2    1    2    0    0  0.14210854715E-13  0.00000000000E+00  0.12822560292E+04  0.13122463614E+04  0.27894441820E+03 0.  0.
         25    2    3    3    0    0 -0.56540544755E+02  0.34296182754E+02  0.68184070111E+03  0.69543562396E+03  0.11979525882E+03 0.  0.
         25    2    3    3    0    0  0.56540544755E+02 -0.34296182754E+02  0.60041532814E+03  0.61681073743E+03  0.12483532429E+03 0.  0.
          5    1    4    4  502    0 -0.15235171740E+02  0.58470651174E+02  0.15535021133E+03  0.16675342775E+03  0.47000000000E+01 0. -1.
         -5    1    4    4    0  502 -0.41305373015E+02 -0.24174468420E+02  0.52649048977E+03  0.52868219621E+03  0.47000000000E+01 0. -1.
          5    1    5    5  503    0  0.59067488290E+01 -0.59329005638E+02  0.13124913327E+03  0.14423330259E+03  0.47000000000E+01 0.  1.
         -5    1    5    5    0  503  0.50633795926E+02  0.25032822884E+02  0.46916619487E+03  0.47257743484E+03  0.47000000000E+01 0.  1.
<mgrwt>
<rscale>  0 0.27894442E+03</rscale>
<asrwt>0</asrwt>
<pdfrwt beam="1">  1        2 0.19957702E+00 0.27894442E+03</pdfrwt>
<pdfrwt beam="2">  1       -2 0.23069497E-02 0.27894442E+03</pdfrwt>
<totfact> 0.11019803E+04</totfact>
</mgrwt>
</event>
<event>
 9    1  0.8186049E-001  0.2765020E+03  0.7818608E-02  0.1097615E+00
         -2   -1    0    0    0  501 -0.00000000000E+00  0.00000000000E+00  0.12434844856E+03  0.12434844856E+03  0.00000000000E+00 0. -1.
          2   -1    0    0  501    0  0.00000000000E+00 -0.00000000000E+00 -0.15370786916E+03  0.15370786916E+03  0.00000000000E+00 0. -1.
         35    2    1    2    0    0 -0.35527136788E-14  0.00000000000E+00 -0.29359420605E+02  0.27805631772E+03  0.27650197151E+03 0.  0.
         25    2    3    3    0    0  0.31639102751E+02  0.43217443404E+02 -0.21200104263E+02  0.13813033994E+03  0.12554587271E+03 0.  0.
         25    2    3    3    0    0 -0.31639102751E+02 -0.43217443404E+02 -0.81593163423E+01  0.13992597779E+03  0.12901133508E+03 0.  0.
          5    1    4    4  502    0  0.31454240280E+02 -0.13970743754E+02  0.40845099828E+02  0.53618682309E+02  0.47000000000E+01 0. -1.
         -5    1    4    4    0  502  0.18486247150E+00  0.57188187158E+02 -0.62045204091E+02  0.84511657629E+02  0.47000000000E+01 0. -1.
          5    1    5    5  503    0  0.42656560826E+02 -0.45779077057E+02 -0.16745124720E+02  0.64944555427E+02  0.47000000000E+01 0. -1.
         -5    1    5    5    0  503 -0.74295663577E+02  0.25616336535E+01  0.85858083777E+01  0.74981422358E+02  0.47000000000E+01 0. -1.
<mgrwt>
<rscale>  0 0.27650197E+03</rscale>
<asrwt>0</asrwt>
<pdfrwt beam="1">  1        2 0.23647364E-01 0.27650197E+03</pdfrwt>
<pdfrwt beam="2">  1       -2 0.19130531E-01 0.27650197E+03</pdfrwt>
<totfact> 0.51642252E+03</totfact>
</mgrwt>
</event>
<event>
 9    1  0.8186049E-001  0.2742409E+03  0.7818608E-02  0.1098877E+00
         -2   -1    0    0    0  501 -0.00000000000E+00  0.00000000000E+00  0.98252062205E+01  0.98252062205E+01  0.00000000000E+00 0. -1.
          2   -1    0    0  501    0  0.00000000000E+00 -0.00000000000E+00 -0.19136512204E+04  0.19136512204E+04  0.00000000000E+00 0. -1.
         35    2    1    2    0    0  0.10658141036E-13  0.00000000000E+00 -0.19038260142E+04  0.19234764266E+04  0.27424090048E+03 0.  0.
         25    2    3    3    0    0 -0.31281985575E+02 -0.29510094639E+02 -0.11902695734E+04  0.11978617145E+04  0.12759945683E+03 0.  0.
         25    2    3    3    0    0  0.31281985575E+02  0.29510094639E+02 -0.71355644073E+03  0.72561471208E+03  0.12451709910E+03 0.  0.
          5    1    4    4  502    0  0.24956584710E+02  0.19974158523E+02 -0.78723825856E+03  0.78790098608E+03  0.47000000000E+01 0.  1.
         -5    1    4    4    0  502 -0.56238570284E+02 -0.49484253162E+02 -0.40303131489E+03  0.40996072846E+03  0.47000000000E+01 0.  1.
          5    1    5    5  503    0  0.69612501432E+02  0.41112095098E+02 -0.59275100188E+03  0.59825742365E+03  0.47000000000E+01 0.  1.
         -5    1    5    5    0  503 -0.38330515857E+02 -0.11602000459E+02 -0.12080543885E+03  0.12735728843E+03  0.47000000000E+01 0.  1.
<mgrwt>
<rscale>  0 0.27424090E+03</rscale>
<asrwt>0</asrwt>
<pdfrwt beam="1">  1        2 0.29440785E+00 0.27424090E+03</pdfrwt>
<pdfrwt beam="2">  1       -2 0.15115704E-02 0.27424090E+03</pdfrwt>
<totfact> 0.96220357E+03</totfact>
</mgrwt>
</event>
<event>
 9    1  0.8186049E-001  0.2731720E+03  0.7818608E-02  0.1099478E+00
          1   -1    0    0  501    0  0.00000000000E+00  0.00000000000E+00  0.22430623618E+04  0.22430623618E+04  0.00000000000E+00 0. -1.
         -1   -1    0    0    0  501 -0.00000000000E+00 -0.00000000000E+00 -0.83170813901E+01  0.83170813901E+01  0.00000000000E+00 0. -1.
         35    2    1    2    0    0 -0.71054273576E-14  0.00000000000E+00  0.22347452804E+04  0.22513794432E+04  0.27317197679E+03 0.  0.
         25    2    3    3    0    0  0.51924908364E+02  0.17925304015E+02  0.12463900086E+04  0.12535986991E+04  0.12249135589E+03 0.  0.
         25    2    3    3    0    0 -0.51924908364E+02 -0.17925304015E+02  0.98835527180E+03  0.99778074406E+03  0.12531064315E+03 0.  0.
          5    1    4    4  502    0  0.10410126885E+02 -0.42952643710E+02  0.21372458975E+03  0.21829702382E+03  0.47000000000E+01 0. -1.
         -5    1    4    4    0  502  0.41514781479E+02  0.60877947725E+02  0.10326654189E+04  0.10353016753E+04  0.47000000000E+01 0. -1.
          5    1    5    5  503    0  0.32721391324E+02 -0.29238900754E+02  0.50430872503E+03  0.50623609404E+03  0.47000000000E+01 0.  1.
         -5    1    5    5    0  503 -0.84646299689E+02  0.11313596739E+02  0.48404654678E+03  0.49154465003E+03  0.47000000000E+01 0.  1.
<mgrwt>
<rscale>  0 0.27317198E+03</rscale>
<asrwt>0</asrwt>
<pdfrwt beam="1">  1        1 0.34508603E+00 0.27317198E+03</pdfrwt>
<pdfrwt beam="2">  1       -1 0.12795528E-02 0.27317198E+03</pdfrwt>
<totfact> 0.30816524E+03</totfact>
</mgrwt>
</event>
<event>
 9    1  0.8186049E-001  0.2774662E+03  0.7818608E-02  0.1097081E+00
          1   -1    0    0  501    0  0.00000000000E+00  0.00000000000E+00  0.27959503167E+03  0.27959503167E+03  0.00000000000E+00 0. -1.
         -1   -1    0    0    0  501 -0.00000000000E+00 -0.00000000000E+00 -0.68838403800E+02  0.68838403800E+02  0.00000000000E+00 0. -1.
         35    2    1    2    0    0  0.00000000000E+00  0.00000000000E+00  0.21075662787E+03  0.34843343547E+03  0.27746621914E+03 0.  0.
         25    2    3    3    0    0 -0.53533323894E+02 -0.35211797734E+01  0.14094195869E+03  0.19569014922E+03  0.12470678934E+03 0.  0.
         25    2    3    3    0    0  0.53533323894E+02  0.35211797734E+01  0.69814669173E+02  0.15274328625E+03  0.12481269161E+03 0.  0.
          5    1    4    4  502    0 -0.34047277996E+02  0.40082016433E+02  0.68173900231E+01  0.53238632467E+02  0.47000000000E+01 0.  1.
         -5    1    4    4    0  502 -0.19486045898E+02 -0.43603196206E+02  0.13412456867E+03  0.14245151675E+03  0.47000000000E+01 0.  1.
          5    1    5    5  503    0 -0.29296850046E+02 -0.18357147040E+02 -0.92211151969E+01  0.36088907375E+02  0.47000000000E+01 0.  1.
         -5    1    5    5    0  503  0.82830173940E+02  0.21878326813E+02  0.79035784370E+02  0.11665437887E+03  0.47000000000E+01 0.  1.
<mgrwt>
<rscale>  0 0.27746622E+03</rscale>
<asrwt>0</asrwt>
<pdfrwt beam="1">  1        1 0.43014620E-01 0.27746622E+03</pdfrwt>
<pdfrwt beam="2">  1       -1 0.10590524E-01 0.27746622E+03</pdfrwt>
<totfact> 0.53073083E+03</totfact>
</mgrwt>
</event>
<event>
 9    1  0.8186049E-001  0.2751482E+03  0.7818608E-02  0.1098369E+00
          3   -1    0    0  501    0  0.00000000000E+00  0.00000000000E+00  0.51679417213E+03  0.51679417213E+03  0.00000000000E+00 0.  1.
         -3   -1    0    0    0  501 -0.00000000000E+00 -0.00000000000E+00 -0.36623143062E+02  0.36623143062E+02  0.00000000000E+00 0.  1.
         35    2    1    2    0    0  0.71054273576E-14  0.00000000000E+00  0.48017102907E+03  0.55341731519E+03  0.27514815572E+03 0.  0.
         25    2    3    3    0    0  0.35660837971E+02  0.25922752124E+02  0.15981585931E+03  0.20772226853E+03  0.12515489409E+03 0.  0.
         25    2    3    3    0    0 -0.35660837971E+02 -0.25922752124E+02  0.32035516975E+03  0.34569504665E+03  0.12220452549E+03 0.  0.
          5    1    4    4  502    0 -0.10293455967E+01 -0.42706046215E+02  0.19480793525E+02  0.47185349973E+02  0.47000000000E+01 0.  1.
         -5    1    4    4    0  502  0.36690183567E+02  0.68628798339E+02  0.14033506579E+03  0.16053691856E+03  0.47000000000E+01 0.  1.
          5    1    5    5  503    0 -0.54798657551E+02 -0.16067879607E+02  0.54990859927E+02  0.79417594398E+02  0.47000000000E+01 0. -1.
         -5    1    5    5    0  503  0.19137819580E+02 -0.98548725168E+01  0.26536430983E+03  0.26627745226E+03  0.47000000000E+01 0. -1.
<mgrwt>
<rscale>  0 0.27514816E+03</rscale>
<asrwt>0</asrwt>
<pdfrwt beam="1">  1        3 0.79506791E-01 0.27514816E+03</pdfrwt>
<pdfrwt beam="2">  1       -3 0.56343301E-02 0.27514816E+03</pdfrwt>
<totfact> 0.72385406E+02</totfact>
</mgrwt>
</event>
<event>
 9    1  0.8186049E-001  0.2756414E+03  0.7818608E-02  0.1098094E+00
         -2   -1    0    0    0  501 -0.00000000000E+00  0.00000000000E+00  0.15056226994E+02  0.15056226994E+02  0.00000000000E+00 0.  1.
          2   -1    0    0  501    0  0.00000000000E+00 -0.00000000000E+00 -0.12615738682E+04  0.12615738682E+04  0.00000000000E+00 0.  1.
         35    2    1    2    0    0 -0.71054273576E-14  0.71054273576E-14 -0.12465176412E+04  0.12766300951E+04  0.27564137954E+03 0.  0.
         25    2    3    3    0    0  0.31455772974E+02 -0.56154781338E+02 -0.57097551177E+03  0.58675127445E+03  0.11883264665E+03 0.  0.
         25    2    3    3    0    0 -0.31455772974E+02  0.56154781338E+02 -0.67554212939E+03  0.68987882069E+03  0.12422879515E+03 0.  0.
          5    1    4    4  502    0 -0.34907037331E+02  0.13498397500E+02 -0.19642475191E+03  0.20001370242E+03  0.47000000000E+01 0. -1.
         -5    1    4    4    0  502  0.66362810306E+02 -0.69653178838E+02 -0.37455075986E+03  0.38673757204E+03  0.47000000000E+01 0. -1.
          5    1    5    5  503    0 -0.16308013989E+02  0.47356061596E+02 -0.82969859338E+02  0.97029044357E+02  0.47000000000E+01 0.  1.
         -5    1    5    5    0  503 -0.15147758985E+02  0.87987197416E+01 -0.59257227005E+03  0.59284977634E+03  0.47000000000E+01 0.  1.
<mgrwt>
<rscale>  0 0.27564138E+03</rscale>
<asrwt>0</asrwt>
<pdfrwt beam="1">  1        2 0.19408823E+00 0.27564138E+03</pdfrwt>
<pdfrwt beam="2">  1       -2 0.23163432E-02 0.27564138E+03</pdfrwt>
<totfact> 0.11462959E+04</totfact>
</mgrwt>
</event>
<event>
 9    1  0.8186049E-001  0.2751054E+03  0.7818608E-02  0.1098393E+00
         -2   -1    0    0    0  501 -0.00000000000E+00  0.00000000000E+00  0.35235130221E+02  0.35235130221E+02  0.00000000000E+00 0. -1.
          2   -1    0    0  501    0  0.00000000000E+00 -0.00000000000E+00 -0.53698534591E+03  0.53698534591E+03  0.00000000000E+00 0. -1.
         35    2    1    2    0    0  0.00000000000E+00  0.00000000000E+00 -0.50175021569E+03  0.57222047613E+03  0.27510542408E+03 0.  0.
         25    2    3    3    0    0 -0.12106603139E+02 -0.73210626582E+01 -0.13374585483E+03  0.18378778216E+03  0.12525904115E+03 0.  0.
         25    2    3    3    0    0  0.12106603139E+02  0.73210626582E+01 -0.36800436086E+03  0.38843269397E+03  0.12350133737E+03 0.  0.
          5    1    4    4  502    0  0.30752413815E+02 -0.51943606373E+02 -0.44720067258E+02  0.75271665413E+02  0.47000000000E+01 0. -1.
         -5    1    4    4    0  502 -0.42859016954E+02  0.44622543715E+02 -0.89025787571E+02  0.10851611675E+03  0.47000000000E+01 0. -1.
          5    1    5    5  503    0  0.29918705708E+00 -0.52766690501E+02 -0.96670178652E+02  0.11023441649E+03  0.47000000000E+01 0. -1.
         -5    1    5    5    0  503  0.11807416082E+02  0.60087753159E+02 -0.27133418221E+03  0.27819827747E+03  0.47000000000E+01 0. -1.
<mgrwt>
<rscale>  0 0.27510542E+03</rscale>
<asrwt>0</asrwt>
<pdfrwt beam="1">  1        2 0.82613128E-01 0.27510542E+03</pdfrwt>
<pdfrwt beam="2">  1       -2 0.54207894E-02 0.27510542E+03</pdfrwt>
<totfact> 0.98764014E+03</totfact>
</mgrwt>
</event>
<event>
 9    1  0.8186049E-001  0.2769575E+03  0.7818608E-02  0.1097362E+00
         -2   -1    0    0    0  501 -0.00000000000E+00  0.00000000000E+00  0.74521009415E+01  0.74521009415E+01  0.00000000000E+00 0. -1.
          2   -1    0    0  501    0  0.00000000000E+00 -0.00000000000E+00 -0.25732829303E+04  0.25732829303E+04  0.00000000000E+00 0. -1.
         35    2    1    2    0    0  0.71054273576E-14  0.00000000000E+00 -0.25658308293E+04  0.25807350312E+04  0.27695749961E+03 0.  0.
         25    2    3    3    0    0  0.19216333119E+02 -0.75779608881E+01 -0.17803026267E+04  0.17850105411E+04  0.12790033685E+03 0.  0.
         25    2    3    3    0    0 -0.19216333119E+02  0.75779608881E+01 -0.78552820258E+03  0.79572449008E+03  0.12528453267E+03 0.  0.
          5    1    4    4  502    0 -0.53388765488E+01 -0.54129576095E+02 -0.40138779894E+03  0.40508365772E+03  0.47000000000E+01 0. -1.
         -5    1    4    4    0  502  0.24555209668E+02  0.46551615207E+02 -0.13789148278E+04  0.13799268834E+04  0.47000000000E+01 0. -1.
          5    1    5    5  503    0 -0.55098582199E+02 -0.39212479928E+02 -0.41038333514E+03  0.41594476088E+03  0.47000000000E+01 0. -1.
         -5    1    5    5    0  503  0.35882249080E+02  0.46790440816E+02 -0.37514486743E+03  0.37977972920E+03  0.47000000000E+01 0. -1.
<mgrwt>
<rscale>  0 0.27695750E+03</rscale>
<asrwt>0</asrwt>
<pdfrwt beam="1">  1        2 0.39589020E+00 0.27695750E+03</pdfrwt>
<pdfrwt beam="2">  1       -2 0.11464756E-02 0.27695750E+03</pdfrwt>
<totfact> 0.63857440E+03</totfact>
</mgrwt>
</event>
<event>
 9    1  0.8186049E-001  0.2727406E+03  0.7818608E-02  0.1099721E+00
         -2   -1    0    0    0  501 -0.00000000000E+00  0.00000000000E+00  0.20020211913E+02  0.20020211913E+02  0.00000000000E+00 0. -1.
          2   -1    0    0  501    0  0.00000000000E+00 -0.00000000000E+00 -0.92890441026E+03  0.92890441026E+03  0.00000000000E+00 0. -1.
         35    2    1    2    0    0  0.00000000000E+00  0.00000000000E+00 -0.90888419835E+03  0.94892462218E+03  0.27274063240E+03 0.  0.
         25    2    3    3    0    0 -0.36039364365E+02 -0.40166842690E+02 -0.48792200702E+03  0.50639118639E+03  0.12430582324E+03 0.  0.
         25    2    3    3    0    0  0.36039364365E+02  0.40166842690E+02 -0.42096219133E+03  0.44253343578E+03  0.12535734608E+03 0.  0.
          5    1    4    4  502    0 -0.26030174592E+02  0.39513315618E+02 -0.10733959740E+03  0.11739996282E+03  0.47000000000E+01 0. -1.
         -5    1    4    4    0  502 -0.10009189773E+02 -0.79680158308E+02 -0.38058240962E+03  0.38899122358E+03  0.47000000000E+01 0. -1.
          5    1    5    5  503    0  0.27493126428E+02  0.69876019657E+02 -0.13241515028E+03  0.15229705232E+03  0.47000000000E+01 0. -1.
         -5    1    5    5    0  503  0.85462379371E+01 -0.29709176967E+02 -0.28854704106E+03  0.29023638346E+03  0.47000000000E+01 0. -1.
<mgrwt>
<rscale>  0 0.27274063E+03</rscale>
<asrwt>0</asrwt>
<pdfrwt beam="1">  1        2 0.14290835E+00 0.27274063E+03</pdfrwt>
<pdfrwt beam="2">  1       -2 0.30800330E-02 0.27274063E+03</pdfrwt>
<totfact> 0.11812468E+04</totfact>
</mgrwt>
</event>
<event>
 9    1  0.8186049E-001  0.2764046E+03  0.7818608E-02  0.1097669E+00
         -1   -1    0    0    0  501 -0.00000000000E+00  0.00000000000E+00  0.18523683801E+03  0.18523683801E+03  0.00000000000E+00 0.  1.
          1   -1    0    0  501    0  0.00000000000E+00 -0.00000000000E+00 -0.10311057544E+03  0.10311057544E+03  0.00000000000E+00 0.  1.
         35    2    1    2    0    0  0.00000000000E+00 -0.71054273576E-14  0.82126262572E+02  0.28834741345E+03  0.27640460894E+03 0.  0.
         25    2    3    3    0    0 -0.21700368228E+02  0.20883134334E+02 -0.12272052903E+02  0.12932057880E+03  0.12516468167E+03 0.  0.
         25    2    3    3    0    0  0.21700368228E+02 -0.20883134334E+02  0.94398315475E+02  0.15902683466E+03  0.12438440777E+03 0.  0.
          5    1    4    4  502    0 -0.14054717379E+02 -0.37991867657E+02 -0.45518363539E+02  0.61114061459E+02  0.47000000000E+01 0. -1.
         -5    1    4    4    0  502 -0.76456508492E+01  0.58875001991E+02  0.33246310636E+02  0.68206517338E+02  0.47000000000E+01 0. -1.
          5    1    5    5  503    0 -0.98131631617E+01 -0.58543345723E+02  0.92062378405E+02  0.10964120128E+03  0.47000000000E+01 0.  1.
         -5    1    5    5    0  503  0.31513531390E+02  0.37660211389E+02  0.23359370699E+01  0.49385633382E+02  0.47000000000E+01 0.  1.
<mgrwt>
<rscale>  0 0.27640461E+03</rscale>
<asrwt>0</asrwt>
<pdfrwt beam="1">  1        1 0.15863165E-01 0.27640461E+03</pdfrwt>
<pdfrwt beam="2">  1       -1 0.28497975E-01 0.27640461E+03</pdfrwt>
<totfact> 0.38402026E+03</totfact>
</mgrwt>
</event>
<event>
 9    1  0.8186049E-001  0.2730637E+03  0.7818608E-02  0.1099539E+00
          2   -1    0    0  501    0  0.00000000000E+00  0.00000000000E+00  0.15716293044E+03  0.15716293044E+03  0.00000000000E+00 0. -1.
         -2   -1    0    0    0  501 -0.00000000000E+00 -0.00000000000E+00 -0.11860904192E+03  0.11860904192E+03  0.00000000000E+00 0. -1.
         35    2    1    2    0    0  0.00000000000E+00 -0.14210854715E-13  0.38553888519E+02  0.27577197236E+03  0.27306368931E+03 0.  0.
         25    2    3    3    0    0  0.23427902541E+02  0.39954844829E+02  0.46128082176E+02  0.14149181639E+03  0.12548656461E+03 0.  0.
         25    2    3    3    0    0 -0.23427902541E+02 -0.39954844829E+02 -0.75741936575E+01  0.13428015597E+03  0.12581150836E+03 0.  0.
          5    1    4    4  502    0  0.10178105851E+02  0.63214368172E+02  0.77070971656E+02  0.10030790026E+03  0.47000000000E+01 0. -1.
         -5    1    4    4    0  502  0.13249796690E+02 -0.23259523343E+02 -0.30942889480E+02  0.41183916130E+02  0.47000000000E+01 0. -1.
          5    1    5    5  503    0  0.20377097181E+02  0.37131958043E+02  0.99908797945E+01  0.43771178608E+02  0.47000000000E+01 0.  1.
         -5    1    5    5    0  503 -0.43804999722E+02 -0.77086802872E+02 -0.17565073452E+02  0.90508977362E+02  0.47000000000E+01 0.  1.
<mgrwt>
<rscale>  0 0.27306369E+03</rscale>
<asrwt>0</asrwt>
<pdfrwt beam="1">  1        2 0.24178912E-01 0.27306369E+03</pdfrwt>
<pdfrwt beam="2">  1       -2 0.18247545E-01 0.27306369E+03</pdfrwt>
<totfact> 0.54546351E+03</totfact>
</mgrwt>
</event>
<event>
 9    1  0.8186049E-001  0.2762797E+03  0.7818608E-02  0.1097738E+00
          1   -1    0    0  501    0  0.00000000000E+00  0.00000000000E+00  0.15211791641E+04  0.15211791641E+04  0.00000000000E+00 0. -1.
         -1   -1    0    0    0  501 -0.00000000000E+00 -0.00000000000E+00 -0.12544618969E+02  0.12544618969E+02  0.00000000000E+00 0. -1.
         35    2    1    2    0    0  0.00000000000E+00  0.35527136788E-14  0.15086345452E+04  0.15337237831E+04  0.27627966265E+03 0.  0.
         25    2    3    3    0    0 -0.47264411954E+02  0.27440542798E+02  0.88445675923E+03  0.89484154353E+03  0.12446172525E+03 0.  0.
         25    2    3    3    0    0  0.47264411954E+02 -0.27440542798E+02  0.62417778595E+03  0.63888223959E+03  0.12484269928E+03 0.  0.
          5    1    4    4  502    0 -0.37068076120E+02  0.49092426161E+02  0.85205807918E+03  0.85428869176E+03  0.47000000000E+01 0. -1.
         -5    1    4    4    0  502 -0.10196335833E+02 -0.21651883363E+02  0.32398680048E+02  0.40552851767E+02  0.47000000000E+01 0. -1.
          5    1    5    5  503    0  0.18490705905E+02 -0.19609382057E+02  0.19851620964E+02  0.33802528374E+02  0.47000000000E+01 0. -1.
         -5    1    5    5    0  503  0.28773706049E+02 -0.78311607403E+01  0.60432616499E+03  0.60507971122E+03  0.47000000000E+01 0. -1.
<mgrwt>
<rscale>  0 0.27627966E+03</rscale>
<asrwt>0</asrwt>
<pdfrwt beam="1">  1        1 0.23402742E+00 0.27627966E+03</pdfrwt>
<pdfrwt beam="2">  1       -1 0.19299426E-02 0.27627966E+03</pdfrwt>
<totfact> 0.50058772E+03</totfact>
</mgrwt>
</event>
<event>
 9    1  0.8186049E-001  0.2767698E+03  0.7818608E-02  0.1097466E+00
         -2   -1    0    0    0  501 -0.00000000000E+00  0.00000000000E+00  0.74647676501E+03  0.74647676501E+03  0.00000000000E+00 0. -1.
          2   -1    0    0  501    0  0.00000000000E+00 -0.00000000000E+00 -0.25654362704E+02  0.25654362704E+02  0.00000000000E+00 0. -1.
         35    2    1    2    0    0  0.00000000000E+00  0.35527136788E-14  0.72082240231E+03  0.77213112771E+03  0.27676983708E+03 0.  0.
         25    2    3    3    0    0  0.37526508784E+02 -0.15838878575E+02  0.23875583972E+03  0.27237874141E+03  0.12460625521E+03 0.  0.
         25    2    3    3    0    0 -0.37526508784E+02  0.15838878575E+02  0.48206656259E+03  0.49975238630E+03  0.12532026139E+03 0.  0.
          5    1    4    4  502    0 -0.56110673281E+01  0.50092492763E+02  0.11423255483E+03  0.12494762299E+03  0.47000000000E+01 0.  1.
         -5    1    4    4    0  502  0.43137576112E+02 -0.65931371338E+02  0.12452328489E+03  0.14743111842E+03  0.47000000000E+01 0.  1.
          5    1    5    5  503    0  0.30339792274E+02 -0.16746011238E+02  0.49199401632E+02  0.60362264773E+02  0.47000000000E+01 0. -1.
         -5    1    5    5    0  503 -0.67866301059E+02  0.32584889813E+02  0.43286716096E+03  0.43939012153E+03  0.47000000000E+01 0. -1.
<mgrwt>
<rscale>  0 0.27676984E+03</rscale>
<asrwt>0</asrwt>
<pdfrwt beam="1">  1        2 0.39468256E-02 0.27676984E+03</pdfrwt>
<pdfrwt beam="2">  1       -2 0.11484256E+00 0.27676984E+03</pdfrwt>
<totfact> 0.13328206E+03</totfact>
</mgrwt>
</event>
<event>
 9    1  0.8186049E-001  0.2748382E+03  0.7818608E-02  0.1098542E+00
          3   -1    0    0  501    0  0.00000000000E+00  0.00000000000E+00  0.42039851271E+02  0.42039851271E+02  0.00000000000E+00 0.  1.
         -3   -1    0    0    0  501 -0.00000000000E+00 -0.00000000000E+00 -0.44919310240E+03  0.44919310240E+03  0.00000000000E+00 0.  1.
         35    2    1    2    0    0  0.00000000000E+00  0.18873791419E-14 -0.40715325113E+03  0.49123295367E+03  0.27483821580E+03 0.  0.
         25    2    3    3    0    0 -0.57234739264E+02 -0.89363114493E+00 -0.19689140850E+03  0.24028257942E+03  0.12527121488E+03 0.  0.
         25    2    3    3    0    0  0.57234739264E+02  0.89363114493E+00 -0.21026184263E+03  0.25095037425E+03  0.12445655432E+03 0.  0.
          5    1    4    4  502    0 -0.75632879787E+02 -0.43455243843E+02 -0.10010754226E+03  0.13286196122E+03  0.47000000000E+01 0. -1.
         -5    1    4    4    0  502  0.18398140523E+02  0.42561612698E+02 -0.96783866242E+02  0.10742061820E+03  0.47000000000E+01 0. -1.
          5    1    5    5  503    0  0.60496109264E+02 -0.98848245124E+00 -0.25070397502E+02  0.65661032314E+02  0.47000000000E+01 0.  1.
         -5    1    5    5    0  503 -0.32613700000E+01  0.18821135962E+01 -0.18519144513E+03  0.18528934193E+03  0.47000000000E+01 0.  1.
<mgrwt>
<rscale>  0 0.27483822E+03</rscale>
<asrwt>0</asrwt>
<pdfrwt beam="1">  1        3 0.64676697E-02 0.27483822E+03</pdfrwt>
<pdfrwt beam="2">  1       -3 0.69106629E-01 0.27483822E+03</pdfrwt>
<totfact> 0.78351717E+02</totfact>
</mgrwt>
</event>
<event>
 9    1  0.8186049E-001  0.2735457E+03  0.7818608E-02  0.1099267E+00
          2   -1    0    0  501    0  0.00000000000E+00  0.00000000000E+00  0.15900942392E+03  0.15900942392E+03  0.00000000000E+00 0.  1.
         -2   -1    0    0    0  501 -0.00000000000E+00 -0.00000000000E+00 -0.11764597241E+03  0.11764597241E+03  0.00000000000E+00 0.  1.
         35    2    1    2    0    0  0.71054273576E-14 -0.35527136788E-14  0.41363451506E+02  0.27665539633E+03  0.27354574242E+03 0.  0.
         25    2    3    3    0    0  0.35294267333E+02  0.25095744415E+02  0.11687189364E+01  0.13870667508E+03  0.13176757611E+03 0.  0.
         25    2    3    3    0    0 -0.35294267333E+02 -0.25095744415E+02  0.40194732570E+02  0.13794872125E+03  0.12465452849E+03 0.  0.
          5    1    4    4  502    0 -0.28606724056E+02  0.49538362855E+02  0.29467404773E+02  0.64519857406E+02  0.47000000000E+01 0. -1.
         -5    1    4    4    0  502  0.63900991390E+02 -0.24442618440E+02 -0.28298685837E+02  0.74186817676E+02  0.47000000000E+01 0. -1.
          5    1    5    5  503    0 -0.46466112576E+02 -0.68790593495E+02  0.40761706485E+02  0.92600497228E+02  0.47000000000E+01 0. -1.
         -5    1    5    5    0  503  0.11171845242E+02  0.43694849080E+02 -0.56697391509E+00  0.45348224019E+02  0.47000000000E+01 0. -1.
<mgrwt>
<rscale>  0 0.27354574E+03</rscale>
<asrwt>0</asrwt>
<pdfrwt beam="1">  1        2 0.24462988E-01 0.27354574E+03</pdfrwt>
<pdfrwt beam="2">  1       -2 0.18099380E-01 0.27354574E+03</pdfrwt>
<totfact> 0.54586960E+03</totfact>
</mgrwt>
</event>
<event>
 9    1  0.8186049E-001  0.2793007E+03  0.7818608E-02  0.1096071E+00
          3   -1    0    0  501    0  0.00000000000E+00  0.00000000000E+00  0.47723775659E+02  0.47723775659E+02  0.00000000000E+00 0. -1.
         -3   -1    0    0    0  501 -0.00000000000E+00 -0.00000000000E+00 -0.40864793520E+03  0.40864793520E+03  0.00000000000E+00 0. -1.
         35    2    1    2    0    0  0.00000000000E+00  0.00000000000E+00 -0.36092415954E+03  0.45637171086E+03  0.27930071524E+03 0.  0.
         25    2    3    3    0    0 -0.37220446718E+01  0.43784184456E+02 -0.10951068508E+03  0.17185997713E+03  0.12494940244E+03 0.  0.
         25    2    3    3    0    0  0.37220446718E+01 -0.43784184456E+02 -0.25141347446E+03  0.28451173372E+03  0.12572701802E+03 0.  0.
          5    1    4    4  502    0  0.19248367316E+01 -0.86087499032E+01  0.25212302265E+02  0.27121315544E+02  0.47000000000E+01 0.  1.
         -5    1    4    4    0  502 -0.56468814034E+01  0.52392934360E+02 -0.13472298734E+03  0.14473866159E+03  0.47000000000E+01 0.  1.
          5    1    5    5  503    0  0.28946000768E+02 -0.27994692310E+02 -0.25113178908E+03  0.25438325268E+03  0.47000000000E+01 0. -1.
         -5    1    5    5    0  503 -0.25223956096E+02 -0.15789492146E+02 -0.28168538324E+00  0.30128481045E+02  0.47000000000E+01 0. -1.
<mgrwt>
<rscale>  0 0.27930072E+03</rscale>
<asrwt>0</asrwt>
<pdfrwt beam="1">  1        3 0.73421190E-02 0.27930072E+03</pdfrwt>
<pdfrwt beam="2">  1       -3 0.62868916E-01 0.27930072E+03</pdfrwt>
<totfact> 0.78005006E+02</totfact>
</mgrwt>
</event>
<event>
 9    1  0.8186049E-001  0.2622069E+03  0.7818608E-02  0.1105824E+00
          2   -1    0    0  501    0  0.00000000000E+00  0.00000000000E+00  0.31664121256E+04  0.31664121256E+04  0.00000000000E+00 0. -1.
         -2   -1    0    0    0  501 -0.00000000000E+00 -0.00000000000E+00 -0.54282632369E+01  0.54282632369E+01  0.00000000000E+00 0. -1.
         35    2    1    2    0    0  0.00000000000E+00  0.00000000000E+00  0.31609838624E+04  0.31718403888E+04  0.26220693000E+03 0.  0.
         25    2    3    3    0    0 -0.93792759168E+01  0.14581065894E+01  0.20383316956E+04  0.20421743415E+04  0.12485929148E+03 0.  0.
         25    2    3    3    0    0  0.93792759168E+01 -0.14581065894E+01  0.11226521667E+04  0.11296660474E+04  0.12532914348E+03 0.  0.
          5    1    4    4  502    0 -0.10989401690E+02  0.13124455538E+02  0.39533955546E+02  0.43336381065E+02  0.47000000000E+01 0.  1.
         -5    1    4    4    0  502  0.16101257735E+01 -0.11666348948E+02  0.19987977401E+04  0.19988379604E+04  0.47000000000E+01 0.  1.
          5    1    5    5  503    0 -0.55940640337E+02  0.55707670949E+01  0.38995938691E+03  0.39401878398E+03  0.47000000000E+01 0. -1.
         -5    1    5    5    0  503  0.65319916253E+02 -0.70288736843E+01  0.73269277981E+03  0.73564726337E+03  0.47000000000E+01 0. -1.
<mgrwt>
<rscale>  0 0.26220693E+03</rscale>
<asrwt>0</asrwt>
<pdfrwt beam="1">  1        2 0.48713885E+00 0.26220693E+03</pdfrwt>
<pdfrwt beam="2">  1       -2 0.83511995E-03 0.26220693E+03</pdfrwt>
<totfact> 0.45850313E+03</totfact>
</mgrwt>
</event>
<event>
 9    1  0.8186049E-001  0.2844711E+03  0.7818608E-02  0.1093272E+00
          1   -1    0    0  501    0  0.00000000000E+00  0.00000000000E+00  0.21763202996E+02  0.21763202996E+02  0.00000000000E+00 0.  1.
         -1   -1    0    0    0  501 -0.00000000000E+00 -0.00000000000E+00 -0.92959471260E+03  0.92959471260E+03  0.00000000000E+00 0.  1.
         35    2    1    2    0    0 -0.71054273576E-14  0.17763568394E-14 -0.90783150960E+03  0.95135791559E+03  0.28447114746E+03 0.  0.
         25    2    3    3    0    0  0.61364762009E+02  0.16307026911E+01 -0.35752750809E+03  0.38366153065E+03  0.12490779739E+03 0.  0.
         25    2    3    3    0    0 -0.61364762009E+02 -0.16307026911E+01 -0.55030400151E+03  0.56769638494E+03  0.12520542398E+03 0.  0.
          5    1    4    4  502    0  0.28786532293E+01 -0.54508191123E+02 -0.18567348048E+03  0.19358760523E+03  0.47000000000E+01 0.  1.
         -5    1    4    4    0  502  0.58486108780E+02  0.56138893814E+02 -0.17185402761E+03  0.19007392542E+03  0.47000000000E+01 0.  1.
          5    1    5    5  503    0  0.36919694302E+02 -0.65188003112E+01 -0.10407827308E+03  0.11072459308E+03  0.47000000000E+01 0.  1.
         -5    1    5    5    0  503 -0.98284456311E+02  0.48880976202E+01 -0.44622572842E+03  0.45697179186E+03  0.47000000000E+01 0.  1.
<mgrwt>
<rscale>  0 0.28447115E+03</rscale>
<asrwt>0</asrwt>
<pdfrwt beam="1">  1        1 0.33481856E-02 0.28447115E+03</pdfrwt>
<pdfrwt beam="2">  1       -1 0.14301455E+00 0.28447115E+03</pdfrwt>
<totfact> 0.12502804E+03</totfact>
</mgrwt>
</event>
<event>
 9    1  0.8186049E-001  0.2728681E+03  0.7818608E-02  0.1099649E+00
          3   -1    0    0  501    0  0.00000000000E+00  0.00000000000E+00  0.31567733043E+02  0.31567733043E+02  0.00000000000E+00 0. -1.
         -3   -1    0    0    0  501 -0.00000000000E+00 -0.00000000000E+00 -0.58966046294E+03  0.58966046294E+03  0.00000000000E+00 0. -1.
         35    2    1    2    0    0 -0.35527136788E-14  0.14210854715E-13 -0.55809272990E+03  0.62122819599E+03  0.27286805662E+03 0.  0.
         25    2    3    3    0    0 -0.29644937407E+02  0.44734072544E+02 -0.30302996530E+03  0.33205206316E+03  0.12470546588E+03 0.  0.
         25    2    3    3    0    0  0.29644937407E+02 -0.44734072544E+02 -0.25506276460E+03  0.28917613283E+03  0.12524321279E+03 0.  0.
          5    1    4    4  502    0 -0.34074827703E+02 -0.35440764688E+02 -0.16566490012E+03  0.17287015595E+03  0.47000000000E+01 0. -1.
         -5    1    4    4    0  502  0.44298902968E+01  0.80174837232E+02 -0.13736506518E+03  0.15918190721E+03  0.47000000000E+01 0. -1.
          5    1    5    5  503    0 -0.45852754253E+02 -0.15303584880E+01 -0.11891194397E+03  0.12754198324E+03  0.47000000000E+01 0.  1.
         -5    1    5    5    0  503  0.75497691659E+02 -0.43203714056E+02 -0.13615082063E+03  0.16163414959E+03  0.47000000000E+01 0.  1.
<mgrwt>
<rscale>  0 0.27286806E+03</rscale>
<asrwt>0</asrwt>
<pdfrwt beam="1">  1        3 0.48565742E-02 0.27286806E+03</pdfrwt>
<pdfrwt beam="2">  1       -3 0.90716996E-01 0.27286806E+03</pdfrwt>
<totfact> 0.68358757E+02</totfact>
</mgrwt>
</event>
<event>
 9    1  0.8186049E-001  0.2732579E+03  0.7818608E-02  0.1099429E+00
          2   -1    0    0  501    0  0.00000000000E+00  0.00000000000E+00  0.16696153295E+04  0.16696153295E+04  0.00000000000E+00 0. -1.
         -2   -1    0    0    0  501 -0.00000000000E+00 -0.00000000000E+00 -0.11180703113E+02  0.11180703113E+02  0.00000000000E+00 0. -1.
         35    2    1    2    0    0  0.00000000000E+00 -0.35527136788E-14  0.16584346263E+04  0.16807960326E+04  0.27325792440E+03 0.  0.
         25    2    3    3    0    0  0.42547752907E+02 -0.15226815608E+00  0.62120559332E+03  0.63519163774E+03  0.12554558147E+03 0.  0.
         25    2    3    3    0    0 -0.42547752907E+02  0.15226815608E+00  0.10372290330E+04  0.10456043948E+04  0.12503659092E+03 0.  0.
          5    1    4    4  502    0  0.81927409082E+02 -0.21900772307E+02  0.45928266110E+03  0.46707001293E+03  0.47000000000E+01 0.  1.
         -5    1    4    4    0  502 -0.39379656175E+02  0.21748504151E+02  0.16192293222E+03  0.16812162482E+03  0.47000000000E+01 0.  1.
          5    1    5    5  503    0  0.11861163849E+02  0.69891045290E+01  0.85781436222E+03  0.85793770451E+03  0.47000000000E+01 0.  1.
         -5    1    5    5    0  503 -0.54408916756E+02 -0.68368363730E+01  0.17941467080E+03  0.18766669031E+03  0.47000000000E+01 0.  1.
<mgrwt>
<rscale>  0 0.27325792E+03</rscale>
<asrwt>0</asrwt>
<pdfrwt beam="1">  1        2 0.25686370E+00 0.27325792E+03</pdfrwt>
<pdfrwt beam="2">  1       -2 0.17201095E-02 0.27325792E+03</pdfrwt>
<totfact> 0.10696936E+04</totfact>
</mgrwt>
</event>
<event>
 9    1  0.8186049E-001  0.2863466E+03  0.7818608E-02  0.1092272E+00
         -2   -1    0    0    0  501 -0.00000000000E+00  0.00000000000E+00  0.18557644279E+03  0.18557644279E+03  0.00000000000E+00 0.  1.
          2   -1    0    0  501    0  0.00000000000E+00 -0.00000000000E+00 -0.11045901753E+03  0.11045901753E+03  0.00000000000E+00 0.  1.
         35    2    1    2    0    0  0.14210854715E-13  0.00000000000E+00  0.75117425263E+02  0.29603546032E+03  0.28634658403E+03 0.  0.
         25    2    3    3    0    0  0.58777466816E+02  0.44094189513E+02  0.31274406397E+02  0.14882978918E+03  0.12559112030E+03 0.  0.
         25    2    3    3    0    0 -0.58777466816E+02 -0.44094189513E+02  0.43843018866E+02  0.14720567114E+03  0.11978401879E+03 0.  0.
          5    1    4    4  502    0  0.14201836118E+02  0.40679069371E+02 -0.43612572657E+02  0.61486789864E+02  0.47000000000E+01 0.  1.
         -5    1    4    4    0  502  0.44575630698E+02  0.34151201417E+01  0.74886979054E+02  0.87342999316E+02  0.47000000000E+01 0.  1.
          5    1    5    5  503    0 -0.76474391263E+02 -0.52760871283E+02  0.68329583146E+02  0.11542557771E+03  0.47000000000E+01 0. -1.
         -5    1    5    5    0  503  0.17696924447E+02  0.86666817696E+01 -0.24486564280E+02  0.31780093423E+02  0.47000000000E+01 0. -1.
<mgrwt>
<rscale>  0 0.28634658E+03</rscale>
<asrwt>0</asrwt>
<pdfrwt beam="1">  1        2 0.16993695E-01 0.28634658E+03</pdfrwt>
<pdfrwt beam="2">  1       -2 0.28550222E-01 0.28634658E+03</pdfrwt>
<totfact> 0.37473523E+03</totfact>
</mgrwt>
</event>
<event>
 9    1  0.8186049E-001  0.2830988E+03  0.7818608E-02  0.1094008E+00
          1   -1    0    0  501    0  0.00000000000E+00  0.00000000000E+00  0.24583597113E+02  0.24583597113E+02  0.00000000000E+00 0. -1.
         -1   -1    0    0    0  501 -0.00000000000E+00 -0.00000000000E+00 -0.81502429801E+03  0.81502429801E+03  0.00000000000E+00 0. -1.
         35    2    1    2    0    0  0.00000000000E+00 -0.35527136788E-14 -0.79044070090E+03  0.83960789513E+03  0.28309877414E+03 0.  0.
         25    2    3    3    0    0  0.61600056026E+02  0.51980781568E+01 -0.47444785365E+03  0.49429548511E+03  0.12411959494E+03 0.  0.
         25    2    3    3    0    0 -0.61600056026E+02 -0.51980781568E+01 -0.31599284725E+03  0.34531241002E+03  0.12477016502E+03 0.  0.
          5    1    4    4  502    0 -0.16258471101E+02 -0.43506946762E+02 -0.16393218163E+03  0.17044953058E+03  0.47000000000E+01 0.  1.
         -5    1    4    4    0  502  0.77858527128E+02  0.48705024919E+02 -0.31051567201E+03  0.32384595453E+03  0.47000000000E+01 0.  1.
          5    1    5    5  503    0  0.36375467981E+02 -0.17043206562E+02 -0.91777989535E+02  0.10029424173E+03  0.47000000000E+01 0. -1.
         -5    1    5    5    0  503 -0.97975524007E+02  0.11845128405E+02 -0.22421485772E+03  0.24501816829E+03  0.47000000000E+01 0. -1.
<mgrwt>
<rscale>  0 0.28309877E+03</rscale>
<asrwt>0</asrwt>
<pdfrwt beam="1">  1        1 0.37820923E-02 0.28309877E+03</pdfrwt>
<pdfrwt beam="2">  1       -1 0.12538834E+00 0.28309877E+03</pdfrwt>
<totfact> 0.14634670E+03</totfact>
</mgrwt>
</event>
<event>
 9    1  0.8186049E-001  0.2753898E+03  0.7818608E-02  0.1098234E+00
          1   -1    0    0  501    0  0.00000000000E+00  0.00000000000E+00  0.26634898547E+03  0.26634898547E+03  0.00000000000E+00 0.  1.
         -1   -1    0    0    0  501 -0.00000000000E+00 -0.00000000000E+00 -0.71184363115E+02  0.71184363115E+02  0.00000000000E+00 0.  1.
         35    2    1    2    0    0 -0.71054273576E-14 -0.71054273576E-14  0.19516462236E+03  0.33753334859E+03  0.27538978120E+03 0.  0.
         25    2    3    3    0    0  0.42054374439E+02 -0.35579645468E+02  0.12056462047E+03  0.18232856390E+03  0.12519343403E+03 0.  0.
         25    2    3    3    0    0 -0.42054374439E+02  0.35579645468E+02  0.74600001886E+02  0.15520478469E+03  0.12445434234E+03 0.  0.
          5    1    4    4  502    0  0.75310871008E+02 -0.12796237691E+01  0.32790246422E+02  0.82283989873E+02  0.47000000000E+01 0.  1.
         -5    1    4    4    0  502 -0.33256496570E+02 -0.34300021699E+02  0.87774374050E+02  0.10004457403E+03  0.47000000000E+01 0.  1.
          5    1    5    5  503    0 -0.73526406484E+02  0.41912145006E+02  0.13235044306E+02  0.85790539964E+02  0.47000000000E+01 0.  1.
         -5    1    5    5    0  503  0.31472032046E+02 -0.63324995383E+01  0.61364957580E+02  0.69414244722E+02  0.47000000000E+01 0.  1.
<mgrwt>
<rscale>  0 0.27538978E+03</rscale>
<asrwt>0</asrwt>
<pdfrwt beam="1">  1        1 0.40976766E-01 0.27538978E+03</pdfrwt>
<pdfrwt beam="2">  1       -1 0.10951441E-01 0.27538978E+03</pdfrwt>
<totfact> 0.53534330E+03</totfact>
</mgrwt>
</event>
<event>
 9    1  0.8186049E-001  0.2814312E+03  0.7818608E-02  0.1094910E+00
         -2   -1    0    0    0  501 -0.00000000000E+00  0.00000000000E+00  0.27499821566E+03  0.27499821566E+03  0.00000000000E+00 0.  1.
          2   -1    0    0  501    0  0.00000000000E+00 -0.00000000000E+00 -0.72003676897E+02  0.72003676897E+02  0.00000000000E+00 0.  1.
         35    2    1    2    0    0  0.00000000000E+00  0.00000000000E+00  0.20299453876E+03  0.34700189256E+03  0.28143121837E+03 0.  0.
         25    2    3    3    0    0  0.46755719092E+02 -0.33292337963E+02  0.76328666082E+02  0.16096031278E+03  0.12956727978E+03 0.  0.
         25    2    3    3    0    0 -0.46755719092E+02  0.33292337963E+02  0.12666587268E+03  0.18604157978E+03  0.12358296431E+03 0.  0.
          5    1    4    4  502    0  0.61046617381E+01 -0.42792360942E+02  0.10258558161E+03  0.11141967781E+03  0.47000000000E+01 0.  1.
         -5    1    4    4    0  502  0.40651057354E+02  0.95000229786E+01 -0.26256915525E+02  0.49540634973E+02  0.47000000000E+01 0.  1.
          5    1    5    5  503    0  0.33389048861E+02  0.40899582655E+02  0.32981877545E+02  0.62429950277E+02  0.47000000000E+01 0. -1.
         -5    1    5    5    0  503 -0.80144767954E+02 -0.76072446916E+01  0.93683995139E+02  0.12361162950E+03  0.47000000000E+01 0. -1.
<mgrwt>
<rscale>  0 0.28143122E+03</rscale>
<asrwt>0</asrwt>
<pdfrwt beam="1">  1        2 0.11077489E-01 0.28143122E+03</pdfrwt>
<pdfrwt beam="2">  1       -2 0.42307417E-01 0.28143122E+03</pdfrwt>
<totfact> 0.30054997E+03</totfact>
</mgrwt>
</event>
<event>
 9    1  0.8186049E-001  0.2767839E+03  0.7818608E-02  0.1097459E+00
         -1   -1    0    0    0  501 -0.00000000000E+00  0.00000000000E+00  0.94237370259E+02  0.94237370259E+02  0.00000000000E+00 0.  1.
          1   -1    0    0  501    0  0.00000000000E+00 -0.00000000000E+00 -0.20323498807E+03  0.20323498807E+03  0.00000000000E+00 0.  1.
         35    2    1    2    0    0 -0.35527136788E-14  0.00000000000E+00 -0.10899761781E+03  0.29747235833E+03  0.27678389274E+03 0.  0.
         25    2    3    3    0    0 -0.14198833868E+02  0.45512895016E+02 -0.93175095480E+02  0.16223491637E+03  0.12395781209E+03 0.  0.
         25    2    3    3    0    0  0.14198833868E+02 -0.45512895016E+02 -0.15822522329E+02  0.13523744195E+03  0.12556186920E+03 0.  0.
          5    1    4    4  502    0  0.39348324495E+02  0.28883992499E+01 -0.84127979072E+02  0.93038918489E+02  0.47000000000E+01 0.  1.
         -5    1    4    4    0  502 -0.53547158364E+02  0.42624495766E+02 -0.90471164077E+01  0.69195997886E+02  0.47000000000E+01 0.  1.
          5    1    5    5  503    0 -0.28208577700E+01  0.33091240990E+02 -0.38967928916E+02  0.51415726707E+02  0.47000000000E+01 0.  1.
         -5    1    5    5    0  503  0.17019691638E+02 -0.78604136005E+02  0.23145406587E+02  0.83821715245E+02  0.47000000000E+01 0.  1.
<mgrwt>
<rscale>  0 0.27678389E+03</rscale>
<asrwt>0</asrwt>
<pdfrwt beam="1">  1        1 0.31266921E-01 0.27678389E+03</pdfrwt>
<pdfrwt beam="2">  1       -1 0.14498057E-01 0.27678389E+03</pdfrwt>
<totfact> 0.48452531E+03</totfact>
</mgrwt>
</event>
<event>
 9    1  0.8186049E-001  0.2807628E+03  0.7818608E-02  0.1095273E+00
         -1   -1    0    0    0  501 -0.00000000000E+00  0.00000000000E+00  0.97315053348E+01  0.97315053348E+01  0.00000000000E+00 0. -1.
          1   -1    0    0  501    0  0.00000000000E+00 -0.00000000000E+00 -0.20250658864E+04  0.20250658864E+04  0.00000000000E+00 0. -1.
         35    2    1    2    0    0  0.00000000000E+00  0.71054273576E-14 -0.20153343811E+04  0.20347973918E+04  0.28076281433E+03 0.  0.
         25    2    3    3    0    0  0.36146952555E+02  0.45346724258E+02 -0.83481821884E+03  0.84611762854E+03  0.12502261892E+03 0.  0.
         25    2    3    3    0    0 -0.36146952555E+02 -0.45346724258E+02 -0.11805161623E+04  0.11886797632E+04  0.12640507336E+03 0.  0.
          5    1    4    4  502    0 -0.20549995246E+02 -0.27157746714E+01 -0.24712186323E+02  0.32595396754E+02  0.47000000000E+01 0. -1.
         -5    1    4    4    0  502  0.56696947801E+02  0.48062498929E+02 -0.81010603251E+03  0.81352223179E+03  0.47000000000E+01 0. -1.
          5    1    5    5  503    0 -0.20198542065E+01  0.79146768201E+01 -0.93670408149E+03  0.93675148690E+03  0.47000000000E+01 0.  1.
         -5    1    5    5    0  503 -0.34127098348E+02 -0.53261401078E+02 -0.24381208076E+03  0.25192827633E+03  0.47000000000E+01 0.  1.
<mgrwt>
<rscale>  0 0.28076281E+03</rscale>
<asrwt>0</asrwt>
<pdfrwt beam="1">  1        1 0.31154872E+00 0.28076281E+03</pdfrwt>
<pdfrwt beam="2">  1       -1 0.14971541E-02 0.28076281E+03</pdfrwt>
<totfact> 0.34008007E+03</totfact>
</mgrwt>
</event>
<event>
 9    1  0.8186049E-001  0.2749270E+03  0.7818608E-02  0.1098492E+00
         -1   -1    0    0    0  501 -0.00000000000E+00  0.00000000000E+00  0.67608576500E+02  0.67608576500E+02  0.00000000000E+00 0. -1.
          1   -1    0    0  501    0  0.00000000000E+00 -0.00000000000E+00 -0.27949436072E+03  0.27949436072E+03  0.00000000000E+00 0. -1.
         35    2    1    2    0    0  0.00000000000E+00  0.00000000000E+00 -0.21188578422E+03  0.34710293722E+03  0.27492701481E+03 0.  0.
         25    2    3    3    0    0 -0.16065931239E+02 -0.15901193271E+02 -0.37954162621E+02  0.13176241983E+03  0.12413643593E+03 0.  0.
         25    2    3    3    0    0  0.16065931239E+02  0.15901193271E+02 -0.17393162160E+03  0.21534051739E+03  0.12493345166E+03 0.  0.
          5    1    4    4  502    0  0.15492585458E+02  0.48313589328E+02 -0.31183373241E+02  0.59738730190E+02  0.47000000000E+01 0. -1.
         -5    1    4    4    0  502 -0.31558516697E+02 -0.64214782599E+02 -0.67707893798E+01  0.72023689639E+02  0.47000000000E+01 0. -1.
          5    1    5    5  503    0  0.39738946246E+02  0.53260439669E+02 -0.48914567954E+02  0.82647342611E+02  0.47000000000E+01 0. -1.
         -5    1    5    5    0  503 -0.23673015007E+02 -0.37359246399E+02 -0.12501705365E+03  0.13269317478E+03  0.47000000000E+01 0. -1.
<mgrwt>
<rscale>  0 0.27492701E+03</rscale>
<asrwt>0</asrwt>
<pdfrwt beam="1">  1        1 0.42999133E-01 0.27492701E+03</pdfrwt>
<pdfrwt beam="2">  1       -1 0.10401319E-01 0.27492701E+03</pdfrwt>
<totfact> 0.54585192E+03</totfact>
</mgrwt>
</event>
<event>
 9    1  0.8186049E-001  0.2677834E+03  0.7818608E-02  0.1102555E+00
          2   -1    0    0  501    0  0.00000000000E+00  0.00000000000E+00  0.16604089275E+04  0.16604089275E+04  0.00000000000E+00 0. -1.
         -2   -1    0    0    0  501 -0.00000000000E+00 -0.00000000000E+00 -0.10796730006E+02  0.10796730006E+02  0.00000000000E+00 0. -1.
         35    2    1    2    0    0  0.00000000000E+00  0.00000000000E+00  0.16496121975E+04  0.16712056575E+04  0.26778339672E+03 0.  0.
         25    2    3    3    0    0  0.21907039766E+02  0.26375444291E+02  0.62855524480E+03  0.64191553173E+03  0.12569117576E+03 0.  0.
         25    2    3    3    0    0 -0.21907039766E+02 -0.26375444291E+02  0.10210569527E+04  0.10292901258E+04  0.12532070824E+03 0.  0.
          5    1    4    4  502    0  0.26592023002E+02  0.23170825555E+02  0.40890844484E+02  0.54204926039E+02  0.47000000000E+01 0.  1.
         -5    1    4    4    0  502 -0.46849832360E+01  0.32046187357E+01  0.58766440032E+03  0.58771060570E+03  0.47000000000E+01 0.  1.
          5    1    5    5  503    0 -0.63643625641E+01  0.16052309384E+02  0.18625617333E+02  0.25829931638E+02  0.47000000000E+01 0.  1.
         -5    1    5    5    0  503 -0.15542677202E+02 -0.42427753675E+02  0.10024313353E+04  0.10034601941E+04  0.47000000000E+01 0.  1.
<mgrwt>
<rscale>  0 0.26778340E+03</rscale>
<asrwt>0</asrwt>
<pdfrwt beam="1">  1        2 0.25544732E+00 0.26778340E+03</pdfrwt>
<pdfrwt beam="2">  1       -2 0.16610367E-02 0.26778340E+03</pdfrwt>
<totfact> 0.11381201E+04</totfact>
</mgrwt>
</event>
<event>
 9    1  0.8186049E-001  0.2751987E+03  0.7818608E-02  0.1098341E+00
          1   -1    0    0  501    0  0.00000000000E+00  0.00000000000E+00  0.68049422239E+03  0.68049422239E+03  0.00000000000E+00 0. -1.
         -1   -1    0    0    0  501 -0.00000000000E+00 -0.00000000000E+00 -0.27823283453E+02  0.27823283453E+02  0.00000000000E+00 0. -1.
         35    2    1    2    0    0  0.71054273576E-14  0.35527136788E-14  0.65267093893E+03  0.70831750584E+03  0.27519871829E+03 0.  0.
         25    2    3    3    0    0  0.55048008434E+02 -0.35935462347E+01  0.32241335298E+03  0.35040000192E+03  0.12564471479E+03 0.  0.
         25    2    3    3    0    0 -0.55048008434E+02  0.35935462347E+01  0.33025758595E+03  0.35791750392E+03  0.12645817383E+03 0.  0.
          5    1    4    4  502    0  0.86011303786E+02 -0.34651719711E+02  0.22855951210E+03  0.24669865551E+03  0.47000000000E+01 0.  1.
         -5    1    4    4    0  502 -0.30963295352E+02  0.31058173476E+02  0.93853840876E+02  0.10370134640E+03  0.47000000000E+01 0.  1.
          5    1    5    5  503    0  0.20089188075E+02  0.35754632135E+02  0.19889223525E+03  0.20313094407E+03  0.47000000000E+01 0.  1.
         -5    1    5    5    0  503 -0.75137196510E+02 -0.32161085900E+02  0.13136535070E+03  0.15478655985E+03  0.47000000000E+01 0.  1.
<mgrwt>
<rscale>  0 0.27519872E+03</rscale>
<asrwt>0</asrwt>
<pdfrwt beam="1">  1        1 0.10469141E+00 0.27519872E+03</pdfrwt>
<pdfrwt beam="2">  1       -1 0.42805057E-02 0.27519872E+03</pdfrwt>
<totfact> 0.65104494E+03</totfact>
</mgrwt>
</event>
<event>
 9    1  0.8186049E-001  0.2848361E+03  0.7818608E-02  0.1093077E+00
         -2   -1    0    0    0  501 -0.00000000000E+00  0.00000000000E+00  0.12284850762E+02  0.12284850762E+02  0.00000000000E+00 0. -1.
          2   -1    0    0  501    0  0.00000000000E+00 -0.00000000000E+00 -0.16510494159E+04  0.16510494159E+04  0.00000000000E+00 0. -1.
         35    2    1    2    0    0 -0.35527136788E-14  0.00000000000E+00 -0.16387645651E+04  0.16633342667E+04  0.28483606285E+03 0.  0.
         25    2    3    3    0    0 -0.16907891721E+02 -0.34671376078E+02 -0.11484583909E+04  0.11558705631E+04  0.12486833868E+03 0.  0.
         25    2    3    3    0    0  0.16907891721E+02  0.34671376078E+02 -0.49030617425E+03  0.50746370352E+03  0.12502513654E+03 0.  0.
          5    1    4    4  502    0  0.40666181358E+02 -0.12901466010E+02 -0.16548574196E+03  0.17096141941E+03  0.47000000000E+01 0.  1.
         -5    1    4    4    0  502 -0.57574073079E+02 -0.21769910067E+02 -0.98297264893E+03  0.98490914374E+03  0.47000000000E+01 0.  1.
          5    1    5    5  503    0  0.39296331823E+02  0.44005685087E+02 -0.98741349065E+02  0.11512013738E+03  0.47000000000E+01 0.  1.
         -5    1    5    5    0  503 -0.22388440102E+02 -0.93343090095E+01 -0.39156482518E+03  0.39234356614E+03  0.47000000000E+01 0.  1.
<mgrwt>
<rscale>  0 0.28483606E+03</rscale>
<asrwt>0</asrwt>
<pdfrwt beam="1">  1        2 0.25400755E+00 0.28483606E+03</pdfrwt>
<pdfrwt beam="2">  1       -2 0.18899774E-02 0.28483606E+03</pdfrwt>
<totfact> 0.95343661E+03</totfact>
</mgrwt>
</event>
<event>
 9    1  0.8186049E-001  0.2743796E+03  0.7818608E-02  0.1098799E+00
         -2   -1    0    0    0  501 -0.00000000000E+00  0.00000000000E+00  0.58463471316E+03  0.58463471316E+03  0.00000000000E+00 0.  1.
          2   -1    0    0  501    0  0.00000000000E+00 -0.00000000000E+00 -0.32192823731E+02  0.32192823731E+02  0.00000000000E+00 0.  1.
         35    2    1    2    0    0 -0.71054273576E-14 -0.35527136788E-14  0.55244188943E+03  0.61682753689E+03  0.27437960761E+03 0.  0.
         25    2    3    3    0    0 -0.40955117694E+02 -0.31751812718E+02  0.30905752258E+03  0.33775433806E+03  0.12599976721E+03 0.  0.
         25    2    3    3    0    0  0.40955117694E+02  0.31751812718E+02  0.24338436685E+03  0.27907319883E+03  0.12633448067E+03 0.  0.
          5    1    4    4  502    0 -0.81885104001E+02 -0.30446641373E+02  0.25619010191E+03  0.27071687525E+03  0.47000000000E+01 0. -1.
         -5    1    4    4    0  502  0.40929986306E+02 -0.13051713447E+01  0.52867420669E+02  0.67037462806E+02  0.47000000000E+01 0. -1.
          5    1    5    5  503    0  0.49562769405E+02 -0.50496115721E+01  0.22390376364E+02  0.54821397664E+02  0.47000000000E+01 0.  1.
         -5    1    5    5    0  503 -0.86076517108E+01  0.36801424290E+02  0.22099399049E+03  0.22425180117E+03  0.47000000000E+01 0.  1.
<mgrwt>
<rscale>  0 0.27437961E+03</rscale>
<asrwt>0</asrwt>
<pdfrwt beam="1">  1        2 0.49527425E-02 0.27437961E+03</pdfrwt>
<pdfrwt beam="2">  1       -2 0.89943794E-01 0.27437961E+03</pdfrwt>
<totfact> 0.17405101E+03</totfact>
</mgrwt>
</event>
<event>
 9    1  0.8186049E-001  0.2657490E+03  0.7818608E-02  0.1103737E+00
         -2   -1    0    0    0  501 -0.00000000000E+00  0.00000000000E+00  0.99070617072E+01  0.99070617072E+01  0.00000000000E+00 0.  1.
          2   -1    0    0  501    0  0.00000000000E+00 -0.00000000000E+00 -0.17821262392E+04  0.17821262392E+04  0.00000000000E+00 0.  1.
         35    2    1    2    0    0  0.35527136788E-14  0.00000000000E+00 -0.17722191775E+04  0.17920333009E+04  0.26574901408E+03 0.  0.
         25    2    3    3    0    0 -0.19076523269E+02 -0.43130223735E+02 -0.88683194391E+03  0.89656951140E+03  0.12305227383E+03 0.  0.
         25    2    3    3    0    0  0.19076523269E+02  0.43130223735E+02 -0.88538723357E+03  0.89546378950E+03  0.12538227540E+03 0.  0.
          5    1    4    4  502    0 -0.36448499160E+02 -0.59754853406E+02 -0.84634044353E+03  0.84924282272E+03  0.47000000000E+01 0.  1.
         -5    1    4    4    0  502  0.17371975891E+02  0.16624629671E+02 -0.40491500386E+02  0.47326688682E+02  0.47000000000E+01 0.  1.
          5    1    5    5  503    0 -0.28354781936E+02  0.79972477971E+01 -0.70450447190E+03  0.70513586673E+03  0.47000000000E+01 0. -1.
         -5    1    5    5    0  503  0.47431305204E+02  0.35132975938E+02 -0.18088276168E+03  0.19032792276E+03  0.47000000000E+01 0. -1.
<mgrwt>
<rscale>  0 0.26574901E+03</rscale>
<asrwt>0</asrwt>
<pdfrwt beam="1">  1        2 0.27417323E+00 0.26574901E+03</pdfrwt>
<pdfrwt beam="2">  1       -2 0.15241635E-02 0.26574901E+03</pdfrwt>
<totfact> 0.11137518E+04</totfact>
</mgrwt>
</event>
<event>
 9    1  0.8186049E-001  0.2707176E+03  0.7818608E-02  0.1100870E+00
          1   -1    0    0  501    0  0.00000000000E+00  0.00000000000E+00  0.53382818551E+03  0.53382818551E+03  0.00000000000E+00 0. -1.
         -1   -1    0    0    0  501 -0.00000000000E+00 -0.00000000000E+00 -0.34321909990E+02  0.34321909990E+02  0.00000000000E+00 0. -1.
         35    2    1    2    0    0  0.00000000000E+00  0.00000000000E+00  0.49950627552E+03  0.56815009550E+03  0.27071758667E+03 0.  0.
         25    2    3    3    0    0  0.25433394268E+02 -0.42652370658E+02  0.21514154393E+03  0.25353062936E+03  0.12460262368E+03 0.  0.
         25    2    3    3    0    0 -0.25433394268E+02  0.42652370658E+02  0.28436473159E+03  0.31461946614E+03  0.12512404102E+03 0.  0.
          5    1    4    4  502    0 -0.91964794466E+01  0.39783457101E+02  0.42933292647E+02  0.59436153228E+02  0.47000000000E+01 0. -1.
         -5    1    4    4    0  502  0.34629873714E+02 -0.82435827758E+02  0.17220825129E+03  0.19409447613E+03  0.47000000000E+01 0. -1.
          5    1    5    5  503    0 -0.70501880624E+02  0.91343508679E+01  0.10729112553E+03  0.12879218593E+03  0.47000000000E+01 0. -1.
         -5    1    5    5    0  503  0.45068486356E+02  0.33518019790E+02  0.17707360605E+03  0.18582728022E+03  0.47000000000E+01 0. -1.
<mgrwt>
<rscale>  0 0.27071759E+03</rscale>
<asrwt>0</asrwt>
<pdfrwt beam="1">  1        1 0.82127407E-01 0.27071759E+03</pdfrwt>
<pdfrwt beam="2">  1       -1 0.52802942E-02 0.27071759E+03</pdfrwt>
<totfact> 0.66658518E+03</totfact>
</mgrwt>
</event>
<event>
 9    1  0.8186049E-001  0.2771231E+03  0.7818608E-02  0.1097271E+00
          3   -1    0    0  501    0  0.00000000000E+00  0.00000000000E+00  0.72655314082E+02  0.72655314082E+02  0.00000000000E+00 0.  1.
         -3   -1    0    0    0  501 -0.00000000000E+00 -0.00000000000E+00 -0.26425193810E+03  0.26425193810E+03  0.00000000000E+00 0.  1.
         35    2    1    2    0    0  0.00000000000E+00  0.71054273576E-14 -0.19159662402E+03  0.33690725218E+03  0.27712313191E+03 0.  0.
         25    2    3    3    0    0 -0.26701227242E+02 -0.12484499407E+02 -0.15802347268E+03  0.20385736594E+03  0.12536981082E+03 0.  0.
         25    2    3    3    0    0  0.26701227242E+02  0.12484499407E+02 -0.33573151338E+02  0.13304988625E+03  0.12532476801E+03 0.  0.
          5    1    4    4  502    0  0.14785594531E+02 -0.32357962219E+02 -0.15322194621E+03  0.15736806005E+03  0.47000000000E+01 0. -1.
         -5    1    4    4    0  502 -0.41486821773E+02  0.19873462812E+02 -0.48015264714E+01  0.46489305882E+02  0.47000000000E+01 0. -1.
          5    1    5    5  503    0  0.36481680624E+02  0.32758622145E+02  0.35195743323E+02  0.60538175510E+02  0.47000000000E+01 0.  1.
         -5    1    5    5    0  503 -0.97804533813E+01 -0.20274122738E+02 -0.68768894661E+02  0.72511710738E+02  0.47000000000E+01 0.  1.
<mgrwt>
<rscale>  0 0.27712313E+03</rscale>
<asrwt>0</asrwt>
<pdfrwt beam="1">  1        3 0.11177741E-01 0.27712313E+03</pdfrwt>
<pdfrwt beam="2">  1       -3 0.40654144E-01 0.27712313E+03</pdfrwt>
<totfact> 0.93766795E+02</totfact>
</mgrwt>
</event>
<event>
 9    1  0.8186049E-001  0.2660096E+03  0.7818608E-02  0.1103585E+00
         -2   -1    0    0    0  501 -0.00000000000E+00  0.00000000000E+00  0.47274541735E+02  0.47274541735E+02  0.00000000000E+00 0.  1.
          2   -1    0    0  501    0  0.00000000000E+00 -0.00000000000E+00 -0.37420298230E+03  0.37420298230E+03  0.00000000000E+00 0.  1.
         35    2    1    2    0    0  0.00000000000E+00 -0.71054273576E-14 -0.32692844056E+03  0.42147752404E+03  0.26600958257E+03 0.  0.
         25    2    3    3    0    0  0.33276268266E+02 -0.27572364927E+02 -0.18821828838E+03  0.22999478319E+03  0.12491569508E+03 0.  0.
         25    2    3    3    0    0 -0.33276268266E+02  0.27572364927E+02 -0.13871015219E+03  0.19148274085E+03  0.12473006208E+03 0.  0.
          5    1    4    4  502    0  0.30617186547E+02  0.44912561587E+02 -0.50848496133E+02  0.74580224318E+02  0.47000000000E+01 0.  1.
         -5    1    4    4    0  502  0.26590817189E+01 -0.72484926514E+02 -0.13736979224E+03  0.15541455887E+03  0.47000000000E+01 0.  1.
          5    1    5    5  503    0 -0.39331420823E+01  0.72420543778E+02 -0.51732622508E+02  0.89210756074E+02  0.47000000000E+01 0.  1.
         -5    1    5    5    0  503 -0.29343126184E+02 -0.44848178850E+02 -0.86977529680E+02  0.10227198477E+03  0.47000000000E+01 0.  1.
<mgrwt>
<rscale>  0 0.26600958E+03</rscale>
<asrwt>0</asrwt>
<pdfrwt beam="1">  1        2 0.57569688E-01 0.26600958E+03</pdfrwt>
<pdfrwt beam="2">  1       -2 0.72730066E-02 0.26600958E+03</pdfrwt>
<totfact> 0.93453076E+03</totfact>
</mgrwt>
</event>
<event>
 9    1  0.8186049E-001  0.2742087E+03  0.7818608E-02  0.1098895E+00
          2   -1    0    0  501    0  0.00000000000E+00  0.00000000000E+00  0.30134778977E+04  0.30134778977E+04  0.00000000000E+00 0. -1.
         -2   -1    0    0    0  501 -0.00000000000E+00 -0.00000000000E+00 -0.62378413742E+01  0.62378413742E+01  0.00000000000E+00 0. -1.
         35    2    1    2    0    0  0.00000000000E+00 -0.35527136788E-14  0.30072400563E+04  0.30197157390E+04  0.27420865858E+03 0.  0.
         25    2    3    3    0    0  0.28056310671E+02  0.27722325802E+02  0.10231021802E+04  0.10311646470E+04  0.12250213997E+03 0.  0.
         25    2    3    3    0    0 -0.28056310671E+02 -0.27722325802E+02  0.19841378761E+04  0.19885510920E+04  0.12639877437E+03 0.  0.
          5    1    4    4  502    0 -0.26179321876E+02  0.47832371191E+02  0.25165404471E+03  0.25753667864E+03  0.47000000000E+01 0. -1.
         -5    1    4    4    0  502  0.54235632547E+02 -0.20110045389E+02  0.77144813545E+03  0.77362796837E+03  0.47000000000E+01 0. -1.
          5    1    5    5  503    0 -0.55356777341E+02  0.26743703653E+02  0.62336408113E+03  0.62640599145E+03  0.47000000000E+01 0. -1.
         -5    1    5    5    0  503  0.27300466670E+02 -0.54466029455E+02  0.13607737950E+04  0.13621451006E+04  0.47000000000E+01 0. -1.
<mgrwt>
<rscale>  0 0.27420866E+03</rscale>
<asrwt>0</asrwt>
<pdfrwt beam="1">  1        2 0.46361082E+00 0.27420866E+03</pdfrwt>
<pdfrwt beam="2">  1       -2 0.95967031E-03 0.27420866E+03</pdfrwt>
<totfact> 0.46304954E+03</totfact>
</mgrwt>
</event>
<event>
 9    1  0.8186049E-001  0.2777755E+03  0.7818608E-02  0.1096910E+00
         -2   -1    0    0    0  501 -0.00000000000E+00  0.00000000000E+00  0.49405540477E+03  0.49405540477E+03  0.00000000000E+00 0.  1.
          2   -1    0    0  501    0  0.00000000000E+00 -0.00000000000E+00 -0.39043826307E+02  0.39043826307E+02  0.00000000000E+00 0.  1.
         35    2    1    2    0    0  0.35527136788E-14 -0.17763568394E-14  0.45501157847E+03  0.53309923108E+03  0.27777554543E+03 0.  0.
         25    2    3    3    0    0 -0.28226029061E+02  0.93869249070E+01  0.12627701658E+03  0.17966455149E+03  0.12429257045E+03 0.  0.
         25    2    3    3    0    0  0.28226029061E+02 -0.93869249070E+01  0.32873456189E+03  0.35343467959E+03  0.12635203791E+03 0.  0.
          5    1    4    4  502    0  0.62429702329E+01 -0.57060055004E+01 -0.23366711908E+02  0.25290836315E+02  0.47000000000E+01 0. -1.
         -5    1    4    4    0  502 -0.34468999294E+02  0.15092930407E+02  0.14964372849E+03  0.15437371517E+03  0.47000000000E+01 0. -1.
          5    1    5    5  503    0 -0.74619463261E+01 -0.14942160870E+02  0.31345895448E+03  0.31393877581E+03  0.47000000000E+01 0. -1.
         -5    1    5    5    0  503  0.35687975387E+02  0.55552359633E+01  0.15275607406E+02  0.39495903781E+02  0.47000000000E+01 0. -1.
<mgrwt>
<rscale>  0 0.27777555E+03</rscale>
<asrwt>0</asrwt>
<pdfrwt beam="1">  1        2 0.60067429E-02 0.27777555E+03</pdfrwt>
<pdfrwt beam="2">  1       -2 0.76008519E-01 0.27777555E+03</pdfrwt>
<totfact> 0.19641007E+03</totfact>
</mgrwt>
</event>
<event>
 9    1  0.8186049E-001  0.2769509E+03  0.7818608E-02  0.1097366E+00
          2   -1    0    0  501    0  0.00000000000E+00  0.00000000000E+00  0.18398180276E+04  0.18398180276E+04  0.00000000000E+00 0.  1.
         -2   -1    0    0    0  501 -0.00000000000E+00 -0.00000000000E+00 -0.10422469476E+02  0.10422469476E+02  0.00000000000E+00 0.  1.
         35    2    1    2    0    0  0.00000000000E+00 -0.35527136788E-14  0.18293955581E+04  0.18502404971E+04  0.27695087819E+03 0.  0.
         25    2    3    3    0    0  0.97651562223E+01 -0.11414482091E+02  0.12878324539E+04  0.12939907722E+04  0.12519600836E+03 0.  0.
         25    2    3    3    0    0 -0.97651562223E+01  0.11414482091E+02  0.54156310425E+03  0.55624972491E+03  0.12608533580E+03 0.  0.
          5    1    4    4  502    0 -0.11743913157E+02  0.12527291467E+02  0.24740366057E+02  0.30479964573E+02  0.47000000000E+01 0.  1.
         -5    1    4    4    0  502  0.21509069379E+02 -0.23941773557E+02  0.12630920878E+04  0.12635108076E+04  0.47000000000E+01 0.  1.
          5    1    5    5  503    0  0.20517967896E+02  0.43621742988E+02  0.87462836562E+02  0.99978403905E+02  0.47000000000E+01 0.  1.
         -5    1    5    5    0  503 -0.30283124119E+02 -0.32207260898E+02  0.45410026769E+03  0.45627132101E+03  0.47000000000E+01 0.  1.
<mgrwt>
<rscale>  0 0.27695088E+03</rscale>
<asrwt>0</asrwt>
<pdfrwt beam="1">  1        2 0.28304867E+00 0.27695088E+03</pdfrwt>
<pdfrwt beam="2">  1       -2 0.16034583E-02 0.27695088E+03</pdfrwt>
<totfact> 0.96506462E+03</totfact>
</mgrwt>
</event>
<event>
 9    1  0.8186049E-001  0.2736317E+03  0.7818608E-02  0.1099219E+00
          1   -1    0    0  501    0  0.00000000000E+00  0.00000000000E+00  0.17909590118E+04  0.17909590118E+04  0.00000000000E+00 0. -1.
         -1   -1    0    0    0  501 -0.00000000000E+00 -0.00000000000E+00 -0.10451707471E+02  0.10451707471E+02  0.00000000000E+00 0. -1.
         35    2    1    2    0    0  0.00000000000E+00  0.71054273576E-14  0.17805073043E+04  0.18014107193E+04  0.27363172100E+03 0.  0.
         25    2    3    3    0    0 -0.33272223658E+02 -0.24356751847E+02  0.11799502426E+04  0.11873765421E+04  0.12601660871E+03 0.  0.
         25    2    3    3    0    0  0.33272223658E+02  0.24356751847E+02  0.60055706177E+03  0.61403417714E+03  0.12111520970E+03 0.  0.
          5    1    4    4  502    0 -0.41876796597E+02  0.36086219339E+02  0.28598531655E+03  0.29131696243E+03  0.47000000000E+01 0. -1.
         -5    1    4    4    0  502  0.86045729391E+01 -0.60442971186E+02  0.89396492602E+03  0.89605957971E+03  0.47000000000E+01 0. -1.
          5    1    5    5  503    0  0.75856949739E+01  0.18230851800E+00 -0.30096702226E+01  0.94193481452E+01  0.47000000000E+01 0.  1.
         -5    1    5    5    0  503  0.25686528684E+02  0.24174443329E+02  0.60356673200E+03  0.60461482899E+03  0.47000000000E+01 0.  1.
<mgrwt>
<rscale>  0 0.27363172E+03</rscale>
<asrwt>0</asrwt>
<pdfrwt beam="1">  1        1 0.27553191E+00 0.27363172E+03</pdfrwt>
<pdfrwt beam="2">  1       -1 0.16079564E-02 0.27363172E+03</pdfrwt>
<totfact> 0.43500944E+03</totfact>
</mgrwt>
</event>
<event>
 9    1  0.8186049E-001  0.2769654E+03  0.7818608E-02  0.1097358E+00
         -1   -1    0    0    0  501 -0.00000000000E+00  0.00000000000E+00  0.34656114609E+02  0.34656114609E+02  0.00000000000E+00 0. -1.
          1   -1    0    0  501    0  0.00000000000E+00 -0.00000000000E+00 -0.55336440912E+03  0.55336440912E+03  0.00000000000E+00 0. -1.
         35    2    1    2    0    0 -0.71054273576E-14 -0.53290705182E-14 -0.51870829451E+03  0.58802052372E+03  0.27696541577E+03 0.  0.
         25    2    3    3    0    0  0.45543759994E+02 -0.12225979797E+02 -0.21145721057E+03  0.24952455493E+03  0.12379274193E+03 0.  0.
         25    2    3    3    0    0 -0.45543759994E+02  0.12225979797E+02 -0.30725108394E+03  0.33849596879E+03  0.13398725183E+03 0.  0.
          5    1    4    4  502    0 -0.39832853293E+02  0.14457153024E+02 -0.75681294327E+02  0.86864341281E+02  0.47000000000E+01 0. -1.
         -5    1    4    4    0  502  0.85376613287E+02 -0.26683132821E+02 -0.13577591624E+03  0.16266021365E+03  0.47000000000E+01 0. -1.
          5    1    5    5  503    0 -0.78530407856E+01  0.58138808764E+02 -0.59541596063E+02  0.83720266339E+02  0.47000000000E+01 0.  1.
         -5    1    5    5    0  503 -0.37690719208E+02 -0.45912828967E+02 -0.24770948787E+03  0.25477570245E+03  0.47000000000E+01 0.  1.
<mgrwt>
<rscale>  0 0.27696542E+03</rscale>
<asrwt>0</asrwt>
<pdfrwt beam="1">  1        1 0.85132982E-01 0.27696542E+03</pdfrwt>
<pdfrwt beam="2">  1       -1 0.53317102E-02 0.27696542E+03</pdfrwt>
<totfact> 0.62619901E+03</totfact>
</mgrwt>
</event>
<event>
 9    1  0.8186049E-001  0.2754346E+03  0.7818608E-02  0.1098209E+00
          2   -1    0    0  501    0  0.00000000000E+00  0.00000000000E+00  0.57640481594E+02  0.57640481594E+02  0.00000000000E+00 0. -1.
         -2   -1    0    0    0  501 -0.00000000000E+00 -0.00000000000E+00 -0.32904054478E+03  0.32904054478E+03  0.00000000000E+00 0. -1.
         35    2    1    2    0    0  0.71054273576E-14  0.00000000000E+00 -0.27140006319E+03  0.38668102638E+03  0.27543460542E+03 0.  0.
         25    2    3    3    0    0  0.30378361704E+02  0.18702039851E+01 -0.20582671406E+03  0.24218290060E+03  0.12394183555E+03 0.  0.
         25    2    3    3    0    0 -0.30378361704E+02 -0.18702039851E+01 -0.65573349126E+02  0.14449812577E+03  0.12511395491E+03 0.  0.
          5    1    4    4  502    0 -0.22486028100E+02 -0.17056344299E+02  0.17685176754E+00  0.28612263404E+02  0.47000000000E+01 0.  1.
         -5    1    4    4    0  502  0.52864389803E+02  0.18926548284E+02 -0.20600356583E+03  0.21357063720E+03  0.47000000000E+01 0.  1.
          5    1    5    5  503    0 -0.53872053597E+02  0.31258154035E+02  0.52920970397E+01  0.62684660353E+02  0.47000000000E+01 0.  1.
         -5    1    5    5    0  503  0.23493691894E+02 -0.33128358020E+02 -0.70865446166E+02  0.81813465421E+02  0.47000000000E+01 0.  1.
<mgrwt>
<rscale>  0 0.27543461E+03</rscale>
<asrwt>0</asrwt>
<pdfrwt beam="1">  1        2 0.88677664E-02 0.27543461E+03</pdfrwt>
<pdfrwt beam="2">  1       -2 0.50621623E-01 0.27543461E+03</pdfrwt>
<totfact> 0.27842749E+03</totfact>
</mgrwt>
</event>
<event>
 9    1  0.8186049E-001  0.2757995E+03  0.7818608E-02  0.1098006E+00
         -2   -1    0    0    0  501 -0.00000000000E+00  0.00000000000E+00  0.34965157014E+02  0.34965157014E+02  0.00000000000E+00 0. -1.
          2   -1    0    0  501    0  0.00000000000E+00 -0.00000000000E+00 -0.54386536111E+03  0.54386536111E+03  0.00000000000E+00 0. -1.
         35    2    1    2    0    0 -0.71054273576E-14 -0.35527136788E-14 -0.50890020409E+03  0.57883051812E+03  0.27579947604E+03 0.  0.
         25    2    3    3    0    0  0.18558217876E+02  0.51774153660E+01 -0.36908351984E+03  0.39033289651E+03  0.12556238449E+03 0.  0.
         25    2    3    3    0    0 -0.18558217876E+02 -0.51774153660E+01 -0.13981668426E+03  0.18849762162E+03  0.12494572853E+03 0.  0.
          5    1    4    4  502    0  0.39703388459E+02 -0.19518310153E+02 -0.40662575219E+02  0.60273198934E+02  0.47000000000E+01 0. -1.
         -5    1    4    4    0  502 -0.21145170583E+02  0.24695725519E+02 -0.32842094462E+03  0.33005969757E+03  0.47000000000E+01 0. -1.
          5    1    5    5  503    0 -0.59931747126E+02  0.27032786226E+02 -0.10933261258E+03  0.12766477987E+03  0.47000000000E+01 0. -1.
         -5    1    5    5    0  503  0.41373529250E+02 -0.32210201592E+02 -0.30484071675E+02  0.60832841747E+02  0.47000000000E+01 0. -1.
<mgrwt>
<rscale>  0 0.27579948E+03</rscale>
<asrwt>0</asrwt>
<pdfrwt beam="1">  1        2 0.83671603E-01 0.27579948E+03</pdfrwt>
<pdfrwt beam="2">  1       -2 0.53792543E-02 0.27579948E+03</pdfrwt>
<totfact> 0.98505991E+03</totfact>
</mgrwt>
</event>
<event>
 9    1  0.8186049E-001  0.2728573E+03  0.7818608E-02  0.1099655E+00
         -2   -1    0    0    0  501 -0.00000000000E+00  0.00000000000E+00  0.57975534916E+02  0.57975534916E+02  0.00000000000E+00 0.  1.
          2   -1    0    0  501    0  0.00000000000E+00 -0.00000000000E+00 -0.32104545111E+03  0.32104545111E+03  0.00000000000E+00 0.  1.
         35    2    1    2    0    0  0.00000000000E+00  0.00000000000E+00 -0.26306991619E+03  0.37902098602E+03  0.27285733826E+03 0.  0.
         25    2    3    3    0    0  0.35426694372E+02  0.24642467119E+02 -0.76660887318E+02  0.15261699743E+03  0.12471068279E+03 0.  0.
         25    2    3    3    0    0 -0.35426694372E+02 -0.24642467119E+02 -0.18640902887E+03  0.22640398859E+03  0.12102949287E+03 0.  0.
          5    1    4    4  502    0 -0.21626274901E+02 -0.91458975049E+01  0.22749138890E+02  0.33029631053E+02  0.47000000000E+01 0.  1.
         -5    1    4    4    0  502  0.57052969273E+02  0.33788364624E+02 -0.99410026208E+02  0.11958736638E+03  0.47000000000E+01 0.  1.
          5    1    5    5  503    0 -0.73392288348E+02  0.10830116798E+02 -0.89502663509E+02  0.11634662090E+03  0.47000000000E+01 0. -1.
         -5    1    5    5    0  503  0.37965593976E+02 -0.35472583917E+02 -0.96906365363E+02  0.11005736769E+03  0.47000000000E+01 0. -1.
<mgrwt>
<rscale>  0 0.27285734E+03</rscale>
<asrwt>0</asrwt>
<pdfrwt beam="1">  1        2 0.49391608E-01 0.27285734E+03</pdfrwt>
<pdfrwt beam="2">  1       -2 0.89193131E-02 0.27285734E+03</pdfrwt>
<totfact> 0.80230022E+03</totfact>
</mgrwt>
</event>
<event>
 9    1  0.8186049E-001  0.2739705E+03  0.7818608E-02  0.1099028E+00
          2   -1    0    0  501    0  0.00000000000E+00  0.00000000000E+00  0.15684006817E+03  0.15684006817E+03  0.00000000000E+00 0. -1.
         -2   -1    0    0    0  501 -0.00000000000E+00 -0.00000000000E+00 -0.11964393843E+03  0.11964393843E+03  0.00000000000E+00 0. -1.
         35    2    1    2    0    0  0.00000000000E+00 -0.71054273576E-14  0.37196129732E+02  0.27648400660E+03  0.27397053462E+03 0.  0.
         25    2    3    3    0    0 -0.24116844862E+02  0.45716891225E+02 -0.64042898056E+00  0.13567596154E+03  0.12544281582E+03 0.  0.
         25    2    3    3    0    0  0.24116844862E+02 -0.45716891225E+02  0.37836558712E+02  0.14080804506E+03  0.12539395531E+03 0.  0.
          5    1    4    4  502    0  0.30904373013E+02  0.25017013720E+02 -0.46213758861E+02  0.61145177691E+02  0.47000000000E+01 0. -1.
         -5    1    4    4    0  502 -0.55021217876E+02  0.20699877505E+02  0.45573329880E+02  0.74530783852E+02  0.47000000000E+01 0. -1.
          5    1    5    5  503    0 -0.35464839058E+02 -0.63072934519E+02  0.12353418494E+02  0.73557099092E+02  0.47000000000E+01 0. -1.
         -5    1    5    5    0  503  0.59581683921E+02  0.17356043294E+02  0.25483140218E+02  0.67250945964E+02  0.47000000000E+01 0. -1.
<mgrwt>
<rscale>  0 0.27397053E+03</rscale>
<asrwt>0</asrwt>
<pdfrwt beam="1">  1        2 0.24129241E-01 0.27397053E+03</pdfrwt>
<pdfrwt beam="2">  1       -2 0.18406760E-01 0.27397053E+03</pdfrwt>
<totfact> 0.53881554E+03</totfact>
</mgrwt>
</event>
<event>
 9    1  0.8186049E-001  0.2794368E+03  0.7818608E-02  0.1095997E+00
          2   -1    0    0  501    0  0.00000000000E+00  0.00000000000E+00  0.31360850162E+02  0.31360850162E+02  0.00000000000E+00 0.  1.
         -2   -1    0    0    0  501 -0.00000000000E+00 -0.00000000000E+00 -0.62247154893E+03  0.62247154893E+03  0.00000000000E+00 0.  1.
         35    2    1    2    0    0  0.00000000000E+00 -0.14210854715E-13 -0.59111069877E+03  0.65383239909E+03  0.27943684064E+03 0.  0.
         25    2    3    3    0    0  0.23585287981E+02  0.59730912095E+02 -0.29661861992E+03  0.32817728302E+03  0.12487464011E+03 0.  0.
         25    2    3    3    0    0 -0.23585287981E+02 -0.59730912095E+02 -0.29449207885E+03  0.32565511607E+03  0.12329485978E+03 0.  0.
          5    1    4    4  502    0  0.56436689850E+02  0.66695196633E+02 -0.27345595306E+03  0.28711251711E+03  0.47000000000E+01 0. -1.
         -5    1    4    4    0  502 -0.32851401869E+02 -0.69642845376E+01 -0.23162666855E+02  0.41064765916E+02  0.47000000000E+01 0. -1.
          5    1    5    5  503    0  0.24596984258E+02 -0.34965158433E+02 -0.23001429161E+02  0.48772222445E+02  0.47000000000E+01 0. -1.
         -5    1    5    5    0  503 -0.48182272239E+02 -0.24765753663E+02 -0.27149064969E+03  0.27688289362E+03  0.47000000000E+01 0. -1.
<mgrwt>
<rscale>  0 0.27943684E+03</rscale>
<asrwt>0</asrwt>
<pdfrwt beam="1">  1        2 0.48247465E-02 0.27943684E+03</pdfrwt>
<pdfrwt beam="2">  1       -2 0.95764848E-01 0.27943684E+03</pdfrwt>
<totfact> 0.15626133E+03</totfact>
</mgrwt>
</event>
<event>
 9    1  0.8186049E-001  0.2716198E+03  0.7818608E-02  0.1100356E+00
         -4   -1    0    0    0  501 -0.00000000000E+00  0.00000000000E+00  0.13874133467E+03  0.13874133467E+03  0.00000000000E+00 0.  1.
          4   -1    0    0  501    0  0.00000000000E+00 -0.00000000000E+00 -0.13294040639E+03  0.13294040639E+03  0.00000000000E+00 0.  1.
         35    2    1    2    0    0  0.00000000000E+00  0.00000000000E+00  0.58009282873E+01  0.27168174106E+03  0.27161980350E+03 0.  0.
         25    2    3    3    0    0  0.53758138995E+02 -0.20510717288E+02  0.14029855340E+02  0.13671304859E+03  0.12321929144E+03 0.  0.
         25    2    3    3    0    0 -0.53758138995E+02  0.20510717288E+02 -0.82289270525E+01  0.13496869246E+03  0.12181217375E+03 0.  0.
          5    1    4    4  502    0  0.29186510755E+02  0.25722933896E+02  0.56757001823E+02  0.68970783627E+02  0.47000000000E+01 0.  1.
         -5    1    4    4    0  502  0.24571628241E+02 -0.46233651184E+02 -0.42727146483E+02  0.67742264966E+02  0.47000000000E+01 0.  1.
          5    1    5    5  503    0  0.17557453811E+02  0.49264951117E+02  0.14810624116E+02  0.54559547098E+02  0.47000000000E+01 0.  1.
         -5    1    5    5    0  503 -0.71315592807E+02 -0.28754233828E+02 -0.23039551169E+02  0.80409145366E+02  0.47000000000E+01 0.  1.
<mgrwt>
<rscale>  0 0.27161980E+03</rscale>
<asrwt>0</asrwt>
<pdfrwt beam="1">  1        4 0.20452370E-01 0.27161980E+03</pdfrwt>
<pdfrwt beam="2">  1       -4 0.21344821E-01 0.27161980E+03</pdfrwt>
<totfact> 0.81309842E+02</totfact>
</mgrwt>
</event>
<event>
 9    1  0.8186049E-001  0.2758360E+03  0.7818608E-02  0.1097985E+00
         -1   -1    0    0    0  501 -0.00000000000E+00  0.00000000000E+00  0.36476302980E+03  0.36476302980E+03  0.00000000000E+00 0. -1.
          1   -1    0    0  501    0  0.00000000000E+00 -0.00000000000E+00 -0.52147226103E+02  0.52147226103E+02  0.00000000000E+00 0. -1.
         35    2    1    2    0    0  0.00000000000E+00  0.00000000000E+00  0.31261580370E+03  0.41691025591E+03  0.27583603963E+03 0.  0.
         25    2    3    3    0    0  0.48801991571E+02  0.18096789823E+02  0.18942914174E+03  0.23279305065E+03  0.12490026623E+03 0.  0.
         25    2    3    3    0    0 -0.48801991571E+02 -0.18096789823E+02  0.12318666196E+03  0.18411720526E+03  0.12655063574E+03 0.  0.
          5    1    4    4  502    0 -0.25422143347E+02  0.32451559392E+02  0.17714008583E+02  0.45113913368E+02  0.47000000000E+01 0.  1.
         -5    1    4    4    0  502  0.74224134918E+02 -0.14354769569E+02  0.17171513316E+03  0.18767913728E+03  0.47000000000E+01 0.  1.
          5    1    5    5  503    0 -0.45157359203E+02 -0.61235789686E+02  0.11769452386E+03  0.14022517597E+03  0.47000000000E+01 0.  1.
         -5    1    5    5    0  503 -0.36446323687E+01  0.43138999863E+02  0.54921380963E+01  0.43892029290E+02  0.47000000000E+01 0.  1.
<mgrwt>
<rscale>  0 0.27583604E+03</rscale>
<asrwt>0</asrwt>
<pdfrwt beam="1">  1        1 0.80226504E-02 0.27583604E+03</pdfrwt>
<pdfrwt beam="2">  1       -1 0.56117388E-01 0.27583604E+03</pdfrwt>
<totfact> 0.28536528E+03</totfact>
</mgrwt>
</event>
<event>
 9    1  0.8186049E-001  0.2682519E+03  0.7818608E-02  0.1102284E+00
          4   -1    0    0  501    0  0.00000000000E+00  0.00000000000E+00  0.30780708093E+03  0.30780708093E+03  0.00000000000E+00 0. -1.
         -4   -1    0    0    0  501 -0.00000000000E+00 -0.00000000000E+00 -0.58444969715E+02  0.58444969715E+02  0.00000000000E+00 0. -1.
         35    2    1    2    0    0  0.00000000000E+00 -0.71054273576E-14  0.24936211121E+03  0.36625205064E+03  0.26825193772E+03 0.  0.
         25    2    3    3    0    0  0.12600686610E+02  0.32810990322E+02  0.78508218030E+02  0.15179896272E+03  0.12507616238E+03 0.  0.
         25    2    3    3    0    0 -0.12600686610E+02 -0.32810990322E+02  0.17085389318E+03  0.21445308792E+03  0.12475470218E+03 0.  0.
          5    1    4    4  502    0 -0.37265428011E+02 -0.21607322109E+01 -0.14669590780E+02  0.40381527734E+02  0.47000000000E+01 0. -1.
         -5    1    4    4    0  502  0.49866114620E+02  0.34971722533E+02  0.93177808810E+02  0.11141743499E+03  0.47000000000E+01 0. -1.
          5    1    5    5  503    0 -0.29553963198E+02  0.42194366090E+02  0.56889752469E+02  0.76891710908E+02  0.47000000000E+01 0.  1.
         -5    1    5    5    0  503  0.16953276588E+02 -0.75005356412E+02  0.11396414072E+03  0.13756137702E+03  0.47000000000E+01 0.  1.
<mgrwt>
<rscale>  0 0.26825194E+03</rscale>
<asrwt>0</asrwt>
<pdfrwt beam="1">  1        4 0.47354935E-01 0.26825194E+03</pdfrwt>
<pdfrwt beam="2">  1       -4 0.89915340E-02 0.26825194E+03</pdfrwt>
<totfact> 0.73534496E+02</totfact>
</mgrwt>
</event>
<event>
 9    1  0.8186049E-001  0.2946281E+03  0.7818608E-02  0.1087957E+00
          2   -1    0    0  501    0  0.00000000000E+00  0.00000000000E+00  0.10658003498E+04  0.10658003498E+04  0.00000000000E+00 0. -1.
         -2   -1    0    0    0  501 -0.00000000000E+00 -0.00000000000E+00 -0.20361623348E+02  0.20361623348E+02  0.00000000000E+00 0. -1.
         35    2    1    2    0    0  0.00000000000E+00  0.35527136788E-14  0.10454387264E+04  0.10861619731E+04  0.29462807257E+03 0.  0.
         25    2    3    3    0    0  0.14093566718E+02  0.17939853088E+02  0.25032186209E+03  0.28103007187E+03  0.12568372887E+03 0.  0.
         25    2    3    3    0    0 -0.14093566718E+02 -0.17939853088E+02  0.79511686434E+03  0.80513190126E+03  0.12452342556E+03 0.  0.
          5    1    4    4  502    0  0.58472554921E+02 -0.18983324281E+02  0.17798128533E+03  0.18835826026E+03  0.47000000000E+01 0.  1.
         -5    1    4    4    0  502 -0.44378988204E+02  0.36923177369E+02  0.72340576756E+02  0.92671811606E+02  0.47000000000E+01 0.  1.
          5    1    5    5  503    0  0.21230638759E+01  0.97888183375E+01  0.18702496156E+01  0.11221238715E+02  0.47000000000E+01 0. -1.
         -5    1    5    5    0  503 -0.16216630594E+02 -0.27728671425E+02  0.79324661473E+03  0.79391066255E+03  0.47000000000E+01 0. -1.
<mgrwt>
<rscale>  0 0.29462807E+03</rscale>
<asrwt>0</asrwt>
<pdfrwt beam="1">  1        2 0.16396924E+00 0.29462807E+03</pdfrwt>
<pdfrwt beam="2">  1       -2 0.31325583E-02 0.29462807E+03</pdfrwt>
<totfact> 0.95102008E+03</totfact>
</mgrwt>
</event>
<event>
 9    1  0.8186049E-001  0.2661126E+03  0.7818608E-02  0.1103525E+00
         -2   -1    0    0    0  501 -0.00000000000E+00  0.00000000000E+00  0.33723097798E+02  0.33723097798E+02  0.00000000000E+00 0.  1.
          2   -1    0    0  501    0  0.00000000000E+00 -0.00000000000E+00 -0.52498087855E+03  0.52498087855E+03  0.00000000000E+00 0.  1.
         35    2    1    2    0    0 -0.35527136788E-14  0.00000000000E+00 -0.49125778075E+03  0.55870397635E+03  0.26611261909E+03 0.  0.
         25    2    3    3    0    0  0.15270644248E+02 -0.34077109793E+02 -0.29011031765E+03  0.31817301337E+03  0.12520234839E+03 0.  0.
         25    2    3    3    0    0 -0.15270644248E+02  0.34077109793E+02 -0.20114746311E+03  0.24053096298E+03  0.12649268853E+03 0.  0.
          5    1    4    4  502    0 -0.23550231767E+02 -0.72042525271E+02 -0.15991607715E+03  0.17703101591E+03  0.47000000000E+01 0. -1.
         -5    1    4    4    0  502  0.38820876015E+02  0.37965415478E+02 -0.13019424050E+03  0.14114199746E+03  0.47000000000E+01 0. -1.
          5    1    5    5  503    0 -0.43366566777E+02  0.61790247398E+02 -0.68453105837E+02  0.10201280060E+03  0.47000000000E+01 0. -1.
         -5    1    5    5    0  503  0.28095922529E+02 -0.27713137605E+02 -0.13269435727E+03  0.13851816238E+03  0.47000000000E+01 0. -1.
<mgrwt>
<rscale>  0 0.26611262E+03</rscale>
<asrwt>0</asrwt>
<pdfrwt beam="1">  1        2 0.80766284E-01 0.26611262E+03</pdfrwt>
<pdfrwt beam="2">  1       -2 0.51881692E-02 0.26611262E+03</pdfrwt>
<totfact> 0.10818029E+04</totfact>
</mgrwt>
</event>
<event>
 9    1  0.8186049E-001  0.2790430E+03  0.7818608E-02  0.1096213E+00
         -1   -1    0    0    0  501 -0.00000000000E+00  0.00000000000E+00  0.16657818378E+02  0.16657818378E+02  0.00000000000E+00 0. -1.
          1   -1    0    0  501    0  0.00000000000E+00 -0.00000000000E+00 -0.11685953091E+04  0.11685953091E+04  0.00000000000E+00 0. -1.
         35    2    1    2    0    0  0.00000000000E+00 -0.71054273576E-14 -0.11519374907E+04  0.11852531274E+04  0.27904299608E+03 0.  0.
         25    2    3    3    0    0 -0.12037601081E+02  0.48309298586E+02 -0.74525720602E+03  0.75742886546E+03  0.12574375106E+03 0.  0.
         25    2    3    3    0    0  0.12037601081E+02 -0.48309298586E+02 -0.40668028466E+03  0.42782426197E+03  0.12315052999E+03 0.  0.
          5    1    4    4  502    0 -0.57189777498E+02  0.41082791960E+02 -0.24210583422E+03  0.25218206004E+03  0.47000000000E+01 0.  1.
         -5    1    4    4    0  502  0.45152176417E+02  0.72265066260E+01 -0.50315137180E+03  0.50524680541E+03  0.47000000000E+01 0.  1.
          5    1    5    5  503    0  0.60373746552E+02 -0.26333945150E+02 -0.31435526269E+03  0.32121610657E+03  0.47000000000E+01 0. -1.
         -5    1    5    5    0  503 -0.48336145471E+02 -0.21975353436E+02 -0.92325021968E+02  0.10660815541E+03  0.47000000000E+01 0. -1.
<mgrwt>
<rscale>  0 0.27904300E+03</rscale>
<asrwt>0</asrwt>
<pdfrwt beam="1">  1        1 0.17978387E+00 0.27904300E+03</pdfrwt>
<pdfrwt beam="2">  1       -1 0.25627416E-02 0.27904300E+03</pdfrwt>
<totfact> 0.57379531E+03</totfact>
</mgrwt>
</event>
<event>
 9    1  0.8186049E-001  0.2993483E+03  0.7818608E-02  0.1085567E+00
          2   -1    0    0  501    0  0.00000000000E+00  0.00000000000E+00  0.92315318804E+03  0.92315318804E+03  0.00000000000E+00 0. -1.
         -2   -1    0    0    0  501 -0.00000000000E+00 -0.00000000000E+00 -0.24267210439E+02  0.24267210439E+02  0.00000000000E+00 0. -1.
         35    2    1    2    0    0 -0.71054273576E-14 -0.35527136788E-14  0.89888597760E+03  0.94742039848E+03  0.29934831004E+03 0.  0.
         25    2    3    3    0    0 -0.27964053810E+02 -0.10576874283E+01  0.20753934528E+03  0.24428681412E+03  0.12577901538E+03 0.  0.
         25    2    3    3    0    0  0.27964053810E+02  0.10576874283E+01  0.69134663233E+03  0.70313358435E+03  0.12511420547E+03 0.  0.
          5    1    4    4  502    0 -0.67886486571E+02  0.29574778336E+02  0.15232181971E+03  0.16943219686E+03  0.47000000000E+01 0. -1.
         -5    1    4    4    0  502  0.39922432761E+02 -0.30632465765E+02  0.55217525565E+02  0.74854617265E+02  0.47000000000E+01 0. -1.
          5    1    5    5  503    0  0.43111043841E+02 -0.50790402570E+02  0.49325534975E+03  0.49775612216E+03  0.47000000000E+01 0.  1.
         -5    1    5    5    0  503 -0.15146990031E+02  0.51848089998E+02  0.19809128258E+03  0.20537746219E+03  0.47000000000E+01 0.  1.
<mgrwt>
<rscale>  0 0.29934831E+03</rscale>
<asrwt>0</asrwt>
<pdfrwt beam="1">  1        2 0.14202354E+00 0.29934831E+03</pdfrwt>
<pdfrwt beam="2">  1       -2 0.37334177E-02 0.29934831E+03</pdfrwt>
<totfact> 0.89571991E+03</totfact>
</mgrwt>
</event>
<event>
 9    1  0.8186049E-001  0.2757324E+03  0.7818608E-02  0.1098043E+00
          2   -1    0    0  501    0  0.00000000000E+00  0.00000000000E+00  0.10391736204E+04  0.10391736204E+04  0.00000000000E+00 0.  1.
         -2   -1    0    0    0  501 -0.00000000000E+00 -0.00000000000E+00 -0.18290577682E+02  0.18290577682E+02  0.00000000000E+00 0.  1.
         35    2    1    2    0    0 -0.35527136788E-14  0.71054273576E-14  0.10208830427E+04  0.10574641981E+04  0.27573237626E+03 0.  0.
         25    2    3    3    0    0 -0.12496235941E+02 -0.55352787220E+02  0.55589268427E+03  0.57263168373E+03  0.12518099626E+03 0.  0.
         25    2    3    3    0    0  0.12496235941E+02  0.55352787220E+02  0.46499035845E+03  0.48483251436E+03  0.12500578609E+03 0.  0.
          5    1    4    4  502    0 -0.19658318075E+02  0.33175896383E+02  0.28190725929E+03  0.28457140126E+03  0.47000000000E+01 0. -1.
         -5    1    4    4    0  502  0.71620821344E+01 -0.88528683602E+02  0.27398542498E+03  0.28806028248E+03  0.47000000000E+01 0. -1.
          5    1    5    5  503    0  0.59483863744E+02  0.45716805251E+02  0.16926349911E+03  0.18520415346E+03  0.47000000000E+01 0.  1.
         -5    1    5    5    0  503 -0.46987627803E+02  0.96359819684E+01  0.29572685935E+03  0.29962836090E+03  0.47000000000E+01 0.  1.
<mgrwt>
<rscale>  0 0.27573238E+03</rscale>
<asrwt>0</asrwt>
<pdfrwt beam="1">  1        2 0.15987282E+00 0.27573238E+03</pdfrwt>
<pdfrwt beam="2">  1       -2 0.28139358E-02 0.27573238E+03</pdfrwt>
<totfact> 0.11554370E+04</totfact>
</mgrwt>
</event>
<event>
 9    1  0.8186049E-001  0.2765866E+03  0.7818608E-02  0.1097568E+00
         -2   -1    0    0    0  501 -0.00000000000E+00  0.00000000000E+00  0.15797325407E+02  0.15797325407E+02  0.00000000000E+00 0.  1.
          2   -1    0    0  501    0  0.00000000000E+00 -0.00000000000E+00 -0.12106506253E+04  0.12106506253E+04  0.00000000000E+00 0.  1.
         35    2    1    2    0    0 -0.71054273576E-14 -0.71054273576E-14 -0.11948532999E+04  0.12264479508E+04  0.27658663657E+03 0.  0.
         25    2    3    3    0    0 -0.22794006822E+02 -0.50307096314E+02 -0.69592357572E+03  0.70915674252E+03  0.12467273771E+03 0.  0.
         25    2    3    3    0    0  0.22794006822E+02  0.50307096314E+02 -0.49892972422E+03  0.51729120824E+03  0.12493579840E+03 0.  0.
          5    1    4    4  502    0 -0.73965656321E+02 -0.38950977317E+02 -0.42441335092E+03  0.43259320312E+03  0.47000000000E+01 0. -1.
         -5    1    4    4    0  502  0.51171649499E+02 -0.11356118997E+02 -0.27151022481E+03  0.27656353940E+03  0.47000000000E+01 0. -1.
          5    1    5    5  503    0  0.87090396190E+00 -0.10930116702E+02 -0.39105550539E+03  0.39123742692E+03  0.47000000000E+01 0.  1.
         -5    1    5    5    0  503  0.21923102860E+02  0.61237213016E+02 -0.10787421883E+03  0.12605378132E+03  0.47000000000E+01 0.  1.
<mgrwt>
<rscale>  0 0.27658664E+03</rscale>
<asrwt>0</asrwt>
<pdfrwt beam="1">  1        2 0.18625399E+00 0.27658664E+03</pdfrwt>
<pdfrwt beam="2">  1       -2 0.24303571E-02 0.27658664E+03</pdfrwt>
<totfact> 0.11406459E+04</totfact>
</mgrwt>
</event>
<event>
 9    1  0.8186049E-001  0.2748922E+03  0.7818608E-02  0.1098512E+00
         -1   -1    0    0    0  501 -0.00000000000E+00  0.00000000000E+00  0.31812214075E+03  0.31812214075E+03  0.00000000000E+00 0. -1.
          1   -1    0    0  501    0  0.00000000000E+00 -0.00000000000E+00 -0.59384193070E+02  0.59384193070E+02  0.00000000000E+00 0. -1.
         35    2    1    2    0    0  0.00000000000E+00 -0.71054273576E-14  0.25873794768E+03  0.37750633382E+03  0.27489217251E+03 0.  0.
         25    2    3    3    0    0 -0.22451894667E+02  0.56531862848E+02  0.13491131696E+03  0.19374046172E+03  0.12503745028E+03 0.  0.
         25    2    3    3    0    0  0.22451894667E+02 -0.56531862848E+02  0.12382663072E+03  0.18376587210E+03  0.12139572556E+03 0.  0.
          5    1    4    4  502    0 -0.73270452445E+02  0.23076807173E+02  0.63257046397E+02  0.99622498210E+02  0.47000000000E+01 0. -1.
         -5    1    4    4    0  502  0.50818557778E+02  0.33455055675E+02  0.71654270561E+02  0.94117963506E+02  0.47000000000E+01 0. -1.
          5    1    5    5  503    0  0.32156495353E+02  0.19740179374E+02  0.10503677188E+00  0.38023886017E+02  0.47000000000E+01 0.  1.
         -5    1    5    5    0  503 -0.97046006865E+01 -0.76272042222E+02  0.12372159395E+03  0.14574198609E+03  0.47000000000E+01 0.  1.
<mgrwt>
<rscale>  0 0.27489217E+03</rscale>
<asrwt>0</asrwt>
<pdfrwt beam="1">  1        1 0.91360299E-02 0.27489217E+03</pdfrwt>
<pdfrwt beam="2">  1       -1 0.48941867E-01 0.27489217E+03</pdfrwt>
<totfact> 0.30889369E+03</totfact>
</mgrwt>
</event>
<event>
 9    1  0.8186049E-001  0.2723291E+03  0.7818608E-02  0.1099954E+00
         -4   -1    0    0    0  501 -0.00000000000E+00  0.00000000000E+00  0.77019674100E+03  0.77019674100E+03  0.00000000000E+00 0.  1.
          4   -1    0    0  501    0  0.00000000000E+00 -0.00000000000E+00 -0.24072791303E+02  0.24072791303E+02  0.00000000000E+00 0.  1.
         35    2    1    2    0    0  0.00000000000E+00  0.00000000000E+00  0.74612394970E+03  0.79426953230E+03  0.27232910537E+03 0.  0.
         25    2    3    3    0    0  0.37677379794E+02  0.23581412865E+02  0.28963953887E+03  0.31852028695E+03  0.12485368533E+03 0.  0.
         25    2    3    3    0    0 -0.37677379794E+02 -0.23581412865E+02  0.45648441083E+03  0.47574924535E+03  0.12642649701E+03 0.  0.
          5    1    4    4  502    0  0.75705187947E+02 -0.17728072916E+01  0.23598256200E+03  0.24787956328E+03  0.47000000000E+01 0.  1.
         -5    1    4    4    0  502 -0.38027808153E+02  0.25354220157E+02  0.53656976875E+02  0.70640723666E+02  0.47000000000E+01 0.  1.
          5    1    5    5  503    0 -0.79018620614E+02 -0.22267101066E+02  0.37871217953E+03  0.38753679970E+03  0.47000000000E+01 0.  1.
         -5    1    5    5    0  503  0.41341240820E+02 -0.13143117989E+01  0.77772231295E+02  0.88212445656E+02  0.47000000000E+01 0.  1.
<mgrwt>
<rscale>  0 0.27232911E+03</rscale>
<asrwt>0</asrwt>
<pdfrwt beam="1">  1        4 0.37035070E-02 0.27232911E+03</pdfrwt>
<pdfrwt beam="2">  1       -4 0.11849179E+00 0.27232911E+03</pdfrwt>
<totfact> 0.41232772E+02</totfact>
</mgrwt>
</event>
<event>
 9    1  0.8186049E-001  0.2746613E+03  0.7818608E-02  0.1098641E+00
         -2   -1    0    0    0  501 -0.00000000000E+00  0.00000000000E+00  0.11898663962E+03  0.11898663962E+03  0.00000000000E+00 0.  1.
          2   -1    0    0  501    0  0.00000000000E+00 -0.00000000000E+00 -0.15850270993E+03  0.15850270993E+03  0.00000000000E+00 0.  1.
         35    2    1    2    0    0  0.00000000000E+00 -0.71054273576E-14 -0.39516070302E+02  0.27748934955E+03  0.27466128104E+03 0.  0.
         25    2    3    3    0    0 -0.43375873958E+02 -0.46535689855E+01  0.16735951504E+02  0.13467564085E+03  0.12631038762E+03 0.  0.
         25    2    3    3    0    0  0.43375873958E+02  0.46535689855E+01 -0.56252021806E+02  0.14281370870E+03  0.12380768671E+03 0.  0.
          5    1    4    4  502    0 -0.15187824769E+02 -0.41949719511E+02 -0.40628750978E+02  0.60524659390E+02  0.47000000000E+01 0.  1.
         -5    1    4    4    0  502 -0.28188049189E+02  0.37296150526E+02  0.57364702482E+02  0.74150981463E+02  0.47000000000E+01 0.  1.
          5    1    5    5  503    0  0.58824867178E+02  0.53565393774E+02 -0.32010137519E+02  0.85885710759E+02  0.47000000000E+01 0. -1.
         -5    1    5    5    0  503 -0.15448993220E+02 -0.48911824788E+02 -0.24241884287E+02  0.56927997939E+02  0.47000000000E+01 0. -1.
<mgrwt>
<rscale>  0 0.27466128E+03</rscale>
<asrwt>0</asrwt>
<pdfrwt beam="1">  1        2 0.24385032E-01 0.27466128E+03</pdfrwt>
<pdfrwt beam="2">  1       -2 0.18305637E-01 0.27466128E+03</pdfrwt>
<totfact> 0.53751610E+03</totfact>
</mgrwt>
</event>
<event>
 9    1  0.8186049E-001  0.2758944E+03  0.7818608E-02  0.1097953E+00
          4   -1    0    0  501    0  0.00000000000E+00  0.00000000000E+00  0.29474853127E+03  0.29474853127E+03  0.00000000000E+00 0.  1.
         -4   -1    0    0    0  501 -0.00000000000E+00 -0.00000000000E+00 -0.64561571051E+02  0.64561571051E+02  0.00000000000E+00 0.  1.
         35    2    1    2    0    0  0.00000000000E+00  0.00000000000E+00  0.23018696022E+03  0.35931010233E+03  0.27589438736E+03 0.  0.
         25    2    3    3    0    0  0.21812259369E+02  0.40347215688E+02  0.69822907391E+02  0.15060116414E+03  0.12530682253E+03 0.  0.
         25    2    3    3    0    0 -0.21812259369E+02 -0.40347215688E+02  0.16036405283E+03  0.20870893818E+03  0.12545564541E+03 0.  0.
          5    1    4    4  502    0  0.17341693361E+02 -0.42120635161E+01  0.96509624085E+02  0.98258197361E+02  0.47000000000E+01 0. -1.
         -5    1    4    4    0  502  0.44705660086E+01  0.44559279204E+02 -0.26686716693E+02  0.52342966782E+02  0.47000000000E+01 0. -1.
          5    1    5    5  503    0  0.16583202886E+02 -0.45549541938E+02  0.16247937033E+03  0.16962134056E+03  0.47000000000E+01 0. -1.
         -5    1    5    5    0  503 -0.38395462255E+02  0.52023262493E+01 -0.21153174983E+01  0.39087597628E+02  0.47000000000E+01 0. -1.
<mgrwt>
<rscale>  0 0.27589439E+03</rscale>
<asrwt>0</asrwt>
<pdfrwt beam="1">  1        4 0.45345927E-01 0.27589439E+03</pdfrwt>
<pdfrwt beam="2">  1       -4 0.99325496E-02 0.27589439E+03</pdfrwt>
<totfact> 0.68123780E+02</totfact>
</mgrwt>
</event>
<event>
 9    1  0.8186049E-001  0.2769434E+03  0.7818608E-02  0.1097370E+00
          1   -1    0    0  501    0  0.00000000000E+00  0.00000000000E+00  0.78655109491E+03  0.78655109491E+03  0.00000000000E+00 0.  1.
         -1   -1    0    0    0  501 -0.00000000000E+00 -0.00000000000E+00 -0.24377837103E+02  0.24377837103E+02  0.00000000000E+00 0.  1.
         35    2    1    2    0    0 -0.14210854715E-13  0.00000000000E+00  0.76217325780E+03  0.81092893201E+03  0.27694341996E+03 0.  0.
         25    2    3    3    0    0  0.34967171181E+02 -0.40663138918E+02  0.31187502980E+03  0.34043073887E+03  0.12550242956E+03 0.  0.
         25    2    3    3    0    0 -0.34967171181E+02  0.40663138918E+02  0.45029822800E+03  0.47049819314E+03  0.12539482319E+03 0.  0.
          5    1    4    4  502    0  0.10968585252E+02  0.15655672985E+02  0.25798935959E+03  0.25873926957E+03  0.47000000000E+01 0. -1.
         -5    1    4    4    0  502  0.23998585929E+02 -0.56318811903E+02  0.53885670212E+02  0.81691469292E+02  0.47000000000E+01 0. -1.
          5    1    5    5  503    0 -0.64092095645E+02  0.49042718781E+01  0.11348534236E+03  0.13051000550E+03  0.47000000000E+01 0.  1.
         -5    1    5    5    0  503  0.29124924464E+02  0.35758867040E+02  0.33681288565E+03  0.33998818764E+03  0.47000000000E+01 0.  1.
<mgrwt>
<rscale>  0 0.27694342E+03</rscale>
<asrwt>0</asrwt>
<pdfrwt beam="1">  1        1 0.12100784E+00 0.27694342E+03</pdfrwt>
<pdfrwt beam="2">  1       -1 0.37504371E-02 0.27694342E+03</pdfrwt>
<totfact> 0.63926465E+03</totfact>
</mgrwt>
</event>
<event>
 9    1  0.8186049E-001  0.2790416E+03  0.7818608E-02  0.1096214E+00
          2   -1    0    0  501    0  0.00000000000E+00  0.00000000000E+00  0.27878219976E+02  0.27878219976E+02  0.00000000000E+00 0. -1.
         -2   -1    0    0    0  501 -0.00000000000E+00 -0.00000000000E+00 -0.69825307695E+03  0.69825307695E+03  0.00000000000E+00 0. -1.
         35    2    1    2    0    0  0.00000000000E+00  0.10658141036E-13 -0.67037485697E+03  0.72613129692E+03  0.27904159459E+03 0.  0.
         25    2    3    3    0    0 -0.12773085828E+02 -0.25633522318E+02 -0.47645924251E+03  0.49376013069E+03  0.12635437349E+03 0.  0.
         25    2    3    3    0    0  0.12773085828E+02  0.25633522318E+02 -0.19391561446E+03  0.23237116623E+03  0.12479128245E+03 0.  0.
          5    1    4    4  502    0  0.23882077611E+02  0.42305778116E+02 -0.13224718385E+03  0.14096645037E+03  0.47000000000E+01 0. -1.
         -5    1    4    4    0  502 -0.36655163439E+02 -0.67939300434E+02 -0.34421205865E+03  0.35279368032E+03  0.47000000000E+01 0. -1.
          5    1    5    5  503    0 -0.36301744106E+02  0.39973575733E+02 -0.16449906000E+03  0.17319853961E+03  0.47000000000E+01 0.  1.
         -5    1    5    5    0  503  0.49074829934E+02 -0.14340053415E+02 -0.29416554466E+02  0.59172626624E+02  0.47000000000E+01 0.  1.
<mgrwt>
<rscale>  0 0.27904159E+03</rscale>
<asrwt>0</asrwt>
<pdfrwt beam="1">  1        2 0.42889572E-02 0.27904159E+03</pdfrwt>
<pdfrwt beam="2">  1       -2 0.10742354E+00 0.27904159E+03</pdfrwt>
<totfact> 0.13979484E+03</totfact>
</mgrwt>
</event>
<event>
 9    1  0.8186049E-001  0.2799440E+03  0.7818608E-02  0.1095720E+00
         -2   -1    0    0    0  501 -0.00000000000E+00  0.00000000000E+00  0.14888385983E+02  0.14888385983E+02  0.00000000000E+00 0.  1.
          2   -1    0    0  501    0  0.00000000000E+00 -0.00000000000E+00 -0.13159357487E+04  0.13159357487E+04  0.00000000000E+00 0.  1.
         35    2    1    2    0    0  0.71054273576E-14 -0.71054273576E-14 -0.13010473627E+04  0.13308241347E+04  0.27994398980E+03 0.  0.
         25    2    3    3    0    0  0.23537964421E+02  0.53535806835E+02 -0.53592769887E+03  0.55340299932E+03  0.12496504653E+03 0.  0.
         25    2    3    3    0    0 -0.23537964421E+02 -0.53535806835E+02 -0.76511966386E+03  0.77742113538E+03  0.12472130262E+03 0.  0.
          5    1    4    4  502    0 -0.48048830720E+02  0.43633754914E+02 -0.27669805615E+03  0.28424724972E+03  0.47000000000E+01 0. -1.
         -5    1    4    4    0  502  0.71586795142E+02  0.99020519218E+01 -0.25922964273E+03  0.26915574959E+03  0.47000000000E+01 0. -1.
          5    1    5    5  503    0 -0.62744832828E+02 -0.69021951660E+02 -0.46177884767E+03  0.47112921583E+03  0.47000000000E+01 0. -1.
         -5    1    5    5    0  503  0.39206868407E+02  0.15486144825E+02 -0.30334081619E+03  0.30629191955E+03  0.47000000000E+01 0. -1.
<mgrwt>
<rscale>  0 0.27994399E+03</rscale>
<asrwt>0</asrwt>
<pdfrwt beam="1">  1        2 0.20245164E+00 0.27994399E+03</pdfrwt>
<pdfrwt beam="2">  1       -2 0.22905211E-02 0.27994399E+03</pdfrwt>
<totfact> 0.10875670E+04</totfact>
</mgrwt>
</event>
<event>
 9    1  0.8186049E-001  0.2747901E+03  0.7818608E-02  0.1098569E+00
          1   -1    0    0  501    0  0.00000000000E+00  0.00000000000E+00  0.19024343061E+03  0.19024343061E+03  0.00000000000E+00 0.  1.
         -1   -1    0    0    0  501 -0.00000000000E+00 -0.00000000000E+00 -0.99227574121E+02  0.99227574121E+02  0.00000000000E+00 0.  1.
         35    2    1    2    0    0  0.00000000000E+00  0.35527136788E-14  0.91015856491E+02  0.28947100473E+03  0.27479005886E+03 0.  0.
         25    2    3    3    0    0  0.44223766553E+02  0.13437122468E+02  0.12760011184E+02  0.13459112113E+03  0.12576030460E+03 0.  0.
         25    2    3    3    0    0 -0.44223766553E+02 -0.13437122468E+02  0.78255845308E+02  0.15487988361E+03  0.12540934269E+03 0.  0.
          5    1    4    4  502    0 -0.25364786138E+02 -0.17535625279E+02 -0.33160535318E+02  0.45525615123E+02  0.47000000000E+01 0. -1.
         -5    1    4    4    0  502  0.69588552691E+02  0.30972747747E+02  0.45920546501E+02  0.89065506003E+02  0.47000000000E+01 0. -1.
          5    1    5    5  503    0 -0.42480486599E+01 -0.44140842571E+02 -0.16418962411E+02  0.47519808785E+02  0.47000000000E+01 0.  1.
         -5    1    5    5    0  503 -0.39975717893E+02  0.30703720103E+02  0.94674807719E+02  0.10736007482E+03  0.47000000000E+01 0.  1.
<mgrwt>
<rscale>  0 0.27479006E+03</rscale>
<asrwt>0</asrwt>
<pdfrwt beam="1">  1        1 0.29268220E-01 0.27479006E+03</pdfrwt>
<pdfrwt beam="2">  1       -1 0.15265781E-01 0.27479006E+03</pdfrwt>
<totfact> 0.48514457E+03</totfact>
</mgrwt>
</event>
<event>
 9    1  0.8186049E-001  0.2738249E+03  0.7818608E-02  0.1099110E+00
         -1   -1    0    0    0  501 -0.00000000000E+00  0.00000000000E+00  0.12760672604E+03  0.12760672604E+03  0.00000000000E+00 0. -1.
          1   -1    0    0  501    0  0.00000000000E+00 -0.00000000000E+00 -0.14689676983E+03  0.14689676983E+03  0.00000000000E+00 0. -1.
         35    2    1    2    0    0  0.35527136788E-14  0.71054273576E-14 -0.19290043792E+02  0.27450349588E+03  0.27382487736E+03 0.  0.
         25    2    3    3    0    0  0.21915457312E+02 -0.12800599772E+02 -0.62623758993E+02  0.14153347377E+03  0.12436175611E+03 0.  0.
         25    2    3    3    0    0 -0.21915457312E+02  0.12800599772E+02  0.43333715202E+02  0.13297002211E+03  0.12312218843E+03 0.  0.
          5    1    4    4  502    0  0.41904158078E+02  0.35716671891E+02  0.53664254977E+01  0.55520515468E+02  0.47000000000E+01 0. -1.
         -5    1    4    4    0  502 -0.19988700766E+02 -0.48517271663E+02 -0.67990184491E+02  0.86012958297E+02  0.47000000000E+01 0. -1.
          5    1    5    5  503    0  0.13100218488E+02  0.62148185800E+02  0.31829745559E+02  0.71198563363E+02  0.47000000000E+01 0. -1.
         -5    1    5    5    0  503 -0.35015675800E+02 -0.49347586028E+02  0.11503969643E+02  0.61771458749E+02  0.47000000000E+01 0. -1.
<mgrwt>
<rscale>  0 0.27382488E+03</rscale>
<asrwt>0</asrwt>
<pdfrwt beam="1">  1        1 0.22599503E-01 0.27382488E+03</pdfrwt>
<pdfrwt beam="2">  1       -1 0.19631804E-01 0.27382488E+03</pdfrwt>
<totfact> 0.44999564E+03</totfact>
</mgrwt>
</event>
<event>
 9    1  0.8186049E-001  0.2890828E+03  0.7818608E-02  0.1090829E+00
          1   -1    0    0  501    0  0.00000000000E+00  0.00000000000E+00  0.92260187502E+02  0.92260187502E+02  0.00000000000E+00 0. -1.
         -1   -1    0    0    0  501 -0.00000000000E+00 -0.00000000000E+00 -0.22644884103E+03  0.22644884103E+03  0.00000000000E+00 0. -1.
         35    2    1    2    0    0 -0.35527136788E-14 -0.17763568394E-14 -0.13418865353E+03  0.31870902853E+03  0.28908277384E+03 0.  0.
         25    2    3    3    0    0  0.86176863065E+01  0.15597264303E+02 -0.14458781195E+03  0.19207476752E+03  0.12517804033E+03 0.  0.
         25    2    3    3    0    0 -0.86176863065E+01 -0.15597264303E+02  0.10399158425E+02  0.12663426101E+03  0.12494220422E+03 0.  0.
          5    1    4    4  502    0  0.35246080928E+02  0.52036986102E+02 -0.12989698222E+03  0.14437953502E+03  0.47000000000E+01 0.  1.
         -5    1    4    4    0  502 -0.26628394621E+02 -0.36439721799E+02 -0.14690829735E+02  0.47695232499E+02  0.47000000000E+01 0.  1.
          5    1    5    5  503    0 -0.63157598848E+02 -0.75870957381E+01 -0.15357042079E+02  0.65607736247E+02  0.47000000000E+01 0. -1.
         -5    1    5    5    0  503  0.54539912542E+02 -0.80101685650E+01  0.25756200504E+02  0.61026524765E+02  0.47000000000E+01 0. -1.
<mgrwt>
<rscale>  0 0.28908277E+03</rscale>
<asrwt>0</asrwt>
<pdfrwt beam="1">  1        1 0.14193875E-01 0.28908277E+03</pdfrwt>
<pdfrwt beam="2">  1       -1 0.34838283E-01 0.28908277E+03</pdfrwt>
<totfact> 0.31531546E+03</totfact>
</mgrwt>
</event>
<event>
 9    1  0.8186049E-001  0.2758235E+03  0.7818608E-02  0.1097992E+00
         -3   -1    0    0    0  501 -0.00000000000E+00  0.00000000000E+00  0.22022994590E+03  0.22022994590E+03  0.00000000000E+00 0. -1.
          3   -1    0    0  501    0  0.00000000000E+00 -0.00000000000E+00 -0.86362713479E+02  0.86362713479E+02  0.00000000000E+00 0. -1.
         35    2    1    2    0    0  0.14210854715E-13  0.00000000000E+00  0.13386723242E+03  0.30659265938E+03  0.27582353574E+03 0.  0.
         25    2    3    3    0    0 -0.48933810542E+02  0.26371188366E+02  0.85216252035E+02  0.16080566817E+03  0.12452588451E+03 0.  0.
         25    2    3    3    0    0  0.48933810542E+02 -0.26371188366E+02  0.48650980384E+02  0.14578699121E+03  0.12568600369E+03 0.  0.
          5    1    4    4  502    0  0.69765248718E+01 -0.41480976530E+02  0.51171468925E+02  0.66407473563E+02  0.47000000000E+01 0. -1.
         -5    1    4    4    0  502 -0.55910335414E+02  0.67852164895E+02  0.34044783110E+02  0.94398194602E+02  0.47000000000E+01 0. -1.
          5    1    5    5  503    0 -0.30998575419E+02  0.26651522723E+02  0.18617636614E+02  0.45165492741E+02  0.47000000000E+01 0. -1.
         -5    1    5    5    0  503  0.79932385961E+02 -0.53022711088E+02  0.30033343770E+02  0.10062149847E+03  0.47000000000E+01 0. -1.
<mgrwt>
<rscale>  0 0.27582354E+03</rscale>
<asrwt>0</asrwt>
<pdfrwt beam="1">  1        3 0.13286571E-01 0.27582354E+03</pdfrwt>
<pdfrwt beam="2">  1       -3 0.33881530E-01 0.27582354E+03</pdfrwt>
<totfact> 0.99287368E+02</totfact>
</mgrwt>
</event>
<event>
 9    1  0.8186049E-001  0.2784597E+03  0.7818608E-02  0.1096533E+00
          4   -1    0    0  501    0  0.00000000000E+00  0.00000000000E+00  0.93289296230E+02  0.93289296230E+02  0.00000000000E+00 0. -1.
         -4   -1    0    0    0  501 -0.00000000000E+00 -0.00000000000E+00 -0.20779402214E+03  0.20779402214E+03  0.00000000000E+00 0. -1.
         35    2    1    2    0    0 -0.35527136788E-14 -0.71054273576E-14 -0.11450472591E+03  0.30108331837E+03  0.27845974995E+03 0.  0.
         25    2    3    3    0    0  0.12510086546E+02  0.41064186119E+02 -0.10487535836E+03  0.16881910378E+03  0.12513304665E+03 0.  0.
         25    2    3    3    0    0 -0.12510086546E+02 -0.41064186119E+02 -0.96293675506E+01  0.13226421459E+03  0.12473302728E+03 0.  0.
          5    1    4    4  502    0 -0.17826832006E+02  0.57703028346E+02 -0.11708558289E+03  0.13182776316E+03  0.47000000000E+01 0. -1.
         -5    1    4    4    0  502  0.30336918552E+02 -0.16638842227E+02  0.12210224528E+02  0.36991340621E+02  0.47000000000E+01 0. -1.
          5    1    5    5  503    0 -0.29861033323E+02 -0.81897164853E+02 -0.61854933384E+01  0.87516725544E+02  0.47000000000E+01 0.  1.
         -5    1    5    5    0  503  0.17350946777E+02  0.40832978733E+02 -0.34438742122E+01  0.44747489046E+02  0.47000000000E+01 0.  1.
<mgrwt>
<rscale>  0 0.27845975E+03</rscale>
<asrwt>0</asrwt>
<pdfrwt beam="1">  1        4 0.14352200E-01 0.27845975E+03</pdfrwt>
<pdfrwt beam="2">  1       -4 0.31968311E-01 0.27845975E+03</pdfrwt>
<totfact> 0.72035003E+02</totfact>
</mgrwt>
</event>
<event>
 9    1  0.8186049E-001  0.2770280E+03  0.7818608E-02  0.1097323E+00
         -2   -1    0    0    0  501 -0.00000000000E+00  0.00000000000E+00  0.15640057602E+02  0.15640057602E+02  0.00000000000E+00 0. -1.
          2   -1    0    0  501    0  0.00000000000E+00 -0.00000000000E+00 -0.12267301302E+04  0.12267301302E+04  0.00000000000E+00 0. -1.
         35    2    1    2    0    0  0.71054273576E-14  0.14210854715E-13 -0.12110900726E+04  0.12423701878E+04  0.27702801228E+03 0.  0.
         25    2    3    3    0    0  0.50348091060E+01 -0.61541270229E+02 -0.63999202858E+03  0.65422393715E+03  0.12085729621E+03 0.  0.
         25    2    3    3    0    0 -0.50348091060E+01  0.61541270229E+02 -0.57109804398E+03  0.58814625062E+03  0.12629473081E+03 0.  0.
          5    1    4    4  502    0  0.52550139263E+02  0.52444626477E+01 -0.22175079821E+03  0.22800115796E+03  0.47000000000E+01 0.  1.
         -5    1    4    4    0  502 -0.47515330157E+02 -0.66785732877E+02 -0.41824123037E+03  0.42622277918E+03  0.47000000000E+01 0.  1.
          5    1    5    5  503    0  0.48816960009E+02  0.11644938089E+02 -0.38083976485E+03  0.38416105563E+03  0.47000000000E+01 0. -1.
         -5    1    5    5    0  503 -0.53851769115E+02  0.49896332140E+02 -0.19025827913E+03  0.20398519499E+03  0.47000000000E+01 0. -1.
<mgrwt>
<rscale>  0 0.27702801E+03</rscale>
<asrwt>0</asrwt>
<pdfrwt beam="1">  1        2 0.18872781E+00 0.27702801E+03</pdfrwt>
<pdfrwt beam="2">  1       -2 0.24061614E-02 0.27702801E+03</pdfrwt>
<totfact> 0.11337135E+04</totfact>
</mgrwt>
</event>
<event>
 9    1  0.8186049E-001  0.2748819E+03  0.7818608E-02  0.1098518E+00
          2   -1    0    0  501    0  0.00000000000E+00  0.00000000000E+00  0.10730467296E+03  0.10730467296E+03  0.00000000000E+00 0.  1.
         -2   -1    0    0    0  501 -0.00000000000E+00 -0.00000000000E+00 -0.17604090054E+03  0.17604090054E+03  0.00000000000E+00 0.  1.
         35    2    1    2    0    0  0.14210854715E-13  0.17763568394E-14 -0.68736227581E+02  0.28334557351E+03  0.27488187471E+03 0.  0.
         25    2    3    3    0    0 -0.55521932140E+02 -0.13330442858E+02 -0.37594259709E+02  0.14268570044E+03  0.12524174660E+03 0.  0.
         25    2    3    3    0    0  0.55521932140E+02  0.13330442858E+02 -0.31141967872E+02  0.14065987306E+03  0.12471965391E+03 0.  0.
          5    1    4    4  502    0 -0.54350126528E+02 -0.21247225139E+01 -0.80952614092E+02  0.97641519999E+02  0.47000000000E+01 0. -1.
         -5    1    4    4    0  502 -0.11718056121E+01 -0.11205720345E+02  0.43358354384E+02  0.45044180442E+02  0.47000000000E+01 0. -1.
          5    1    5    5  503    0  0.87294963866E+02  0.36821140279E+02 -0.33991488539E+02  0.10076566072E+03  0.47000000000E+01 0. -1.
         -5    1    5    5    0  503 -0.31773031726E+02 -0.23490697420E+02  0.28495206664E+01  0.39894212342E+02  0.47000000000E+01 0. -1.
<mgrwt>
<rscale>  0 0.27488187E+03</rscale>
<asrwt>0</asrwt>
<pdfrwt beam="1">  1        2 0.16508411E-01 0.27488187E+03</pdfrwt>
<pdfrwt beam="2">  1       -2 0.27083216E-01 0.27488187E+03</pdfrwt>
<totfact> 0.42563122E+03</totfact>
</mgrwt>
</event>
<event>
 9    1  0.8186049E-001  0.2734445E+03  0.7818608E-02  0.1099324E+00
          2   -1    0    0  501    0  0.00000000000E+00  0.00000000000E+00  0.75789078734E+03  0.75789078734E+03  0.00000000000E+00 0. -1.
         -2   -1    0    0    0  501 -0.00000000000E+00 -0.00000000000E+00 -0.24664462193E+02  0.24664462193E+02  0.00000000000E+00 0. -1.
         35    2    1    2    0    0 -0.71054273576E-14  0.00000000000E+00  0.73322632515E+03  0.78255524953E+03  0.27344446362E+03 0.  0.
         25    2    3    3    0    0 -0.53427841392E+02 -0.12705241943E+02  0.35950835127E+03  0.38472279345E+03  0.12549667626E+03 0.  0.
         25    2    3    3    0    0  0.53427841392E+02  0.12705241943E+02  0.37371797387E+03  0.39783245609E+03  0.12485824647E+03 0.  0.
          5    1    4    4  502    0 -0.22105579712E+02 -0.67340587773E+02  0.15123249065E+03  0.16708311598E+03  0.47000000000E+01 0.  1.
         -5    1    4    4    0  502 -0.31322261680E+02  0.54635345830E+02  0.20827586062E+03  0.21763967747E+03  0.47000000000E+01 0.  1.
          5    1    5    5  503    0  0.16429718053E+02  0.62166308611E+02  0.26475320846E+03  0.27249025111E+03  0.47000000000E+01 0.  1.
         -5    1    5    5    0  503  0.36998123339E+02 -0.49461066667E+02  0.10896476541E+03  0.12534220497E+03  0.47000000000E+01 0.  1.
<mgrwt>
<rscale>  0 0.27344446E+03</rscale>
<asrwt>0</asrwt>
<pdfrwt beam="1">  1        2 0.11659857E+00 0.27344446E+03</pdfrwt>
<pdfrwt beam="2">  1       -2 0.37945332E-02 0.27344446E+03</pdfrwt>
<totfact> 0.11265281E+04</totfact>
</mgrwt>
</event>
<event>
 9    1  0.8186049E-001  0.2684627E+03  0.7818608E-02  0.1102163E+00
          2   -1    0    0  501    0  0.00000000000E+00  0.00000000000E+00  0.90392266218E+03  0.90392266218E+03  0.00000000000E+00 0. -1.
         -2   -1    0    0    0  501 -0.00000000000E+00 -0.00000000000E+00 -0.19933189640E+02  0.19933189640E+02  0.00000000000E+00 0. -1.
         35    2    1    2    0    0 -0.71054273576E-14  0.35527136788E-14  0.88398947254E+03  0.92385585182E+03  0.26846274859E+03 0.  0.
         25    2    3    3    0    0  0.37478909116E+02 -0.20148627528E+02  0.52705517820E+03  0.54321812642E+03  0.12445134064E+03 0.  0.
         25    2    3    3    0    0 -0.37478909116E+02  0.20148627528E+02  0.35693429434E+03  0.38063772539E+03  0.12518926351E+03 0.  0.
          5    1    4    4  502    0  0.12638095713E+02  0.21889085971E+02  0.45685097223E+03  0.45757376933E+03  0.47000000000E+01 0.  1.
         -5    1    4    4    0  502  0.24840813403E+02 -0.42037713499E+02  0.70204205970E+02  0.85644357097E+02  0.47000000000E+01 0.  1.
          5    1    5    5  503    0 -0.79516860129E+02  0.16324667888E+02  0.29149758235E+03  0.30262576946E+03  0.47000000000E+01 0.  1.
         -5    1    5    5    0  503  0.42037951013E+02  0.38239596396E+01  0.65436711989E+02  0.78011955934E+02  0.47000000000E+01 0.  1.
<mgrwt>
<rscale>  0 0.26846275E+03</rscale>
<asrwt>0</asrwt>
<pdfrwt beam="1">  1        2 0.13906499E+00 0.26846275E+03</pdfrwt>
<pdfrwt beam="2">  1       -2 0.30666453E-02 0.26846275E+03</pdfrwt>
<totfact> 0.12328119E+04</totfact>
</mgrwt>
</event>
<event>
 9    1  0.8186049E-001  0.2580115E+03  0.7818608E-02  0.1108344E+00
         -2   -1    0    0    0  501 -0.00000000000E+00  0.00000000000E+00  0.72271400441E+01  0.72271400441E+01  0.00000000000E+00 0. -1.
          2   -1    0    0  501    0  0.00000000000E+00 -0.00000000000E+00 -0.23027763061E+04  0.23027763061E+04  0.00000000000E+00 0. -1.
         35    2    1    2    0    0  0.71054273576E-14  0.00000000000E+00 -0.22955491661E+04  0.23100034462E+04  0.25801152575E+03 0.  0.
         25    2    3    3    0    0 -0.33449985534E+01  0.18651900779E+02 -0.13671945924E+04  0.13730487207E+04  0.12523040220E+03 0.  0.
         25    2    3    3    0    0  0.33449985534E+01 -0.18651900779E+02 -0.92835457372E+03  0.93695472546E+03  0.12523122854E+03 0.  0.
          5    1    4    4  502    0  0.58772446889E+02  0.24923038486E+02 -0.67506707247E+03  0.67809512658E+03  0.47000000000E+01 0.  1.
         -5    1    4    4    0  502 -0.62117445443E+02 -0.62711377072E+01 -0.69212751991E+03  0.69495359414E+03  0.47000000000E+01 0.  1.
          5    1    5    5  503    0  0.36741241059E+02 -0.43426589693E+01 -0.84597050215E+03  0.84679215749E+03  0.47000000000E+01 0. -1.
         -5    1    5    5    0  503 -0.33396242505E+02 -0.14309241809E+02 -0.82384071568E+02  0.90162567969E+02  0.47000000000E+01 0. -1.
<mgrwt>
<rscale>  0 0.25801153E+03</rscale>
<asrwt>0</asrwt>
<pdfrwt beam="1">  1        2 0.35427284E+00 0.25801153E+03</pdfrwt>
<pdfrwt beam="2">  1       -2 0.11118691E-02 0.25801153E+03</pdfrwt>
<totfact> 0.93689134E+03</totfact>
</mgrwt>
</event>
<event>
 9    1  0.8186049E-001  0.2591306E+03  0.7818608E-02  0.1107667E+00
         -2   -1    0    0    0  501 -0.00000000000E+00  0.00000000000E+00  0.67924979920E+01  0.67924979920E+01  0.00000000000E+00 0. -1.
          2   -1    0    0  501    0  0.00000000000E+00 -0.00000000000E+00 -0.24714273644E+04  0.24714273644E+04  0.00000000000E+00 0. -1.
         35    2    1    2    0    0 -0.35527136788E-14  0.00000000000E+00 -0.24646348664E+04  0.24782198624E+04  0.25913058801E+03 0.  0.
         25    2    3    3    0    0 -0.25095355021E+02 -0.51991841149E+01 -0.99920404907E+03  0.10073125781E+04  0.12495235093E+03 0.  0.
         25    2    3    3    0    0  0.25095355021E+02  0.51991841149E+01 -0.14654308174E+04  0.14709072843E+04  0.12419319691E+03 0.  0.
          5    1    4    4  502    0 -0.17976816559E+02  0.38370674463E+02 -0.86306081748E+03  0.86411315189E+03  0.47000000000E+01 0.  1.
         -5    1    4    4    0  502 -0.71185384623E+01 -0.43569858578E+02 -0.13614323159E+03  0.14319942623E+03  0.47000000000E+01 0.  1.
          5    1    5    5  503    0  0.65366457991E+02  0.19699081069E+02 -0.51828437528E+03  0.52278256597E+03  0.47000000000E+01 0.  1.
         -5    1    5    5    0  503 -0.40271102970E+02 -0.14499896954E+02 -0.94714644208E+03  0.94812471832E+03  0.47000000000E+01 0.  1.
<mgrwt>
<rscale>  0 0.25913059E+03</rscale>
<asrwt>0</asrwt>
<pdfrwt beam="1">  1        2 0.38022001E+00 0.25913059E+03</pdfrwt>
<pdfrwt beam="2">  1       -2 0.10449985E-02 0.25913059E+03</pdfrwt>
<totfact> 0.83129429E+03</totfact>
</mgrwt>
</event>
<event>
 9    1  0.8186049E-001  0.2744231E+03  0.7818608E-02  0.1098774E+00
         -1   -1    0    0    0  501 -0.00000000000E+00  0.00000000000E+00  0.45702929705E+02  0.45702929705E+02  0.00000000000E+00 0. -1.
          1   -1    0    0  501    0  0.00000000000E+00 -0.00000000000E+00 -0.41194325235E+03  0.41194325235E+03  0.00000000000E+00 0. -1.
         35    2    1    2    0    0 -0.71054273576E-14  0.00000000000E+00 -0.36624032265E+03  0.45764618206E+03  0.27442312953E+03 0.  0.
         25    2    3    3    0    0 -0.53355844236E+02 -0.20554723069E+02 -0.18964247536E+03  0.23395210540E+03  0.12449890123E+03 0.  0.
         25    2    3    3    0    0  0.53355844236E+02  0.20554723069E+02 -0.17659784729E+03  0.22369407666E+03  0.12483147644E+03 0.  0.
          5    1    4    4  502    0 -0.44942790183E+01  0.13683899309E+01 -0.17903135801E+03  0.17915464879E+03  0.47000000000E+01 0.  1.
         -5    1    4    4    0  502 -0.48861565217E+02 -0.21923113000E+02 -0.10611117350E+02  0.54797456606E+02  0.47000000000E+01 0.  1.
          5    1    5    5  503    0  0.11114802036E+02  0.24911272842E+02  0.12107609151E+02  0.30212489773E+02  0.47000000000E+01 0. -1.
         -5    1    5    5    0  503  0.42241042200E+02 -0.43565497732E+01 -0.18870545644E+03  0.19348158689E+03  0.47000000000E+01 0. -1.
<mgrwt>
<rscale>  0 0.27442313E+03</rscale>
<asrwt>0</asrwt>
<pdfrwt beam="1">  1        1 0.63375888E-01 0.27442313E+03</pdfrwt>
<pdfrwt beam="2">  1       -1 0.70312196E-02 0.27442313E+03</pdfrwt>
<totfact> 0.60848013E+03</totfact>
</mgrwt>
</event>
<event>
 9    1  0.8186049E-001  0.2737931E+03  0.7818608E-02  0.1099128E+00
          1   -1    0    0  501    0  0.00000000000E+00  0.00000000000E+00  0.18039361195E+03  0.18039361195E+03  0.00000000000E+00 0.  1.
         -1   -1    0    0    0  501 -0.00000000000E+00 -0.00000000000E+00 -0.10388761650E+03  0.10388761650E+03  0.00000000000E+00 0.  1.
         35    2    1    2    0    0  0.00000000000E+00  0.21316282073E-13  0.76505995452E+02  0.28428122844E+03  0.27379307790E+03 0.  0.
         25    2    3    3    0    0  0.10166728650E+02  0.52551360961E+02  0.56516140426E+02  0.14668582054E+03  0.12432878954E+03 0.  0.
         25    2    3    3    0    0 -0.10166728650E+02 -0.52551360961E+02  0.19989855026E+02  0.13759540790E+03  0.12517145865E+03 0.  0.
          5    1    4    4  502    0  0.53627118792E+02 -0.14104001814E+02  0.23011912505E+02  0.60219837713E+02  0.47000000000E+01 0.  1.
         -5    1    4    4    0  502 -0.43460390142E+02  0.66655362774E+02  0.33504227921E+02  0.86465982829E+02  0.47000000000E+01 0.  1.
          5    1    5    5  503    0  0.19081539584E+02  0.36120521209E+02 -0.32881354611E+01  0.41251654998E+02  0.47000000000E+01 0. -1.
         -5    1    5    5    0  503 -0.29248268234E+02 -0.88671882169E+02  0.23277990487E+02  0.96343752902E+02  0.47000000000E+01 0. -1.
<mgrwt>
<rscale>  0 0.27379308E+03</rscale>
<asrwt>0</asrwt>
<pdfrwt beam="1">  1        1 0.27752863E-01 0.27379308E+03</pdfrwt>
<pdfrwt beam="2">  1       -1 0.15982710E-01 0.27379308E+03</pdfrwt>
<totfact> 0.48226750E+03</totfact>
</mgrwt>
</event>
<event>
 9    1  0.8186049E-001  0.2741116E+03  0.7818608E-02  0.1098949E+00
         -1   -1    0    0    0  501 -0.00000000000E+00  0.00000000000E+00  0.30578256298E+02  0.30578256298E+02  0.00000000000E+00 0. -1.
          1   -1    0    0  501    0  0.00000000000E+00 -0.00000000000E+00 -0.61430245746E+03  0.61430245746E+03  0.00000000000E+00 0. -1.
         35    2    1    2    0    0  0.71054273576E-14  0.00000000000E+00 -0.58372420117E+03  0.64488071376E+03  0.27411164141E+03 0.  0.
         25    2    3    3    0    0  0.26419296700E+02 -0.29252698106E+01 -0.40759616188E+03  0.42711322687E+03  0.12483805887E+03 0.  0.
         25    2    3    3    0    0 -0.26419296700E+02  0.29252698106E+01 -0.17612803928E+03  0.21776748689E+03  0.12527990934E+03 0.  0.
          5    1    4    4  502    0  0.67654284467E+02 -0.89116076709E+01 -0.34536614910E+03  0.35207440393E+03  0.47000000000E+01 0. -1.
         -5    1    4    4    0  502 -0.41234987767E+02  0.59863378603E+01 -0.62230012787E+02  0.75038822942E+02  0.47000000000E+01 0. -1.
          5    1    5    5  503    0  0.35528187687E+02  0.65859996929E+01 -0.14238810016E+03  0.14697648989E+03  0.47000000000E+01 0.  1.
         -5    1    5    5    0  503 -0.61947484387E+02 -0.36607298823E+01 -0.33739939123E+02  0.70790997007E+02  0.47000000000E+01 0.  1.
<mgrwt>
<rscale>  0 0.27411164E+03</rscale>
<asrwt>0</asrwt>
<pdfrwt beam="1">  1        1 0.94508066E-01 0.27411164E+03</pdfrwt>
<pdfrwt beam="2">  1       -1 0.47043473E-02 0.27411164E+03</pdfrwt>
<totfact> 0.65389174E+03</totfact>
</mgrwt>
</event>
<event>
 9    1  0.8186049E-001  0.2741573E+03  0.7818608E-02  0.1098924E+00
          4   -1    0    0  501    0  0.00000000000E+00  0.00000000000E+00  0.14004088616E+03  0.14004088616E+03  0.00000000000E+00 0.  1.
         -4   -1    0    0    0  501 -0.00000000000E+00 -0.00000000000E+00 -0.13417910832E+03  0.13417910832E+03  0.00000000000E+00 0.  1.
         35    2    1    2    0    0  0.35527136788E-14  0.00000000000E+00  0.58617778413E+01  0.27421999448E+03  0.27415733609E+03 0.  0.
         25    2    3    3    0    0  0.57113585567E+01 -0.50140246551E+02 -0.14172206373E+02  0.13553895714E+03  0.12499317393E+03 0.  0.
         25    2    3    3    0    0 -0.57113585567E+01  0.50140246551E+02  0.20033984215E+02  0.13868103734E+03  0.12761036656E+03 0.  0.
          5    1    4    4  502    0 -0.26517628751E+02 -0.78497697747E+02  0.13740164082E+02  0.84118697655E+02  0.47000000000E+01 0.  1.
         -5    1    4    4    0  502  0.32228987308E+02  0.28357451195E+02 -0.27912370455E+02  0.51420259486E+02  0.47000000000E+01 0.  1.
          5    1    5    5  503    0 -0.54244819099E+02  0.65880597728E+02  0.66669497879E+01  0.85728010449E+02  0.47000000000E+01 0. -1.
         -5    1    5    5    0  503  0.48533460542E+02 -0.15740351176E+02  0.13367034427E+02  0.52953026889E+02  0.47000000000E+01 0. -1.
<mgrwt>
<rscale>  0 0.27415734E+03</rscale>
<asrwt>0</asrwt>
<pdfrwt beam="1">  1        4 0.21544752E-01 0.27415734E+03</pdfrwt>
<pdfrwt beam="2">  1       -4 0.20642940E-01 0.27415734E+03</pdfrwt>
<totfact> 0.78699647E+02</totfact>
</mgrwt>
</event>
<event>
 9    1  0.8186049E-001  0.2755162E+03  0.7818608E-02  0.1098163E+00
         -1   -1    0    0    0  501 -0.00000000000E+00  0.00000000000E+00  0.20290893550E+03  0.20290893550E+03  0.00000000000E+00 0.  1.
          1   -1    0    0  501    0  0.00000000000E+00 -0.00000000000E+00 -0.93526194549E+02  0.93526194549E+02  0.00000000000E+00 0.  1.
         35    2    1    2    0    0 -0.44408920985E-14  0.00000000000E+00  0.10938274095E+03  0.29643513005E+03  0.27551624690E+03 0.  0.
         25    2    3    3    0    0 -0.66356972301E+01 -0.33465786600E+01 -0.78098003329E+01  0.12434770084E+03  0.12387948037E+03 0.  0.
         25    2    3    3    0    0  0.66356972301E+01  0.33465786600E+01  0.11719254128E+03  0.17208742921E+03  0.12579650032E+03 0.  0.
          5    1    4    4  502    0  0.42357744599E+02  0.24543507371E+02  0.28773123770E+02  0.56978460255E+02  0.47000000000E+01 0. -1.
         -5    1    4    4    0  502 -0.48993441829E+02 -0.27890086031E+02 -0.36582924103E+02  0.67369240585E+02  0.47000000000E+01 0. -1.
          5    1    5    5  503    0  0.97183555723E+01 -0.12575288408E+02 -0.24397440092E+02  0.29494226497E+02  0.47000000000E+01 0. -1.
         -5    1    5    5    0  503 -0.30826583422E+01  0.15921867068E+02  0.14158998137E+03  0.14259320271E+03  0.47000000000E+01 0. -1.
<mgrwt>
<rscale>  0 0.27551625E+03</rscale>
<asrwt>0</asrwt>
<pdfrwt beam="1">  1        1 0.14388645E-01 0.27551625E+03</pdfrwt>
<pdfrwt beam="2">  1       -1 0.31216759E-01 0.27551625E+03</pdfrwt>
<totfact> 0.37377481E+03</totfact>
</mgrwt>
</event>
<event>
 9    1  0.8186049E-001  0.2794197E+03  0.7818608E-02  0.1096006E+00
          2   -1    0    0  501    0  0.00000000000E+00  0.00000000000E+00  0.85974623805E+03  0.85974623805E+03  0.00000000000E+00 0. -1.
         -2   -1    0    0    0  501 -0.00000000000E+00 -0.00000000000E+00 -0.22703028785E+02  0.22703028785E+02  0.00000000000E+00 0. -1.
         35    2    1    2    0    0 -0.71054273576E-14  0.00000000000E+00  0.83704320927E+03  0.88244926684E+03  0.27941971004E+03 0.  0.
         25    2    3    3    0    0  0.59913867940E+02 -0.82713328303E+01  0.46860715289E+03  0.48865790758E+03  0.12464269084E+03 0.  0.
         25    2    3    3    0    0 -0.59913867940E+02  0.82713328303E+01  0.36843605638E+03  0.39379135926E+03  0.12517356139E+03 0.  0.
          5    1    4    4  502    0  0.29817534319E+02  0.34130619228E+02  0.53468958476E+02  0.70249583930E+02  0.47000000000E+01 0.  1.
         -5    1    4    4    0  502  0.30096333621E+02 -0.42401952059E+02  0.41513819441E+03  0.41840832365E+03  0.47000000000E+01 0.  1.
          5    1    5    5  503    0 -0.48382589798E+02  0.56036039806E+02  0.30228072863E+03  0.31125012716E+03  0.47000000000E+01 0.  1.
         -5    1    5    5    0  503 -0.11531278142E+02 -0.47764706976E+02  0.66155327747E+02  0.82541232105E+02  0.47000000000E+01 0.  1.
<mgrwt>
<rscale>  0 0.27941971E+03</rscale>
<asrwt>0</asrwt>
<pdfrwt beam="1">  1        2 0.13226863E+00 0.27941971E+03</pdfrwt>
<pdfrwt beam="2">  1       -2 0.34927743E-02 0.27941971E+03</pdfrwt>
<totfact> 0.10864218E+04</totfact>
</mgrwt>
</event>
<event>
 9    1  0.8186049E-001  0.2748998E+03  0.7818608E-02  0.1098508E+00
          1   -1    0    0  501    0  0.00000000000E+00  0.00000000000E+00  0.42198233438E+03  0.42198233438E+03  0.00000000000E+00 0.  1.
         -1   -1    0    0    0  501 -0.00000000000E+00 -0.00000000000E+00 -0.44770762369E+02  0.44770762369E+02  0.00000000000E+00 0.  1.
         35    2    1    2    0    0 -0.71054273576E-14  0.71054273576E-14  0.37721157201E+03  0.46675309675E+03  0.27489976949E+03 0.  0.
         25    2    3    3    0    0  0.40819846748E+02  0.39348865287E+02  0.16916507294E+03  0.21764745112E+03  0.12465551729E+03 0.  0.
         25    2    3    3    0    0 -0.40819846748E+02 -0.39348865287E+02  0.20804649907E+03  0.24910564562E+03  0.12472242708E+03 0.  0.
          5    1    4    4  502    0  0.65842416124E+02 -0.13023229616E+02  0.13313235919E+03  0.14916817132E+03  0.47000000000E+01 0. -1.
         -5    1    4    4    0  502 -0.25022569376E+02  0.52372094903E+02  0.36032713745E+02  0.68479279804E+02  0.47000000000E+01 0. -1.
          5    1    5    5  503    0  0.33790154116E+02 -0.49267185085E+02  0.11164666365E+03  0.12671265740E+03  0.47000000000E+01 0.  1.
         -5    1    5    5    0  503 -0.74610000865E+02  0.99183197982E+01  0.96399835419E+02  0.12239298822E+03  0.47000000000E+01 0.  1.
<mgrwt>
<rscale>  0 0.27489977E+03</rscale>
<asrwt>0</asrwt>
<pdfrwt beam="1">  1        1 0.64920356E-01 0.27489977E+03</pdfrwt>
<pdfrwt beam="2">  1       -1 0.68878099E-02 0.27489977E+03</pdfrwt>
<totfact> 0.60865469E+03</totfact>
</mgrwt>
</event>
<event>
 9    1  0.8186049E-001  0.2779940E+03  0.7818608E-02  0.1096790E+00
         -2   -1    0    0    0  501 -0.00000000000E+00  0.00000000000E+00  0.17581938376E+03  0.17581938376E+03  0.00000000000E+00 0. -1.
          2   -1    0    0  501    0  0.00000000000E+00 -0.00000000000E+00 -0.10988646167E+03  0.10988646167E+03  0.00000000000E+00 0. -1.
         35    2    1    2    0    0  0.71054273576E-14  0.71054273576E-14  0.65932922092E+02  0.28570584543E+03  0.27799402853E+03 0.  0.
         25    2    3    3    0    0 -0.28454810626E+02 -0.32764700790E+02  0.80428481959E+02  0.15463283837E+03  0.12473721227E+03 0.  0.
         25    2    3    3    0    0  0.28454810626E+02  0.32764700790E+02 -0.14495559867E+02  0.13107300706E+03  0.12282837644E+03 0.  0.
          5    1    4    4  502    0  0.12787430613E+02 -0.21445322078E+02  0.10297171836E+03  0.10605981804E+03  0.47000000000E+01 0. -1.
         -5    1    4    4    0  502 -0.41242241239E+02 -0.11319378712E+02 -0.22543236397E+02  0.48573020331E+02  0.47000000000E+01 0. -1.
          5    1    5    5  503    0  0.28269078287E+02 -0.31832272547E+02  0.30175823882E+02  0.52393746856E+02  0.47000000000E+01 0.  1.
         -5    1    5    5    0  503  0.18573233960E+00  0.64596973337E+02 -0.44671383749E+02  0.78679260208E+02  0.47000000000E+01 0.  1.
<mgrwt>
<rscale>  0 0.27799403E+03</rscale>
<asrwt>0</asrwt>
<pdfrwt beam="1">  1        2 0.16905609E-01 0.27799403E+03</pdfrwt>
<pdfrwt beam="2">  1       -2 0.27049136E-01 0.27799403E+03</pdfrwt>
<totfact> 0.41503461E+03</totfact>
</mgrwt>
</event>
<event>
 9    1  0.8186049E-001  0.2995748E+03  0.7818608E-02  0.1085453E+00
         -2   -1    0    0    0  501 -0.00000000000E+00  0.00000000000E+00  0.41919210601E+03  0.41919210601E+03  0.00000000000E+00 0. -1.
          2   -1    0    0  501    0  0.00000000000E+00 -0.00000000000E+00 -0.53522621373E+02  0.53522621373E+02  0.00000000000E+00 0. -1.
         35    2    1    2    0    0  0.00000000000E+00  0.00000000000E+00  0.36566948463E+03  0.47271472738E+03  0.29957476778E+03 0.  0.
         25    2    3    3    0    0 -0.23498829892E+02 -0.19516578396E+02  0.64325659135E+02  0.14429038272E+03  0.12549435161E+03 0.  0.
         25    2    3    3    0    0  0.23498829892E+02  0.19516578396E+02  0.30134382550E+03  0.32842434465E+03  0.12696990650E+03 0.  0.
          5    1    4    4  502    0  0.14192206935E+01 -0.14956061421E+02  0.99473298655E+02  0.10071109723E+03  0.47000000000E+01 0.  1.
         -5    1    4    4    0  502 -0.24918050586E+02 -0.45605169747E+01 -0.35147639520E+02  0.43579285491E+02  0.47000000000E+01 0.  1.
          5    1    5    5  503    0 -0.11934623477E+02  0.63464826862E+02  0.98944247173E+02  0.11824666395E+03  0.47000000000E+01 0. -1.
         -5    1    5    5    0  503  0.35433453369E+02 -0.43948248466E+02  0.20239957833E+03  0.21017768071E+03  0.47000000000E+01 0. -1.
<mgrwt>
<rscale>  0 0.29957477E+03</rscale>
<asrwt>0</asrwt>
<pdfrwt beam="1">  1        2 0.82342497E-02 0.29957477E+03</pdfrwt>
<pdfrwt beam="2">  1       -2 0.64491091E-01 0.29957477E+03</pdfrwt>
<totfact> 0.18641062E+03</totfact>
</mgrwt>
</event>
<event>
 9    1  0.8186049E-001  0.2747492E+03  0.7818608E-02  0.1098592E+00
          2   -1    0    0  501    0  0.00000000000E+00  0.00000000000E+00  0.12292299549E+04  0.12292299549E+04  0.00000000000E+00 0. -1.
         -2   -1    0    0    0  501 -0.00000000000E+00 -0.00000000000E+00 -0.15352521963E+02  0.15352521963E+02  0.00000000000E+00 0. -1.
         35    2    1    2    0    0 -0.35527136788E-14  0.00000000000E+00  0.12138774329E+04  0.12445824768E+04  0.27474919385E+03 0.  0.
         25    2    3    3    0    0  0.31273833461E+02 -0.23496519984E+02  0.41261467772E+03  0.43264879396E+03  0.12411272110E+03 0.  0.
         25    2    3    3    0    0 -0.31273833461E+02  0.23496519984E+02  0.80126275520E+03  0.81193368289E+03  0.12523643007E+03 0.  0.
          5    1    4    4  502    0  0.22723169262E+02 -0.69846835595E+02  0.16686202004E+03  0.18237309723E+03  0.47000000000E+01 0. -1.
         -5    1    4    4    0  502  0.85506641992E+01  0.46350315611E+02  0.24575265768E+03  0.25027569673E+03  0.47000000000E+01 0. -1.
          5    1    5    5  503    0  0.11075515276E+02 -0.32372883051E+02  0.78471624948E+02  0.85735386613E+02  0.47000000000E+01 0.  1.
         -5    1    5    5    0  503 -0.42349348737E+02  0.55869403035E+02  0.72279113026E+03  0.72619829627E+03  0.47000000000E+01 0.  1.
<mgrwt>
<rscale>  0 0.27474919E+03</rscale>
<asrwt>0</asrwt>
<pdfrwt beam="1">  1        2 0.18911222E+00 0.27474919E+03</pdfrwt>
<pdfrwt beam="2">  1       -2 0.23619274E-02 0.27474919E+03</pdfrwt>
<totfact> 0.11612056E+04</totfact>
</mgrwt>
</event>
<event>
 9    1  0.8186049E-001  0.2690181E+03  0.7818608E-02  0.1101843E+00
         -1   -1    0    0    0  501 -0.00000000000E+00  0.00000000000E+00  0.67979932192E+01  0.67979932192E+01  0.00000000000E+00 0. -1.
          1   -1    0    0  501    0  0.00000000000E+00 -0.00000000000E+00 -0.26614737389E+04  0.26614737389E+04  0.00000000000E+00 0. -1.
         35    2    1    2    0    0  0.00000000000E+00  0.00000000000E+00 -0.26546757457E+04  0.26682717322E+04  0.26901806951E+03 0.  0.
         25    2    3    3    0    0  0.43068695828E+02 -0.11155125306E+02 -0.11240114266E+04  0.11318524326E+04  0.12533512135E+03 0.  0.
         25    2    3    3    0    0 -0.43068695828E+02  0.11155125306E+02 -0.15306643191E+04  0.15364192996E+04  0.12518648844E+03 0.  0.
          5    1    4    4  502    0  0.85389470165E+02 -0.23078302577E+02 -0.77844827183E+03  0.78347161504E+03  0.47000000000E+01 0. -1.
         -5    1    4    4    0  502 -0.42320774338E+02  0.11923177272E+02 -0.34556315477E+03  0.34838081754E+03  0.47000000000E+01 0. -1.
          5    1    5    5  503    0  0.41492754624E+02 -0.74142234244E+01 -0.34668340102E+03  0.34926793431E+03  0.47000000000E+01 0.  1.
         -5    1    5    5    0  503 -0.84561450452E+02  0.18569348730E+02 -0.11839809181E+04  0.11871513653E+04  0.47000000000E+01 0.  1.
<mgrwt>
<rscale>  0 0.26901807E+03</rscale>
<asrwt>0</asrwt>
<pdfrwt beam="1">  1        1 0.40945776E+00 0.26901807E+03</pdfrwt>
<pdfrwt beam="2">  1       -1 0.10458444E-02 0.26901807E+03</pdfrwt>
<totfact> 0.21798633E+03</totfact>
</mgrwt>
</event>
<event>
 9    1  0.8186049E-001  0.3251108E+03  0.7818608E-02  0.1073321E+00
          2   -1    0    0  501    0  0.00000000000E+00  0.00000000000E+00  0.38310498716E+02  0.38310498716E+02  0.00000000000E+00 0.  1.
         -2   -1    0    0    0  501 -0.00000000000E+00 -0.00000000000E+00 -0.68973947022E+03  0.68973947022E+03  0.00000000000E+00 0.  1.
         35    2    1    2    0    0  0.14210854715E-13  0.71054273576E-14 -0.65142897150E+03  0.72804996893E+03  0.32511083087E+03 0.  0.
         25    2    3    3    0    0 -0.84955392705E+02 -0.23398826835E+01 -0.18791937942E+03  0.24067663211E+03  0.12405101484E+03 0.  0.
         25    2    3    3    0    0  0.84955392705E+02  0.23398826835E+01 -0.46350959209E+03  0.48737333682E+03  0.12437336407E+03 0.  0.
          5    1    4    4  502    0 -0.86157389928E+02 -0.41005942468E+02 -0.17542862133E+03  0.19975453522E+03  0.47000000000E+01 0. -1.
         -5    1    4    4    0  502  0.12019972227E+01  0.38666059785E+02 -0.12490758083E+02  0.40922096893E+02  0.47000000000E+01 0. -1.
          5    1    5    5  503    0  0.56220591823E+02 -0.58143358524E+02 -0.20878619560E+03  0.22395350089E+03  0.47000000000E+01 0. -1.
         -5    1    5    5    0  503  0.28734800882E+02  0.60483241208E+02 -0.25472339648E+03  0.26341983594E+03  0.47000000000E+01 0. -1.
<mgrwt>
<rscale>  0 0.32511083E+03</rscale>
<asrwt>0</asrwt>
<pdfrwt beam="1">  1        2 0.58939228E-02 0.32511083E+03</pdfrwt>
<pdfrwt beam="2">  1       -2 0.10611377E+00 0.32511083E+03</pdfrwt>
<totfact> 0.94716489E+02</totfact>
</mgrwt>
</event>
<event>
 9    1  0.8186049E-001  0.2750700E+03  0.7818608E-02  0.1098412E+00
          2   -1    0    0  501    0  0.00000000000E+00  0.00000000000E+00  0.35902684178E+03  0.35902684178E+03  0.00000000000E+00 0.  1.
         -2   -1    0    0    0  501 -0.00000000000E+00 -0.00000000000E+00 -0.52686542558E+02  0.52686542558E+02  0.00000000000E+00 0.  1.
         35    2    1    2    0    0  0.71054273576E-14  0.00000000000E+00  0.30634029922E+03  0.41171338434E+03  0.27507004911E+03 0.  0.
         25    2    3    3    0    0 -0.50489498869E+02 -0.25987739904E+02  0.13532530093E+03  0.19199084264E+03  0.12378608349E+03 0.  0.
         25    2    3    3    0    0  0.50489498869E+02  0.25987739904E+02  0.17101499829E+03  0.21972254169E+03  0.12572713933E+03 0.  0.
          5    1    4    4  502    0 -0.79401317057E+02  0.18412876635E+02  0.94860510465E+02  0.12515674022E+03  0.47000000000E+01 0.  1.
         -5    1    4    4    0  502  0.28911818188E+02 -0.44400616539E+02  0.40464790462E+02  0.66834102426E+02  0.47000000000E+01 0.  1.
          5    1    5    5  503    0  0.34082256429E+02 -0.27603581251E+02  0.15512974393E+03  0.16127890548E+03  0.47000000000E+01 0. -1.
         -5    1    5    5    0  503  0.16407242440E+02  0.53591321154E+02  0.15885254364E+02  0.58443636213E+02  0.47000000000E+01 0. -1.
<mgrwt>
<rscale>  0 0.27507005E+03</rscale>
<asrwt>0</asrwt>
<pdfrwt beam="1">  1        2 0.55234897E-01 0.27507005E+03</pdfrwt>
<pdfrwt beam="2">  1       -2 0.81056222E-02 0.27507005E+03</pdfrwt>
<totfact> 0.82661559E+03</totfact>
</mgrwt>
</event>
<event>
 9    1  0.8186049E-001  0.2632135E+03  0.7818608E-02  0.1105228E+00
          1   -1    0    0  501    0  0.00000000000E+00  0.00000000000E+00  0.98367362590E+02  0.98367362590E+02  0.00000000000E+00 0.  1.
         -1   -1    0    0    0  501 -0.00000000000E+00 -0.00000000000E+00 -0.17607802118E+03  0.17607802118E+03  0.00000000000E+00 0.  1.
         35    2    1    2    0    0  0.00000000000E+00  0.10658141036E-13 -0.77710658595E+02  0.27444538377E+03  0.26321345371E+03 0.  0.
         25    2    3    3    0    0 -0.29786371112E+01  0.20972448155E+02 -0.75715082208E+02  0.14779442902E+03  0.12514672874E+03 0.  0.
         25    2    3    3    0    0  0.29786371112E+01 -0.20972448155E+02 -0.19955763865E+01  0.12665095475E+03  0.12485097579E+03 0.  0.
          5    1    4    4  502    0  0.46066046080E+01  0.70814421072E+02 -0.64326089978E+02  0.95894936726E+02  0.47000000000E+01 0.  1.
         -5    1    4    4    0  502 -0.75852417192E+01 -0.49841972918E+02 -0.11388992230E+02  0.51899492293E+02  0.47000000000E+01 0.  1.
          5    1    5    5  503    0 -0.10768318404E+02 -0.49650263213E+02 -0.48315638648E+02  0.70268031539E+02  0.47000000000E+01 0.  1.
         -5    1    5    5    0  503  0.13746955515E+02  0.28677815059E+02  0.46320062261E+02  0.56382923216E+02  0.47000000000E+01 0.  1.
<mgrwt>
<rscale>  0 0.26321345E+03</rscale>
<asrwt>0</asrwt>
<pdfrwt beam="1">  1        1 0.15133441E-01 0.26321345E+03</pdfrwt>
<pdfrwt beam="2">  1       -1 0.27088926E-01 0.26321345E+03</pdfrwt>
<totfact> 0.44417209E+03</totfact>
</mgrwt>
</event>
<event>
 9    1  0.8186049E-001  0.2746151E+03  0.7818608E-02  0.1098667E+00
         -1   -1    0    0    0  501 -0.00000000000E+00  0.00000000000E+00  0.20234086575E+02  0.20234086575E+02  0.00000000000E+00 0.  1.
          1   -1    0    0  501    0  0.00000000000E+00 -0.00000000000E+00 -0.93176270254E+03  0.93176270254E+03  0.00000000000E+00 0.  1.
         35    2    1    2    0    0  0.00000000000E+00  0.35527136788E-14 -0.91152861597E+03  0.95199678912E+03  0.27461512843E+03 0.  0.
         25    2    3    3    0    0  0.41424237840E+02 -0.10263588769E+02 -0.58825004221E+03  0.60278833138E+03  0.12447630921E+03 0.  0.
         25    2    3    3    0    0 -0.41424237840E+02  0.10263588769E+02 -0.32327857376E+03  0.34920845774E+03  0.12496480292E+03 0.  0.
          5    1    4    4  502    0  0.39968211322E+02 -0.51957353941E+02 -0.16722993001E+03  0.17968017152E+03  0.47000000000E+01 0. -1.
         -5    1    4    4    0  502  0.14560265177E+01  0.41693765172E+02 -0.42102011220E+03  0.42310815986E+03  0.47000000000E+01 0. -1.
          5    1    5    5  503    0 -0.40705419538E+02  0.73547695763E+01 -0.33428704120E+03  0.33686932145E+03  0.47000000000E+01 0. -1.
         -5    1    5    5    0  503 -0.71881830196E+00  0.29088191926E+01  0.11008467447E+02  0.12339136289E+02  0.47000000000E+01 0. -1.
<mgrwt>
<rscale>  0 0.27461513E+03</rscale>
<asrwt>0</asrwt>
<pdfrwt beam="1">  1        1 0.14334813E+00 0.27461513E+03</pdfrwt>
<pdfrwt beam="2">  1       -1 0.31129360E-02 0.27461513E+03</pdfrwt>
<totfact> 0.64327111E+03</totfact>
</mgrwt>
</event>
<event>
 9    1  0.8186049E-001  0.2731592E+03  0.7818608E-02  0.1099485E+00
         -1   -1    0    0    0  501 -0.00000000000E+00  0.00000000000E+00  0.26122502658E+03  0.26122502658E+03  0.00000000000E+00 0. -1.
          1   -1    0    0  501    0  0.00000000000E+00 -0.00000000000E+00 -0.71409662930E+02  0.71409662930E+02  0.00000000000E+00 0. -1.
         35    2    1    2    0    0 -0.71054273576E-14 -0.71054273576E-14  0.18981536365E+03  0.33263468951E+03  0.27315922900E+03 0.  0.
         25    2    3    3    0    0  0.38519948579E+02  0.30158043255E+02  0.12368798964E+03  0.18271598635E+03  0.12527217918E+03 0.  0.
         25    2    3    3    0    0 -0.38519948579E+02 -0.30158043255E+02  0.66127374005E+02  0.14991870315E+03  0.12533752012E+03 0.  0.
          5    1    4    4  502    0  0.16322267409E+02  0.85182745020E+01  0.14407086367E+03  0.14531855068E+03  0.47000000000E+01 0. -1.
         -5    1    4    4    0  502  0.22197681170E+02  0.21639768753E+02 -0.20382874031E+02  0.37397435671E+02  0.47000000000E+01 0. -1.
          5    1    5    5  503    0 -0.33200453528E+02  0.16851016117E+02  0.89421348991E+02  0.96976773064E+02  0.47000000000E+01 0. -1.
         -5    1    5    5    0  503 -0.53194950513E+01 -0.47009059373E+02 -0.23293974985E+02  0.52941930087E+02  0.47000000000E+01 0. -1.
<mgrwt>
<rscale>  0 0.27315923E+03</rscale>
<asrwt>0</asrwt>
<pdfrwt beam="1">  1        1 0.10986102E-01 0.27315923E+03</pdfrwt>
<pdfrwt beam="2">  1       -1 0.40188465E-01 0.27315923E+03</pdfrwt>
<totfact> 0.34422364E+03</totfact>
</mgrwt>
</event>
<event>
 9    1  0.8186049E-001  0.2739885E+03  0.7818608E-02  0.1099018E+00
         -1   -1    0    0    0  501 -0.00000000000E+00  0.00000000000E+00  0.59756354782E+02  0.59756354782E+02  0.00000000000E+00 0. -1.
          1   -1    0    0  501    0  0.00000000000E+00 -0.00000000000E+00 -0.31406573083E+03  0.31406573083E+03  0.00000000000E+00 0. -1.
         35    2    1    2    0    0  0.00000000000E+00  0.00000000000E+00 -0.25430937605E+03  0.37382208562E+03  0.27398849054E+03 0.  0.
         25    2    3    3    0    0 -0.33302571634E+02  0.14113571383E+02 -0.16091147414E+03  0.21225400359E+03  0.13360765456E+03 0.  0.
         25    2    3    3    0    0  0.33302571634E+02 -0.14113571383E+02 -0.93397901916E+02  0.16156808203E+03  0.12677863729E+03 0.  0.
          5    1    4    4  502    0 -0.80101989407E+01 -0.80964445774E+00  0.23592942098E+02  0.25368005993E+02  0.47000000000E+01 0. -1.
         -5    1    4    4    0  502 -0.25292372693E+02  0.14923215841E+02 -0.18450441623E+03  0.18688599760E+03  0.47000000000E+01 0. -1.
          5    1    5    5  503    0  0.68459716864E+02 -0.14405771996E+02 -0.10320126410E+03  0.12476718323E+03  0.47000000000E+01 0.  1.
         -5    1    5    5    0  503 -0.35157145231E+02  0.29220061294E+00  0.98033621847E+01  0.36800898794E+02  0.47000000000E+01 0.  1.
<mgrwt>
<rscale>  0 0.27398849E+03</rscale>
<asrwt>0</asrwt>
<pdfrwt beam="1">  1        1 0.48317804E-01 0.27398849E+03</pdfrwt>
<pdfrwt beam="2">  1       -1 0.91932854E-02 0.27398849E+03</pdfrwt>
<totfact> 0.57030820E+03</totfact>
</mgrwt>
</event>
<event>
 9    1  0.8186049E-001  0.2855051E+03  0.7818608E-02  0.1092720E+00
          2   -1    0    0  501    0  0.00000000000E+00  0.00000000000E+00  0.11125753384E+03  0.11125753384E+03  0.00000000000E+00 0. -1.
         -2   -1    0    0    0  501 -0.00000000000E+00 -0.00000000000E+00 -0.18316319737E+03  0.18316319737E+03  0.00000000000E+00 0. -1.
         35    2    1    2    0    0 -0.35527136788E-14  0.71054273576E-14 -0.71905663537E+02  0.29442073121E+03  0.28550506566E+03 0.  0.
         25    2    3    3    0    0 -0.34715227642E+01 -0.51458170130E+02 -0.82041077757E+02  0.15907187867E+03  0.12614725284E+03 0.  0.
         25    2    3    3    0    0  0.34715227642E+01  0.51458170130E+02  0.10135414220E+02  0.13534885254E+03  0.12472606191E+03 0.  0.
          5    1    4    4  502    0  0.20131096434E+02  0.37988954974E+02 -0.20485903564E+02  0.47855866814E+02  0.47000000000E+01 0.  1.
         -5    1    4    4    0  502 -0.23602619198E+02 -0.89447125104E+02 -0.61555174193E+02  0.11121601185E+03  0.47000000000E+01 0.  1.
          5    1    5    5  503    0  0.63530434139E+02  0.33925982381E+02  0.35418946124E+01  0.72261492926E+02  0.47000000000E+01 0. -1.
         -5    1    5    5    0  503 -0.60058911375E+02  0.17532187749E+02  0.65935196072E+01  0.63087359618E+02  0.47000000000E+01 0. -1.
<mgrwt>
<rscale>  0 0.28550507E+03</rscale>
<asrwt>0</asrwt>
<pdfrwt beam="1">  1        2 0.17116544E-01 0.28550507E+03</pdfrwt>
<pdfrwt beam="2">  1       -2 0.28178953E-01 0.28550507E+03</pdfrwt>
<totfact> 0.38042857E+03</totfact>
</mgrwt>
</event>
<event>
 9    1  0.8186049E-001  0.2823333E+03  0.7818608E-02  0.1094421E+00
         -2   -1    0    0    0  501 -0.00000000000E+00  0.00000000000E+00  0.22059704154E+02  0.22059704154E+02  0.00000000000E+00 0. -1.
          2   -1    0    0  501    0  0.00000000000E+00 -0.00000000000E+00 -0.90336748837E+03  0.90336748837E+03  0.00000000000E+00 0. -1.
         35    2    1    2    0    0  0.00000000000E+00  0.00000000000E+00 -0.88130778421E+03  0.92542719252E+03  0.28233327495E+03 0.  0.
         25    2    3    3    0    0 -0.55896813068E+02  0.10598592723E+02 -0.31882078101E+03  0.34685155828E+03  0.12418747602E+03 0.  0.
         25    2    3    3    0    0  0.55896813068E+02 -0.10598592723E+02 -0.56248700321E+03  0.57857563424E+03  0.12296890616E+03 0.  0.
          5    1    4    4  502    0 -0.50951083368E+02  0.55323522328E+02 -0.11100090485E+03  0.13416406336E+03  0.47000000000E+01 0.  1.
         -5    1    4    4    0  502 -0.49457297000E+01 -0.44724929604E+02 -0.20781987615E+03  0.21268749492E+03  0.47000000000E+01 0.  1.
          5    1    5    5  503    0  0.46347651604E+01 -0.57434596302E+02 -0.16018729847E+03  0.17030054166E+03  0.47000000000E+01 0. -1.
         -5    1    5    5    0  503  0.51262047907E+02  0.46836003579E+02 -0.40229970474E+03  0.40827509258E+03  0.47000000000E+01 0. -1.
<mgrwt>
<rscale>  0 0.28233327E+03</rscale>
<asrwt>0</asrwt>
<pdfrwt beam="1">  1        2 0.13897961E+00 0.28233327E+03</pdfrwt>
<pdfrwt beam="2">  1       -2 0.33938007E-02 0.28233327E+03</pdfrwt>
<totfact> 0.10624123E+04</totfact>
</mgrwt>
</event>
<event>
 9    1  0.8186049E-001  0.2746354E+03  0.7818608E-02  0.1098656E+00
         -3   -1    0    0    0  501 -0.00000000000E+00  0.00000000000E+00  0.55096121178E+02  0.55096121178E+02  0.00000000000E+00 0.  1.
          3   -1    0    0  501    0  0.00000000000E+00 -0.00000000000E+00 -0.34224095595E+03  0.34224095595E+03  0.00000000000E+00 0.  1.
         35    2    1    2    0    0 -0.17763568394E-14 -0.71054273576E-14 -0.28714483477E+03  0.39733707712E+03  0.27463538870E+03 0.  0.
         25    2    3    3    0    0 -0.14369316106E+01 -0.48336910383E+02 -0.18896090246E+03  0.23139088847E+03  0.12448694281E+03 0.  0.
         25    2    3    3    0    0  0.14369316106E+01  0.48336910383E+02 -0.98183932306E+02  0.16594618866E+03  0.12473785026E+03 0.  0.
          5    1    4    4  502    0  0.20002853893E+02 -0.71735036915E+02 -0.18447737840E+03  0.19899754478E+03  0.47000000000E+01 0.  1.
         -5    1    4    4    0  502 -0.21439785503E+02  0.23398126532E+02 -0.44835240616E+01  0.32393343694E+02  0.47000000000E+01 0.  1.
          5    1    5    5  503    0 -0.95086976083E+01 -0.10676932709E+02  0.24804416668E+02  0.29013123040E+02  0.47000000000E+01 0. -1.
         -5    1    5    5    0  503  0.10945629219E+02  0.59013843092E+02 -0.12298834897E+03  0.13693306562E+03  0.47000000000E+01 0. -1.
<mgrwt>
<rscale>  0 0.27463539E+03</rscale>
<asrwt>0</asrwt>
<pdfrwt beam="1">  1        3 0.52652455E-01 0.27463539E+03</pdfrwt>
<pdfrwt beam="2">  1       -3 0.84763263E-02 0.27463539E+03</pdfrwt>
<totfact> 0.88789071E+02</totfact>
</mgrwt>
</event>
<event>
 9    1  0.8186049E-001  0.2726385E+03  0.7818608E-02  0.1099779E+00
         -2   -1    0    0    0  501 -0.00000000000E+00  0.00000000000E+00  0.40923800476E+02  0.40923800476E+02  0.00000000000E+00 0. -1.
          2   -1    0    0  501    0  0.00000000000E+00 -0.00000000000E+00 -0.45408628119E+03  0.45408628119E+03  0.00000000000E+00 0. -1.
         35    2    1    2    0    0 -0.71054273576E-14  0.00000000000E+00 -0.41316248072E+03  0.49501008167E+03  0.27263848863E+03 0.  0.
         25    2    3    3    0    0  0.25656550037E+02  0.46956486261E+00 -0.11772181308E+03  0.17333337522E+03  0.12460960893E+03 0.  0.
         25    2    3    3    0    0 -0.25656550037E+02 -0.46956486261E+00 -0.29544066763E+03  0.32167670645E+03  0.12462839296E+03 0.  0.
          5    1    4    4  502    0  0.61187371801E+02  0.28021783459E+02 -0.28347522493E+02  0.73176409092E+02  0.47000000000E+01 0. -1.
         -5    1    4    4    0  502 -0.35530821764E+02 -0.27552218596E+02 -0.89374290590E+02  0.10015696612E+03  0.47000000000E+01 0. -1.
          5    1    5    5  503    0 -0.80548721223E+01  0.51948017124E+02 -0.60566843905E+02  0.80336231108E+02  0.47000000000E+01 0.  1.
         -5    1    5    5    0  503 -0.17601677915E+02 -0.52417581987E+02 -0.23487382373E+03  0.24134047535E+03  0.47000000000E+01 0.  1.
<mgrwt>
<rscale>  0 0.27263849E+03</rscale>
<asrwt>0</asrwt>
<pdfrwt beam="1">  1        2 0.69859431E-01 0.27263849E+03</pdfrwt>
<pdfrwt beam="2">  1       -2 0.62959690E-02 0.27263849E+03</pdfrwt>
<totfact> 0.94669267E+03</totfact>
</mgrwt>
</event>
<event>
 9    1  0.8186049E-001  0.2755824E+03  0.7818608E-02  0.1098127E+00
          2   -1    0    0  501    0  0.00000000000E+00  0.00000000000E+00  0.16726953096E+04  0.16726953096E+04  0.00000000000E+00 0. -1.
         -2   -1    0    0    0  501 -0.00000000000E+00 -0.00000000000E+00 -0.11350789197E+02  0.11350789197E+02  0.00000000000E+00 0. -1.
         35    2    1    2    0    0  0.17763568394E-14  0.14210854715E-13  0.16613445204E+04  0.16840460988E+04  0.27558237861E+03 0.  0.
         25    2    3    3    0    0 -0.15819691148E+02 -0.33957889947E+02  0.11047902104E+04  0.11124269742E+04  0.12461526061E+03 0.  0.
         25    2    3    3    0    0  0.15819691148E+02  0.33957889947E+02  0.55655431003E+03  0.57161912455E+03  0.12486922207E+03 0.  0.
          5    1    4    4  502    0  0.32417014041E+02 -0.43330974068E+02  0.23330604105E+03  0.23954589311E+03  0.47000000000E+01 0. -1.
         -5    1    4    4    0  502 -0.48236705190E+02  0.93730841215E+01  0.87148416931E+03  0.87288108113E+03  0.47000000000E+01 0. -1.
          5    1    5    5  503    0  0.13146335454E+02 -0.37525355411E+01  0.51515903282E+03  0.51536184061E+03  0.47000000000E+01 0. -1.
         -5    1    5    5    0  503  0.26733556942E+01  0.37710425488E+02  0.41395277203E+02  0.56257283936E+02  0.47000000000E+01 0. -1.
<mgrwt>
<rscale>  0 0.27558238E+03</rscale>
<asrwt>0</asrwt>
<pdfrwt beam="1">  1        2 0.25733755E+00 0.27558238E+03</pdfrwt>
<pdfrwt beam="2">  1       -2 0.17462766E-02 0.27558238E+03</pdfrwt>
<totfact> 0.10425146E+04</totfact>
</mgrwt>
</event>
<event>
 9    1  0.8186049E-001  0.2754988E+03  0.7818608E-02  0.1098173E+00
          1   -1    0    0  501    0  0.00000000000E+00  0.00000000000E+00  0.35899750769E+03  0.35899750769E+03  0.00000000000E+00 0.  1.
         -1   -1    0    0    0  501 -0.00000000000E+00 -0.00000000000E+00 -0.52855250403E+02  0.52855250403E+02  0.00000000000E+00 0.  1.
         35    2    1    2    0    0 -0.71054273576E-14  0.00000000000E+00  0.30614225729E+03  0.41185275809E+03  0.27549884329E+03 0.  0.
         25    2    3    3    0    0  0.43409948069E+02  0.37233663331E+02  0.10402190528E+03  0.17200686666E+03  0.12447905897E+03 0.  0.
         25    2    3    3    0    0 -0.43409948069E+02 -0.37233663331E+02  0.20212035200E+03  0.23984589144E+03  0.11576979601E+03 0.  0.
          5    1    4    4  502    0  0.82806844159E+02  0.45765833344E+02  0.59996922802E+02  0.11213030673E+03  0.47000000000E+01 0. -1.
         -5    1    4    4    0  502 -0.39396896090E+02 -0.85321700123E+01  0.44024982481E+02  0.59876559930E+02  0.47000000000E+01 0. -1.
          5    1    5    5  503    0 -0.18414113086E+02 -0.24638714375E+02  0.20845611665E+03  0.21076571916E+03  0.47000000000E+01 0. -1.
         -5    1    5    5    0  503 -0.24995834983E+02 -0.12594948957E+02 -0.63357646431E+01  0.29080172272E+02  0.47000000000E+01 0. -1.
<mgrwt>
<rscale>  0 0.27549884E+03</rscale>
<asrwt>0</asrwt>
<pdfrwt beam="1">  1        1 0.55230384E-01 0.27549884E+03</pdfrwt>
<pdfrwt beam="2">  1       -1 0.81315772E-02 0.27549884E+03</pdfrwt>
<totfact> 0.58138143E+03</totfact>
</mgrwt>
</event>
<event>
 9    1  0.8186049E-001  0.2780462E+03  0.7818608E-02  0.1096761E+00
         -1   -1    0    0    0  501 -0.00000000000E+00  0.00000000000E+00  0.74948998411E+01  0.74948998411E+01  0.00000000000E+00 0.  1.
          1   -1    0    0  501    0  0.00000000000E+00 -0.00000000000E+00 -0.25787431585E+04  0.25787431585E+04  0.00000000000E+00 0.  1.
         35    2    1    2    0    0  0.00000000000E+00  0.10658141036E-13 -0.25712482586E+04  0.25862380583E+04  0.27804619536E+03 0.  0.
         25    2    3    3    0    0 -0.55621125944E+01  0.31761543794E+02 -0.85664916231E+03  0.86672448315E+03  0.12776466510E+03 0.  0.
         25    2    3    3    0    0  0.55621125944E+01 -0.31761543794E+02 -0.17145990963E+04  0.17195135751E+04  0.12584570432E+03 0.  0.
          5    1    4    4  502    0 -0.51014709098E+02  0.58812016322E+02 -0.46587872650E+03  0.47236260607E+03  0.47000000000E+01 0.  1.
         -5    1    4    4    0  502  0.45452596503E+02 -0.27050472527E+02 -0.39077043581E+03  0.39436187708E+03  0.47000000000E+01 0.  1.
          5    1    5    5  503    0  0.30806056024E+02 -0.32534396462E+02 -0.16399341737E+04  0.16405528593E+04  0.47000000000E+01 0. -1.
         -5    1    5    5    0  503 -0.25243943429E+02  0.77285266715E+00 -0.74664922578E+02  0.78960715832E+02  0.47000000000E+01 0. -1.
<mgrwt>
<rscale>  0 0.27804620E+03</rscale>
<asrwt>0</asrwt>
<pdfrwt beam="1">  1        1 0.39672925E+00 0.27804620E+03</pdfrwt>
<pdfrwt beam="2">  1       -1 0.11530629E-02 0.27804620E+03</pdfrwt>
<totfact> 0.21493385E+03</totfact>
</mgrwt>
</event>
<event>
 9    1  0.8186049E-001  0.2750927E+03  0.7818608E-02  0.1098400E+00
          1   -1    0    0  501    0  0.00000000000E+00  0.00000000000E+00  0.14444001021E+04  0.14444001021E+04  0.00000000000E+00 0.  1.
         -1   -1    0    0    0  501 -0.00000000000E+00 -0.00000000000E+00 -0.13098171745E+02  0.13098171745E+02  0.00000000000E+00 0.  1.
         35    2    1    2    0    0 -0.14210854715E-13 -0.35527136788E-14  0.14313019303E+04  0.14574982738E+04  0.27509271604E+03 0.  0.
         25    2    3    3    0    0 -0.53121147180E+02 -0.12903063942E+02  0.67268065709E+03  0.68653255505E+03  0.12585442933E+03 0.  0.
         25    2    3    3    0    0  0.53121147180E+02  0.12903063942E+02  0.75862127325E+03  0.77096571878E+03  0.12606965523E+03 0.  0.
          5    1    4    4  502    0  0.29657164260E+02 -0.27373744148E+02  0.10396757609E+03  0.11162533824E+03  0.47000000000E+01 0.  1.
         -5    1    4    4    0  502 -0.82778311441E+02  0.14470680206E+02  0.56871308100E+03  0.57490721681E+03  0.47000000000E+01 0.  1.
          5    1    5    5  503    0  0.70954356288E+02 -0.24486956517E+02  0.65451672161E+03  0.65882346693E+03  0.47000000000E+01 0.  1.
         -5    1    5    5    0  503 -0.17833209107E+02  0.37390020460E+02  0.10410455164E+03  0.11214225184E+03  0.47000000000E+01 0.  1.
<mgrwt>
<rscale>  0 0.27509272E+03</rscale>
<asrwt>0</asrwt>
<pdfrwt beam="1">  1        1 0.22221527E+00 0.27509272E+03</pdfrwt>
<pdfrwt beam="2">  1       -1 0.20151045E-02 0.27509272E+03</pdfrwt>
<totfact> 0.52851752E+03</totfact>
</mgrwt>
</event>
<event>
 9    1  0.8186049E-001  0.2809700E+03  0.7818608E-02  0.1095160E+00
          1   -1    0    0  501    0  0.00000000000E+00  0.00000000000E+00  0.13256546882E+04  0.13256546882E+04  0.00000000000E+00 0.  1.
         -1   -1    0    0    0  501 -0.00000000000E+00 -0.00000000000E+00 -0.14887767180E+02  0.14887767180E+02  0.00000000000E+00 0.  1.
         35    2    1    2    0    0  0.00000000000E+00  0.00000000000E+00  0.13107669210E+04  0.13405424554E+04  0.28097002231E+03 0.  0.
         25    2    3    3    0    0 -0.47889768174E+02  0.29500636360E+02  0.59370097658E+03  0.60931620159E+03  0.12498666527E+03 0.  0.
         25    2    3    3    0    0  0.47889768174E+02 -0.29500636360E+02  0.71706594443E+03  0.73122625377E+03  0.13169870198E+03 0.  0.
          5    1    4    4  502    0 -0.43798443740E+02  0.73374136432E+02  0.47425833564E+03  0.48191817406E+03  0.47000000000E+01 0.  1.
         -5    1    4    4    0  502 -0.40913244335E+01 -0.43873500072E+02  0.11944264094E+03  0.12739802753E+03  0.47000000000E+01 0.  1.
          5    1    5    5  503    0 -0.33576582883E+00  0.48449125892E+02  0.32065242541E+03  0.32432622228E+03  0.47000000000E+01 0. -1.
         -5    1    5    5    0  503  0.48225534002E+02 -0.77949762252E+02  0.39641351902E+03  0.40690003149E+03  0.47000000000E+01 0. -1.
<mgrwt>
<rscale>  0 0.28097002E+03</rscale>
<asrwt>0</asrwt>
<pdfrwt beam="1">  1        1 0.20394678E+00 0.28097002E+03</pdfrwt>
<pdfrwt beam="2">  1       -1 0.22904268E-02 0.28097002E+03</pdfrwt>
<totfact> 0.52684998E+03</totfact>
</mgrwt>
</event>
<event>
 9    1  0.8186049E-001  0.2730554E+03  0.7818608E-02  0.1099544E+00
         -1   -1    0    0    0  501 -0.00000000000E+00  0.00000000000E+00  0.10594993172E+03  0.10594993172E+03  0.00000000000E+00 0.  1.
          1   -1    0    0  501    0  0.00000000000E+00 -0.00000000000E+00 -0.17593044981E+03  0.17593044981E+03  0.00000000000E+00 0.  1.
         35    2    1    2    0    0  0.71054273576E-14 -0.35527136788E-14 -0.69980518085E+02  0.28188038153E+03  0.27305544598E+03 0.  0.
         25    2    3    3    0    0  0.47490370771E+02  0.89809931312E+01 -0.21933737046E+02  0.13592887912E+03  0.12513823478E+03 0.  0.
         25    2    3    3    0    0 -0.47490370771E+02 -0.89809931312E+01 -0.48046781038E+02  0.14595150241E+03  0.12906337332E+03 0.  0.
          5    1    4    4  502    0 -0.38301961590E+02 -0.19952470119E+02 -0.87279242494E+01  0.44310359818E+02  0.47000000000E+01 0. -1.
         -5    1    4    4    0  502  0.85792332362E+02  0.28933463250E+02 -0.13205812797E+02  0.91618519303E+02  0.47000000000E+01 0. -1.
          5    1    5    5  503    0 -0.38885683846E+02 -0.67672265289E+02 -0.30312721689E+02  0.83860497218E+02  0.47000000000E+01 0. -1.
         -5    1    5    5    0  503 -0.86046869252E+01  0.58691272158E+02 -0.17734059349E+02  0.62091005190E+02  0.47000000000E+01 0. -1.
<mgrwt>
<rscale>  0 0.27305545E+03</rscale>
<asrwt>0</asrwt>
<pdfrwt beam="1">  1        1 0.27066223E-01 0.27305545E+03</pdfrwt>
<pdfrwt beam="2">  1       -1 0.16299990E-01 0.27305545E+03</pdfrwt>
<totfact> 0.48240102E+03</totfact>
</mgrwt>
</event>
<event>
 9    1  0.8186049E-001  0.2683788E+03  0.7818608E-02  0.1102211E+00
          2   -1    0    0  501    0  0.00000000000E+00  0.00000000000E+00  0.15475757066E+03  0.15475757066E+03  0.00000000000E+00 0.  1.
         -2   -1    0    0    0  501 -0.00000000000E+00 -0.00000000000E+00 -0.11635487884E+03  0.11635487884E+03  0.00000000000E+00 0.  1.
         35    2    1    2    0    0  0.71054273576E-14  0.00000000000E+00  0.38402691817E+02  0.27111244950E+03  0.26837882467E+03 0.  0.
         25    2    3    3    0    0  0.20167579995E+02 -0.48243364375E+02  0.17217341400E+01  0.13570457844E+03  0.12521427535E+03 0.  0.
         25    2    3    3    0    0 -0.20167579995E+02  0.48243364375E+02  0.36680957677E+02  0.13540787106E+03  0.11939700750E+03 0.  0.
          5    1    4    4  502    0 -0.52004252521E+02 -0.30443789889E+02 -0.63971332988E+01  0.60780588493E+02  0.47000000000E+01 0.  1.
         -5    1    4    4    0  502  0.72171832516E+02 -0.17799574486E+02  0.81188674388E+01  0.74923989944E+02  0.47000000000E+01 0.  1.
          5    1    5    5  503    0 -0.92383608619E+01  0.75079602276E+02 -0.13775503864E+02  0.77033424538E+02  0.47000000000E+01 0. -1.
         -5    1    5    5    0  503 -0.10929219133E+02 -0.26836237901E+02  0.50456461541E+02  0.58374446522E+02  0.47000000000E+01 0. -1.
<mgrwt>
<rscale>  0 0.26837882E+03</rscale>
<asrwt>0</asrwt>
<pdfrwt beam="1">  1        2 0.23808857E-01 0.26837882E+03</pdfrwt>
<pdfrwt beam="2">  1       -2 0.17900751E-01 0.26837882E+03</pdfrwt>
<totfact> 0.57288425E+03</totfact>
</mgrwt>
</event>
<event>
 9    1  0.8186049E-001  0.2744838E+03  0.7818608E-02  0.1098741E+00
         -1   -1    0    0    0  501 -0.00000000000E+00  0.00000000000E+00  0.61116995754E+03  0.61116995754E+03  0.00000000000E+00 0.  1.
          1   -1    0    0  501    0  0.00000000000E+00 -0.00000000000E+00 -0.30818487572E+02  0.30818487572E+02  0.00000000000E+00 0.  1.
         35    2    1    2    0    0  0.13322676296E-14 -0.35527136788E-14  0.58035146997E+03  0.64198844511E+03  0.27448376084E+03 0.  0.
         25    2    3    3    0    0 -0.25862560973E+01  0.91646356318E+01  0.15300041478E+03  0.19682137273E+03  0.12344572319E+03 0.  0.
         25    2    3    3    0    0  0.25862560973E+01 -0.91646356318E+01  0.42735105519E+03  0.44516707238E+03  0.12431459565E+03 0.  0.
          5    1    4    4  502    0 -0.44465754203E+01  0.22857344711E+02 -0.15060915350E+02  0.28127413877E+02  0.47000000000E+01 0. -1.
         -5    1    4    4    0  502  0.18603193231E+01 -0.13692709079E+02  0.16806133013E+03  0.16869395886E+03  0.47000000000E+01 0. -1.
          5    1    5    5  503    0 -0.12819091452E+02  0.55557732446E+02  0.17286641474E+03  0.18208755610E+03  0.47000000000E+01 0. -1.
         -5    1    5    5    0  503  0.15405347549E+02 -0.64722368078E+02  0.25448464045E+03  0.26307951628E+03  0.47000000000E+01 0. -1.
<mgrwt>
<rscale>  0 0.27448376E+03</rscale>
<asrwt>0</asrwt>
<pdfrwt beam="1">  1        1 0.47413062E-02 0.27448376E+03</pdfrwt>
<pdfrwt beam="2">  1       -1 0.94026138E-01 0.27448376E+03</pdfrwt>
<totfact> 0.20679466E+03</totfact>
</mgrwt>
</event>
<event>
 9    1  0.8186049E-001  0.2830796E+03  0.7818608E-02  0.1094019E+00
          1   -1    0    0  501    0  0.00000000000E+00  0.00000000000E+00  0.38787476869E+02  0.38787476869E+02  0.00000000000E+00 0.  1.
         -1   -1    0    0    0  501 -0.00000000000E+00 -0.00000000000E+00 -0.51649449480E+03  0.51649449480E+03  0.00000000000E+00 0.  1.
         35    2    1    2    0    0  0.00000000000E+00  0.17763568394E-14 -0.47770701793E+03  0.55528197167E+03  0.28307962322E+03 0.  0.
         25    2    3    3    0    0  0.52549381753E+02  0.44246391217E+01 -0.15951151393E+03  0.20926489117E+03  0.12476720982E+03 0.  0.
         25    2    3    3    0    0 -0.52549381753E+02 -0.44246391217E+01 -0.31819550401E+03  0.34601708050E+03  0.12529336086E+03 0.  0.
          5    1    4    4  502    0 -0.19109914086E+02 -0.58151907705E+01 -0.12891262572E+03  0.13053566689E+03  0.47000000000E+01 0. -1.
         -5    1    4    4    0  502  0.71659295839E+02  0.10239829892E+02 -0.30598888208E+02  0.78729224281E+02  0.47000000000E+01 0. -1.
          5    1    5    5  503    0 -0.69514660001E+02 -0.48417817172E+02 -0.24032973634E+03  0.25486672036E+03  0.47000000000E+01 0. -1.
         -5    1    5    5    0  503  0.16965278248E+02  0.43993178050E+02 -0.77865767661E+02  0.91150360144E+02  0.47000000000E+01 0. -1.
<mgrwt>
<rscale>  0 0.28307962E+03</rscale>
<asrwt>0</asrwt>
<pdfrwt beam="1">  1        1 0.59673041E-02 0.28307962E+03</pdfrwt>
<pdfrwt beam="2">  1       -1 0.79460692E-01 0.28307962E+03</pdfrwt>
<totfact> 0.21521569E+03</totfact>
</mgrwt>
</event>
<event>
 9    1  0.8186049E-001  0.2743570E+03  0.7818608E-02  0.1098812E+00
          2   -1    0    0  501    0  0.00000000000E+00  0.00000000000E+00  0.65303016821E+02  0.65303016821E+02  0.00000000000E+00 0.  1.
         -2   -1    0    0    0  501 -0.00000000000E+00 -0.00000000000E+00 -0.28816339473E+03  0.28816339473E+03  0.00000000000E+00 0.  1.
         35    2    1    2    0    0  0.71054273576E-14  0.71054273576E-14 -0.22286037791E+03  0.35346641155E+03  0.27435698652E+03 0.  0.
         25    2    3    3    0    0  0.59229314657E+02 -0.28724886430E+01 -0.10197643665E+03  0.17025040102E+03  0.12275847225E+03 0.  0.
         25    2    3    3    0    0 -0.59229314657E+02  0.28724886430E+01 -0.12088394126E+03  0.18321601053E+03  0.12425303358E+03 0.  0.
          5    1    4    4  502    0  0.91346847901E+01  0.57054379282E+02 -0.46797722059E+02  0.74503432480E+02  0.47000000000E+01 0. -1.
         -5    1    4    4    0  502  0.50094629867E+02 -0.59926867925E+02 -0.55178714586E+02  0.95746968538E+02  0.47000000000E+01 0. -1.
          5    1    5    5  503    0  0.21658670643E+02  0.41874200036E+02 -0.35367856879E+02  0.59122939227E+02  0.47000000000E+01 0.  1.
         -5    1    5    5    0  503 -0.80887985300E+02 -0.39001711393E+02 -0.85516084384E+02  0.12409307130E+03  0.47000000000E+01 0.  1.
<mgrwt>
<rscale>  0 0.27435699E+03</rscale>
<asrwt>0</asrwt>
<pdfrwt beam="1">  1        2 0.10046618E-01 0.27435699E+03</pdfrwt>
<pdfrwt beam="2">  1       -2 0.44332831E-01 0.27435699E+03</pdfrwt>
<totfact> 0.30946254E+03</totfact>
</mgrwt>
</event>
<event>
 9    1  0.8186049E-001  0.2758647E+03  0.7818608E-02  0.1097969E+00
          1   -1    0    0  501    0  0.00000000000E+00  0.00000000000E+00  0.32995928096E+04  0.32995928096E+04  0.00000000000E+00 0.  1.
         -1   -1    0    0    0  501 -0.00000000000E+00 -0.00000000000E+00 -0.57659636527E+01  0.57659636527E+01  0.00000000000E+00 0.  1.
         35    2    1    2    0    0  0.14210854715E-13 -0.35527136788E-14  0.32938268460E+04  0.33053587733E+04  0.27586469299E+03 0.  0.
         25    2    3    3    0    0  0.41265497019E+02  0.26968734629E+02  0.20170262811E+04  0.20214934308E+04  0.12494205986E+03 0.  0.
         25    2    3    3    0    0 -0.41265497019E+02 -0.26968734629E+02  0.12768005649E+04  0.12838653425E+04  0.12514144480E+03 0.  0.
          5    1    4    4  502    0 -0.44594516940E+02  0.15476375546E+02  0.75532409714E+03  0.75681224281E+03  0.47000000000E+01 0. -1.
         -5    1    4    4    0  502  0.85860013959E+02  0.11492359083E+02  0.12617021840E+04  0.12646811880E+04  0.47000000000E+01 0. -1.
          5    1    5    5  503    0 -0.70008201640E+02 -0.58116165290E+02  0.93030885125E+03  0.93475948012E+03  0.47000000000E+01 0.  1.
         -5    1    5    5    0  503  0.28742704621E+02  0.31147430661E+02  0.34649171365E+03  0.34910586236E+03  0.47000000000E+01 0.  1.
<mgrwt>
<rscale>  0 0.27586469E+03</rscale>
<asrwt>0</asrwt>
<pdfrwt beam="1">  1        1 0.50762815E+00 0.27586469E+03</pdfrwt>
<pdfrwt beam="2">  1       -1 0.88707397E-03 0.27586469E+03</pdfrwt>
<totfact> 0.98874681E+02</totfact>
</mgrwt>
</event>
<event>
 9    1  0.8186049E-001  0.2767891E+03  0.7818608E-02  0.1097456E+00
          2   -1    0    0  501    0  0.00000000000E+00  0.00000000000E+00  0.10729783249E+04  0.10729783249E+04  0.00000000000E+00 0. -1.
         -2   -1    0    0    0  501 -0.00000000000E+00 -0.00000000000E+00 -0.17850363387E+02  0.17850363387E+02  0.00000000000E+00 0. -1.
         35    2    1    2    0    0 -0.71054273576E-14  0.00000000000E+00  0.10551279615E+04  0.10908286883E+04  0.27678911110E+03 0.  0.
         25    2    3    3    0    0 -0.37577504976E+02  0.41037670705E+00  0.34701629675E+03  0.37074805482E+03  0.12498628986E+03 0.  0.
         25    2    3    3    0    0  0.37577504976E+02 -0.41037670705E+00  0.70811166477E+03  0.72008063348E+03  0.12522680079E+03 0.  0.
          5    1    4    4  502    0 -0.26912101593E+02 -0.56597665087E+02  0.24856799731E+03  0.25638973495E+03  0.47000000000E+01 0. -1.
         -5    1    4    4    0  502 -0.10665403383E+02  0.57008041794E+02  0.98448299446E+02  0.11435831986E+03  0.47000000000E+01 0. -1.
          5    1    5    5  503    0  0.27486062053E+02 -0.57399016130E+02  0.23837956462E+03  0.24677325117E+03  0.47000000000E+01 0.  1.
         -5    1    5    5    0  503  0.10091442923E+02  0.56988639423E+02  0.46973210015E+03  0.47330738231E+03  0.47000000000E+01 0.  1.
<mgrwt>
<rscale>  0 0.27678911E+03</rscale>
<asrwt>0</asrwt>
<pdfrwt beam="1">  1        2 0.16507354E+00 0.27678911E+03</pdfrwt>
<pdfrwt beam="2">  1       -2 0.27462106E-02 0.27678911E+03</pdfrwt>
<totfact> 0.11436651E+04</totfact>
</mgrwt>
</event>
<event>
 9    1  0.8186049E-001  0.2749125E+03  0.7818608E-02  0.1098501E+00
         -3   -1    0    0    0  501 -0.00000000000E+00  0.00000000000E+00  0.10512886535E+03  0.10512886535E+03  0.00000000000E+00 0. -1.
          3   -1    0    0  501    0  0.00000000000E+00 -0.00000000000E+00 -0.17972441840E+03  0.17972441840E+03  0.00000000000E+00 0. -1.
         35    2    1    2    0    0 -0.14210854715E-13  0.00000000000E+00 -0.74595553049E+02  0.28485328376E+03  0.27491252560E+03 0.  0.
         25    2    3    3    0    0 -0.39356357543E+02  0.38346789118E+02 -0.18239255665E+02  0.13705299620E+03  0.12422340442E+03 0.  0.
         25    2    3    3    0    0  0.39356357543E+02 -0.38346789118E+02 -0.56356297384E+02  0.14780028755E+03  0.12509793616E+03 0.  0.
          5    1    4    4  502    0 -0.40580604334E+01 -0.16001137333E+01  0.49956815115E+02  0.50366671469E+02  0.47000000000E+01 0. -1.
         -5    1    4    4    0  502 -0.35298297110E+02  0.39946902851E+02 -0.68196070780E+02  0.86686324735E+02  0.47000000000E+01 0. -1.
          5    1    5    5  503    0  0.69704859031E+02  0.13231901682E+02 -0.51058285042E+02  0.87537929300E+02  0.47000000000E+01 0. -1.
         -5    1    5    5    0  503 -0.30348501488E+02 -0.51578690800E+02 -0.52980123413E+01  0.60262358251E+02  0.47000000000E+01 0. -1.
<mgrwt>
<rscale>  0 0.27491253E+03</rscale>
<asrwt>0</asrwt>
<pdfrwt beam="1">  1        3 0.27649910E-01 0.27491253E+03</pdfrwt>
<pdfrwt beam="2">  1       -3 0.16173672E-01 0.27491253E+03</pdfrwt>
<totfact> 0.10350365E+03</totfact>
</mgrwt>
</event>
<event>
 9    1  0.8186049E-001  0.2743209E+03  0.7818608E-02  0.1098832E+00
          2   -1    0    0  501    0  0.00000000000E+00  0.00000000000E+00  0.85329104222E+02  0.85329104222E+02  0.00000000000E+00 0.  1.
         -2   -1    0    0    0  501 -0.00000000000E+00 -0.00000000000E+00 -0.22047565015E+03  0.22047565015E+03  0.00000000000E+00 0.  1.
         35    2    1    2    0    0  0.71054273576E-14 -0.10658141036E-13 -0.13514654593E+03  0.30580475437E+03  0.27432090500E+03 0.  0.
         25    2    3    3    0    0 -0.38608006935E+02 -0.31159255969E+02 -0.34794669649E+02  0.13862920257E+03  0.12468323600E+03 0.  0.
         25    2    3    3    0    0  0.38608006935E+02  0.31159255969E+02 -0.10035187628E+03  0.16717555179E+03  0.12415993160E+03 0.  0.
          5    1    4    4  502    0  0.12996927477E+02 -0.40891352892E+02  0.31855664934E+02  0.53646027380E+02  0.47000000000E+01 0. -1.
         -5    1    4    4    0  502 -0.51604934411E+02  0.97320969236E+01 -0.66650334583E+02  0.84983175195E+02  0.47000000000E+01 0. -1.
          5    1    5    5  503    0  0.24244390356E+02  0.70571384405E+02 -0.21600842028E+02  0.77825427316E+02  0.47000000000E+01 0.  1.
         -5    1    5    5    0  503  0.14363616579E+02 -0.39412128437E+02 -0.78751034249E+02  0.89350124479E+02  0.47000000000E+01 0.  1.
<mgrwt>
<rscale>  0 0.27432090E+03</rscale>
<asrwt>0</asrwt>
<pdfrwt beam="1">  1        2 0.13127554E-01 0.27432090E+03</pdfrwt>
<pdfrwt beam="2">  1       -2 0.33919331E-01 0.27432090E+03</pdfrwt>
<totfact> 0.37101036E+03</totfact>
</mgrwt>
</event>
<event>
 9    1  0.8186049E-001  0.2789644E+03  0.7818608E-02  0.1096256E+00
          1   -1    0    0  501    0  0.00000000000E+00  0.00000000000E+00  0.39124457333E+03  0.39124457333E+03  0.00000000000E+00 0. -1.
         -1   -1    0    0    0  501 -0.00000000000E+00 -0.00000000000E+00 -0.49726641606E+02  0.49726641606E+02  0.00000000000E+00 0. -1.
         35    2    1    2    0    0 -0.14210854715E-13  0.00000000000E+00  0.34151793173E+03  0.44097121494E+03  0.27896436101E+03 0.  0.
         25    2    3    3    0    0 -0.53515056597E+02  0.25962035849E+01  0.21943662731E+03  0.25810009050E+03  0.12487041985E+03 0.  0.
         25    2    3    3    0    0  0.53515056597E+02 -0.25962035849E+01  0.12208130441E+03  0.18287112444E+03  0.12516949193E+03 0.  0.
          5    1    4    4  502    0  0.87120627121E+01  0.53548459344E+02  0.74540846989E+02  0.92313408585E+02  0.47000000000E+01 0. -1.
         -5    1    4    4    0  502 -0.62227119309E+02 -0.50952255759E+02  0.14489578033E+03  0.16578668192E+03  0.47000000000E+01 0. -1.
          5    1    5    5  503    0  0.76437848056E+02  0.40843328867E+02  0.76307664653E+02  0.11556760711E+03  0.47000000000E+01 0.  1.
         -5    1    5    5    0  503 -0.22922791459E+02 -0.43439532452E+02  0.45773639759E+02  0.67303517327E+02  0.47000000000E+01 0.  1.
<mgrwt>
<rscale>  0 0.27896436E+03</rscale>
<asrwt>0</asrwt>
<pdfrwt beam="1">  1        1 0.60191471E-01 0.27896436E+03</pdfrwt>
<pdfrwt beam="2">  1       -1 0.76502528E-02 0.27896436E+03</pdfrwt>
<totfact> 0.57207599E+03</totfact>
</mgrwt>
</event>
<event>
 9    1  0.8186049E-001  0.2740687E+03  0.7818608E-02  0.1098973E+00
         -1   -1    0    0    0  501 -0.00000000000E+00  0.00000000000E+00  0.66281058290E+01  0.66281058290E+01  0.00000000000E+00 0.  1.
          1   -1    0    0  501    0  0.00000000000E+00 -0.00000000000E+00 -0.28331492088E+04  0.28331492088E+04  0.00000000000E+00 0.  1.
         35    2    1    2    0    0 -0.53290705182E-14  0.00000000000E+00 -0.28265211030E+04  0.28397773146E+04  0.27406869785E+03 0.  0.
         25    2    3    3    0    0 -0.14347601858E+02  0.16328316964E+02 -0.19545357749E+04  0.19586484199E+04  0.12498427833E+03 0.  0.
         25    2    3    3    0    0  0.14347601858E+02 -0.16328316964E+02 -0.87198532805E+03  0.88112889470E+03  0.12472870210E+03 0.  0.
          5    1    4    4  502    0 -0.14361999026E+02  0.17692903069E+02 -0.63869260099E+02  0.67975570763E+02  0.47000000000E+01 0.  1.
         -5    1    4    4    0  502  0.14397168180E-01 -0.13645861046E+01 -0.18906665148E+04  0.18906728492E+04  0.47000000000E+01 0.  1.
          5    1    5    5  503    0 -0.41137524786E+02  0.25199097671E+02 -0.21060465902E+03  0.21611039510E+03  0.47000000000E+01 0. -1.
         -5    1    5    5    0  503  0.55485126643E+02 -0.41527414635E+02 -0.66138066903E+03  0.66501849960E+03  0.47000000000E+01 0. -1.
<mgrwt>
<rscale>  0 0.27406870E+03</rscale>
<asrwt>0</asrwt>
<pdfrwt beam="1">  1        1 0.43586837E+00 0.27406870E+03</pdfrwt>
<pdfrwt beam="2">  1       -1 0.10197103E-02 0.27406870E+03</pdfrwt>
<totfact> 0.17274869E+03</totfact>
</mgrwt>
</event>
<event>
 9    1  0.8186049E-001  0.2834434E+03  0.7818608E-02  0.1093823E+00
          2   -1    0    0  501    0  0.00000000000E+00  0.00000000000E+00  0.42302966915E+03  0.42302966915E+03  0.00000000000E+00 0. -1.
         -2   -1    0    0    0  501 -0.00000000000E+00 -0.00000000000E+00 -0.47479028058E+02  0.47479028058E+02  0.00000000000E+00 0. -1.
         35    2    1    2    0    0  0.71054273576E-14 -0.17763568394E-14  0.37555064109E+03  0.47050869721E+03  0.28344338081E+03 0.  0.
         25    2    3    3    0    0 -0.34623199964E+02 -0.21135831783E+01  0.84874428257E+02  0.15530196502E+03  0.12534671338E+03 0.  0.
         25    2    3    3    0    0  0.34623199964E+02  0.21135831783E+01  0.29067621284E+03  0.31520673219E+03  0.11687339347E+03 0.  0.
          5    1    4    4  502    0  0.22530413387E+01  0.35572779880E+02 -0.17549562342E+02  0.40007199378E+02  0.47000000000E+01 0.  1.
         -5    1    4    4    0  502 -0.36876241303E+02 -0.37686363058E+02  0.10242399060E+03  0.11529476564E+03  0.47000000000E+01 0.  1.
          5    1    5    5  503    0  0.71892693898E+02 -0.69317110986E+01  0.24454817262E+03  0.25503432473E+03  0.47000000000E+01 0. -1.
         -5    1    5    5    0  503 -0.37269493934E+02  0.90452942770E+01  0.46128040214E+02  0.60172407469E+02  0.47000000000E+01 0. -1.
<mgrwt>
<rscale>  0 0.28344338E+03</rscale>
<asrwt>0</asrwt>
<pdfrwt beam="1">  1        2 0.65081485E-01 0.28344338E+03</pdfrwt>
<pdfrwt beam="2">  1       -2 0.73044661E-02 0.28344338E+03</pdfrwt>
<totfact> 0.81444706E+03</totfact>
</mgrwt>
</event>
<event>
 9    1  0.8186049E-001  0.2721935E+03  0.7818608E-02  0.1100031E+00
         -1   -1    0    0    0  501 -0.00000000000E+00  0.00000000000E+00  0.26868024710E+02  0.26868024710E+02  0.00000000000E+00 0. -1.
          1   -1    0    0  501    0  0.00000000000E+00 -0.00000000000E+00 -0.68938170552E+03  0.68938170552E+03  0.00000000000E+00 0. -1.
         35    2    1    2    0    0  0.35527136788E-14  0.71054273576E-14 -0.66251368081E+03  0.71624973023E+03  0.27219349513E+03 0.  0.
         25    2    3    3    0    0  0.35301536370E+01 -0.38638867145E+02 -0.22371189511E+03  0.25896739541E+03  0.12454587842E+03 0.  0.
         25    2    3    3    0    0 -0.35301536370E+01  0.38638867145E+02 -0.43880178570E+03  0.45728233482E+03  0.12269760620E+03 0.  0.
          5    1    4    4  502    0  0.41263888544E+02 -0.65524322722E+02 -0.98538077170E+02  0.12541127548E+03  0.47000000000E+01 0. -1.
         -5    1    4    4    0  502 -0.37733734907E+02  0.26885455577E+02 -0.12517381794E+03  0.13355611992E+03  0.47000000000E+01 0. -1.
          5    1    5    5  503    0 -0.30072936879E+02 -0.28833190595E+02 -0.71692401065E+02  0.83051940272E+02  0.47000000000E+01 0.  1.
         -5    1    5    5    0  503  0.26542783243E+02  0.67472057740E+02 -0.36710938463E+03  0.37423039455E+03  0.47000000000E+01 0.  1.
<mgrwt>
<rscale>  0 0.27219350E+03</rscale>
<asrwt>0</asrwt>
<pdfrwt beam="1">  1        1 0.10605872E+00 0.27219350E+03</pdfrwt>
<pdfrwt beam="2">  1       -1 0.41335425E-02 0.27219350E+03</pdfrwt>
<totfact> 0.67284280E+03</totfact>
</mgrwt>
</event>
<event>
 9    1  0.8186049E-001  0.2768903E+03  0.7818608E-02  0.1097400E+00
         -2   -1    0    0    0  501 -0.00000000000E+00  0.00000000000E+00  0.74997767895E+01  0.74997767895E+01  0.00000000000E+00 0. -1.
          2   -1    0    0  501    0  0.00000000000E+00 -0.00000000000E+00 -0.25556847337E+04  0.25556847337E+04  0.00000000000E+00 0. -1.
         35    2    1    2    0    0  0.00000000000E+00  0.35527136788E-14 -0.25481849569E+04  0.25631845105E+04  0.27689033965E+03 0.  0.
         25    2    3    3    0    0  0.63853488876E+01  0.29778569204E+02 -0.79957225859E+03  0.80984184988E+03  0.12490191846E+03 0.  0.
         25    2    3    3    0    0 -0.63853488876E+01 -0.29778569204E+02 -0.17486126983E+04  0.17533426606E+04  0.12504631520E+03 0.  0.
          5    1    4    4  502    0  0.16337397528E+02 -0.26966839092E+02 -0.59377873306E+02  0.67393937464E+02  0.47000000000E+01 0. -1.
         -5    1    4    4    0  502 -0.99520486409E+01  0.56745408296E+02 -0.74019438529E+03  0.74244791241E+03  0.47000000000E+01 0. -1.
          5    1    5    5  503    0  0.54695672174E+02  0.69349320341E+01 -0.61592601192E+03  0.61840654265E+03  0.47000000000E+01 0. -1.
         -5    1    5    5    0  503 -0.61081021061E+02 -0.36713501238E+02 -0.11326866864E+04  0.11349361180E+04  0.47000000000E+01 0. -1.
<mgrwt>
<rscale>  0 0.27689034E+03</rscale>
<asrwt>0</asrwt>
<pdfrwt beam="1">  1        2 0.39318181E+00 0.27689034E+03</pdfrwt>
<pdfrwt beam="2">  1       -2 0.11538132E-02 0.27689034E+03</pdfrwt>
<totfact> 0.64700550E+03</totfact>
</mgrwt>
</event>
<event>
 9    1  0.8186049E-001  0.2739639E+03  0.7818608E-02  0.1099032E+00
          2   -1    0    0  501    0  0.00000000000E+00  0.00000000000E+00  0.22122168967E+04  0.22122168967E+04  0.00000000000E+00 0.  1.
         -2   -1    0    0    0  501 -0.00000000000E+00 -0.00000000000E+00 -0.84820147700E+01  0.84820147700E+01  0.00000000000E+00 0.  1.
         35    2    1    2    0    0 -0.35527136788E-14  0.00000000000E+00  0.22037348819E+04  0.22206989115E+04  0.27396391289E+03 0.  0.
         25    2    3    3    0    0 -0.10907372048E+02  0.23606068379E+02  0.88400089555E+03  0.89439292307E+03  0.13343500392E+03 0.  0.
         25    2    3    3    0    0  0.10907372048E+02 -0.23606068379E+02  0.13197339864E+04  0.13263059884E+04  0.12928094537E+03 0.  0.
          5    1    4    4  502    0  0.10037533473E+02 -0.50578229970E+02  0.50203895673E+03  0.50470200465E+03  0.47000000000E+01 0. -1.
         -5    1    4    4    0  502 -0.20944905521E+02  0.74184298349E+02  0.38196193882E+03  0.38969091841E+03  0.47000000000E+01 0. -1.
          5    1    5    5  503    0  0.38271975175E+02 -0.52313041229E+02  0.36523319024E+03  0.37097004140E+03  0.47000000000E+01 0. -1.
         -5    1    5    5    0  503 -0.27364603127E+02  0.28706972850E+02  0.95450079613E+03  0.95533594699E+03  0.47000000000E+01 0. -1.
<mgrwt>
<rscale>  0 0.27396391E+03</rscale>
<asrwt>0</asrwt>
<pdfrwt beam="1">  1        2 0.34034060E+00 0.27396391E+03</pdfrwt>
<pdfrwt beam="2">  1       -2 0.13049271E-02 0.27396391E+03</pdfrwt>
<totfact> 0.82972943E+03</totfact>
</mgrwt>
</event>
<event>
 9    1  0.8186049E-001  0.2739080E+03  0.7818608E-02  0.1099064E+00
          2   -1    0    0  501    0  0.00000000000E+00  0.00000000000E+00  0.10576850072E+04  0.10576850072E+04  0.00000000000E+00 0. -1.
         -2   -1    0    0    0  501 -0.00000000000E+00 -0.00000000000E+00 -0.17733449348E+02  0.17733449348E+02  0.00000000000E+00 0. -1.
         35    2    1    2    0    0  0.71054273576E-14  0.00000000000E+00  0.10399515579E+04  0.10754184566E+04  0.27390803932E+03 0.  0.
         25    2    3    3    0    0 -0.13084141301E+02 -0.54669671220E+02  0.39571210247E+03  0.41694735032E+03  0.11873102878E+03 0.  0.
         25    2    3    3    0    0  0.13084141301E+02  0.54669671220E+02  0.64423945539E+03  0.65847110623E+03  0.12401513682E+03 0.  0.
          5    1    4    4  502    0 -0.30464705385E+02  0.31014763058E+02  0.13885916453E+03  0.14558149393E+03  0.47000000000E+01 0.  1.
         -5    1    4    4    0  502  0.17380564084E+02 -0.85684434278E+02  0.25685293795E+03  0.27136585639E+03  0.47000000000E+01 0.  1.
          5    1    5    5  503    0  0.57226133044E+02  0.18515054853E+02  0.49438615180E+03  0.49805360620E+03  0.47000000000E+01 0. -1.
         -5    1    5    5    0  503 -0.44141991744E+02  0.36154616367E+02  0.14985330359E+03  0.16041750003E+03  0.47000000000E+01 0. -1.
<mgrwt>
<rscale>  0 0.27390804E+03</rscale>
<asrwt>0</asrwt>
<pdfrwt beam="1">  1        2 0.16272072E+00 0.27390804E+03</pdfrwt>
<pdfrwt beam="2">  1       -2 0.27282238E-02 0.27390804E+03</pdfrwt>
<totfact> 0.11789659E+04</totfact>
</mgrwt>
</event>
<event>
 9    1  0.8186049E-001  0.2761883E+03  0.7818608E-02  0.1097789E+00
         -2   -1    0    0    0  501 -0.00000000000E+00  0.00000000000E+00  0.16683854042E+02  0.16683854042E+02  0.00000000000E+00 0. -1.
          2   -1    0    0  501    0  0.00000000000E+00 -0.00000000000E+00 -0.11430208511E+04  0.11430208511E+04  0.00000000000E+00 0. -1.
         35    2    1    2    0    0  0.35527136788E-14 -0.14210854715E-13 -0.11263369971E+04  0.11597047052E+04  0.27618829119E+03 0.  0.
         25    2    3    3    0    0  0.70015877246E+01 -0.44595326570E+02 -0.72043694991E+03  0.73253926914E+03  0.12468607241E+03 0.  0.
         25    2    3    3    0    0 -0.70015877246E+01  0.44595326570E+02 -0.40590004720E+03  0.42716543605E+03  0.12521060682E+03 0.  0.
          5    1    4    4  502    0  0.18399005712E+02  0.35228653507E+02 -0.11556900353E+03  0.12230235491E+03  0.47000000000E+01 0.  1.
         -5    1    4    4    0  502 -0.11397417988E+02 -0.79823980077E+02 -0.60486794637E+03  0.61023691422E+03  0.47000000000E+01 0.  1.
          5    1    5    5  503    0  0.18433776338E+02 -0.36696930230E+02 -0.77127241167E+02  0.87505257719E+02  0.47000000000E+01 0. -1.
         -5    1    5    5    0  503 -0.25435364063E+02  0.81292256800E+02 -0.32877280603E+03  0.33966017833E+03  0.47000000000E+01 0. -1.
<mgrwt>
<rscale>  0 0.27618829E+03</rscale>
<asrwt>0</asrwt>
<pdfrwt beam="1">  1        2 0.17584941E+00 0.27618829E+03</pdfrwt>
<pdfrwt beam="2">  1       -2 0.25667461E-02 0.27618829E+03</pdfrwt>
<totfact> 0.11501410E+04</totfact>
</mgrwt>
</event>
<event>
 9    1  0.8186049E-001  0.2766235E+03  0.7818608E-02  0.1097548E+00
         -2   -1    0    0    0  501 -0.00000000000E+00  0.00000000000E+00  0.35209800264E+02  0.35209800264E+02  0.00000000000E+00 0. -1.
          2   -1    0    0  501    0  0.00000000000E+00 -0.00000000000E+00 -0.54331880166E+03  0.54331880166E+03  0.00000000000E+00 0. -1.
         35    2    1    2    0    0 -0.71054273576E-14  0.71054273576E-14 -0.50810900140E+03  0.57852860193E+03  0.27662354554E+03 0.  0.
         25    2    3    3    0    0  0.13957302849E+02 -0.54794183357E+02 -0.24737199912E+03  0.28292475578E+03  0.12512514795E+03 0.  0.
         25    2    3    3    0    0 -0.13957302849E+02  0.54794183357E+02 -0.26073700228E+03  0.29560384615E+03  0.12728173738E+03 0.  0.
          5    1    4    4  502    0 -0.41228186738E+02 -0.53742587483E+02 -0.71794473007E+02  0.98815815766E+02  0.47000000000E+01 0. -1.
         -5    1    4    4    0  502  0.55185489587E+02 -0.10515958737E+01 -0.17557752612E+03  0.18410894001E+03  0.47000000000E+01 0. -1.
          5    1    5    5  503    0 -0.80038311426E+01  0.29303289053E+00  0.13230878565E+02  0.16164570172E+02  0.47000000000E+01 0.  1.
         -5    1    5    5    0  503 -0.59534717059E+01  0.54501150466E+02 -0.27396788084E+03  0.27943927598E+03  0.47000000000E+01 0.  1.
<mgrwt>
<rscale>  0 0.27662355E+03</rscale>
<asrwt>0</asrwt>
<pdfrwt beam="1">  1        2 0.83587503E-01 0.27662355E+03</pdfrwt>
<pdfrwt beam="2">  1       -2 0.54168927E-02 0.27662355E+03</pdfrwt>
<totfact> 0.97586144E+03</totfact>
</mgrwt>
</event>
<event>
 9    1  0.8186049E-001  0.2753595E+03  0.7818608E-02  0.1098251E+00
          2   -1    0    0  501    0  0.00000000000E+00  0.00000000000E+00  0.56064944829E+03  0.56064944829E+03  0.00000000000E+00 0.  1.
         -2   -1    0    0    0  501 -0.00000000000E+00 -0.00000000000E+00 -0.33810275436E+02  0.33810275436E+02  0.00000000000E+00 0.  1.
         35    2    1    2    0    0  0.35527136788E-14 -0.35527136788E-14  0.52683917285E+03  0.59445972372E+03  0.27535949063E+03 0.  0.
         25    2    3    3    0    0  0.24228770232E+02 -0.24408020766E+02  0.36132965632E+03  0.38390133418E+03  0.12505330489E+03 0.  0.
         25    2    3    3    0    0 -0.24228770232E+02  0.24408020766E+02  0.16550951653E+03  0.21055838954E+03  0.12553346391E+03 0.  0.
          5    1    4    4  502    0 -0.26002458245E+02 -0.17163682927E+02  0.30988857691E+03  0.31148633991E+03  0.47000000000E+01 0.  1.
         -5    1    4    4    0  502  0.50231228477E+02 -0.72443378391E+01  0.51441079408E+02  0.72414994274E+02  0.47000000000E+01 0.  1.
          5    1    5    5  503    0 -0.13152710202E+02  0.74474056289E+02  0.11954332253E+03  0.14153471238E+03  0.47000000000E+01 0.  1.
         -5    1    5    5    0  503 -0.11076060030E+02 -0.50066035523E+02  0.45966193996E+02  0.69023677164E+02  0.47000000000E+01 0.  1.
<mgrwt>
<rscale>  0 0.27535949E+03</rscale>
<asrwt>0</asrwt>
<pdfrwt beam="1">  1        2 0.86253755E-01 0.27535949E+03</pdfrwt>
<pdfrwt beam="2">  1       -2 0.52015812E-02 0.27535949E+03</pdfrwt>
<totfact> 0.10014360E+04</totfact>
</mgrwt>
</event>
<event>
 9    1  0.8186049E-001  0.2769772E+03  0.7818608E-02  0.1097351E+00
         -2   -1    0    0    0  501 -0.00000000000E+00  0.00000000000E+00  0.54130344172E+02  0.54130344172E+02  0.00000000000E+00 0. -1.
          2   -1    0    0  501    0  0.00000000000E+00 -0.00000000000E+00 -0.35431319420E+03  0.35431319420E+03  0.00000000000E+00 0. -1.
         35    2    1    2    0    0  0.00000000000E+00  0.00000000000E+00 -0.30018285003E+03  0.40844353837E+03  0.27697722034E+03 0.  0.
         25    2    3    3    0    0  0.47382422474E+02 -0.34305297171E+02 -0.16895729025E+03  0.21742112324E+03  0.12370703912E+03 0.  0.
         25    2    3    3    0    0 -0.47382422474E+02  0.34305297171E+02 -0.13122555977E+03  0.19102241513E+03  0.12588672754E+03 0.  0.
          5    1    4    4  502    0  0.88797267375E+02 -0.32193599604E+02 -0.10809666965E+03  0.14362577254E+03  0.47000000000E+01 0. -1.
         -5    1    4    4    0  502 -0.41414844901E+02 -0.21116975677E+01 -0.60860620603E+02  0.73795350700E+02  0.47000000000E+01 0. -1.
          5    1    5    5  503    0 -0.33721481764E+02  0.95381116463E+01 -0.15171529490E+03  0.15578104703E+03  0.47000000000E+01 0. -1.
         -5    1    5    5    0  503 -0.13660940710E+02  0.24767185525E+02  0.20489735129E+02  0.35241368100E+02  0.47000000000E+01 0. -1.
<mgrwt>
<rscale>  0 0.27697722E+03</rscale>
<asrwt>0</asrwt>
<pdfrwt beam="1">  1        2 0.54509723E-01 0.27697722E+03</pdfrwt>
<pdfrwt beam="2">  1       -2 0.83277452E-02 0.27697722E+03</pdfrwt>
<totfact> 0.80397357E+03</totfact>
</mgrwt>
</event>
<event>
 9    1  0.8186049E-001  0.2805065E+03  0.7818608E-02  0.1095413E+00
         -2   -1    0    0    0  501 -0.00000000000E+00  0.00000000000E+00  0.21126901519E+03  0.21126901519E+03  0.00000000000E+00 0.  1.
          2   -1    0    0  501    0  0.00000000000E+00 -0.00000000000E+00 -0.93108662932E+02  0.93108662932E+02  0.00000000000E+00 0.  1.
         35    2    1    2    0    0  0.00000000000E+00  0.00000000000E+00  0.11816035226E+03  0.30437767812E+03  0.28050650989E+03 0.  0.
         25    2    3    3    0    0  0.55723175909E+02 -0.48866039973E+01  0.92846945631E+02  0.16505760777E+03  0.12447693497E+03 0.  0.
         25    2    3    3    0    0 -0.55723175909E+02  0.48866039973E+01  0.25313406624E+02  0.13932007035E+03  0.12506143376E+03 0.  0.
          5    1    4    4  502    0 -0.32009683067E+02 -0.10579612938E+02  0.63860613116E+02  0.72365847798E+02  0.47000000000E+01 0.  1.
         -5    1    4    4    0  502  0.87732858976E+02  0.56930089410E+01  0.28986332515E+02  0.92691759977E+02  0.47000000000E+01 0.  1.
          5    1    5    5  503    0 -0.94556042896E+02 -0.66844077206E+01  0.88106809222E+01  0.95316549733E+02  0.47000000000E+01 0.  1.
         -5    1    5    5    0  503  0.38832866988E+02  0.11571011718E+02  0.16502725702E+02  0.44003520612E+02  0.47000000000E+01 0.  1.
<mgrwt>
<rscale>  0 0.28050651E+03</rscale>
<asrwt>0</asrwt>
<pdfrwt beam="1">  1        2 0.14324410E-01 0.28050651E+03</pdfrwt>
<pdfrwt beam="2">  1       -2 0.32502925E-01 0.28050651E+03</pdfrwt>
<totfact> 0.36183012E+03</totfact>
</mgrwt>
</event>
<event>
 9    1  0.8186049E-001  0.2805206E+03  0.7818608E-02  0.1095405E+00
          2   -1    0    0  501    0  0.00000000000E+00  0.00000000000E+00  0.38431265820E+02  0.38431265820E+02  0.00000000000E+00 0. -1.
         -2   -1    0    0    0  501 -0.00000000000E+00 -0.00000000000E+00 -0.51189981886E+03  0.51189981886E+03  0.00000000000E+00 0. -1.
         35    2    1    2    0    0  0.14210854715E-13  0.00000000000E+00 -0.47346855304E+03  0.55033108468E+03  0.28052064460E+03 0.  0.
         25    2    3    3    0    0  0.57017620621E+02 -0.25488066284E+02 -0.20493326999E+03  0.24778402933E+03  0.12449349162E+03 0.  0.
         25    2    3    3    0    0 -0.57017620621E+02  0.25488066284E+02 -0.26853528305E+03  0.30254705535E+03  0.12459081779E+03 0.  0.
          5    1    4    4  502    0  0.66333393048E+02  0.32882251989E+02 -0.14814300387E+03  0.16567981508E+03  0.47000000000E+01 0.  1.
         -5    1    4    4    0  502 -0.93157724263E+01 -0.58370318273E+02 -0.56790266126E+02  0.82104214252E+02  0.47000000000E+01 0.  1.
          5    1    5    5  503    0  0.38452257245E+02  0.14786760418E+02 -0.60406440723E+02  0.73268359145E+02  0.47000000000E+01 0.  1.
         -5    1    5    5    0  503 -0.95469877867E+02  0.10701305865E+02 -0.20812884233E+03  0.22927869621E+03  0.47000000000E+01 0.  1.
<mgrwt>
<rscale>  0 0.28052064E+03</rscale>
<asrwt>0</asrwt>
<pdfrwt beam="1">  1        2 0.59125027E-02 0.28052064E+03</pdfrwt>
<pdfrwt beam="2">  1       -2 0.78753815E-01 0.28052064E+03</pdfrwt>
<totfact> 0.18556319E+03</totfact>
</mgrwt>
</event>
<event>
 9    1  0.8186049E-001  0.2720239E+03  0.7818608E-02  0.1100127E+00
         -1   -1    0    0    0  501 -0.00000000000E+00  0.00000000000E+00  0.20983088762E+02  0.20983088762E+02  0.00000000000E+00 0.  1.
          1   -1    0    0  501    0  0.00000000000E+00 -0.00000000000E+00 -0.88162653907E+03  0.88162653907E+03  0.00000000000E+00 0.  1.
         35    2    1    2    0    0  0.35527136788E-14  0.00000000000E+00 -0.86064345030E+03  0.90260962783E+03  0.27202388074E+03 0.  0.
         25    2    3    3    0    0  0.29204531151E+02 -0.96602559578E+01 -0.56576926095E+03  0.58022251244E+03  0.12496832451E+03 0.  0.
         25    2    3    3    0    0 -0.29204531151E+02  0.96602559578E+01 -0.29487418936E+03  0.32238711538E+03  0.12663506398E+03 0.  0.
          5    1    4    4  502    0 -0.13020789680E+02  0.42002609990E+02 -0.38397153357E+03  0.38651001126E+03  0.47000000000E+01 0. -1.
         -5    1    4    4    0  502  0.42225320831E+02 -0.51662865948E+02 -0.18179772738E+03  0.19371250119E+03  0.47000000000E+01 0. -1.
          5    1    5    5  503    0 -0.63349746865E+02  0.46736132454E+02 -0.16143970071E+03  0.17967282340E+03  0.47000000000E+01 0. -1.
         -5    1    5    5    0  503  0.34145215715E+02 -0.37075876497E+02 -0.13343448865E+03  0.14271429198E+03  0.47000000000E+01 0. -1.
<mgrwt>
<rscale>  0 0.27202388E+03</rscale>
<asrwt>0</asrwt>
<pdfrwt beam="1">  1        1 0.13563485E+00 0.27202388E+03</pdfrwt>
<pdfrwt beam="2">  1       -1 0.32281675E-02 0.27202388E+03</pdfrwt>
<totfact> 0.66715194E+03</totfact>
</mgrwt>
</event>
<event>
 9    1  0.8186049E-001  0.2786799E+03  0.7818608E-02  0.1096412E+00
          2   -1    0    0  501    0  0.00000000000E+00  0.00000000000E+00  0.70043984047E+03  0.70043984047E+03  0.00000000000E+00 0. -1.
         -2   -1    0    0    0  501 -0.00000000000E+00 -0.00000000000E+00 -0.27719178244E+02  0.27719178244E+02  0.00000000000E+00 0. -1.
         35    2    1    2    0    0  0.00000000000E+00 -0.71054273576E-14  0.67272066222E+03  0.72815901871E+03  0.27867986499E+03 0.  0.
         25    2    3    3    0    0 -0.32080008632E+02 -0.12903785551E+02  0.47123673206E+03  0.48875205346E+03  0.12497550755E+03 0.  0.
         25    2    3    3    0    0  0.32080008632E+02  0.12903785551E+02  0.20148393017E+03  0.23940696525E+03  0.12459649377E+03 0.  0.
          5    1    4    4  502    0 -0.51654943943E+01 -0.42890777847E+02  0.52932576253E+02  0.68485391037E+02  0.47000000000E+01 0. -1.
         -5    1    4    4    0  502 -0.26914514238E+02  0.29986992296E+02  0.41830415580E+03  0.42026666242E+03  0.47000000000E+01 0. -1.
          5    1    5    5  503    0 -0.27183266276E+02  0.48590266423E+02  0.60870260444E+02  0.82627008677E+02  0.47000000000E+01 0.  1.
         -5    1    5    5    0  503  0.59263274908E+02 -0.35686480872E+02  0.14061366972E+03  0.15677995657E+03  0.47000000000E+01 0.  1.
<mgrwt>
<rscale>  0 0.27867986E+03</rscale>
<asrwt>0</asrwt>
<pdfrwt beam="1">  1        2 0.10775996E+00 0.27867986E+03</pdfrwt>
<pdfrwt beam="2">  1       -2 0.42644895E-02 0.27867986E+03</pdfrwt>
<totfact> 0.10419529E+04</totfact>
</mgrwt>
</event>
<event>
 9    1  0.8186049E-001  0.2748236E+03  0.7818608E-02  0.1098550E+00
          1   -1    0    0  501    0  0.00000000000E+00  0.00000000000E+00  0.12754945190E+03  0.12754945190E+03  0.00000000000E+00 0.  1.
         -1   -1    0    0    0  501 -0.00000000000E+00 -0.00000000000E+00 -0.14803671803E+03  0.14803671803E+03  0.00000000000E+00 0.  1.
         35    2    1    2    0    0  0.00000000000E+00  0.00000000000E+00 -0.20487266131E+02  0.27558616993E+03  0.27482359612E+03 0.  0.
         25    2    3    3    0    0  0.39664035478E+02 -0.38293181599E+02  0.65308521866E+01  0.13717337890E+03  0.12543635988E+03 0.  0.
         25    2    3    3    0    0 -0.39664035478E+02  0.38293181599E+02 -0.27018118317E+02  0.13841279104E+03  0.12405046770E+03 0.  0.
          5    1    4    4  502    0  0.24467139269E+02 -0.29794299207E+02  0.65146868662E+02  0.75845538206E+02  0.47000000000E+01 0. -1.
         -5    1    4    4    0  502  0.15196896209E+02 -0.84988823922E+01 -0.58616016476E+02  0.61327840691E+02  0.47000000000E+01 0. -1.
          5    1    5    5  503    0 -0.53946039725E+02  0.15615376343E+02  0.37972655759E+02  0.67956072324E+02  0.47000000000E+01 0. -1.
         -5    1    5    5    0  503  0.14282004247E+02  0.22677805256E+02 -0.64990774076E+02  0.70456718711E+02  0.47000000000E+01 0. -1.
<mgrwt>
<rscale>  0 0.27482360E+03</rscale>
<asrwt>0</asrwt>
<pdfrwt beam="1">  1        1 0.19622993E-01 0.27482360E+03</pdfrwt>
<pdfrwt beam="2">  1       -1 0.22774880E-01 0.27482360E+03</pdfrwt>
<totfact> 0.42328194E+03</totfact>
</mgrwt>
</event>
<event>
 9    1  0.8186049E-001  0.2709831E+03  0.7818608E-02  0.1100718E+00
         -1   -1    0    0    0  501 -0.00000000000E+00  0.00000000000E+00  0.12950776054E+03  0.12950776054E+03  0.00000000000E+00 0. -1.
          1   -1    0    0  501    0  0.00000000000E+00 -0.00000000000E+00 -0.14175180661E+03  0.14175180661E+03  0.00000000000E+00 0. -1.
         35    2    1    2    0    0 -0.71054273576E-14 -0.35527136788E-14 -0.12244046067E+02  0.27125956715E+03  0.27098309192E+03 0.  0.
         25    2    3    3    0    0 -0.37821555766E+01  0.15738523779E+02  0.48016674505E+02  0.13115045677E+03  0.12096625748E+03 0.  0.
         25    2    3    3    0    0  0.37821555766E+01 -0.15738523779E+02 -0.60260720572E+02  0.14010911038E+03  0.12544800730E+03 0.  0.
          5    1    4    4  502    0 -0.61298037874E+02  0.17017968225E+02  0.31309711791E+02  0.71059473275E+02  0.47000000000E+01 0. -1.
         -5    1    4    4    0  502  0.57515882297E+02 -0.12794444463E+01  0.16706962714E+02  0.60090983497E+02  0.47000000000E+01 0. -1.
          5    1    5    5  503    0  0.27493872059E+02  0.20833843147E+02  0.25930100784E+02  0.43409931441E+02  0.47000000000E+01 0. -1.
         -5    1    5    5    0  503 -0.23711716482E+02 -0.36572366926E+02 -0.86190821356E+02  0.96699178937E+02  0.47000000000E+01 0. -1.
<mgrwt>
<rscale>  0 0.27098309E+03</rscale>
<asrwt>0</asrwt>
<pdfrwt beam="1">  1        1 0.21807970E-01 0.27098309E+03</pdfrwt>
<pdfrwt beam="2">  1       -1 0.19924271E-01 0.27098309E+03</pdfrwt>
<totfact> 0.45968885E+03</totfact>
</mgrwt>
</event>
<event>
 9    1  0.8186049E-001  0.2739883E+03  0.7818608E-02  0.1099018E+00
         -1   -1    0    0    0  501 -0.00000000000E+00  0.00000000000E+00  0.13361511499E+02  0.13361511499E+02  0.00000000000E+00 0. -1.
          1   -1    0    0  501    0  0.00000000000E+00 -0.00000000000E+00 -0.14045858761E+04  0.14045858761E+04  0.00000000000E+00 0. -1.
         35    2    1    2    0    0  0.71054273576E-14  0.35527136788E-14 -0.13912243646E+04  0.14179473875E+04  0.27398825036E+03 0.  0.
         25    2    3    3    0    0 -0.53900615728E+02 -0.35890807611E+01 -0.60701023138E+03  0.62196990701E+03  0.12436633931E+03 0.  0.
         25    2    3    3    0    0  0.53900615728E+02  0.35890807611E+01 -0.78421413317E+03  0.79597748054E+03  0.12518060943E+03 0.  0.
          5    1    4    4  502    0 -0.65554237775E+02 -0.24216213493E+02 -0.16436910299E+03  0.17867029720E+03  0.47000000000E+01 0.  1.
         -5    1    4    4    0  502  0.11653622047E+02  0.20627132732E+02 -0.44264112839E+03  0.44329960981E+03  0.47000000000E+01 0.  1.
          5    1    5    5  503    0  0.76561787215E+01  0.44858971542E+02 -0.11327232795E+03  0.12216241107E+03  0.47000000000E+01 0.  1.
         -5    1    5    5    0  503  0.46244437006E+02 -0.41269890781E+02 -0.67094180523E+03  0.67381506947E+03  0.47000000000E+01 0.  1.
<mgrwt>
<rscale>  0 0.27398825E+03</rscale>
<asrwt>0</asrwt>
<pdfrwt beam="1">  1        1 0.21609014E+00 0.27398825E+03</pdfrwt>
<pdfrwt beam="2">  1       -1 0.20556171E-02 0.27398825E+03</pdfrwt>
<totfact> 0.54581182E+03</totfact>
</mgrwt>
</event>
<event>
 9    1  0.8186049E-001  0.2775688E+03  0.7818608E-02  0.1097024E+00
          2   -1    0    0  501    0  0.00000000000E+00  0.00000000000E+00  0.68044364615E+03  0.68044364615E+03  0.00000000000E+00 0. -1.
         -2   -1    0    0    0  501 -0.00000000000E+00 -0.00000000000E+00 -0.28306702557E+02  0.28306702557E+02  0.00000000000E+00 0. -1.
         35    2    1    2    0    0  0.00000000000E+00  0.00000000000E+00  0.65213694359E+03  0.70875034871E+03  0.27756884478E+03 0.  0.
         25    2    3    3    0    0  0.28488275929E+02 -0.20594358167E+02  0.41167730850E+03  0.43177287465E+03  0.12535509361E+03 0.  0.
         25    2    3    3    0    0 -0.28488275929E+02  0.20594358167E+02  0.24045963509E+03  0.27697747406E+03  0.13289084082E+03 0.  0.
          5    1    4    4  502    0 -0.33621380333E+02 -0.22474244721E+02  0.48659965746E+02  0.63445812767E+02  0.47000000000E+01 0.  1.
         -5    1    4    4    0  502  0.62109656262E+02  0.18798865543E+01  0.36301734276E+03  0.36832706188E+03  0.47000000000E+01 0.  1.
          5    1    5    5  503    0 -0.12417922142E+02  0.29475029041E+02  0.25247539944E+03  0.25453663675E+03  0.47000000000E+01 0.  1.
         -5    1    5    5    0  503 -0.16070353787E+02 -0.88806708741E+01 -0.12015764348E+02  0.22440837304E+02  0.47000000000E+01 0.  1.
<mgrwt>
<rscale>  0 0.27756884E+03</rscale>
<asrwt>0</asrwt>
<pdfrwt beam="1">  1        2 0.10468363E+00 0.27756884E+03</pdfrwt>
<pdfrwt beam="2">  1       -2 0.43548778E-02 0.27756884E+03</pdfrwt>
<totfact> 0.10452953E+04</totfact>
</mgrwt>
</event>
<event>
 9    1  0.8186049E-001  0.2728980E+03  0.7818608E-02  0.1099632E+00
          2   -1    0    0  501    0  0.00000000000E+00  0.00000000000E+00  0.56116879016E+03  0.56116879016E+03  0.00000000000E+00 0. -1.
         -2   -1    0    0    0  501 -0.00000000000E+00 -0.00000000000E+00 -0.33177771860E+02  0.33177771860E+02  0.00000000000E+00 0. -1.
         35    2    1    2    0    0  0.35527136788E-14  0.00000000000E+00  0.52799101830E+03  0.59434656202E+03  0.27289800362E+03 0.  0.
         25    2    3    3    0    0 -0.22079356999E+02  0.27324974322E+02  0.35295751678E+03  0.37643545399E+03  0.12605748744E+03 0.  0.
         25    2    3    3    0    0  0.22079356999E+02 -0.27324974322E+02  0.17503350152E+03  0.21791110804E+03  0.12495748126E+03 0.  0.
          5    1    4    4  502    0 -0.29416465636E+02 -0.38473392826E+02  0.24438846042E+03  0.24918535268E+03  0.47000000000E+01 0. -1.
         -5    1    4    4    0  502  0.73371086365E+01  0.65798367147E+02  0.10856905636E+03  0.12725010131E+03  0.47000000000E+01 0. -1.
          5    1    5    5  503    0 -0.42493405015E+02  0.21418394713E+02  0.52604982809E+02  0.71090163301E+02  0.47000000000E+01 0.  1.
         -5    1    5    5    0  503  0.64572762014E+02 -0.48743369034E+02  0.12242851871E+03  0.14682094474E+03  0.47000000000E+01 0.  1.
<mgrwt>
<rscale>  0 0.27289800E+03</rscale>
<asrwt>0</asrwt>
<pdfrwt beam="1">  1        2 0.86333653E-01 0.27289800E+03</pdfrwt>
<pdfrwt beam="2">  1       -2 0.51042730E-02 0.27289800E+03</pdfrwt>
<totfact> 0.10291877E+04</totfact>
</mgrwt>
</event>
<event>
 9    1  0.8186049E-001  0.2713317E+03  0.7818608E-02  0.1100520E+00
          1   -1    0    0  501    0  0.00000000000E+00  0.00000000000E+00  0.11564274812E+03  0.11564274812E+03  0.00000000000E+00 0. -1.
         -1   -1    0    0    0  501 -0.00000000000E+00 -0.00000000000E+00 -0.15915589197E+03  0.15915589197E+03  0.00000000000E+00 0. -1.
         35    2    1    2    0    0  0.00000000000E+00  0.00000000000E+00 -0.43513143854E+02  0.27479864009E+03  0.27133171379E+03 0.  0.
         25    2    3    3    0    0  0.38094699675E+02 -0.11490861359E+02 -0.54734280988E+02  0.14217159305E+03  0.12503469245E+03 0.  0.
         25    2    3    3    0    0 -0.38094699675E+02  0.11490861359E+02  0.11221137134E+02  0.13262704704E+03  0.12601894163E+03 0.  0.
          5    1    4    4  502    0 -0.10348401629E+02 -0.21190897855E+02 -0.82065194970E+02  0.85515669872E+02  0.47000000000E+01 0.  1.
         -5    1    4    4    0  502  0.48443101304E+02  0.97000364955E+01  0.27330913982E+02  0.56655923177E+02  0.47000000000E+01 0.  1.
          5    1    5    5  503    0  0.42409767536E+02  0.22702331483E+02  0.16415042483E+02  0.51044371452E+02  0.47000000000E+01 0.  1.
         -5    1    5    5    0  503 -0.80504467210E+02 -0.11211470124E+02 -0.51939053486E+01  0.81582675587E+02  0.47000000000E+01 0.  1.
<mgrwt>
<rscale>  0 0.27133171E+03</rscale>
<asrwt>0</asrwt>
<pdfrwt beam="1">  1        1 0.17791192E-01 0.27133171E+03</pdfrwt>
<pdfrwt beam="2">  1       -1 0.24485522E-01 0.27133171E+03</pdfrwt>
<totfact> 0.42613208E+03</totfact>
</mgrwt>
</event>
<event>
 9    1  0.8186049E-001  0.2693992E+03  0.7818608E-02  0.1101624E+00
         -1   -1    0    0    0  501 -0.00000000000E+00  0.00000000000E+00  0.10146234699E+03  0.10146234699E+03  0.00000000000E+00 0.  1.
          1   -1    0    0  501    0  0.00000000000E+00 -0.00000000000E+00 -0.17882479764E+03  0.17882479764E+03  0.00000000000E+00 0.  1.
         35    2    1    2    0    0  0.00000000000E+00  0.00000000000E+00 -0.77362450646E+02  0.28028714464E+03  0.26939921061E+03 0.  0.
         25    2    3    3    0    0 -0.26093616818E+02 -0.24640903912E+02 -0.56540751920E+02  0.14230644931E+03  0.12556360103E+03 0.  0.
         25    2    3    3    0    0  0.26093616818E+02  0.24640903912E+02 -0.20821698726E+02  0.13798069532E+03  0.13159436979E+03 0.  0.
          5    1    4    4  502    0 -0.13208450471E+02 -0.55630576306E+02 -0.81889352665E+02  0.99985900326E+02  0.47000000000E+01 0.  1.
         -5    1    4    4    0  502 -0.12885166347E+02  0.30989672395E+02  0.25348600746E+02  0.42320548988E+02  0.47000000000E+01 0.  1.
          5    1    5    5  503    0  0.53171508021E+02 -0.38555591955E+01  0.39017280689E+02  0.66230754143E+02  0.47000000000E+01 0. -1.
         -5    1    5    5    0  503 -0.27077891203E+02  0.28496463107E+02 -0.59838979415E+02  0.71749941178E+02  0.47000000000E+01 0. -1.
<mgrwt>
<rscale>  0 0.26939921E+03</rscale>
<asrwt>0</asrwt>
<pdfrwt beam="1">  1        1 0.27511507E-01 0.26939921E+03</pdfrwt>
<pdfrwt beam="2">  1       -1 0.15609592E-01 0.26939921E+03</pdfrwt>
<totfact> 0.50605269E+03</totfact>
</mgrwt>
</event>
<event>
 9    1  0.8186049E-001  0.2781185E+03  0.7818608E-02  0.1096721E+00
         -2   -1    0    0    0  501 -0.00000000000E+00  0.00000000000E+00  0.10873068375E+02  0.10873068375E+02  0.00000000000E+00 0.  1.
          2   -1    0    0  501    0  0.00000000000E+00 -0.00000000000E+00 -0.17784739421E+04  0.17784739421E+04  0.00000000000E+00 0.  1.
         35    2    1    2    0    0  0.00000000000E+00  0.35527136788E-14 -0.17676008737E+04  0.17893470105E+04  0.27811845516E+03 0.  0.
         25    2    3    3    0    0  0.36428125993E+02  0.20356163466E+01 -0.11740880865E+04  0.11816873287E+04  0.12872822479E+03 0.  0.
         25    2    3    3    0    0 -0.36428125993E+02 -0.20356163466E+01 -0.59351278721E+03  0.60765968175E+03  0.12514674648E+03 0.  0.
          5    1    4    4  502    0 -0.33658516427E+02 -0.29523993811E+02 -0.22372694871E+03  0.22821130453E+03  0.47000000000E+01 0.  1.
         -5    1    4    4    0  502  0.70086642420E+02  0.31559610158E+02 -0.95036113779E+03  0.95347602417E+03  0.47000000000E+01 0.  1.
          5    1    5    5  503    0 -0.42353395255E+02  0.44506337178E+02 -0.15780957082E+03  0.16941243986E+03  0.47000000000E+01 0. -1.
         -5    1    5    5    0  503  0.59252692624E+01 -0.46541953525E+02 -0.43570321639E+03  0.43824724189E+03  0.47000000000E+01 0. -1.
<mgrwt>
<rscale>  0 0.27811846E+03</rscale>
<asrwt>0</asrwt>
<pdfrwt beam="1">  1        2 0.27361149E+00 0.27811846E+03</pdfrwt>
<pdfrwt beam="2">  1       -2 0.16727791E-02 0.27811846E+03</pdfrwt>
<totfact> 0.97692020E+03</totfact>
</mgrwt>
</event>
<event>
 9    1  0.8186049E-001  0.2763982E+03  0.7818608E-02  0.1097673E+00
         -2   -1    0    0    0  501 -0.00000000000E+00  0.00000000000E+00  0.41275770109E+02  0.41275770109E+02  0.00000000000E+00 0.  1.
          2   -1    0    0  501    0  0.00000000000E+00 -0.00000000000E+00 -0.46271689147E+03  0.46271689147E+03  0.00000000000E+00 0.  1.
         35    2    1    2    0    0  0.00000000000E+00 -0.17763568394E-14 -0.42144112136E+03  0.50399266157E+03  0.27639823471E+03 0.  0.
         25    2    3    3    0    0 -0.23822953519E+02 -0.11912936759E+02 -0.11638707638E+03  0.17375731788E+03  0.12623867392E+03 0.  0.
         25    2    3    3    0    0  0.23822953519E+02  0.11912936759E+02 -0.30505404498E+03  0.33023534369E+03  0.12364449315E+03 0.  0.
          5    1    4    4  502    0  0.29603678159E+02  0.85008299589E+01 -0.11194410200E+03  0.11619902686E+03  0.47000000000E+01 0.  1.
         -5    1    4    4    0  502 -0.53426631678E+02 -0.20413766718E+02 -0.44429743750E+01  0.57558291022E+02  0.47000000000E+01 0.  1.
          5    1    5    5  503    0  0.44942851393E+02  0.33975850879E+01 -0.30357271998E+03  0.30693629599E+03  0.47000000000E+01 0.  1.
         -5    1    5    5    0  503 -0.21119897874E+02  0.85153516714E+01 -0.14813249996E+01  0.23299047707E+02  0.47000000000E+01 0.  1.
<mgrwt>
<rscale>  0 0.27639823E+03</rscale>
<asrwt>0</asrwt>
<pdfrwt beam="1">  1        2 0.71187210E-01 0.27639823E+03</pdfrwt>
<pdfrwt beam="2">  1       -2 0.63501188E-02 0.27639823E+03</pdfrwt>
<totfact> 0.91556611E+03</totfact>
</mgrwt>
</event>
<event>
 9    1  0.8186049E-001  0.2741300E+03  0.7818608E-02  0.1098939E+00
          4   -1    0    0  501    0  0.00000000000E+00  0.00000000000E+00  0.29551877444E+02  0.29551877444E+02  0.00000000000E+00 0.  1.
         -4   -1    0    0    0  501 -0.00000000000E+00 -0.00000000000E+00 -0.63572307143E+03  0.63572307143E+03  0.00000000000E+00 0.  1.
         35    2    1    2    0    0  0.00000000000E+00  0.00000000000E+00 -0.60617119399E+03  0.66527494888E+03  0.27412997133E+03 0.  0.
         25    2    3    3    0    0  0.47584887523E+02  0.26494027570E+02 -0.25238030111E+03  0.28622226562E+03  0.12353588114E+03 0.  0.
         25    2    3    3    0    0 -0.47584887523E+02 -0.26494027570E+02 -0.35379089288E+03  0.37905268326E+03  0.12468634963E+03 0.  0.
          5    1    4    4  502    0  0.68244726993E+02  0.10933484250E+02 -0.25046069413E+03  0.25986445148E+03  0.47000000000E+01 0. -1.
         -5    1    4    4    0  502 -0.20659839470E+02  0.15560543320E+02 -0.19196069873E+01  0.26357814142E+02  0.47000000000E+01 0. -1.
          5    1    5    5  503    0 -0.20768788848E+02  0.22350257732E+02 -0.29959095457E+03  0.30117720144E+03  0.47000000000E+01 0.  1.
         -5    1    5    5    0  503 -0.26816098675E+02 -0.48844285302E+02 -0.54199938309E+02  0.77875481812E+02  0.47000000000E+01 0.  1.
<mgrwt>
<rscale>  0 0.27412997E+03</rscale>
<asrwt>0</asrwt>
<pdfrwt beam="1">  1        4 0.45464429E-02 0.27412997E+03</pdfrwt>
<pdfrwt beam="2">  1       -4 0.97803544E-01 0.27412997E+03</pdfrwt>
<totfact> 0.46871325E+02</totfact>
</mgrwt>
</event>
<event>
 9    1  0.8186049E-001  0.2797174E+03  0.7818608E-02  0.1095843E+00
         -1   -1    0    0    0  501 -0.00000000000E+00  0.00000000000E+00  0.66074006142E+02  0.66074006142E+02  0.00000000000E+00 0.  1.
          1   -1    0    0  501    0  0.00000000000E+00 -0.00000000000E+00 -0.29603853496E+03  0.29603853496E+03  0.00000000000E+00 0.  1.
         35    2    1    2    0    0 -0.17763568394E-14  0.10658141036E-13 -0.22996452882E+03  0.36211254110E+03  0.27971737148E+03 0.  0.
         25    2    3    3    0    0  0.56107678247E+01 -0.16632441053E+02 -0.19453224486E+03  0.23094290361E+03  0.12322220428E+03 0.  0.
         25    2    3    3    0    0 -0.56107678247E+01  0.16632441053E+02 -0.35432283958E+02  0.13116963749E+03  0.12506761468E+03 0.  0.
          5    1    4    4  502    0 -0.13364091954E+02 -0.16629552589E+02 -0.20674322632E+03  0.20789418607E+03  0.47000000000E+01 0.  1.
         -5    1    4    4    0  502  0.18974859779E+02 -0.28884639341E-02  0.12210981459E+02  0.23048717539E+02  0.47000000000E+01 0.  1.
          5    1    5    5  503    0  0.29481940888E+02  0.49128771381E+02 -0.54736839753E+02  0.79379044099E+02  0.47000000000E+01 0. -1.
         -5    1    5    5    0  503 -0.35092708712E+02 -0.32496330328E+02  0.19304555795E+02  0.51790593393E+02  0.47000000000E+01 0. -1.
<mgrwt>
<rscale>  0 0.27971737E+03</rscale>
<asrwt>0</asrwt>
<pdfrwt beam="1">  1        1 0.45544390E-01 0.27971737E+03</pdfrwt>
<pdfrwt beam="2">  1       -1 0.10165232E-01 0.27971737E+03</pdfrwt>
<totfact> 0.52646971E+03</totfact>
</mgrwt>
</event>
<event>
 9    1  0.8186049E-001  0.2743902E+03  0.7818608E-02  0.1098793E+00
         -2   -1    0    0    0  501 -0.00000000000E+00  0.00000000000E+00  0.14963947931E+04  0.14963947931E+04  0.00000000000E+00 0.  1.
          2   -1    0    0  501    0  0.00000000000E+00 -0.00000000000E+00 -0.12578563187E+02  0.12578563187E+02  0.00000000000E+00 0.  1.
         35    2    1    2    0    0  0.00000000000E+00  0.71054273576E-14  0.14838162299E+04  0.15089733563E+04  0.27439020724E+03 0.  0.
         25    2    3    3    0    0  0.44895180120E+02  0.20672981358E+02  0.59383463065E+03  0.60880426866E+03  0.12474020851E+03 0.  0.
         25    2    3    3    0    0 -0.44895180120E+02 -0.20672981358E+02  0.88998159925E+03  0.90016908762E+03  0.12567493761E+03 0.  0.
          5    1    4    4  502    0  0.15327725295E+02 -0.50218034138E+02  0.16813682045E+03  0.17620689688E+03  0.47000000000E+01 0. -1.
         -5    1    4    4    0  502  0.29567454825E+02  0.70891015496E+02  0.42569781020E+03  0.43259737178E+03  0.47000000000E+01 0. -1.
          5    1    5    5  503    0 -0.63469119450E+02  0.35615306303E+02  0.57686780098E+03  0.58145965378E+03  0.47000000000E+01 0.  1.
         -5    1    5    5    0  503  0.18573939330E+02 -0.56288287660E+02  0.31311379826E+03  0.31870943383E+03  0.47000000000E+01 0.  1.
<mgrwt>
<rscale>  0 0.27439021E+03</rscale>
<asrwt>0</asrwt>
<pdfrwt beam="1">  1        2 0.19351648E-02 0.27439021E+03</pdfrwt>
<pdfrwt beam="2">  1       -2 0.23021444E+00 0.27439021E+03</pdfrwt>
<totfact> 0.53892572E+02</totfact>
</mgrwt>
</event>
<event>
 9    1  0.8186049E-001  0.2741505E+03  0.7818608E-02  0.1098927E+00
          2   -1    0    0  501    0  0.00000000000E+00  0.00000000000E+00  0.14313791414E+04  0.14313791414E+04  0.00000000000E+00 0. -1.
         -2   -1    0    0    0  501 -0.00000000000E+00 -0.00000000000E+00 -0.13126933021E+02  0.13126933021E+02  0.00000000000E+00 0. -1.
         35    2    1    2    0    0  0.00000000000E+00  0.00000000000E+00  0.14182522084E+04  0.14445060744E+04  0.27415045590E+03 0.  0.
         25    2    3    3    0    0  0.23813898961E+02 -0.19135019179E+02  0.46101558386E+03  0.47863122889E+03  0.12497693371E+03 0.  0.
         25    2    3    3    0    0 -0.23813898961E+02  0.19135019179E+02  0.95723662451E+03  0.96587484553E+03  0.12521585833E+03 0.  0.
          5    1    4    4  502    0  0.40973119871E+02 -0.58841916623E+02  0.17271954818E+03  0.18707030771E+03  0.47000000000E+01 0. -1.
         -5    1    4    4    0  502 -0.17159220911E+02  0.39706897444E+02  0.28829603569E+03  0.29156092118E+03  0.47000000000E+01 0. -1.
          5    1    5    5  503    0  0.39590419314E+02  0.43578385600E+02  0.52365061457E+03  0.52697109326E+03  0.47000000000E+01 0. -1.
         -5    1    5    5    0  503 -0.63404318274E+02 -0.24443366421E+02  0.43358600994E+03  0.43890375227E+03  0.47000000000E+01 0. -1.
<mgrwt>
<rscale>  0 0.27415046E+03</rscale>
<asrwt>0</asrwt>
<pdfrwt beam="1">  1        2 0.22021205E+00 0.27415046E+03</pdfrwt>
<pdfrwt beam="2">  1       -2 0.20195293E-02 0.27415046E+03</pdfrwt>
<totfact> 0.11319944E+04</totfact>
</mgrwt>
</event>
<event>
 9    1  0.8186049E-001  0.2741248E+03  0.7818608E-02  0.1098942E+00
         -1   -1    0    0    0  501 -0.00000000000E+00  0.00000000000E+00  0.17378881448E+03  0.17378881448E+03  0.00000000000E+00 0. -1.
          1   -1    0    0  501    0  0.00000000000E+00 -0.00000000000E+00 -0.10809728023E+03  0.10809728023E+03  0.00000000000E+00 0. -1.
         35    2    1    2    0    0  0.00000000000E+00  0.00000000000E+00  0.65691534253E+02  0.28188609471E+03  0.27412477582E+03 0.  0.
         25    2    3    3    0    0  0.10404020867E+02  0.51701498945E+02  0.48401913789E+02  0.14476256372E+03  0.12582593514E+03 0.  0.
         25    2    3    3    0    0 -0.10404020867E+02 -0.51701498945E+02  0.17289620464E+02  0.13712353099E+03  0.12538996424E+03 0.  0.
          5    1    4    4  502    0 -0.34606487409E+02 -0.69005226613E+00 -0.25689305311E+02  0.43360299241E+02  0.47000000000E+01 0. -1.
         -5    1    4    4    0  502  0.45010508276E+02  0.52391551212E+02  0.74091219100E+02  0.10140226448E+03  0.47000000000E+01 0. -1.
          5    1    5    5  503    0  0.31149079321E+02  0.19566915205E+02  0.36774169390E+02  0.52226036108E+02  0.47000000000E+01 0.  1.
         -5    1    5    5    0  503 -0.41553100189E+02 -0.71268414151E+02 -0.19484548926E+02  0.84897494884E+02  0.47000000000E+01 0.  1.
<mgrwt>
<rscale>  0 0.27412478E+03</rscale>
<asrwt>0</asrwt>
<pdfrwt beam="1">  1        1 0.16630351E-01 0.27412478E+03</pdfrwt>
<pdfrwt beam="2">  1       -1 0.26736741E-01 0.27412478E+03</pdfrwt>
<totfact> 0.40188529E+03</totfact>
</mgrwt>
</event>
<event>
 9    1  0.8186049E-001  0.2754425E+03  0.7818608E-02  0.1098205E+00
          1   -1    0    0  501    0  0.00000000000E+00  0.00000000000E+00  0.58485136062E+03  0.58485136062E+03  0.00000000000E+00 0.  1.
         -1   -1    0    0    0  501 -0.00000000000E+00 -0.00000000000E+00 -0.32430706876E+02  0.32430706876E+02  0.00000000000E+00 0.  1.
         35    2    1    2    0    0  0.00000000000E+00  0.00000000000E+00  0.55242065375E+03  0.61728206750E+03  0.27544250247E+03 0.  0.
         25    2    3    3    0    0 -0.26568428950E+02 -0.10883186677E+02  0.16116660176E+03  0.20543626904E+03  0.12411712995E+03 0.  0.
         25    2    3    3    0    0  0.26568428950E+02  0.10883186677E+02  0.39125405199E+03  0.41184579845E+03  0.12535112021E+03 0.  0.
          5    1    4    4  502    0 -0.21733994083E+02  0.40529649083E+02  0.14333064034E+03  0.15060139911E+03  0.47000000000E+01 0.  1.
         -5    1    4    4    0  502 -0.48344348672E+01 -0.51412835760E+02  0.17835961422E+02  0.54834869939E+02  0.47000000000E+01 0.  1.
          5    1    5    5  503    0 -0.32174959523E+02 -0.39430837289E+02  0.15602988293E+03  0.16418718987E+03  0.47000000000E+01 0. -1.
         -5    1    5    5    0  503  0.58743388473E+02  0.50314023967E+02  0.23522416906E+03  0.24765860858E+03  0.47000000000E+01 0. -1.
<mgrwt>
<rscale>  0 0.27544250E+03</rscale>
<asrwt>0</asrwt>
<pdfrwt beam="1">  1        1 0.89977125E-01 0.27544250E+03</pdfrwt>
<pdfrwt beam="2">  1       -1 0.49893399E-02 0.27544250E+03</pdfrwt>
<totfact> 0.64115870E+03</totfact>
</mgrwt>
</event>
<event>
 9    1  0.8186049E-001  0.2770584E+03  0.7818608E-02  0.1097307E+00
          1   -1    0    0  501    0  0.00000000000E+00  0.00000000000E+00  0.83427265863E+02  0.83427265863E+02  0.00000000000E+00 0. -1.
         -1   -1    0    0    0  501 -0.00000000000E+00 -0.00000000000E+00 -0.23002471503E+03  0.23002471503E+03  0.00000000000E+00 0. -1.
         35    2    1    2    0    0 -0.17763568394E-14  0.00000000000E+00 -0.14659744916E+03  0.31345198089E+03  0.27705835527E+03 0.  0.
         25    2    3    3    0    0 -0.10990673943E+02  0.51441729148E+02 -0.10619970118E+03  0.17212103021E+03  0.12482077590E+03 0.  0.
         25    2    3    3    0    0  0.10990673943E+02 -0.51441729148E+02 -0.40397747979E+02  0.14133095068E+03  0.12480149505E+03 0.  0.
          5    1    4    4  502    0  0.40380181666E+02  0.65401525721E+02 -0.84820589528E+02  0.11456238932E+03  0.47000000000E+01 0.  1.
         -5    1    4    4    0  502 -0.51370855609E+02 -0.13959796573E+02 -0.21379111657E+02  0.57558640894E+02  0.47000000000E+01 0.  1.
          5    1    5    5  503    0 -0.95128532914E+01  0.14999264121E+02 -0.64905585590E+02  0.67455891831E+02  0.47000000000E+01 0.  1.
         -5    1    5    5    0  503  0.20503527234E+02 -0.66440993269E+02  0.24507837611E+02  0.73875058849E+02  0.47000000000E+01 0.  1.
<mgrwt>
<rscale>  0 0.27705836E+03</rscale>
<asrwt>0</asrwt>
<pdfrwt beam="1">  1        1 0.12834964E-01 0.27705836E+03</pdfrwt>
<pdfrwt beam="2">  1       -1 0.35388417E-01 0.27705836E+03</pdfrwt>
<totfact> 0.35012048E+03</totfact>
</mgrwt>
</event>
<event>
 9    1  0.8186049E-001  0.2752776E+03  0.7818608E-02  0.1098297E+00
          2   -1    0    0  501    0  0.00000000000E+00  0.00000000000E+00  0.99083448806E+02  0.99083448806E+02  0.00000000000E+00 0.  1.
         -2   -1    0    0    0  501 -0.00000000000E+00 -0.00000000000E+00 -0.19119684496E+03  0.19119684496E+03  0.00000000000E+00 0.  1.
         35    2    1    2    0    0 -0.71054273576E-14  0.00000000000E+00 -0.92113396149E+02  0.29028029376E+03  0.27527762567E+03 0.  0.
         25    2    3    3    0    0 -0.29740196930E+02  0.38406280087E+02 -0.15283614980E+02  0.13554945378E+03  0.12562063473E+03 0.  0.
         25    2    3    3    0    0  0.29740196930E+02 -0.38406280087E+02 -0.76829781169E+02  0.15473083998E+03  0.12521699526E+03 0.  0.
          5    1    4    4  502    0 -0.75905795249E+02  0.26538126514E+02 -0.29188784460E+02  0.85674016186E+02  0.47000000000E+01 0. -1.
         -5    1    4    4    0  502  0.46165598319E+02  0.11868153573E+02  0.13905169481E+02  0.49875437599E+02  0.47000000000E+01 0. -1.
          5    1    5    5  503    0  0.20708513107E+02 -0.51851565119E+02 -0.10664932048E+03  0.12047238223E+03  0.47000000000E+01 0.  1.
         -5    1    5    5    0  503  0.90316838228E+01  0.13445285033E+02  0.29819539315E+02  0.34258457747E+02  0.47000000000E+01 0.  1.
<mgrwt>
<rscale>  0 0.27527763E+03</rscale>
<asrwt>0</asrwt>
<pdfrwt beam="1">  1        2 0.15243608E-01 0.27527763E+03</pdfrwt>
<pdfrwt beam="2">  1       -2 0.29414899E-01 0.27527763E+03</pdfrwt>
<totfact> 0.40300795E+03</totfact>
</mgrwt>
</event>
<event>
 9    1  0.8186049E-001  0.2715432E+03  0.7818608E-02  0.1100400E+00
          1   -1    0    0  501    0  0.00000000000E+00  0.00000000000E+00  0.44455651629E+03  0.44455651629E+03  0.00000000000E+00 0. -1.
         -1   -1    0    0    0  501 -0.00000000000E+00 -0.00000000000E+00 -0.41465892777E+02  0.41465892777E+02  0.00000000000E+00 0. -1.
         35    2    1    2    0    0  0.14210854715E-13  0.00000000000E+00  0.40309062351E+03  0.48602240907E+03  0.27154324030E+03 0.  0.
         25    2    3    3    0    0  0.43128811383E+02  0.18251439437E+02  0.24194228541E+03  0.27697970499E+03  0.12644555388E+03 0.  0.
         25    2    3    3    0    0 -0.43128811383E+02 -0.18251439437E+02  0.16114833811E+03  0.20904270408E+03  0.12464692471E+03 0.  0.
          5    1    4    4  502    0 -0.21638421799E+01  0.56255627907E+02  0.47872621417E+02  0.74049009213E+02  0.47000000000E+01 0. -1.
         -5    1    4    4    0  502  0.45292653563E+02 -0.38004188470E+02  0.19406966399E+03  0.20293069578E+03  0.47000000000E+01 0. -1.
          5    1    5    5  503    0  0.38335768957E+02 -0.27917288120E+02  0.37783107116E+02  0.60816604154E+02  0.47000000000E+01 0. -1.
         -5    1    5    5    0  503 -0.81464580340E+02  0.96658486830E+01  0.12336523099E+03  0.14822609992E+03  0.47000000000E+01 0. -1.
<mgrwt>
<rscale>  0 0.27154324E+03</rscale>
<asrwt>0</asrwt>
<pdfrwt beam="1">  1        1 0.68393307E-01 0.27154324E+03</pdfrwt>
<pdfrwt beam="2">  1       -1 0.63793684E-02 0.27154324E+03</pdfrwt>
<totfact> 0.63871283E+03</totfact>
</mgrwt>
</event>
<event>
 9    1  0.8186049E-001  0.2728373E+03  0.7818608E-02  0.1099667E+00
         -2   -1    0    0    0  501 -0.00000000000E+00  0.00000000000E+00  0.43305894261E+02  0.43305894261E+02  0.00000000000E+00 0.  1.
          2   -1    0    0  501    0  0.00000000000E+00 -0.00000000000E+00 -0.42973477524E+03  0.42973477524E+03  0.00000000000E+00 0.  1.
         35    2    1    2    0    0  0.00000000000E+00  0.00000000000E+00 -0.38642888098E+03  0.47304066950E+03  0.27283730490E+03 0.  0.
         25    2    3    3    0    0  0.27358359893E+02 -0.38968360917E+02 -0.24428860982E+03  0.27852342396E+03  0.12502543659E+03 0.  0.
         25    2    3    3    0    0 -0.27358359893E+02  0.38968360917E+02 -0.14214027116E+03  0.19451724554E+03  0.12396003033E+03 0.  0.
          5    1    4    4  502    0  0.27820751230E+02 -0.65809937499E+02 -0.63537037045E+02  0.95728716429E+02  0.47000000000E+01 0. -1.
         -5    1    4    4    0  502 -0.46239133628E+00  0.26841576582E+02 -0.18075157278E+03  0.18279470753E+03  0.47000000000E+01 0. -1.
          5    1    5    5  503    0 -0.71357770929E+02  0.25558531137E+02 -0.48568722275E+02  0.90145331378E+02  0.47000000000E+01 0.  1.
         -5    1    5    5    0  503  0.43999411036E+02  0.13409829780E+02 -0.93571548882E+02  0.10437191416E+03  0.47000000000E+01 0.  1.
<mgrwt>
<rscale>  0 0.27283730E+03</rscale>
<asrwt>0</asrwt>
<pdfrwt beam="1">  1        2 0.66113042E-01 0.27283730E+03</pdfrwt>
<pdfrwt beam="2">  1       -2 0.66624453E-02 0.27283730E+03</pdfrwt>
<totfact> 0.92182425E+03</totfact>
</mgrwt>
</event>
<event>
 9    1  0.8186049E-001  0.2890505E+03  0.7818608E-02  0.1090846E+00
         -1   -1    0    0    0  501 -0.00000000000E+00  0.00000000000E+00  0.24971763206E+03  0.24971763206E+03  0.00000000000E+00 0. -1.
          1   -1    0    0  501    0  0.00000000000E+00 -0.00000000000E+00 -0.83644676683E+02  0.83644676683E+02  0.00000000000E+00 0. -1.
         35    2    1    2    0    0  0.00000000000E+00  0.00000000000E+00  0.16607295537E+03  0.33336230874E+03  0.28905051874E+03 0.  0.
         25    2    3    3    0    0 -0.27690062933E+02  0.66121065299E+02  0.63461989427E+02  0.15698158197E+03  0.12440682503E+03 0.  0.
         25    2    3    3    0    0  0.27690062933E+02 -0.66121065299E+02  0.10261096595E+03  0.17638072677E+03  0.12426751620E+03 0.  0.
          5    1    4    4  502    0  0.11181752007E+02  0.56382898022E+02 -0.22590725490E+02  0.61939435302E+02  0.47000000000E+01 0. -1.
         -5    1    4    4    0  502 -0.38871814941E+02  0.97381672768E+01  0.86052714917E+02  0.95042146668E+02  0.47000000000E+01 0. -1.
          5    1    5    5  503    0 -0.23061004150E+01 -0.98052622923E+02  0.59929973787E+02  0.11503619743E+03  0.47000000000E+01 0. -1.
         -5    1    5    5    0  503  0.29996163348E+02  0.31931557624E+02  0.42680992160E+02  0.61344529338E+02  0.47000000000E+01 0. -1.
<mgrwt>
<rscale>  0 0.28905052E+03</rscale>
<asrwt>0</asrwt>
<pdfrwt beam="1">  1        1 0.12868412E-01 0.28905052E+03</pdfrwt>
<pdfrwt beam="2">  1       -1 0.38418097E-01 0.28905052E+03</pdfrwt>
<totfact> 0.30244023E+03</totfact>
</mgrwt>
</event>
<event>
 9    1  0.8186049E-001  0.2779315E+03  0.7818608E-02  0.1096824E+00
          1   -1    0    0  501    0  0.00000000000E+00  0.00000000000E+00  0.85248902130E+03  0.85248902130E+03  0.00000000000E+00 0.  1.
         -1   -1    0    0    0  501 -0.00000000000E+00 -0.00000000000E+00 -0.22653053737E+02  0.22653053737E+02  0.00000000000E+00 0.  1.
         35    2    1    2    0    0  0.00000000000E+00  0.35527136788E-14  0.82983596757E+03  0.87514207504E+03  0.27793149954E+03 0.  0.
         25    2    3    3    0    0  0.52583892913E+02  0.30113369818E+02  0.41498240050E+03  0.43757163400E+03  0.12484655110E+03 0.  0.
         25    2    3    3    0    0 -0.52583892913E+02 -0.30113369818E+02  0.41485356707E+03  0.43757044104E+03  0.12526982050E+03 0.  0.
          5    1    4    4  502    0 -0.23623576525E+02  0.50518239938E+02  0.12395373695E+03  0.13600288540E+03  0.47000000000E+01 0. -1.
         -5    1    4    4    0  502  0.76207469438E+02 -0.20404870120E+02  0.29102866355E+03  0.30156874860E+03  0.47000000000E+01 0. -1.
          5    1    5    5  503    0 -0.52535897918E+02 -0.45364561706E+02  0.97284913243E+02  0.11960103835E+03  0.47000000000E+01 0.  1.
         -5    1    5    5    0  503 -0.47994995633E-01  0.15251191888E+02  0.31756865382E+03  0.31796940269E+03  0.47000000000E+01 0.  1.
<mgrwt>
<rscale>  0 0.27793150E+03</rscale>
<asrwt>0</asrwt>
<pdfrwt beam="1">  1        1 0.13115213E+00 0.27793150E+03</pdfrwt>
<pdfrwt beam="2">  1       -1 0.34850858E-02 0.27793150E+03</pdfrwt>
<totfact> 0.62886182E+03</totfact>
</mgrwt>
</event>
<event>
 9    1  0.8186049E-001  0.2722268E+03  0.7818608E-02  0.1100012E+00
         -1   -1    0    0    0  501 -0.00000000000E+00  0.00000000000E+00  0.11362084149E+03  0.11362084149E+03  0.00000000000E+00 0.  1.
          1   -1    0    0  501    0  0.00000000000E+00 -0.00000000000E+00 -0.16305867386E+03  0.16305867386E+03  0.00000000000E+00 0.  1.
         35    2    1    2    0    0  0.00000000000E+00  0.00000000000E+00 -0.49437832366E+02  0.27667951536E+03  0.27222684465E+03 0.  0.
         25    2    3    3    0    0 -0.85168267008E+01 -0.52132779299E+02 -0.36862465372E+02  0.14044501208E+03  0.12480223175E+03 0.  0.
         25    2    3    3    0    0  0.85168267008E+01  0.52132779299E+02 -0.12575366994E+02  0.13623450328E+03  0.12494533610E+03 0.  0.
          5    1    4    4  502    0 -0.66077549670E+02 -0.34882596899E+02 -0.15184919220E+02  0.76391818335E+02  0.47000000000E+01 0.  1.
         -5    1    4    4    0  502  0.57560722969E+02 -0.17250182400E+02 -0.21677546152E+02  0.64053193743E+02  0.47000000000E+01 0.  1.
          5    1    5    5  503    0 -0.48998511629E+02  0.96211663127E+01  0.24185881538E+02  0.55681844876E+02  0.47000000000E+01 0.  1.
         -5    1    5    5    0  503  0.57515338330E+02  0.42511612986E+02 -0.36761248532E+02  0.80552658401E+02  0.47000000000E+01 0.  1.
<mgrwt>
<rscale>  0 0.27222684E+03</rscale>
<asrwt>0</asrwt>
<pdfrwt beam="1">  1        1 0.25085950E-01 0.27222684E+03</pdfrwt>
<pdfrwt beam="2">  1       -1 0.17480129E-01 0.27222684E+03</pdfrwt>
<totfact> 0.47497072E+03</totfact>
</mgrwt>
</event>
<event>
 9    1  0.8186049E-001  0.2724559E+03  0.7818608E-02  0.1099882E+00
          2   -1    0    0  501    0  0.00000000000E+00  0.00000000000E+00  0.54897546592E+03  0.54897546592E+03  0.00000000000E+00 0. -1.
         -2   -1    0    0    0  501 -0.00000000000E+00 -0.00000000000E+00 -0.33804898474E+02  0.33804898474E+02  0.00000000000E+00 0. -1.
         35    2    1    2    0    0  0.00000000000E+00  0.00000000000E+00  0.51517056745E+03  0.58278036440E+03  0.27245594059E+03 0.  0.
         25    2    3    3    0    0 -0.18309576501E+01 -0.23640750288E+00  0.37200118029E+03  0.39246280393E+03  0.12505505202E+03 0.  0.
         25    2    3    3    0    0  0.18309576501E+01  0.23640750288E+00  0.14316938716E+03  0.19031756047E+03  0.12537899389E+03 0.  0.
          5    1    4    4  502    0  0.20834185980E+02  0.49498564271E+02  0.28164106250E+03  0.28675416170E+03  0.47000000000E+01 0. -1.
         -5    1    4    4    0  502 -0.22665143630E+02 -0.49734971774E+02  0.90360117793E+02  0.10570864222E+03  0.47000000000E+01 0. -1.
          5    1    5    5  503    0  0.18808286463E+02 -0.30635751265E+02 -0.61968554790E+01  0.36780319643E+02  0.47000000000E+01 0.  1.
         -5    1    5    5    0  503 -0.16977328813E+02  0.30872158768E+02  0.14936624264E+03  0.15353724083E+03  0.47000000000E+01 0.  1.
<mgrwt>
<rscale>  0 0.27245594E+03</rscale>
<asrwt>0</asrwt>
<pdfrwt beam="1">  1        2 0.84457757E-01 0.27245594E+03</pdfrwt>
<pdfrwt beam="2">  1       -2 0.52007540E-02 0.27245594E+03</pdfrwt>
<totfact> 0.10255891E+04</totfact>
</mgrwt>
</event>
<event>
 9    1  0.8186049E-001  0.2787892E+03  0.7818608E-02  0.1096352E+00
          1   -1    0    0  501    0  0.00000000000E+00  0.00000000000E+00  0.20880847102E+03  0.20880847102E+03  0.00000000000E+00 0. -1.
         -1   -1    0    0    0  501 -0.00000000000E+00 -0.00000000000E+00 -0.93055856378E+02  0.93055856378E+02  0.00000000000E+00 0. -1.
         35    2    1    2    0    0 -0.71054273576E-14  0.35527136788E-14  0.11575261464E+03  0.30186432739E+03  0.27878917547E+03 0.  0.
         25    2    3    3    0    0  0.57912032767E+02 -0.77678653577E+01  0.35418497507E+02  0.14225575168E+03  0.12477213490E+03 0.  0.
         25    2    3    3    0    0 -0.57912032767E+02  0.77678653577E+01  0.80334117130E+02  0.15960857572E+03  0.12492871486E+03 0.  0.
          5    1    4    4  502    0  0.67039334316E+02 -0.17438897701E+01 -0.31532888952E+02  0.74254471803E+02  0.47000000000E+01 0.  1.
         -5    1    4    4    0  502 -0.91273015494E+01 -0.60239755876E+01  0.66951386460E+02  0.68001279873E+02  0.47000000000E+01 0.  1.
          5    1    5    5  503    0  0.23429570558E+02  0.42961273000E+02  0.28007190534E+02  0.56578339282E+02  0.47000000000E+01 0.  1.
         -5    1    5    5    0  503 -0.81341603325E+02 -0.35193407643E+02  0.52326926596E+02  0.10303023644E+03  0.47000000000E+01 0.  1.
<mgrwt>
<rscale>  0 0.27878918E+03</rscale>
<asrwt>0</asrwt>
<pdfrwt beam="1">  1        1 0.32124380E-01 0.27878918E+03</pdfrwt>
<pdfrwt beam="2">  1       -1 0.14316286E-01 0.27878918E+03</pdfrwt>
<totfact> 0.47783956E+03</totfact>
</mgrwt>
</event>
<event>
 9    1  0.8186049E-001  0.2745780E+03  0.7818608E-02  0.1098688E+00
          1   -1    0    0  501    0  0.00000000000E+00  0.00000000000E+00  0.10182415503E+03  0.10182415503E+03  0.00000000000E+00 0.  1.
         -1   -1    0    0    0  501 -0.00000000000E+00 -0.00000000000E+00 -0.18510607807E+03  0.18510607807E+03  0.00000000000E+00 0.  1.
         35    2    1    2    0    0  0.00000000000E+00 -0.71054273576E-14 -0.83281923033E+02  0.28693023310E+03  0.27457800342E+03 0.  0.
         25    2    3    3    0    0 -0.17536215961E+01  0.17412310773E+02 -0.97768579044E+02  0.16007632690E+03  0.12553673418E+03 0.  0.
         25    2    3    3    0    0  0.17536215961E+01 -0.17412310773E+02  0.14486656011E+02  0.12685390620E+03  0.12480299099E+03 0.  0.
          5    1    4    4  502    0  0.28243769493E+02  0.64211636350E+02 -0.62548684291E+02  0.94102458334E+02  0.47000000000E+01 0. -1.
         -5    1    4    4    0  502 -0.29997391089E+02 -0.46799325578E+02 -0.35219894753E+02  0.65973868562E+02  0.47000000000E+01 0. -1.
          5    1    5    5  503    0  0.15884369458E+02  0.45605076601E+02 -0.21164297095E+02  0.52935372639E+02  0.47000000000E+01 0. -1.
         -5    1    5    5    0  503 -0.14130747862E+02 -0.63017387374E+02  0.35650953105E+02  0.73918533561E+02  0.47000000000E+01 0. -1.
<mgrwt>
<rscale>  0 0.27457800E+03</rscale>
<asrwt>0</asrwt>
<pdfrwt beam="1">  1        1 0.15665255E-01 0.27457800E+03</pdfrwt>
<pdfrwt beam="2">  1       -1 0.28477858E-01 0.27457800E+03</pdfrwt>
<totfact> 0.39076931E+03</totfact>
</mgrwt>
</event>
<event>
 9    1  0.8186049E-001  0.2731328E+03  0.7818608E-02  0.1099500E+00
          1   -1    0    0  501    0  0.00000000000E+00  0.00000000000E+00  0.14934108992E+04  0.14934108992E+04  0.00000000000E+00 0.  1.
         -1   -1    0    0    0  501 -0.00000000000E+00 -0.00000000000E+00 -0.12488446614E+02  0.12488446614E+02  0.00000000000E+00 0.  1.
         35    2    1    2    0    0  0.71054273576E-14  0.71054273576E-14  0.14809224526E+04  0.15058993458E+04  0.27313280497E+03 0.  0.
         25    2    3    3    0    0 -0.23454653929E+02 -0.96864206895E+00  0.10256148918E+04  0.10335747722E+04  0.12585644380E+03 0.  0.
         25    2    3    3    0    0  0.23454653929E+02  0.96864206895E+00  0.45530756078E+03  0.47232457358E+03  0.12342799053E+03 0.  0.
          5    1    4    4  502    0  0.40278529244E+02  0.23262825268E+02  0.21196246264E+03  0.21705689237E+03  0.47000000000E+01 0.  1.
         -5    1    4    4    0  502 -0.63733183173E+02 -0.24231467337E+02  0.81365242916E+03  0.81651787986E+03  0.47000000000E+01 0.  1.
          5    1    5    5  503    0 -0.37516870140E+02 -0.35549783879E+02  0.14686664250E+03  0.15576650268E+03  0.47000000000E+01 0. -1.
         -5    1    5    5    0  503  0.60971524069E+02  0.36518425948E+02  0.30844091828E+03  0.31655807090E+03  0.47000000000E+01 0. -1.
<mgrwt>
<rscale>  0 0.27313280E+03</rscale>
<asrwt>0</asrwt>
<pdfrwt beam="1">  1        1 0.22975538E+00 0.27313280E+03</pdfrwt>
<pdfrwt beam="2">  1       -1 0.19213007E-02 0.27313280E+03</pdfrwt>
<totfact> 0.52563020E+03</totfact>
</mgrwt>
</event>
<event>
 9    1  0.8186049E-001  0.2773794E+03  0.7818608E-02  0.1097129E+00
         -1   -1    0    0    0  501 -0.00000000000E+00  0.00000000000E+00  0.63454077498E+02  0.63454077498E+02  0.00000000000E+00 0. -1.
          1   -1    0    0  501    0  0.00000000000E+00 -0.00000000000E+00 -0.30312988417E+03  0.30312988417E+03  0.00000000000E+00 0. -1.
         35    2    1    2    0    0 -0.71054273576E-14  0.00000000000E+00 -0.23967580667E+03  0.36658396167E+03  0.27737935873E+03 0.  0.
         25    2    3    3    0    0 -0.37167922184E+02  0.37393916030E+02 -0.16224082246E+03  0.21152906451E+03  0.12507078500E+03 0.  0.
         25    2    3    3    0    0  0.37167922184E+02 -0.37393916030E+02 -0.77434984206E+02  0.15505489716E+03  0.12355599928E+03 0.  0.
          5    1    4    4  502    0  0.39764941525E+02  0.42382414545E+02 -0.64345686638E+02  0.86833041096E+02  0.47000000000E+01 0.  1.
         -5    1    4    4    0  502 -0.76932863709E+02 -0.49884985148E+01 -0.97895135826E+02  0.12469602341E+03  0.47000000000E+01 0.  1.
          5    1    5    5  503    0 -0.20737554929E+02  0.56239063990E+01  0.22664231921E+02  0.31582145529E+02  0.47000000000E+01 0.  1.
         -5    1    5    5    0  503  0.57905477113E+02 -0.43017822429E+02 -0.10009921613E+03  0.12347275163E+03  0.47000000000E+01 0.  1.
<mgrwt>
<rscale>  0 0.27737936E+03</rscale>
<asrwt>0</asrwt>
<pdfrwt beam="1">  1        1 0.46635368E-01 0.27737936E+03</pdfrwt>
<pdfrwt beam="2">  1       -1 0.97621656E-02 0.27737936E+03</pdfrwt>
<totfact> 0.54385288E+03</totfact>
</mgrwt>
</event>
<event>
 9    1  0.8186049E-001  0.2773485E+03  0.7818608E-02  0.1097146E+00
         -2   -1    0    0    0  501 -0.00000000000E+00  0.00000000000E+00  0.14463074893E+02  0.14463074893E+02  0.00000000000E+00 0. -1.
          2   -1    0    0  501    0  0.00000000000E+00 -0.00000000000E+00 -0.13296302477E+04  0.13296302477E+04  0.00000000000E+00 0. -1.
         35    2    1    2    0    0  0.00000000000E+00  0.00000000000E+00 -0.13151671728E+04  0.13440933226E+04  0.27734845846E+03 0.  0.
         25    2    3    3    0    0  0.10318919034E+02  0.55451883229E+02 -0.65295883748E+03  0.66772379161E+03  0.12774359865E+03 0.  0.
         25    2    3    3    0    0 -0.10318919034E+02 -0.55451883229E+02 -0.66220833536E+03  0.67636953102E+03  0.12559646342E+03 0.  0.
          5    1    4    4  502    0 -0.18807337519E+02  0.29615912422E+02 -0.39604708625E+02  0.53117239748E+02  0.47000000000E+01 0.  1.
         -5    1    4    4    0  502  0.29126256553E+02  0.25835970808E+02 -0.61335412885E+03  0.61460655186E+03  0.47000000000E+01 0.  1.
          5    1    5    5  503    0  0.19264287920E+01 -0.89421129671E+02 -0.57392124776E+03  0.58086791803E+03  0.47000000000E+01 0.  1.
         -5    1    5    5    0  503 -0.12245347826E+02  0.33969246442E+02 -0.88287087599E+02  0.95501612992E+02  0.47000000000E+01 0.  1.
<mgrwt>
<rscale>  0 0.27734846E+03</rscale>
<asrwt>0</asrwt>
<pdfrwt beam="1">  1        2 0.20455848E+00 0.27734846E+03</pdfrwt>
<pdfrwt beam="2">  1       -2 0.22250886E-02 0.27734846E+03</pdfrwt>
<totfact> 0.11152989E+04</totfact>
</mgrwt>
</event>
<event>
 9    1  0.8186049E-001  0.2764999E+03  0.7818608E-02  0.1097616E+00
         -2   -1    0    0    0  501 -0.00000000000E+00  0.00000000000E+00  0.15869018760E+02  0.15869018760E+02  0.00000000000E+00 0.  1.
          2   -1    0    0  501    0  0.00000000000E+00 -0.00000000000E+00 -0.12044250884E+04  0.12044250884E+04  0.00000000000E+00 0.  1.
         35    2    1    2    0    0  0.00000000000E+00 -0.14210854715E-13 -0.11885560697E+04  0.12202941072E+04  0.27649986853E+03 0.  0.
         25    2    3    3    0    0 -0.78007744489E-01 -0.58439672715E+02 -0.54345164124E+03  0.56062872004E+03  0.12469833171E+03 0.  0.
         25    2    3    3    0    0  0.78007744489E-01  0.58439672715E+02 -0.64510442843E+03  0.65966538716E+03  0.12483388161E+03 0.  0.
          5    1    4    4  502    0  0.26583375660E+02 -0.78337880965E+02 -0.49363505861E+03  0.50054086801E+03  0.47000000000E+01 0.  1.
         -5    1    4    4    0  502 -0.26661383404E+02  0.19898208250E+02 -0.49816582631E+02  0.60087852030E+02  0.47000000000E+01 0.  1.
          5    1    5    5  503    0  0.36368005420E+02 -0.19164503098E+02 -0.10623473081E+03  0.11400797352E+03  0.47000000000E+01 0. -1.
         -5    1    5    5    0  503 -0.36289997676E+02  0.77604175813E+02 -0.53886969763E+03  0.54565741364E+03  0.47000000000E+01 0. -1.
<mgrwt>
<rscale>  0 0.27649987E+03</rscale>
<asrwt>0</asrwt>
<pdfrwt beam="1">  1        2 0.18529621E+00 0.27649987E+03</pdfrwt>
<pdfrwt beam="2">  1       -2 0.24413870E-02 0.27649987E+03</pdfrwt>
<totfact> 0.11422720E+04</totfact>
</mgrwt>
</event>
<event>
 9    1  0.8186049E-001  0.2747602E+03  0.7818608E-02  0.1098586E+00
         -2   -1    0    0    0  501 -0.00000000000E+00  0.00000000000E+00  0.93218134789E+01  0.93218134789E+01  0.00000000000E+00 0.  1.
          2   -1    0    0  501    0  0.00000000000E+00 -0.00000000000E+00 -0.20246368390E+04  0.20246368390E+04  0.00000000000E+00 0.  1.
         35    2    1    2    0    0 -0.35527136788E-14  0.00000000000E+00 -0.20153150255E+04  0.20339586525E+04  0.27476016433E+03 0.  0.
         25    2    3    3    0    0  0.19883838197E+02 -0.52504090214E+02 -0.10699431720E+04  0.10786130403E+04  0.12440117760E+03 0.  0.
         25    2    3    3    0    0 -0.19883838197E+02  0.52504090214E+02 -0.94537185357E+03  0.95534561218E+03  0.12571893524E+03 0.  0.
          5    1    4    4  502    0 -0.28360799792E+02 -0.57514756711E+02 -0.28520478183E+03  0.29236302738E+03  0.47000000000E+01 0.  1.
         -5    1    4    4    0  502  0.48244637989E+02  0.50106664965E+01 -0.78473839014E+03  0.78625001293E+03  0.47000000000E+01 0.  1.
          5    1    5    5  503    0 -0.46546139660E+02 -0.26413812449E+02 -0.33026438304E+03  0.33460556676E+03  0.47000000000E+01 0. -1.
         -5    1    5    5    0  503  0.26662301463E+02  0.78917902663E+02 -0.61510747054E+03  0.62074004542E+03  0.47000000000E+01 0. -1.
<mgrwt>
<rscale>  0 0.27476016E+03</rscale>
<asrwt>0</asrwt>
<pdfrwt beam="1">  1        2 0.31148252E+00 0.27476016E+03</pdfrwt>
<pdfrwt beam="2">  1       -2 0.14341255E-02 0.27476016E+03</pdfrwt>
<totfact> 0.90852061E+03</totfact>
</mgrwt>
</event>
<event>
 9    1  0.8186049E-001  0.2728373E+03  0.7818608E-02  0.1099667E+00
         -2   -1    0    0    0  501 -0.00000000000E+00  0.00000000000E+00  0.50199206301E+02  0.50199206301E+02  0.00000000000E+00 0.  1.
          2   -1    0    0  501    0  0.00000000000E+00 -0.00000000000E+00 -0.37072393710E+03  0.37072393710E+03  0.00000000000E+00 0.  1.
         35    2    1    2    0    0  0.00000000000E+00  0.14210854715E-13 -0.32052473080E+03  0.42092314340E+03  0.27283729510E+03 0.  0.
         25    2    3    3    0    0  0.11898863732E+02  0.53369999976E+02 -0.15841673378E+03  0.20898871297E+03  0.12486184666E+03 0.  0.
         25    2    3    3    0    0 -0.11898863732E+02 -0.53369999976E+02 -0.16210799702E+03  0.21193443043E+03  0.12508900931E+03 0.  0.
          5    1    4    4  502    0  0.39518709456E+02  0.64053308120E+02 -0.37138892412E+02  0.84059157787E+02  0.47000000000E+01 0. -1.
         -5    1    4    4    0  502 -0.27619845723E+02 -0.10683308144E+02 -0.12127784137E+03  0.12492955518E+03  0.47000000000E+01 0. -1.
          5    1    5    5  503    0 -0.65879338191E+02 -0.48576934363E+02 -0.92810400110E+02  0.12383725660E+03  0.47000000000E+01 0. -1.
         -5    1    5    5    0  503  0.53980474459E+02 -0.47930656132E+01 -0.69297596909E+02  0.88097173837E+02  0.47000000000E+01 0. -1.
<mgrwt>
<rscale>  0 0.27283730E+03</rscale>
<asrwt>0</asrwt>
<pdfrwt beam="1">  1        2 0.57034452E-01 0.27283730E+03</pdfrwt>
<pdfrwt beam="2">  1       -2 0.77229548E-02 0.27283730E+03</pdfrwt>
<totfact> 0.86077729E+03</totfact>
</mgrwt>
</event>
<event>
 9    1  0.8186049E-001  0.2710021E+03  0.7818608E-02  0.1100707E+00
          2   -1    0    0  501    0  0.00000000000E+00  0.00000000000E+00  0.12964362069E+04  0.12964362069E+04  0.00000000000E+00 0. -1.
         -2   -1    0    0    0  501 -0.00000000000E+00 -0.00000000000E+00 -0.14162309746E+02  0.14162309746E+02  0.00000000000E+00 0. -1.
         35    2    1    2    0    0 -0.71054273576E-14  0.00000000000E+00  0.12822738971E+04  0.13105985166E+04  0.27100207474E+03 0.  0.
         25    2    3    3    0    0 -0.17370005391E+02  0.40170665211E+02  0.52587910627E+03  0.54267778240E+03  0.12662915016E+03 0.  0.
         25    2    3    3    0    0  0.17370005391E+02 -0.40170665211E+02  0.75639479085E+03  0.76792073421E+03  0.12511504696E+03 0.  0.
          5    1    4    4  502    0 -0.89305675888E+01  0.18026497933E+01 -0.42330812229E+01  0.11091147838E+02  0.47000000000E+01 0.  1.
         -5    1    4    4    0  502 -0.84394378024E+01  0.38368015418E+02  0.53011218749E+03  0.53158663456E+03  0.47000000000E+01 0.  1.
          5    1    5    5  503    0 -0.47033268076E+02  0.12567965865E+02  0.25663178346E+03  0.26125092220E+03  0.47000000000E+01 0.  1.
         -5    1    5    5    0  503  0.64403273467E+02 -0.52738631076E+02  0.49976300739E+03  0.50666981200E+03  0.47000000000E+01 0.  1.
<mgrwt>
<rscale>  0 0.27100207E+03</rscale>
<asrwt>0</asrwt>
<pdfrwt beam="1">  1        2 0.19945163E+00 0.27100207E+03</pdfrwt>
<pdfrwt beam="2">  1       -2 0.21788179E-02 0.27100207E+03</pdfrwt>
<totfact> 0.11992913E+04</totfact>
</mgrwt>
</event>
<event>
 9    1  0.8186049E-001  0.2892574E+03  0.7818608E-02  0.1090737E+00
          1   -1    0    0  501    0  0.00000000000E+00  0.00000000000E+00  0.51199232422E+02  0.51199232422E+02  0.00000000000E+00 0. -1.
         -1   -1    0    0    0  501 -0.00000000000E+00 -0.00000000000E+00 -0.40855028749E+03  0.40855028749E+03  0.00000000000E+00 0. -1.
         35    2    1    2    0    0  0.14210854715E-13 -0.71054273576E-14 -0.35735105507E+03  0.45974951991E+03  0.28925740181E+03 0.  0.
         25    2    3    3    0    0  0.47837870291E+02 -0.52079906654E+02 -0.20187694892E+03  0.24888009807E+03  0.12722508479E+03 0.  0.
         25    2    3    3    0    0 -0.47837870291E+02  0.52079906654E+02 -0.15547410614E+03  0.21086942184E+03  0.12366461448E+03 0.  0.
          5    1    4    4  502    0  0.71145638459E+02  0.77173940622E+01 -0.61574535752E+02  0.94523930811E+02  0.47000000000E+01 0. -1.
         -5    1    4    4    0  502 -0.23307768168E+02 -0.59797300716E+02 -0.14030241317E+03  0.15435616726E+03  0.47000000000E+01 0. -1.
          5    1    5    5  503    0 -0.72541874587E+02  0.26387101633E+02 -0.34527470326E+02  0.84692614249E+02  0.47000000000E+01 0.  1.
         -5    1    5    5    0  503  0.24704004295E+02  0.25692805020E+02 -0.12094663581E+03  0.12617680759E+03  0.47000000000E+01 0.  1.
<mgrwt>
<rscale>  0 0.28925740E+03</rscale>
<asrwt>0</asrwt>
<pdfrwt beam="1">  1        1 0.78768053E-02 0.28925740E+03</pdfrwt>
<pdfrwt beam="2">  1       -1 0.62853888E-01 0.28925740E+03</pdfrwt>
<totfact> 0.23556747E+03</totfact>
</mgrwt>
</event>
<event>
 9    1  0.8186049E-001  0.2737958E+03  0.7818608E-02  0.1099127E+00
         -4   -1    0    0    0  501 -0.00000000000E+00  0.00000000000E+00  0.56374976151E+02  0.56374976151E+02  0.00000000000E+00 0.  1.
          4   -1    0    0  501    0  0.00000000000E+00 -0.00000000000E+00 -0.33243527802E+03  0.33243527802E+03  0.00000000000E+00 0.  1.
         35    2    1    2    0    0 -0.35527136788E-14 -0.14210854715E-13 -0.27606030187E+03  0.38881025417E+03  0.27379576965E+03 0.  0.
         25    2    3    3    0    0  0.11756573790E+02 -0.51006367229E+02 -0.11101217578E+03  0.17513841922E+03  0.12493957014E+03 0.  0.
         25    2    3    3    0    0 -0.11756573790E+02  0.51006367229E+02 -0.16504812609E+03  0.21367183495E+03  0.12519945129E+03 0.  0.
          5    1    4    4  502    0  0.49629837449E+02  0.77018590583E+01 -0.87445004018E+01  0.51195660807E+02  0.47000000000E+01 0.  1.
         -5    1    4    4    0  502 -0.37873263659E+02 -0.58708226287E+02 -0.10226767538E+03  0.12394275841E+03  0.47000000000E+01 0.  1.
          5    1    5    5  503    0 -0.94138101550E+01  0.90627880489E+02 -0.13792137459E+03  0.16536755459E+03  0.47000000000E+01 0. -1.
         -5    1    5    5    0  503 -0.23427636355E+01 -0.39621513259E+02 -0.27126751494E+02  0.48304280360E+02  0.47000000000E+01 0. -1.
<mgrwt>
<rscale>  0 0.27379577E+03</rscale>
<asrwt>0</asrwt>
<pdfrwt beam="1">  1        4 0.51143889E-01 0.27379577E+03</pdfrwt>
<pdfrwt beam="2">  1       -4 0.86730732E-02 0.27379577E+03</pdfrwt>
<totfact> 0.66912592E+02</totfact>
</mgrwt>
</event>
<event>
 9    1  0.8186049E-001  0.2764004E+03  0.7818608E-02  0.1097671E+00
         -1   -1    0    0    0  501 -0.00000000000E+00  0.00000000000E+00  0.77562223845E+01  0.77562223845E+01  0.00000000000E+00 0.  1.
          1   -1    0    0  501    0  0.00000000000E+00 -0.00000000000E+00 -0.24624484321E+04  0.24624484321E+04  0.00000000000E+00 0.  1.
         35    2    1    2    0    0  0.71054273576E-14  0.00000000000E+00 -0.24546922097E+04  0.24702046545E+04  0.27640041715E+03 0.  0.
         25    2    3    3    0    0  0.23403445931E+02  0.49282102243E+02 -0.11050998452E+04  0.11137301771E+04  0.12717229479E+03 0.  0.
         25    2    3    3    0    0 -0.23403445931E+02 -0.49282102243E+02 -0.13495923645E+04  0.13564744774E+04  0.12508801160E+03 0.  0.
          5    1    4    4  502    0 -0.16585341907E+02 -0.21163030202E+02 -0.70277134324E+03  0.70330121448E+03  0.47000000000E+01 0. -1.
         -5    1    4    4    0  502  0.39988787838E+02  0.70445132445E+02 -0.40232850199E+03  0.41042896261E+03  0.47000000000E+01 0. -1.
          5    1    5    5  503    0  0.42630967223E+02 -0.28538106732E+02 -0.90852837779E+03  0.90998776154E+03  0.47000000000E+01 0.  1.
         -5    1    5    5    0  503 -0.66034413154E+02 -0.20743995511E+02 -0.44106398673E+03  0.44648671588E+03  0.47000000000E+01 0.  1.
<mgrwt>
<rscale>  0 0.27640042E+03</rscale>
<asrwt>0</asrwt>
<pdfrwt beam="1">  1        1 0.37883841E+00 0.27640042E+03</pdfrwt>
<pdfrwt beam="2">  1       -1 0.11932644E-02 0.27640042E+03</pdfrwt>
<totfact> 0.24448904E+03</totfact>
</mgrwt>
</event>
<event>
 9    1  0.8186049E-001  0.2722013E+03  0.7818608E-02  0.1100026E+00
          2   -1    0    0  501    0  0.00000000000E+00  0.00000000000E+00  0.24734072980E+04  0.24734072980E+04  0.00000000000E+00 0. -1.
         -2   -1    0    0    0  501 -0.00000000000E+00 -0.00000000000E+00 -0.74890177601E+01  0.74890177601E+01  0.00000000000E+00 0. -1.
         35    2    1    2    0    0 -0.14210854715E-13  0.17763568394E-14  0.24659182803E+04  0.24808963158E+04  0.27220133125E+03 0.  0.
         25    2    3    3    0    0  0.50026203619E+02 -0.69331506772E+01  0.12687247786E+04  0.12760735168E+04  0.12708409321E+03 0.  0.
         25    2    3    3    0    0 -0.50026203619E+02  0.69331506772E+01  0.11971935016E+04  0.12048227990E+04  0.12559859460E+03 0.  0.
          5    1    4    4  502    0  0.25272783126E+02 -0.10780975260E+02  0.51319050534E+02  0.58401009770E+02  0.47000000000E+01 0.  1.
         -5    1    4    4    0  502  0.24753420494E+02  0.38478245823E+01  0.12174057281E+04  0.12176725070E+04  0.47000000000E+01 0.  1.
          5    1    5    5  503    0 -0.69155839173E+02  0.48501642352E+02  0.91523920469E+03  0.91914081142E+03  0.47000000000E+01 0. -1.
         -5    1    5    5    0  503  0.19129635554E+02 -0.41568491675E+02  0.28195429694E+03  0.28568198756E+03  0.47000000000E+01 0. -1.
<mgrwt>
<rscale>  0 0.27220133E+03</rscale>
<asrwt>0</asrwt>
<pdfrwt beam="1">  1        2 0.38052355E+00 0.27220133E+03</pdfrwt>
<pdfrwt beam="2">  1       -2 0.11521586E-02 0.27220133E+03</pdfrwt>
<totfact> 0.71950038E+03</totfact>
</mgrwt>
</event>
<event>
 9    1  0.8186049E-001  0.2726272E+03  0.7818608E-02  0.1099785E+00
          1   -1    0    0  501    0  0.00000000000E+00  0.00000000000E+00  0.87584875909E+03  0.87584875909E+03  0.00000000000E+00 0. -1.
         -1   -1    0    0    0  501 -0.00000000000E+00 -0.00000000000E+00 -0.21215297587E+02  0.21215297587E+02  0.00000000000E+00 0. -1.
         35    2    1    2    0    0  0.00000000000E+00  0.35527136788E-14  0.85463346150E+03  0.89706405667E+03  0.27262715980E+03 0.  0.
         25    2    3    3    0    0  0.48860174664E+02  0.17454903891E+02  0.47770445808E+03  0.49658869973E+03  0.12532676125E+03 0.  0.
         25    2    3    3    0    0 -0.48860174664E+02 -0.17454903891E+02  0.37692900342E+03  0.40047535695E+03  0.12495218112E+03 0.  0.
          5    1    4    4  502    0  0.56084775525E+02  0.47654762346E+02  0.14764264350E+03  0.16503611301E+03  0.47000000000E+01 0.  1.
         -5    1    4    4    0  502 -0.72246008609E+01 -0.30199858455E+02  0.33006181458E+03  0.33155258671E+03  0.47000000000E+01 0.  1.
          5    1    5    5  503    0 -0.41927520588E+02 -0.57470144369E+02  0.33267115529E+03  0.34022481102E+03  0.47000000000E+01 0.  1.
         -5    1    5    5    0  503 -0.69326540766E+01  0.40015240478E+02  0.44257848132E+02  0.60250545925E+02  0.47000000000E+01 0.  1.
<mgrwt>
<rscale>  0 0.27262716E+03</rscale>
<asrwt>0</asrwt>
<pdfrwt beam="1">  1        1 0.13474593E+00 0.27262716E+03</pdfrwt>
<pdfrwt beam="2">  1       -1 0.32638926E-02 0.27262716E+03</pdfrwt>
<totfact> 0.66339803E+03</totfact>
</mgrwt>
</event>
<event>
 9    1  0.8186049E-001  0.2796297E+03  0.7818608E-02  0.1095891E+00
         -2   -1    0    0    0  501 -0.00000000000E+00  0.00000000000E+00  0.17975769108E+03  0.17975769108E+03  0.00000000000E+00 0.  1.
          2   -1    0    0  501    0  0.00000000000E+00 -0.00000000000E+00 -0.10874745144E+03  0.10874745144E+03  0.00000000000E+00 0.  1.
         35    2    1    2    0    0  0.00000000000E+00  0.00000000000E+00  0.71010239642E+02  0.28850514253E+03  0.27962968929E+03 0.  0.
         25    2    3    3    0    0  0.69736690023E+01 -0.24088546223E+02 -0.23509626734E+02  0.12996380468E+03  0.12533554109E+03 0.  0.
         25    2    3    3    0    0 -0.69736690023E+01  0.24088546223E+02  0.94519866376E+02  0.15854133784E+03  0.12478966522E+03 0.  0.
          5    1    4    4  502    0  0.25372017143E+02  0.60504646294E+01  0.45298045150E+02  0.52481904220E+02  0.47000000000E+01 0. -1.
         -5    1    4    4    0  502 -0.18398348141E+02 -0.30139010853E+02 -0.68807671883E+02  0.77481900464E+02  0.47000000000E+01 0. -1.
          5    1    5    5  503    0 -0.19003058593E+02  0.54863958863E+02  0.10787099695E+03  0.12259450315E+03  0.47000000000E+01 0.  1.
         -5    1    5    5    0  503  0.12029389591E+02 -0.30775412640E+02 -0.13351130576E+02  0.35946834697E+02  0.47000000000E+01 0.  1.
<mgrwt>
<rscale>  0 0.27962969E+03</rscale>
<asrwt>0</asrwt>
<pdfrwt beam="1">  1        2 0.16730377E-01 0.27962969E+03</pdfrwt>
<pdfrwt beam="2">  1       -2 0.27655029E-01 0.27962969E+03</pdfrwt>
<totfact> 0.40386891E+03</totfact>
</mgrwt>
</event>
<event>
 9    1  0.8186049E-001  0.2753592E+03  0.7818608E-02  0.1098251E+00
          2   -1    0    0  501    0  0.00000000000E+00  0.00000000000E+00  0.54883297469E+03  0.54883297469E+03  0.00000000000E+00 0. -1.
         -2   -1    0    0    0  501 -0.00000000000E+00 -0.00000000000E+00 -0.34538147320E+02  0.34538147320E+02  0.00000000000E+00 0. -1.
         35    2    1    2    0    0  0.71054273576E-14  0.22204460493E-14  0.51429482737E+03  0.58337112201E+03  0.27535921364E+03 0.  0.
         25    2    3    3    0    0  0.29974468357E+02  0.72069757163E+00  0.34695818685E+03  0.37012610798E+03  0.12535694728E+03 0.  0.
         25    2    3    3    0    0 -0.29974468357E+02 -0.72069757163E+00  0.16733664052E+03  0.21324501403E+03  0.12873576266E+03 0.  0.
          5    1    4    4  502    0  0.75941417118E+02 -0.28591493183E+01  0.15552584522E+03  0.17316365698E+03  0.47000000000E+01 0.  1.
         -5    1    4    4    0  502 -0.45966948760E+02  0.35798468899E+01  0.19143234163E+03  0.19696245100E+03  0.47000000000E+01 0.  1.
          5    1    5    5  503    0  0.28501628743E+02  0.24185480501E+02  0.39656171996E+01  0.37882666588E+02  0.47000000000E+01 0.  1.
         -5    1    5    5    0  503 -0.58476097100E+02 -0.24906178072E+02  0.16337102332E+03  0.17536234744E+03  0.47000000000E+01 0.  1.
<mgrwt>
<rscale>  0 0.27535921E+03</rscale>
<asrwt>0</asrwt>
<pdfrwt beam="1">  1        2 0.84435836E-01 0.27535921E+03</pdfrwt>
<pdfrwt beam="2">  1       -2 0.53135615E-02 0.27535921E+03</pdfrwt>
<totfact> 0.99330629E+03</totfact>
</mgrwt>
</event>
<event>
 9    1  0.8186049E-001  0.2764032E+03  0.7818608E-02  0.1097670E+00
         -1   -1    0    0    0  501 -0.00000000000E+00  0.00000000000E+00  0.58285059189E+03  0.58285059189E+03  0.00000000000E+00 0.  1.
          1   -1    0    0  501    0  0.00000000000E+00 -0.00000000000E+00 -0.32769428153E+02  0.32769428153E+02  0.00000000000E+00 0.  1.
         35    2    1    2    0    0  0.00000000000E+00  0.00000000000E+00  0.55008116374E+03  0.61562002004E+03  0.27640318808E+03 0.  0.
         25    2    3    3    0    0 -0.44326657832E+02 -0.39160408072E+02  0.22867309378E+03  0.26542641243E+03  0.12108429477E+03 0.  0.
         25    2    3    3    0    0  0.44326657832E+02  0.39160408072E+02  0.32140806996E+03  0.35019360761E+03  0.12583332319E+03 0.  0.
          5    1    4    4  502    0  0.40725229860E+02 -0.27616951179E+01  0.86125693066E+02  0.95424820215E+02  0.47000000000E+01 0.  1.
         -5    1    4    4    0  502 -0.85051887692E+02 -0.36398712954E+02  0.14254740072E+03  0.17000159222E+03  0.47000000000E+01 0.  1.
          5    1    5    5  503    0 -0.21378050565E+02 -0.13032220681E+02  0.20522393781E+03  0.20679897116E+03  0.47000000000E+01 0. -1.
         -5    1    5    5    0  503  0.65704708396E+02  0.52192628753E+02  0.11618413215E+03  0.14339463646E+03  0.47000000000E+01 0. -1.
<mgrwt>
<rscale>  0 0.27640319E+03</rscale>
<asrwt>0</asrwt>
<pdfrwt beam="1">  1        1 0.50414509E-02 0.27640319E+03</pdfrwt>
<pdfrwt beam="2">  1       -1 0.89669314E-01 0.27640319E+03</pdfrwt>
<totfact> 0.21047614E+03</totfact>
</mgrwt>
</event>
<event>
 9    1  0.8186049E-001  0.2774719E+03  0.7818608E-02  0.1097078E+00
          2   -1    0    0  501    0  0.00000000000E+00  0.00000000000E+00  0.93107030728E+03  0.93107030728E+03  0.00000000000E+00 0.  1.
         -2   -1    0    0    0  501 -0.00000000000E+00 -0.00000000000E+00 -0.20672621126E+02  0.20672621126E+02  0.00000000000E+00 0.  1.
         35    2    1    2    0    0  0.00000000000E+00  0.00000000000E+00  0.91039768616E+03  0.95174292841E+03  0.27747189914E+03 0.  0.
         25    2    3    3    0    0  0.46853698540E+02 -0.28702122060E+02  0.54005439521E+03  0.55704589694E+03  0.12498920210E+03 0.  0.
         25    2    3    3    0    0 -0.46853698540E+02  0.28702122060E+02  0.37034329095E+03  0.39469703147E+03  0.12495004049E+03 0.  0.
          5    1    4    4  502    0  0.86494298884E+02  0.10853584563E+01  0.35293261514E+03  0.36340880915E+03  0.47000000000E+01 0. -1.
         -5    1    4    4    0  502 -0.39640600345E+02 -0.29787480516E+02  0.18712178007E+03  0.19363708779E+03  0.47000000000E+01 0. -1.
          5    1    5    5  503    0 -0.81165623371E+02  0.43484601465E+02  0.31131229939E+03  0.32467862069E+03  0.47000000000E+01 0.  1.
         -5    1    5    5    0  503  0.34311924831E+02 -0.14782479405E+02  0.59030991562E+02  0.70018410778E+02  0.47000000000E+01 0.  1.
<mgrwt>
<rscale>  0 0.27747190E+03</rscale>
<asrwt>0</asrwt>
<pdfrwt beam="1">  1        2 0.14324155E+00 0.27747190E+03</pdfrwt>
<pdfrwt beam="2">  1       -2 0.31804040E-02 0.27747190E+03</pdfrwt>
<totfact> 0.11231885E+04</totfact>
</mgrwt>
</event>
<event>
 9    1  0.8186049E-001  0.2702196E+03  0.7818608E-02  0.1101154E+00
          1   -1    0    0  501    0  0.00000000000E+00  0.00000000000E+00  0.32178201884E+03  0.32178201884E+03  0.00000000000E+00 0.  1.
         -1   -1    0    0    0  501 -0.00000000000E+00 -0.00000000000E+00 -0.56729905767E+02  0.56729905767E+02  0.00000000000E+00 0.  1.
         35    2    1    2    0    0  0.35527136788E-14  0.00000000000E+00  0.26505211308E+03  0.37851192461E+03  0.27021964108E+03 0.  0.
         25    2    3    3    0    0 -0.11177121380E+01  0.38863659450E+02  0.18086081176E+03  0.22300977808E+03  0.12454354493E+03 0.  0.
         25    2    3    3    0    0  0.11177121380E+01 -0.38863659450E+02  0.84191301312E+02  0.15550214652E+03  0.12482431274E+03 0.  0.
          5    1    4    4  502    0 -0.31624515198E+02  0.55968631163E+02  0.35827270421E+02  0.73744701109E+02  0.47000000000E+01 0.  1.
         -5    1    4    4    0  502  0.30506803060E+02 -0.17104971713E+02  0.14503354134E+03  0.14926507698E+03  0.47000000000E+01 0.  1.
          5    1    5    5  503    0  0.45633909548E+02  0.24594355888E+02  0.43465496547E+02  0.67813534286E+02  0.47000000000E+01 0.  1.
         -5    1    5    5    0  503 -0.44516197410E+02 -0.63458015338E+02  0.40725804765E+02  0.87688612238E+02  0.47000000000E+01 0.  1.
<mgrwt>
<rscale>  0 0.27021964E+03</rscale>
<asrwt>0</asrwt>
<pdfrwt beam="1">  1        1 0.49504925E-01 0.27021964E+03</pdfrwt>
<pdfrwt beam="2">  1       -1 0.87276780E-02 0.27021964E+03</pdfrwt>
<totfact> 0.59881261E+03</totfact>
</mgrwt>
</event>
<event>
 9    1  0.8186049E-001  0.2752484E+03  0.7818608E-02  0.1098313E+00
          2   -1    0    0  501    0  0.00000000000E+00  0.00000000000E+00  0.72806314913E+02  0.72806314913E+02  0.00000000000E+00 0.  1.
         -2   -1    0    0    0  501 -0.00000000000E+00 -0.00000000000E+00 -0.26014810137E+03  0.26014810137E+03  0.00000000000E+00 0.  1.
         35    2    1    2    0    0  0.00000000000E+00  0.00000000000E+00 -0.18734178646E+03  0.33295441629E+03  0.27524843028E+03 0.  0.
         25    2    3    3    0    0 -0.15873589230E+02 -0.41388715689E+02 -0.13813879913E+03  0.19124253205E+03  0.12460490206E+03 0.  0.
         25    2    3    3    0    0  0.15873589230E+02  0.41388715689E+02 -0.49202987329E+02  0.14171188424E+03  0.12528498534E+03 0.  0.
          5    1    4    4  502    0  0.12646152937E+02 -0.65798861248E+02 -0.24541313576E+02  0.71510708273E+02  0.47000000000E+01 0. -1.
         -5    1    4    4    0  502 -0.28519742167E+02  0.24410145558E+02 -0.11359748556E+03  0.11973182377E+03  0.47000000000E+01 0. -1.
          5    1    5    5  503    0  0.74026324085E+01  0.81023529833E+02 -0.51388964920E+01  0.81658493804E+02  0.47000000000E+01 0. -1.
         -5    1    5    5    0  503  0.84709568216E+01 -0.39634814144E+02 -0.44064090837E+02  0.60053390437E+02  0.47000000000E+01 0. -1.
<mgrwt>
<rscale>  0 0.27524843E+03</rscale>
<asrwt>0</asrwt>
<pdfrwt beam="1">  1        2 0.11200971E-01 0.27524843E+03</pdfrwt>
<pdfrwt beam="2">  1       -2 0.40022785E-01 0.27524843E+03</pdfrwt>
<totfact> 0.32962855E+03</totfact>
</mgrwt>
</event>
<event>
 9    1  0.8186049E-001  0.2734889E+03  0.7818608E-02  0.1099299E+00
          1   -1    0    0  501    0  0.00000000000E+00  0.00000000000E+00  0.58056606688E+02  0.58056606688E+02  0.00000000000E+00 0.  1.
         -1   -1    0    0    0  501 -0.00000000000E+00 -0.00000000000E+00 -0.32208306049E+03  0.32208306049E+03  0.00000000000E+00 0.  1.
         35    2    1    2    0    0 -0.71054273576E-14  0.71054273576E-14 -0.26402645381E+03  0.38013966718E+03  0.27348893626E+03 0.  0.
         25    2    3    3    0    0 -0.46588932395E+02  0.14084504139E+02 -0.95265201877E+02  0.16446455144E+03  0.12491688482E+03 0.  0.
         25    2    3    3    0    0  0.46588932395E+02 -0.14084504139E+02 -0.16876125193E+03  0.21567511574E+03  0.12516586404E+03 0.  0.
          5    1    4    4  502    0  0.33167678217E+02  0.37792373259E+02 -0.31382054754E+02  0.59458235052E+02  0.47000000000E+01 0.  1.
         -5    1    4    4    0  502 -0.79756610612E+02 -0.23707869120E+02 -0.63883147123E+02  0.10500631639E+03  0.47000000000E+01 0.  1.
          5    1    5    5  503    0  0.61735698983E+02 -0.56822133360E+02 -0.13472131663E+03  0.15878279038E+03  0.47000000000E+01 0. -1.
         -5    1    5    5    0  503 -0.15146766588E+02  0.42737629221E+02 -0.34039935303E+02  0.56892325361E+02  0.47000000000E+01 0. -1.
<mgrwt>
<rscale>  0 0.27348894E+03</rscale>
<asrwt>0</asrwt>
<pdfrwt beam="1">  1        1 0.89317854E-02 0.27348894E+03</pdfrwt>
<pdfrwt beam="2">  1       -1 0.49551242E-01 0.27348894E+03</pdfrwt>
<totfact> 0.31125209E+03</totfact>
</mgrwt>
</event>
<event>
 9    1  0.8186049E-001  0.2739878E+03  0.7818608E-02  0.1099019E+00
         -2   -1    0    0    0  501 -0.00000000000E+00  0.00000000000E+00  0.15761858975E+03  0.15761858975E+03  0.00000000000E+00 0. -1.
          2   -1    0    0  501    0  0.00000000000E+00 -0.00000000000E+00 -0.11906797157E+03  0.11906797157E+03  0.00000000000E+00 0. -1.
         35    2    1    2    0    0 -0.71054273576E-14  0.71054273576E-14  0.38550618183E+02  0.27668656132E+03  0.27398777902E+03 0.  0.
         25    2    3    3    0    0 -0.21813683443E+02 -0.46134188294E+02 -0.48404351484E+01  0.13499738307E+03  0.12488660260E+03 0.  0.
         25    2    3    3    0    0  0.21813683443E+02  0.46134188294E+02  0.43391053331E+02  0.14168917825E+03  0.12485527465E+03 0.  0.
          5    1    4    4  502    0 -0.56410875921E+02  0.10305311255E+02 -0.28922323632E+02  0.64397027622E+02  0.47000000000E+01 0.  1.
         -5    1    4    4    0  502  0.34597192479E+02 -0.56439499549E+02  0.24081888484E+02  0.70600355450E+02  0.47000000000E+01 0.  1.
          5    1    5    5  503    0 -0.17922091302E+02  0.53865575527E+02 -0.24896148779E+02  0.62165985937E+02  0.47000000000E+01 0. -1.
         -5    1    5    5    0  503  0.39735774745E+02 -0.77313872329E+01  0.68287202110E+02  0.79523192310E+02  0.47000000000E+01 0. -1.
<mgrwt>
<rscale>  0 0.27398778E+03</rscale>
<asrwt>0</asrwt>
<pdfrwt beam="1">  1        2 0.18318149E-01 0.27398778E+03</pdfrwt>
<pdfrwt beam="2">  1       -2 0.24249014E-01 0.27398778E+03</pdfrwt>
<totfact> 0.45854764E+03</totfact>
</mgrwt>
</event>
<event>
 9    1  0.8186049E-001  0.2710564E+03  0.7818608E-02  0.1100677E+00
         -1   -1    0    0    0  501 -0.00000000000E+00  0.00000000000E+00  0.11269994433E+03  0.11269994433E+03  0.00000000000E+00 0.  1.
          1   -1    0    0  501    0  0.00000000000E+00 -0.00000000000E+00 -0.16298053314E+03  0.16298053314E+03  0.00000000000E+00 0.  1.
         35    2    1    2    0    0 -0.71054273576E-14 -0.71054273576E-14 -0.50280588804E+02  0.27568047747E+03  0.27105642964E+03 0.  0.
         25    2    3    3    0    0  0.25683119983E+02 -0.43923050163E+02 -0.33535219975E+02  0.13999252231E+03  0.12603348101E+03 0.  0.
         25    2    3    3    0    0 -0.25683119983E+02  0.43923050163E+02 -0.16745368828E+02  0.13568795516E+03  0.12466738471E+03 0.  0.
          5    1    4    4  502    0 -0.19771574715E+01 -0.16841274149E+02  0.47178229952E+02  0.50352885201E+02  0.47000000000E+01 0. -1.
         -5    1    4    4    0  502  0.27660277454E+02 -0.27081776014E+02 -0.80713449928E+02  0.89639637104E+02  0.47000000000E+01 0. -1.
          5    1    5    5  503    0  0.21628735751E+02  0.12956076739E+02  0.45022406039E+02  0.51814758324E+02  0.47000000000E+01 0. -1.
         -5    1    5    5    0  503 -0.47311855734E+02  0.30966973424E+02 -0.61767774868E+02  0.83873196840E+02  0.47000000000E+01 0. -1.
<mgrwt>
<rscale>  0 0.27105643E+03</rscale>
<asrwt>0</asrwt>
<pdfrwt beam="1">  1        1 0.25073928E-01 0.27105643E+03</pdfrwt>
<pdfrwt beam="2">  1       -1 0.17338453E-01 0.27105643E+03</pdfrwt>
<totfact> 0.48144171E+03</totfact>
</mgrwt>
</event>
<event>
 9    1  0.8186049E-001  0.2829144E+03  0.7818608E-02  0.1094108E+00
         -1   -1    0    0    0  501 -0.00000000000E+00  0.00000000000E+00  0.17383028425E+03  0.17383028425E+03  0.00000000000E+00 0. -1.
          1   -1    0    0  501    0  0.00000000000E+00 -0.00000000000E+00 -0.11511304777E+03  0.11511304777E+03  0.00000000000E+00 0. -1.
         35    2    1    2    0    0  0.00000000000E+00 -0.35527136788E-14  0.58717236479E+02  0.28894333202E+03  0.28291436029E+03 0.  0.
         25    2    3    3    0    0  0.11060246803E+02 -0.19392718189E+02  0.93900981928E+02  0.15739676742E+03  0.12432996988E+03 0.  0.
         25    2    3    3    0    0 -0.11060246803E+02  0.19392718189E+02 -0.35183745449E+02  0.13154656460E+03  0.12477257766E+03 0.  0.
          5    1    4    4  502    0  0.53307081142E+02  0.29220310740E+02  0.36944932572E+02  0.71291580866E+02  0.47000000000E+01 0. -1.
         -5    1    4    4    0  502 -0.42246834338E+02 -0.48613028929E+02  0.56956049356E+02  0.86105186554E+02  0.47000000000E+01 0. -1.
          5    1    5    5  503    0  0.20118018846E+02  0.14469915888E+01 -0.74925724156E+02  0.77735336928E+02  0.47000000000E+01 0.  1.
         -5    1    5    5    0  503 -0.31178265650E+02  0.17945726600E+02  0.39741978707E+02  0.53811227673E+02  0.47000000000E+01 0.  1.
<mgrwt>
<rscale>  0 0.28291436E+03</rscale>
<asrwt>0</asrwt>
<pdfrwt beam="1">  1        1 0.17709700E-01 0.28291436E+03</pdfrwt>
<pdfrwt beam="2">  1       -1 0.26743121E-01 0.28291436E+03</pdfrwt>
<totfact> 0.37048388E+03</totfact>
</mgrwt>
</event>
<event>
 9    1  0.8186049E-001  0.2742250E+03  0.7818608E-02  0.1098886E+00
         -1   -1    0    0    0  501 -0.00000000000E+00  0.00000000000E+00  0.13404996074E+03  0.13404996074E+03  0.00000000000E+00 0. -1.
          1   -1    0    0  501    0  0.00000000000E+00 -0.00000000000E+00 -0.14024501943E+03  0.14024501943E+03  0.00000000000E+00 0. -1.
         35    2    1    2    0    0  0.00000000000E+00 -0.35527136788E-14 -0.61950586912E+01  0.27429498017E+03  0.27422501234E+03 0.  0.
         25    2    3    3    0    0  0.11372259729E+02 -0.10241248128E+02 -0.57440168895E+02  0.13882958854E+03  0.12545943646E+03 0.  0.
         25    2    3    3    0    0 -0.11372259729E+02  0.10241248128E+02  0.51245110204E+02  0.13546539163E+03  0.12446123716E+03 0.  0.
          5    1    4    4  502    0 -0.24064916173E+02  0.27274539413E+02  0.22891982409E+02  0.43233708483E+02  0.47000000000E+01 0.  1.
         -5    1    4    4    0  502  0.35437175902E+02 -0.37515787541E+02 -0.80332151304E+02  0.95595880057E+02  0.47000000000E+01 0.  1.
          5    1    5    5  503    0  0.30147629089E+02  0.18440638264E+02 -0.28114600073E+02  0.45403275394E+02  0.47000000000E+01 0. -1.
         -5    1    5    5    0  503 -0.41519888818E+02 -0.81993901361E+01  0.79359710277E+02  0.90062116238E+02  0.47000000000E+01 0. -1.
<mgrwt>
<rscale>  0 0.27422501E+03</rscale>
<asrwt>0</asrwt>
<pdfrwt beam="1">  1        1 0.21576157E-01 0.27422501E+03</pdfrwt>
<pdfrwt beam="2">  1       -1 0.20623071E-01 0.27422501E+03</pdfrwt>
<totfact> 0.44076985E+03</totfact>
</mgrwt>
</event>
<event>
 9    1  0.8186049E-001  0.2736563E+03  0.7818608E-02  0.1099205E+00
          2   -1    0    0  501    0  0.00000000000E+00  0.00000000000E+00  0.64782316449E+02  0.64782316449E+02  0.00000000000E+00 0. -1.
         -2   -1    0    0    0  501 -0.00000000000E+00 -0.00000000000E+00 -0.28899767333E+03  0.28899767333E+03  0.00000000000E+00 0. -1.
         35    2    1    2    0    0  0.00000000000E+00  0.71054273576E-14 -0.22421535688E+03  0.35377998978E+03  0.27365627146E+03 0.  0.
         25    2    3    3    0    0  0.79337147191E+01 -0.44548400511E+02 -0.14190295874E+03  0.19771855094E+03  0.13003334905E+03 0.  0.
         25    2    3    3    0    0 -0.79337147191E+01  0.44548400511E+02 -0.82312398140E+02  0.15606143885E+03  0.12462880080E+03 0.  0.
          5    1    4    4  502    0 -0.34754200714E+02  0.13078957505E+02 -0.11506745300E+03  0.12100215839E+03  0.47000000000E+01 0.  1.
         -5    1    4    4    0  502  0.42687915433E+02 -0.57627358016E+02 -0.26835505746E+02  0.76716392541E+02  0.47000000000E+01 0.  1.
          5    1    5    5  503    0 -0.61591382843E+02  0.19224037090E+02 -0.15385493979E+02  0.66497108716E+02  0.47000000000E+01 0. -1.
         -5    1    5    5    0  503  0.53657668124E+02  0.25324363420E+02 -0.66926904161E+02  0.89564330131E+02  0.47000000000E+01 0. -1.
<mgrwt>
<rscale>  0 0.27365627E+03</rscale>
<asrwt>0</asrwt>
<pdfrwt beam="1">  1        2 0.99665103E-02 0.27365627E+03</pdfrwt>
<pdfrwt beam="2">  1       -2 0.44461180E-01 0.27365627E+03</pdfrwt>
<totfact> 0.31077541E+03</totfact>
</mgrwt>
</event>
<event>
 9    1  0.8186049E-001  0.2747329E+03  0.7818608E-02  0.1098601E+00
          4   -1    0    0  501    0  0.00000000000E+00  0.00000000000E+00  0.53280789508E+02  0.53280789508E+02  0.00000000000E+00 0. -1.
         -4   -1    0    0    0  501 -0.00000000000E+00 -0.00000000000E+00 -0.35415285623E+03  0.35415285623E+03  0.00000000000E+00 0. -1.
         35    2    1    2    0    0  0.00000000000E+00 -0.35527136788E-14 -0.30087206672E+03  0.40743364574E+03  0.27473291602E+03 0.  0.
         25    2    3    3    0    0  0.27292929952E+01  0.27580351105E+02 -0.65114349147E+02  0.13938259249E+03  0.12008123840E+03 0.  0.
         25    2    3    3    0    0 -0.27292929952E+01 -0.27580351105E+02 -0.23575771758E+03  0.26805105325E+03  0.12450518442E+03 0.  0.
          5    1    4    4  502    0 -0.25736077647E+02 -0.85502560893E+01  0.25584803847E+02  0.37578248492E+02  0.47000000000E+01 0. -1.
         -5    1    4    4    0  502  0.28465370643E+02  0.36130607194E+02 -0.90699152994E+02  0.10180434399E+03  0.47000000000E+01 0. -1.
          5    1    5    5  503    0 -0.55691847430E+02  0.16232486455E+02 -0.11932434756E+03  0.13276093329E+03  0.47000000000E+01 0.  1.
         -5    1    5    5    0  503  0.52962554435E+02 -0.43812837560E+02 -0.11643337002E+03  0.13529011997E+03  0.47000000000E+01 0.  1.
<mgrwt>
<rscale>  0 0.27473292E+03</rscale>
<asrwt>0</asrwt>
<pdfrwt beam="1">  1        4 0.81970442E-02 0.27473292E+03</pdfrwt>
<pdfrwt beam="2">  1       -4 0.54485057E-01 0.27473292E+03</pdfrwt>
<totfact> 0.64534450E+02</totfact>
</mgrwt>
</event>
<event>
 9    1  0.8186049E-001  0.2777475E+03  0.7818608E-02  0.1096926E+00
          1   -1    0    0  501    0  0.00000000000E+00  0.00000000000E+00  0.32301826461E+03  0.32301826461E+03  0.00000000000E+00 0. -1.
         -1   -1    0    0    0  501 -0.00000000000E+00 -0.00000000000E+00 -0.59705336496E+02  0.59705336496E+02  0.00000000000E+00 0. -1.
         35    2    1    2    0    0  0.00000000000E+00  0.00000000000E+00  0.26331292811E+03  0.38272360111E+03  0.27774746935E+03 0.  0.
         25    2    3    3    0    0 -0.16518340221E+02  0.61956566032E+02  0.13641744548E+03  0.19547850066E+03  0.12446145247E+03 0.  0.
         25    2    3    3    0    0  0.16518340221E+02 -0.61956566032E+02  0.12689548263E+03  0.18724510045E+03  0.12184741479E+03 0.  0.
          5    1    4    4  502    0  0.19826891840E+02  0.90196221899E+02  0.78102910095E+02  0.12103973996E+03  0.47000000000E+01 0.  1.
         -5    1    4    4    0  502 -0.36345232061E+02 -0.28239655867E+02  0.58314535385E+02  0.74438760698E+02  0.47000000000E+01 0.  1.
          5    1    5    5  503    0  0.17556229034E+02  0.18803318699E+02  0.97852798604E+02  0.10128694964E+03  0.47000000000E+01 0. -1.
         -5    1    5    5    0  503 -0.10378888134E+01 -0.80759884731E+02  0.29042684031E+02  0.85958150810E+02  0.47000000000E+01 0. -1.
<mgrwt>
<rscale>  0 0.27774747E+03</rscale>
<asrwt>0</asrwt>
<pdfrwt beam="1">  1        1 0.49695117E-01 0.27774747E+03</pdfrwt>
<pdfrwt beam="2">  1       -1 0.91854366E-02 0.27774747E+03</pdfrwt>
<totfact> 0.55141674E+03</totfact>
</mgrwt>
</event>
<event>
 9    1  0.8186049E-001  0.2703129E+03  0.7818608E-02  0.1101101E+00
         -2   -1    0    0    0  501 -0.00000000000E+00  0.00000000000E+00  0.11379712969E+03  0.11379712969E+03  0.00000000000E+00 0. -1.
          2   -1    0    0  501    0  0.00000000000E+00 -0.00000000000E+00 -0.16052478529E+03  0.16052478529E+03  0.00000000000E+00 0. -1.
         35    2    1    2    0    0  0.71054273576E-14 -0.71054273576E-14 -0.46727655603E+02  0.27432191498E+03  0.27031285437E+03 0.  0.
         25    2    3    3    0    0 -0.37631319719E+02 -0.32450628199E+01 -0.56885596771E+02  0.14283691219E+03  0.12545822295E+03 0.  0.
         25    2    3    3    0    0  0.37631319719E+02  0.32450628199E+01  0.10157941168E+02  0.13148500279E+03  0.12553276677E+03 0.  0.
          5    1    4    4  502    0 -0.25141805486E+02 -0.50764989906E+02 -0.71516620997E+02  0.91355961283E+02  0.47000000000E+01 0.  1.
         -5    1    4    4    0  502 -0.12489514232E+02  0.47519927086E+02  0.14631024226E+02  0.51480950903E+02  0.47000000000E+01 0.  1.
          5    1    5    5  503    0 -0.30557809564E+02  0.41085674743E+02  0.13914000610E+02  0.53268206347E+02  0.47000000000E+01 0. -1.
         -5    1    5    5    0  503  0.68189129283E+02 -0.37840611923E+02 -0.37560594419E+01  0.78216796442E+02  0.47000000000E+01 0. -1.
<mgrwt>
<rscale>  0 0.27031285E+03</rscale>
<asrwt>0</asrwt>
<pdfrwt beam="1">  1        2 0.24696121E-01 0.27031285E+03</pdfrwt>
<pdfrwt beam="2">  1       -2 0.17507251E-01 0.27031285E+03</pdfrwt>
<totfact> 0.57098452E+03</totfact>
</mgrwt>
</event>
<event>
 9    1  0.8186049E-001  0.2747076E+03  0.7818608E-02  0.1098615E+00
         -2   -1    0    0    0  501 -0.00000000000E+00  0.00000000000E+00  0.63230174109E+02  0.63230174109E+02  0.00000000000E+00 0. -1.
          2   -1    0    0  501    0  0.00000000000E+00 -0.00000000000E+00 -0.29837123175E+03  0.29837123175E+03  0.00000000000E+00 0. -1.
         35    2    1    2    0    0  0.00000000000E+00  0.71054273576E-14 -0.23514105765E+03  0.36160140586E+03  0.27470758950E+03 0.  0.
         25    2    3    3    0    0 -0.33340153627E+02 -0.35243552471E+02 -0.79276924846E+02  0.15600360771E+03  0.12529413781E+03 0.  0.
         25    2    3    3    0    0  0.33340153627E+02  0.35243552471E+02 -0.15586413280E+03  0.20559779816E+03  0.12499261130E+03 0.  0.
          5    1    4    4  502    0  0.14874131281E+02  0.20640036627E+02  0.19649745882E+02  0.32487742405E+02  0.47000000000E+01 0.  1.
         -5    1    4    4    0  502 -0.48214284908E+02 -0.55883589097E+02 -0.98926670729E+02  0.12351586530E+03  0.47000000000E+01 0.  1.
          5    1    5    5  503    0  0.73126137482E+02  0.27894020997E+02 -0.14264807738E+03  0.16277614189E+03  0.47000000000E+01 0. -1.
         -5    1    5    5    0  503 -0.39785983854E+02  0.73495314735E+01 -0.13216055421E+02  0.42821656262E+02  0.47000000000E+01 0. -1.
<mgrwt>
<rscale>  0 0.27470759E+03</rscale>
<asrwt>0</asrwt>
<pdfrwt beam="1">  1        2 0.45903266E-01 0.27470759E+03</pdfrwt>
<pdfrwt beam="2">  1       -2 0.97277191E-02 0.27470759E+03</pdfrwt>
<totfact> 0.75703876E+03</totfact>
</mgrwt>
</event>
<event>
 9    1  0.8186049E-001  0.2881775E+03  0.7818608E-02  0.1091305E+00
          1   -1    0    0  501    0  0.00000000000E+00  0.00000000000E+00  0.74198913501E+02  0.74198913501E+02  0.00000000000E+00 0. -1.
         -1   -1    0    0    0  501 -0.00000000000E+00 -0.00000000000E+00 -0.27980965886E+03  0.27980965886E+03  0.00000000000E+00 0. -1.
         35    2    1    2    0    0  0.17763568394E-14  0.00000000000E+00 -0.20561074536E+03  0.35400857236E+03  0.28817753330E+03 0.  0.
         25    2    3    3    0    0  0.11280932327E+02  0.63780692146E+02 -0.66036631673E+02  0.15554648561E+03  0.12505453346E+03 0.  0.
         25    2    3    3    0    0 -0.11280932327E+02 -0.63780692146E+02 -0.13957411369E+03  0.19846208675E+03  0.12534364978E+03 0.  0.
          5    1    4    4  502    0  0.17779898696E+02 -0.29944439655E+02 -0.48444808527E+02  0.59848005289E+02  0.47000000000E+01 0. -1.
         -5    1    4    4    0  502 -0.64989663695E+01  0.93725131800E+02 -0.17591823146E+02  0.95698480325E+02  0.47000000000E+01 0. -1.
          5    1    5    5  503    0  0.40750154305E+02 -0.72240275529E+02 -0.58354382922E+02  0.10152121202E+03  0.47000000000E+01 0. -1.
         -5    1    5    5    0  503 -0.52031086632E+02  0.84595833833E+01 -0.81219730766E+02  0.96940874727E+02  0.47000000000E+01 0. -1.
<mgrwt>
<rscale>  0 0.28817753E+03</rscale>
<asrwt>0</asrwt>
<pdfrwt beam="1">  1        1 0.11415218E-01 0.28817753E+03</pdfrwt>
<pdfrwt beam="2">  1       -1 0.43047638E-01 0.28817753E+03</pdfrwt>
<totfact> 0.28960543E+03</totfact>
</mgrwt>
</event>
<event>
 9    1  0.8186049E-001  0.2724487E+03  0.7818608E-02  0.1099886E+00
          1   -1    0    0  501    0  0.00000000000E+00  0.00000000000E+00  0.87083428941E+02  0.87083428941E+02  0.00000000000E+00 0. -1.
         -1   -1    0    0    0  501 -0.00000000000E+00 -0.00000000000E+00 -0.21309537628E+03  0.21309537628E+03  0.00000000000E+00 0. -1.
         35    2    1    2    0    0  0.00000000000E+00 -0.71054273576E-14 -0.12601194734E+03  0.30017880522E+03  0.27244871854E+03 0.  0.
         25    2    3    3    0    0 -0.13059460582E+02  0.65794848926E+01 -0.12258052287E+03  0.17458837940E+03  0.12345557299E+03 0.  0.
         25    2    3    3    0    0  0.13059460582E+02 -0.65794848926E+01 -0.34314244728E+01  0.12559042582E+03  0.12468897807E+03 0.  0.
          5    1    4    4  502    0 -0.55360122781E+02  0.37259400243E+02 -0.43882887175E+02  0.80005024140E+02  0.47000000000E+01 0.  1.
         -5    1    4    4    0  502  0.42300662199E+02 -0.30679915351E+02 -0.78697635690E+02  0.94583355257E+02  0.47000000000E+01 0.  1.
          5    1    5    5  503    0  0.55142090247E+01  0.52127853841E+02  0.26690802194E+02  0.59010241222E+02  0.47000000000E+01 0.  1.
         -5    1    5    5    0  503  0.75452515570E+01 -0.58707338734E+02 -0.30122226667E+02  0.66580184602E+02  0.47000000000E+01 0.  1.
<mgrwt>
<rscale>  0 0.27244872E+03</rscale>
<asrwt>0</asrwt>
<pdfrwt beam="1">  1        1 0.13397451E-01 0.27244872E+03</pdfrwt>
<pdfrwt beam="2">  1       -1 0.32783904E-01 0.27244872E+03</pdfrwt>
<totfact> 0.37742794E+03</totfact>
</mgrwt>
</event>
<event>
 9    1  0.8186049E-001  0.2821828E+03  0.7818608E-02  0.1094503E+00
         -2   -1    0    0    0  501 -0.00000000000E+00  0.00000000000E+00  0.13030455036E+03  0.13030455036E+03  0.00000000000E+00 0. -1.
          2   -1    0    0  501    0  0.00000000000E+00 -0.00000000000E+00 -0.15277118714E+03  0.15277118714E+03  0.00000000000E+00 0. -1.
         35    2    1    2    0    0  0.00000000000E+00  0.00000000000E+00 -0.22466636776E+02  0.28307573750E+03  0.28218278365E+03 0.  0.
         25    2    3    3    0    0  0.63002205656E+02  0.10067169014E+02 -0.25207218064E+02  0.14247265939E+03  0.12486964812E+03 0.  0.
         25    2    3    3    0    0 -0.63002205656E+02 -0.10067169014E+02  0.27405812890E+01  0.14060307811E+03  0.12526407697E+03 0.  0.
          5    1    4    4  502    0  0.26278602241E+02 -0.56931100593E+02 -0.38269644181E+01  0.62995641176E+02  0.47000000000E+01 0.  1.
         -5    1    4    4    0  502  0.36723603415E+02  0.66998269607E+02 -0.21380253646E+02  0.79477018213E+02  0.47000000000E+01 0.  1.
          5    1    5    5  503    0 -0.35694816682E+00  0.52002044323E+02  0.28048924799E+01  0.52290510111E+02  0.47000000000E+01 0. -1.
         -5    1    5    5    0  503 -0.62645257489E+02 -0.62069213338E+02 -0.64311190917E-01  0.88312567997E+02  0.47000000000E+01 0. -1.
<mgrwt>
<rscale>  0 0.28218278E+03</rscale>
<asrwt>0</asrwt>
<pdfrwt beam="1">  1        2 0.23503259E-01 0.28218278E+03</pdfrwt>
<pdfrwt beam="2">  1       -2 0.20046854E-01 0.28218278E+03</pdfrwt>
<totfact> 0.48041136E+03</totfact>
</mgrwt>
</event>
<event>
 9    1  0.8186049E-001  0.2764639E+03  0.7818608E-02  0.1097636E+00
         -2   -1    0    0    0  501 -0.00000000000E+00  0.00000000000E+00  0.14950046279E+02  0.14950046279E+02  0.00000000000E+00 0. -1.
          2   -1    0    0  501    0  0.00000000000E+00 -0.00000000000E+00 -0.12781274929E+04  0.12781274929E+04  0.00000000000E+00 0. -1.
         35    2    1    2    0    0 -0.35527136788E-14  0.00000000000E+00 -0.12631774466E+04  0.12930775392E+04  0.27646385057E+03 0.  0.
         25    2    3    3    0    0 -0.63830143918E+01  0.30868531903E+02 -0.88095365208E+03  0.89028902295E+03  0.12466594617E+03 0.  0.
         25    2    3    3    0    0  0.63830143918E+01 -0.30868531903E+02 -0.38222379452E+03  0.40278851621E+03  0.12308513541E+03 0.  0.
          5    1    4    4  502    0  0.28427097630E+02 -0.31410195686E+02 -0.55255503740E+03  0.55419658933E+03  0.47000000000E+01 0.  1.
         -5    1    4    4    0  502 -0.34810112022E+02  0.62278727589E+02 -0.32839861468E+03  0.33609243361E+03  0.47000000000E+01 0.  1.
          5    1    5    5  503    0  0.49482882815E+02 -0.56642660994E+02 -0.25596701643E+03  0.26682981512E+03  0.47000000000E+01 0.  1.
         -5    1    5    5    0  503 -0.43099868424E+02  0.25774129091E+02 -0.12625677808E+03  0.13595870108E+03  0.47000000000E+01 0.  1.
<mgrwt>
<rscale>  0 0.27646385E+03</rscale>
<asrwt>0</asrwt>
<pdfrwt beam="1">  1        2 0.19663496E+00 0.27646385E+03</pdfrwt>
<pdfrwt beam="2">  1       -2 0.23000076E-02 0.27646385E+03</pdfrwt>
<totfact> 0.11340581E+04</totfact>
</mgrwt>
</event>
<event>
 9    1  0.8186049E-001  0.2725166E+03  0.7818608E-02  0.1099848E+00
          1   -1    0    0  501    0  0.00000000000E+00  0.00000000000E+00  0.73054899932E+02  0.73054899932E+02  0.00000000000E+00 0.  1.
         -1   -1    0    0    0  501 -0.00000000000E+00 -0.00000000000E+00 -0.25414206430E+03  0.25414206430E+03  0.00000000000E+00 0.  1.
         35    2    1    2    0    0  0.71054273576E-14  0.00000000000E+00 -0.18108716437E+03  0.32719696423E+03  0.27251659088E+03 0.  0.
         25    2    3    3    0    0 -0.12705331436E+02 -0.28740564744E+02 -0.35517239018E+02  0.13350753830E+03  0.12480121397E+03 0.  0.
         25    2    3    3    0    0  0.12705331436E+02  0.28740564744E+02 -0.14556992535E+03  0.19368942593E+03  0.12384484261E+03 0.  0.
          5    1    4    4  502    0 -0.15808204208E+02 -0.73830564448E+02 -0.43657689668E+02  0.87343777306E+02  0.47000000000E+01 0.  1.
         -5    1    4    4    0  502  0.31028727720E+01  0.45089999703E+02  0.81404506500E+01  0.46163760998E+02  0.47000000000E+01 0.  1.
          5    1    5    5  503    0  0.65183485062E+02  0.32679216943E+02 -0.67858518711E+02  0.99718035012E+02  0.47000000000E+01 0.  1.
         -5    1    5    5    0  503 -0.52478153627E+02 -0.39386521991E+01 -0.77711406640E+02  0.93971390919E+02  0.47000000000E+01 0.  1.
<mgrwt>
<rscale>  0 0.27251659E+03</rscale>
<asrwt>0</asrwt>
<pdfrwt beam="1">  1        1 0.11239215E-01 0.27251659E+03</pdfrwt>
<pdfrwt beam="2">  1       -1 0.39098779E-01 0.27251659E+03</pdfrwt>
<totfact> 0.35055398E+03</totfact>
</mgrwt>
</event>
<event>
 9    1  0.8186049E-001  0.2740102E+03  0.7818608E-02  0.1099006E+00
         -1   -1    0    0    0  501 -0.00000000000E+00  0.00000000000E+00  0.22491603559E+02  0.22491603559E+02  0.00000000000E+00 0. -1.
          1   -1    0    0  501    0  0.00000000000E+00 -0.00000000000E+00 -0.83455123122E+03  0.83455123122E+03  0.00000000000E+00 0. -1.
         35    2    1    2    0    0  0.00000000000E+00  0.00000000000E+00 -0.81205962767E+03  0.85704283478E+03  0.27401018552E+03 0.  0.
         25    2    3    3    0    0  0.18265051333E+02  0.41956759050E+02 -0.30857443437E+03  0.33619376683E+03  0.12535583585E+03 0.  0.
         25    2    3    3    0    0 -0.18265051333E+02 -0.41956759050E+02 -0.50348519330E+03  0.52084906795E+03  0.12526942957E+03 0.  0.
          5    1    4    4  502    0  0.33319479952E+02  0.82901910740E+02 -0.21303740613E+03  0.23106263428E+03  0.47000000000E+01 0.  1.
         -5    1    4    4    0  502 -0.15054428619E+02 -0.40945151690E+02 -0.95537028240E+02  0.10513113256E+03  0.47000000000E+01 0.  1.
          5    1    5    5  503    0  0.18682658110E+02  0.39256219573E+00 -0.60057599936E+01  0.20183036745E+02  0.47000000000E+01 0. -1.
         -5    1    5    5    0  503 -0.36947709443E+02 -0.42349321246E+02 -0.49747943330E+03  0.50066603121E+03  0.47000000000E+01 0. -1.
<mgrwt>
<rscale>  0 0.27401019E+03</rscale>
<asrwt>0</asrwt>
<pdfrwt beam="1">  1        1 0.12839248E+00 0.27401019E+03</pdfrwt>
<pdfrwt beam="2">  1       -1 0.34602470E-02 0.27401019E+03</pdfrwt>
<totfact> 0.65701727E+03</totfact>
</mgrwt>
</event>
<event>
 9    1  0.8186049E-001  0.2728917E+03  0.7818608E-02  0.1099636E+00
          2   -1    0    0  501    0  0.00000000000E+00  0.00000000000E+00  0.11570654239E+04  0.11570654239E+04  0.00000000000E+00 0.  1.
         -2   -1    0    0    0  501 -0.00000000000E+00 -0.00000000000E+00 -0.16090246481E+02  0.16090246481E+02  0.00000000000E+00 0.  1.
         35    2    1    2    0    0  0.14210854715E-13  0.17763568394E-14  0.11409751774E+04  0.11731556703E+04  0.27289168448E+03 0.  0.
         25    2    3    3    0    0 -0.49707322461E+02  0.13850991084E+01  0.68463865723E+03  0.69746225415E+03  0.12349400220E+03 0.  0.
         25    2    3    3    0    0  0.49707322461E+02 -0.13850991084E+01  0.45633652014E+03  0.47569341619E+03  0.12477367584E+03 0.  0.
          5    1    4    4  502    0  0.22430063368E+02 -0.26188117996E+02  0.72125336563E+02  0.80081704784E+02  0.47000000000E+01 0.  1.
         -5    1    4    4    0  502 -0.72137385829E+02  0.27573217104E+02  0.61251332067E+03  0.61738054936E+03  0.47000000000E+01 0.  1.
          5    1    5    5  503    0  0.35999129093E+02 -0.14402470448E+02  0.30876562405E+02  0.49787755085E+02  0.47000000000E+01 0.  1.
         -5    1    5    5    0  503  0.13708193368E+02  0.13017371340E+02  0.42545995773E+03  0.42590566110E+03  0.47000000000E+01 0.  1.
<mgrwt>
<rscale>  0 0.27289168E+03</rscale>
<asrwt>0</asrwt>
<pdfrwt beam="1">  1        2 0.17801000E+00 0.27289168E+03</pdfrwt>
<pdfrwt beam="2">  1       -2 0.24754234E-02 0.27289168E+03</pdfrwt>
<totfact> 0.11906512E+04</totfact>
</mgrwt>
</event>
<event>
 9    1  0.8186049E-001  0.2746860E+03  0.7818608E-02  0.1098627E+00
         -2   -1    0    0    0  501 -0.00000000000E+00  0.00000000000E+00  0.66052978708E+02  0.66052978708E+02  0.00000000000E+00 0. -1.
          2   -1    0    0  501    0  0.00000000000E+00 -0.00000000000E+00 -0.28557537607E+03  0.28557537607E+03  0.00000000000E+00 0. -1.
         35    2    1    2    0    0  0.00000000000E+00  0.10658141036E-13 -0.21952239736E+03  0.35162835478E+03  0.27468603339E+03 0.  0.
         25    2    3    3    0    0  0.52579924000E+02 -0.14191880742E+02 -0.12601336237E+03  0.18569172820E+03  0.12504396243E+03 0.  0.
         25    2    3    3    0    0 -0.52579924000E+02  0.14191880742E+02 -0.93509034993E+02  0.16593662658E+03  0.12579732321E+03 0.  0.
          5    1    4    4  502    0  0.28189322901E+01  0.28761190460E+02  0.12856872380E+02  0.31977204746E+02  0.47000000000E+01 0. -1.
         -5    1    4    4    0  502  0.49760991710E+02 -0.42953071203E+02 -0.13887023475E+03  0.15371452346E+03  0.47000000000E+01 0. -1.
          5    1    5    5  503    0  0.21032773284E+02  0.50451277323E+02 -0.35854477797E+02  0.65538862621E+02  0.47000000000E+01 0. -1.
         -5    1    5    5    0  503 -0.73612697284E+02 -0.36259396581E+02 -0.57654557196E+02  0.10039776396E+03  0.47000000000E+01 0. -1.
<mgrwt>
<rscale>  0 0.27468603E+03</rscale>
<asrwt>0</asrwt>
<pdfrwt beam="1">  1        2 0.43934673E-01 0.27468603E+03</pdfrwt>
<pdfrwt beam="2">  1       -2 0.10161997E-01 0.27468603E+03</pdfrwt>
<totfact> 0.74037919E+03</totfact>
</mgrwt>
</event>
<event>
 9    1  0.8186049E-001  0.2743281E+03  0.7818608E-02  0.1098828E+00
          3   -1    0    0  501    0  0.00000000000E+00  0.00000000000E+00  0.67366737690E+02  0.67366737690E+02  0.00000000000E+00 0.  1.
         -3   -1    0    0    0  501 -0.00000000000E+00 -0.00000000000E+00 -0.27927688489E+03  0.27927688489E+03  0.00000000000E+00 0.  1.
         35    2    1    2    0    0 -0.71054273576E-14 -0.35527136788E-14 -0.21191014720E+03  0.34664362258E+03  0.27432807109E+03 0.  0.
         25    2    3    3    0    0 -0.21545511355E+02 -0.19236059007E+02 -0.45938918244E+02  0.13643180155E+03  0.12517594513E+03 0.  0.
         25    2    3    3    0    0  0.21545511355E+02  0.19236059007E+02 -0.16597122896E+03  0.21021182104E+03  0.12573116493E+03 0.  0.
          5    1    4    4  502    0 -0.10917821321E+02 -0.68497291158E+02 -0.50032987938E+02  0.85653182079E+02  0.47000000000E+01 0.  1.
         -5    1    4    4    0  502 -0.10627690034E+02  0.49261232150E+02  0.40940696938E+01  0.50778619468E+02  0.47000000000E+01 0.  1.
          5    1    5    5  503    0  0.69211655242E+02  0.35651720085E+01 -0.13282774491E+03  0.14989417430E+03  0.47000000000E+01 0.  1.
         -5    1    5    5    0  503 -0.47666143887E+02  0.15670886999E+02 -0.33143484055E+02  0.60317646735E+02  0.47000000000E+01 0.  1.
<mgrwt>
<rscale>  0 0.27432807E+03</rscale>
<asrwt>0</asrwt>
<pdfrwt beam="1">  1        3 0.10364113E-01 0.27432807E+03</pdfrwt>
<pdfrwt beam="2">  1       -3 0.42965675E-01 0.27432807E+03</pdfrwt>
<totfact> 0.95414164E+02</totfact>
</mgrwt>
</event>
<event>
 9    1  0.8186049E-001  0.2776907E+03  0.7818608E-02  0.1096957E+00
          2   -1    0    0  501    0  0.00000000000E+00  0.00000000000E+00  0.14381523824E+03  0.14381523824E+03  0.00000000000E+00 0.  1.
         -2   -1    0    0    0  501 -0.00000000000E+00 -0.00000000000E+00 -0.13404719798E+03  0.13404719798E+03  0.00000000000E+00 0.  1.
         35    2    1    2    0    0  0.35527136788E-14 -0.71054273576E-14  0.97680402557E+01  0.27786243622E+03  0.27769068917E+03 0.  0.
         25    2    3    3    0    0  0.37621269989E+01 -0.59515372806E+02  0.17770456034E+02  0.13899088045E+03  0.12428371792E+03 0.  0.
         25    2    3    3    0    0 -0.37621269989E+01  0.59515372806E+02 -0.80024157782E+01  0.13887155577E+03  0.12516004611E+03 0.  0.
          5    1    4    4  502    0  0.19708234727E+01  0.38213714581E+02  0.14145656868E+02  0.41065334962E+02  0.47000000000E+01 0.  1.
         -5    1    4    4    0  502  0.17913035261E+01 -0.97729087387E+02  0.36247991656E+01  0.97925545487E+02  0.47000000000E+01 0.  1.
          5    1    5    5  503    0  0.30057557236E+02 -0.30039239474E+02 -0.40812130126E+01  0.42948328895E+02  0.47000000000E+01 0. -1.
         -5    1    5    5    0  503 -0.33819684235E+02  0.89554612280E+02 -0.39212027657E+01  0.95923226872E+02  0.47000000000E+01 0. -1.
<mgrwt>
<rscale>  0 0.27769069E+03</rscale>
<asrwt>0</asrwt>
<pdfrwt beam="1">  1        2 0.22125421E-01 0.27769069E+03</pdfrwt>
<pdfrwt beam="2">  1       -2 0.20622646E-01 0.27769069E+03</pdfrwt>
<totfact> 0.48967688E+03</totfact>
</mgrwt>
</event>
<event>
 9    1  0.8186049E-001  0.2768611E+03  0.7818608E-02  0.1097416E+00
          1   -1    0    0  501    0  0.00000000000E+00  0.00000000000E+00  0.18708402406E+04  0.18708402406E+04  0.00000000000E+00 0.  1.
         -1   -1    0    0    0  501 -0.00000000000E+00 -0.00000000000E+00 -0.10242999692E+02  0.10242999692E+02  0.00000000000E+00 0.  1.
         35    2    1    2    0    0  0.00000000000E+00  0.00000000000E+00  0.18605972409E+04  0.18810832402E+04  0.27686109159E+03 0.  0.
         25    2    3    3    0    0 -0.18742174292E+01  0.59175027903E+02  0.94899009727E+03  0.95900805068E+03  0.12493614346E+03 0.  0.
         25    2    3    3    0    0  0.18742174292E+01 -0.59175027903E+02  0.91160714359E+03  0.92207518956E+03  0.12525922856E+03 0.  0.
          5    1    4    4  502    0  0.44902805390E+02  0.14434849399E+02  0.70315487194E+03  0.70475065856E+03  0.47000000000E+01 0.  1.
         -5    1    4    4    0  502 -0.46777022819E+02  0.44740178504E+02  0.24583522533E+03  0.25425739212E+03  0.47000000000E+01 0.  1.
          5    1    5    5  503    0 -0.59921420756E+02 -0.44188228376E+02  0.51517108850E+03  0.52054444250E+03  0.47000000000E+01 0.  1.
         -5    1    5    5    0  503  0.61795638185E+02 -0.14986799526E+02  0.39643605509E+03  0.40153074706E+03  0.47000000000E+01 0.  1.
<mgrwt>
<rscale>  0 0.27686109E+03</rscale>
<asrwt>0</asrwt>
<pdfrwt beam="1">  1        1 0.28782130E+00 0.27686109E+03</pdfrwt>
<pdfrwt beam="2">  1       -1 0.15758476E-02 0.27686109E+03</pdfrwt>
<totfact> 0.39752437E+03</totfact>
</mgrwt>
</event>
<event>
 9    1  0.8186049E-001  0.2798177E+03  0.7818608E-02  0.1095789E+00
          2   -1    0    0  501    0  0.00000000000E+00  0.00000000000E+00  0.76631703125E+03  0.76631703125E+03  0.00000000000E+00 0. -1.
         -2   -1    0    0    0  501 -0.00000000000E+00 -0.00000000000E+00 -0.25543583462E+02  0.25543583462E+02  0.00000000000E+00 0. -1.
         35    2    1    2    0    0 -0.14210854715E-13  0.35527136788E-14  0.74077344779E+03  0.79186061471E+03  0.27981767668E+03 0.  0.
         25    2    3    3    0    0  0.64122517369E+02  0.97496645556E+01  0.35183062139E+03  0.37847478586E+03  0.12349746634E+03 0.  0.
         25    2    3    3    0    0 -0.64122517369E+02 -0.97496645556E+01  0.38894282640E+03  0.41338582885E+03  0.12411514048E+03 0.  0.
          5    1    4    4  502    0 -0.30352802059E+02  0.12303488440E+02  0.36558210986E+02  0.49307820993E+02  0.47000000000E+01 0. -1.
         -5    1    4    4    0  502  0.94475319428E+02 -0.25538238848E+01  0.31527241040E+03  0.32916696487E+03  0.47000000000E+01 0. -1.
          5    1    5    5  503    0 -0.17829657354E+02  0.17290727531E+02  0.33907596154E+03  0.34001685787E+03  0.47000000000E+01 0.  1.
         -5    1    5    5    0  503 -0.46292860016E+02 -0.27040392087E+02  0.49866864858E+02  0.73368970985E+02  0.47000000000E+01 0.  1.
<mgrwt>
<rscale>  0 0.27981768E+03</rscale>
<asrwt>0</asrwt>
<pdfrwt beam="1">  1        2 0.11789491E+00 0.27981768E+03</pdfrwt>
<pdfrwt beam="2">  1       -2 0.39297827E-02 0.27981768E+03</pdfrwt>
<totfact> 0.10549801E+04</totfact>
</mgrwt>
</event>
<event>
 9    1  0.8186049E-001  0.2757059E+03  0.7818608E-02  0.1098058E+00
         -2   -1    0    0    0  501 -0.00000000000E+00  0.00000000000E+00  0.60715051665E+01  0.60715051665E+01  0.00000000000E+00 0. -1.
          2   -1    0    0  501    0  0.00000000000E+00 -0.00000000000E+00 -0.31299384438E+04  0.31299384438E+04  0.00000000000E+00 0. -1.
         35    2    1    2    0    0  0.00000000000E+00  0.14210854715E-13 -0.31238669386E+04  0.31360099489E+04  0.27570591167E+03 0.  0.
         25    2    3    3    0    0  0.28832618696E+02 -0.33487419498E+02 -0.19968367631E+04  0.20012491835E+04  0.12525377825E+03 0.  0.
         25    2    3    3    0    0 -0.28832618696E+02  0.33487419498E+02 -0.11270301755E+04  0.11347607654E+04  0.12462845195E+03 0.  0.
          5    1    4    4  502    0 -0.10149008011E+01 -0.34368894694E+02 -0.18872713053E+04  0.18875903477E+04  0.47000000000E+01 0. -1.
         -5    1    4    4    0  502  0.29847519497E+02  0.88147519565E+00 -0.10956545776E+03  0.11365883579E+03  0.47000000000E+01 0. -1.
          5    1    5    5  503    0 -0.39886134024E+00 -0.37831983126E+02 -0.15227272705E+03  0.15697290034E+03  0.47000000000E+01 0.  1.
         -5    1    5    5    0  503 -0.28433757356E+02  0.71319402624E+02 -0.97475744849E+03  0.97778786510E+03  0.47000000000E+01 0.  1.
<mgrwt>
<rscale>  0 0.27570591E+03</rscale>
<asrwt>0</asrwt>
<pdfrwt beam="1">  1        2 0.48153013E+00 0.27570591E+03</pdfrwt>
<pdfrwt beam="2">  1       -2 0.93407551E-03 0.27570591E+03</pdfrwt>
<totfact> 0.40980997E+03</totfact>
</mgrwt>
</event>
<event>
 9    1  0.8186049E-001  0.2765379E+03  0.7818608E-02  0.1097595E+00
          2   -1    0    0  501    0  0.00000000000E+00  0.00000000000E+00  0.10408833818E+04  0.10408833818E+04  0.00000000000E+00 0.  1.
         -2   -1    0    0    0  501 -0.00000000000E+00 -0.00000000000E+00 -0.18367376741E+02  0.18367376741E+02  0.00000000000E+00 0.  1.
         35    2    1    2    0    0  0.00000000000E+00 -0.14210854715E-13  0.10225160051E+04  0.10592507586E+04  0.27653786155E+03 0.  0.
         25    2    3    3    0    0 -0.56047059315E+02  0.15421116173E+02  0.53314254303E+03  0.55038151850E+03  0.12369220278E+03 0.  0.
         25    2    3    3    0    0  0.56047059315E+02 -0.15421116173E+02  0.48937346207E+03  0.50886924009E+03  0.12681653855E+03 0.  0.
          5    1    4    4  502    0 -0.56621360028E+01  0.52024900406E+02  0.10198773906E+03  0.11472680142E+03  0.47000000000E+01 0.  1.
         -5    1    4    4    0  502 -0.50384923312E+02 -0.36603784233E+02  0.43115480398E+03  0.43565471708E+03  0.47000000000E+01 0.  1.
          5    1    5    5  503    0 -0.11984560465E+01 -0.64055165564E+02  0.22349772676E+03  0.23254639193E+03  0.47000000000E+01 0. -1.
         -5    1    5    5    0  503  0.57245515361E+02  0.48634049391E+02  0.26587573531E+03  0.27632284816E+03  0.47000000000E+01 0. -1.
<mgrwt>
<rscale>  0 0.27653786E+03</rscale>
<asrwt>0</asrwt>
<pdfrwt beam="1">  1        2 0.16013586E+00 0.27653786E+03</pdfrwt>
<pdfrwt beam="2">  1       -2 0.28257511E-02 0.27653786E+03</pdfrwt>
<totfact> 0.11456534E+04</totfact>
</mgrwt>
</event>
<event>
 9    1  0.8186049E-001  0.2733165E+03  0.7818608E-02  0.1099396E+00
         -2   -1    0    0    0  501 -0.00000000000E+00  0.00000000000E+00  0.39976292499E+02  0.39976292499E+02  0.00000000000E+00 0.  1.
          2   -1    0    0  501    0  0.00000000000E+00 -0.00000000000E+00 -0.46716397411E+03  0.46716397411E+03  0.00000000000E+00 0.  1.
         35    2    1    2    0    0  0.35527136788E-14  0.00000000000E+00 -0.42718768161E+03  0.50714026661E+03  0.27331654669E+03 0.  0.
         25    2    3    3    0    0 -0.75301670605E+01 -0.30519630407E+01 -0.32704961304E+03  0.35007050965E+03  0.12458689515E+03 0.  0.
         25    2    3    3    0    0  0.75301670605E+01  0.30519630407E+01 -0.10013806857E+03  0.15706975696E+03  0.12073631550E+03 0.  0.
          5    1    4    4  502    0  0.12447081622E+02 -0.61369918345E+02 -0.17546786500E+03  0.18636592598E+03  0.47000000000E+01 0.  1.
         -5    1    4    4    0  502 -0.19977248682E+02  0.58317955304E+02 -0.15158174804E+03  0.16370458367E+03  0.47000000000E+01 0.  1.
          5    1    5    5  503    0  0.52612120028E+02  0.36042866539E+02 -0.43245066073E+02  0.77196820802E+02  0.47000000000E+01 0. -1.
         -5    1    5    5    0  503 -0.45081952968E+02 -0.32990903499E+02 -0.56893002495E+02  0.79872936155E+02  0.47000000000E+01 0. -1.
<mgrwt>
<rscale>  0 0.27331655E+03</rscale>
<asrwt>0</asrwt>
<pdfrwt beam="1">  1        2 0.71871378E-01 0.27331655E+03</pdfrwt>
<pdfrwt beam="2">  1       -2 0.61501991E-02 0.27331655E+03</pdfrwt>
<totfact> 0.95120537E+03</totfact>
</mgrwt>
</event>
<event>
 9    1  0.8186049E-001  0.2792373E+03  0.7818608E-02  0.1096106E+00
         -1   -1    0    0    0  501 -0.00000000000E+00  0.00000000000E+00  0.11007043203E+03  0.11007043203E+03  0.00000000000E+00 0.  1.
          1   -1    0    0  501    0  0.00000000000E+00 -0.00000000000E+00 -0.17709908255E+03  0.17709908255E+03  0.00000000000E+00 0.  1.
         35    2    1    2    0    0  0.00000000000E+00  0.35527136788E-14 -0.67028650518E+02  0.28716951458E+03  0.27923733653E+03 0.  0.
         25    2    3    3    0    0  0.20380548569E+02 -0.28963644226E+02 -0.86735874112E+02  0.15616348106E+03  0.12493863099E+03 0.  0.
         25    2    3    3    0    0 -0.20380548569E+02  0.28963644226E+02  0.19707223594E+02  0.13100603351E+03  0.12457907813E+03 0.  0.
          5    1    4    4  502    0  0.58027717367E+02 -0.31927309707E+02 -0.96256366596E+02  0.11693565409E+03  0.47000000000E+01 0. -1.
         -5    1    4    4    0  502 -0.37647168798E+02  0.29636654808E+01  0.95204924840E+01  0.39227826969E+02  0.47000000000E+01 0. -1.
          5    1    5    5  503    0 -0.58966313442E+02  0.47419463259E+02 -0.13047070412E+02  0.76928198101E+02  0.47000000000E+01 0.  1.
         -5    1    5    5    0  503  0.38585764874E+02 -0.18455819033E+02  0.32754294006E+02  0.54077835412E+02  0.47000000000E+01 0.  1.
<mgrwt>
<rscale>  0 0.27923734E+03</rscale>
<asrwt>0</asrwt>
<pdfrwt beam="1">  1        1 0.27246013E-01 0.27923734E+03</pdfrwt>
<pdfrwt beam="2">  1       -1 0.16933913E-01 0.27923734E+03</pdfrwt>
<totfact> 0.45036622E+03</totfact>
</mgrwt>
</event>
<event>
 9    1  0.8186049E-001  0.2736600E+03  0.7818608E-02  0.1099203E+00
         -2   -1    0    0    0  501 -0.00000000000E+00  0.00000000000E+00  0.11928533571E+02  0.11928533571E+02  0.00000000000E+00 0.  1.
          2   -1    0    0  501    0  0.00000000000E+00 -0.00000000000E+00 -0.15695518793E+04  0.15695518793E+04  0.00000000000E+00 0.  1.
         35    2    1    2    0    0 -0.35527136788E-14  0.00000000000E+00 -0.15576233458E+04  0.15814804129E+04  0.27366002474E+03 0.  0.
         25    2    3    3    0    0  0.60390417247E+01 -0.20565078235E+02 -0.47670831625E+03  0.49323174703E+03  0.12476916700E+03 0.  0.
         25    2    3    3    0    0 -0.60390417247E+01  0.20565078235E+02 -0.10809150295E+04  0.10882486659E+04  0.12429185522E+03 0.  0.
          5    1    4    4  502    0 -0.50021094732E+02 -0.97323274953E+01 -0.10146332881E+03  0.11363857272E+03  0.47000000000E+01 0.  1.
         -5    1    4    4    0  502  0.56060136456E+02 -0.10832750740E+02 -0.37524498743E+03  0.37959317431E+03  0.47000000000E+01 0.  1.
          5    1    5    5  503    0  0.17670564074E+02  0.63764658726E+02 -0.82004039651E+03  0.82271898145E+03  0.47000000000E+01 0. -1.
         -5    1    5    5    0  503 -0.23709605799E+02 -0.43199580491E+02 -0.26087463301E+03  0.26552968442E+03  0.47000000000E+01 0. -1.
<mgrwt>
<rscale>  0 0.27366002E+03</rscale>
<asrwt>0</asrwt>
<pdfrwt beam="1">  1        2 0.24146954E+00 0.27366002E+03</pdfrwt>
<pdfrwt beam="2">  1       -2 0.18351589E-02 0.27366002E+03</pdfrwt>
<totfact> 0.10989093E+04</totfact>
</mgrwt>
</event>
<event>
 9    1  0.8186049E-001  0.2687073E+03  0.7818608E-02  0.1102022E+00
         -1   -1    0    0    0  501 -0.00000000000E+00  0.00000000000E+00  0.42149179294E+02  0.42149179294E+02  0.00000000000E+00 0.  1.
          1   -1    0    0  501    0  0.00000000000E+00 -0.00000000000E+00 -0.42826234171E+03  0.42826234171E+03  0.00000000000E+00 0.  1.
         35    2    1    2    0    0  0.00000000000E+00  0.22204460493E-14 -0.38611316241E+03  0.47041152100E+03  0.26870732201E+03 0.  0.
         25    2    3    3    0    0 -0.45817516085E+02  0.23934979649E+01 -0.18925990774E+03  0.23192012500E+03  0.12594704479E+03 0.  0.
         25    2    3    3    0    0  0.45817516085E+02 -0.23934979649E+01 -0.19685325468E+03  0.23849139600E+03  0.12657791465E+03 0.  0.
          5    1    4    4  502    0  0.86292955206E+01 -0.18547437940E+02 -0.16853162252E+03  0.16983365386E+03  0.47000000000E+01 0. -1.
         -5    1    4    4    0  502 -0.54446811606E+02  0.20940935905E+02 -0.20728285219E+02  0.62086471141E+02  0.47000000000E+01 0. -1.
          5    1    5    5  503    0  0.86621592091E+02  0.12219196371E+00 -0.16513923007E+03  0.18653785260E+03  0.47000000000E+01 0.  1.
         -5    1    5    5    0  503 -0.40804076005E+02 -0.25156899287E+01 -0.31714024612E+02  0.51953543398E+02  0.47000000000E+01 0.  1.
<mgrwt>
<rscale>  0 0.26870732E+03</rscale>
<asrwt>0</asrwt>
<pdfrwt beam="1">  1        1 0.65886517E-01 0.26870732E+03</pdfrwt>
<pdfrwt beam="2">  1       -1 0.64844888E-02 0.26870732E+03</pdfrwt>
<totfact> 0.65381393E+03</totfact>
</mgrwt>
</event>
<event>
 9    1  0.8186049E-001  0.2752985E+03  0.7818608E-02  0.1098285E+00
         -2   -1    0    0    0  501 -0.00000000000E+00  0.00000000000E+00  0.90568004560E+02  0.90568004560E+02  0.00000000000E+00 0.  1.
          2   -1    0    0  501    0  0.00000000000E+00 -0.00000000000E+00 -0.20920541826E+03  0.20920541826E+03  0.00000000000E+00 0.  1.
         35    2    1    2    0    0  0.00000000000E+00  0.00000000000E+00 -0.11863741370E+03  0.29977342282E+03  0.27529850908E+03 0.  0.
         25    2    3    3    0    0 -0.10161946228E+02 -0.28823502726E+02 -0.11366782282E+03  0.17248717686E+03  0.12608486340E+03 0.  0.
         25    2    3    3    0    0  0.10161946228E+02  0.28823502726E+02 -0.49695908850E+01  0.12728624596E+03  0.12346267499E+03 0.  0.
          5    1    4    4  502    0 -0.12804965157E+02  0.55681480303E+01  0.25271822398E+02  0.29252801788E+02  0.47000000000E+01 0.  1.
         -5    1    4    4    0  502  0.26430189280E+01 -0.34391650756E+02 -0.13893964521E+03  0.14323437507E+03  0.47000000000E+01 0.  1.
          5    1    5    5  503    0 -0.16260672749E+02  0.31491321213E+02  0.52664915227E+02  0.63653720126E+02  0.47000000000E+01 0.  1.
         -5    1    5    5    0  503  0.26422618978E+02 -0.26678184867E+01 -0.57634506112E+02  0.63632525833E+02  0.47000000000E+01 0.  1.
<mgrwt>
<rscale>  0 0.27529851E+03</rscale>
<asrwt>0</asrwt>
<pdfrwt beam="1">  1        2 0.32185449E-01 0.27529851E+03</pdfrwt>
<pdfrwt beam="2">  1       -2 0.13933539E-01 0.27529851E+03</pdfrwt>
<totfact> 0.62296723E+03</totfact>
</mgrwt>
</event>
<event>
 9    1  0.8186049E-001  0.2704602E+03  0.7818608E-02  0.1101017E+00
         -2   -1    0    0    0  501 -0.00000000000E+00  0.00000000000E+00  0.49400262276E+02  0.49400262276E+02  0.00000000000E+00 0. -1.
          2   -1    0    0  501    0  0.00000000000E+00 -0.00000000000E+00 -0.37018390271E+03  0.37018390271E+03  0.00000000000E+00 0. -1.
         35    2    1    2    0    0  0.00000000000E+00  0.00000000000E+00 -0.32078364043E+03  0.41958416499E+03  0.27046021433E+03 0.  0.
         25    2    3    3    0    0 -0.12217774434E+02  0.37066271363E+02 -0.21888058805E+03  0.25423642346E+03  0.12330557451E+03 0.  0.
         25    2    3    3    0    0  0.12217774434E+02 -0.37066271363E+02 -0.10190305238E+03  0.16534774152E+03  0.12422745694E+03 0.  0.
          5    1    4    4  502    0 -0.23734051935E+02  0.33509637825E+02 -0.23209332614E+03  0.23574478380E+03  0.47000000000E+01 0.  1.
         -5    1    4    4    0  502  0.11516277501E+02  0.35566335377E+01  0.13212738090E+02  0.18491639664E+02  0.47000000000E+01 0.  1.
          5    1    5    5  503    0  0.10243846997E+02 -0.38996774354E+02  0.18649580670E+02  0.44671933811E+02  0.47000000000E+01 0. -1.
         -5    1    5    5    0  503  0.19739274367E+01  0.19305029907E+01 -0.12055263305E+03  0.12067580771E+03  0.47000000000E+01 0. -1.
<mgrwt>
<rscale>  0 0.27046021E+03</rscale>
<asrwt>0</asrwt>
<pdfrwt beam="1">  1        2 0.56951372E-01 0.27046021E+03</pdfrwt>
<pdfrwt beam="2">  1       -2 0.76000401E-02 0.27046021E+03</pdfrwt>
<totfact> 0.88364138E+03</totfact>
</mgrwt>
</event>
<event>
 9    1  0.8186049E-001  0.2717354E+03  0.7818608E-02  0.1100290E+00
         -1   -1    0    0    0  501 -0.00000000000E+00  0.00000000000E+00  0.45416734531E+02  0.45416734531E+02  0.00000000000E+00 0. -1.
          1   -1    0    0  501    0  0.00000000000E+00 -0.00000000000E+00 -0.40645882346E+03  0.40645882346E+03  0.00000000000E+00 0. -1.
         35    2    1    2    0    0  0.00000000000E+00 -0.17763568394E-14 -0.36104208893E+03  0.45187555799E+03  0.27173540426E+03 0.  0.
         25    2    3    3    0    0  0.36334341305E+02  0.14152696426E+02 -0.11850585281E+03  0.17655756412E+03  0.12493379495E+03 0.  0.
         25    2    3    3    0    0 -0.36334341305E+02 -0.14152696426E+02 -0.24253623611E+03  0.27531799387E+03  0.12432091034E+03 0.  0.
          5    1    4    4  502    0  0.59903002401E+02 -0.29339719603E+02 -0.10598117761E+03  0.12531276412E+03  0.47000000000E+01 0. -1.
         -5    1    4    4    0  502 -0.23568661096E+02  0.43492416029E+02 -0.12524675204E+02  0.51244799998E+02  0.47000000000E+01 0. -1.
          5    1    5    5  503    0  0.32042754950E+02 -0.65162250233E+01 -0.17742585434E+03  0.18047499306E+03  0.47000000000E+01 0. -1.
         -5    1    5    5    0  503 -0.68377096255E+02 -0.76364714031E+01 -0.65110381772E+02  0.94843000808E+02  0.47000000000E+01 0. -1.
<mgrwt>
<rscale>  0 0.27173540E+03</rscale>
<asrwt>0</asrwt>
<pdfrwt beam="1">  1        1 0.62532126E-01 0.27173540E+03</pdfrwt>
<pdfrwt beam="2">  1       -1 0.69871900E-02 0.27173540E+03</pdfrwt>
<totfact> 0.62479232E+03</totfact>
</mgrwt>
</event>
<event>
 9    1  0.8186049E-001  0.2719165E+03  0.7818608E-02  0.1100188E+00
          2   -1    0    0  501    0  0.00000000000E+00  0.00000000000E+00  0.13827586601E+04  0.13827586601E+04  0.00000000000E+00 0. -1.
         -2   -1    0    0    0  501 -0.00000000000E+00 -0.00000000000E+00 -0.13367945089E+02  0.13367945089E+02  0.00000000000E+00 0. -1.
         35    2    1    2    0    0 -0.71054273576E-14  0.00000000000E+00  0.13693907150E+04  0.13961266052E+04  0.27191647129E+03 0.  0.
         25    2    3    3    0    0 -0.46241535266E+02  0.29960288633E+02  0.63261253251E+03  0.64712798529E+03  0.12465999591E+03 0.  0.
         25    2    3    3    0    0  0.46241535266E+02 -0.29960288633E+02  0.73677818252E+03  0.74899861991E+03  0.12296724734E+03 0.  0.
          5    1    4    4  502    0 -0.15847815972E+02 -0.48860926705E+02  0.25195898488E+03  0.25718468751E+03  0.47000000000E+01 0. -1.
         -5    1    4    4    0  502 -0.30393719294E+02  0.78821215337E+02  0.38065354763E+03  0.38994329778E+03  0.47000000000E+01 0. -1.
          5    1    5    5  503    0  0.46813840063E+02  0.36111757588E+01  0.92609731429E+02  0.10393858074E+03  0.47000000000E+01 0. -1.
         -5    1    5    5    0  503 -0.57230479668E+00 -0.33571464391E+02  0.64416845109E+03  0.64506003917E+03  0.47000000000E+01 0. -1.
<mgrwt>
<rscale>  0 0.27191647E+03</rscale>
<asrwt>0</asrwt>
<pdfrwt beam="1">  1        2 0.21273199E+00 0.27191647E+03</pdfrwt>
<pdfrwt beam="2">  1       -2 0.20566080E-02 0.27191647E+03</pdfrwt>
<totfact> 0.11708399E+04</totfact>
</mgrwt>
</event>
<event>
 9    1  0.8186049E-001  0.2697231E+03  0.7818608E-02  0.1101438E+00
         -1   -1    0    0    0  501 -0.00000000000E+00  0.00000000000E+00  0.42928744104E+02  0.42928744104E+02  0.00000000000E+00 0.  1.
          1   -1    0    0  501    0  0.00000000000E+00 -0.00000000000E+00 -0.42367043231E+03  0.42367043231E+03  0.00000000000E+00 0.  1.
         35    2    1    2    0    0 -0.71054273576E-14 -0.35527136788E-14 -0.38074168821E+03  0.46659917641E+03  0.26972311412E+03 0.  0.
         25    2    3    3    0    0  0.42355645719E+02 -0.23654557308E+02 -0.20960926076E+03  0.24900596550E+03  0.12535704948E+03 0.  0.
         25    2    3    3    0    0 -0.42355645719E+02  0.23654557308E+02 -0.17113242744E+03  0.21759321091E+03  0.12532740684E+03 0.  0.
          5    1    4    4  502    0  0.40457202854E+01 -0.30170669058E+02 -0.20753442707E+03  0.20980768705E+03  0.47000000000E+01 0.  1.
         -5    1    4    4    0  502  0.38309925434E+02  0.65161117499E+01 -0.20748336900E+01  0.39198278456E+02  0.47000000000E+01 0.  1.
          5    1    5    5  503    0 -0.80583975377E+02 -0.12056206945E+02 -0.97589469079E+02  0.12721998148E+03  0.47000000000E+01 0. -1.
         -5    1    5    5    0  503  0.38228329657E+02  0.35710764253E+02 -0.73542958365E+02  0.90373229427E+02  0.47000000000E+01 0. -1.
<mgrwt>
<rscale>  0 0.26972311E+03</rscale>
<asrwt>0</asrwt>
<pdfrwt beam="1">  1        1 0.65180067E-01 0.26972311E+03</pdfrwt>
<pdfrwt beam="2">  1       -1 0.66044221E-02 0.26972311E+03</pdfrwt>
<totfact> 0.64493454E+03</totfact>
</mgrwt>
</event>
<event>
 9    1  0.8186049E-001  0.2810717E+03  0.7818608E-02  0.1095105E+00
          3   -1    0    0  501    0  0.00000000000E+00  0.00000000000E+00  0.55648949477E+02  0.55648949477E+02  0.00000000000E+00 0.  1.
         -3   -1    0    0    0  501 -0.00000000000E+00 -0.00000000000E+00 -0.35490915982E+03  0.35490915982E+03  0.00000000000E+00 0.  1.
         35    2    1    2    0    0 -0.71054273576E-14  0.00000000000E+00 -0.29926021034E+03  0.41055810929E+03  0.28107167701E+03 0.  0.
         25    2    3    3    0    0  0.53985077253E+02  0.62367357217E+01 -0.10062973485E+03  0.16962439569E+03  0.12527093294E+03 0.  0.
         25    2    3    3    0    0 -0.53985077253E+02 -0.62367357217E+01 -0.19863047549E+03  0.24093371360E+03  0.12506679462E+03 0.  0.
          5    1    4    4  502    0 -0.34065392044E+02  0.16221736346E+02 -0.36889808891E+01  0.38200710009E+02  0.47000000000E+01 0.  1.
         -5    1    4    4    0  502  0.88050469297E+02 -0.99850006246E+01 -0.96940753958E+02  0.13142368568E+03  0.47000000000E+01 0.  1.
          5    1    5    5  503    0 -0.87278909026E+02  0.11898426535E+02 -0.91056352138E+02  0.12677748136E+03  0.47000000000E+01 0.  1.
         -5    1    5    5    0  503  0.33293831773E+02 -0.18135162257E+02 -0.10757412335E+03  0.11415623224E+03  0.47000000000E+01 0.  1.
<mgrwt>
<rscale>  0 0.28107168E+03</rscale>
<asrwt>0</asrwt>
<pdfrwt beam="1">  1        3 0.85613769E-02 0.28107168E+03</pdfrwt>
<pdfrwt beam="2">  1       -3 0.54601409E-01 0.28107168E+03</pdfrwt>
<totfact> 0.81240610E+02</totfact>
</mgrwt>
</event>
<event>
 9    1  0.8186049E-001  0.2734436E+03  0.7818608E-02  0.1099325E+00
          1   -1    0    0  501    0  0.00000000000E+00  0.00000000000E+00  0.83806967076E+03  0.83806967076E+03  0.00000000000E+00 0. -1.
         -1   -1    0    0    0  501 -0.00000000000E+00 -0.00000000000E+00 -0.22304657151E+02  0.22304657151E+02  0.00000000000E+00 0. -1.
         35    2    1    2    0    0  0.00000000000E+00  0.00000000000E+00  0.81576501361E+03  0.86037432791E+03  0.27344364447E+03 0.  0.
         25    2    3    3    0    0  0.74042290278E+01 -0.44545686113E+02  0.32907250420E+03  0.35486418301E+03  0.12490290070E+03 0.  0.
         25    2    3    3    0    0 -0.74042290278E+01  0.44545686113E+02  0.48669250941E+03  0.50551014490E+03  0.12896420871E+03 0.  0.
          5    1    4    4  502    0 -0.51758716600E+02  0.29147603756E+00  0.84243475933E+02  0.98985367301E+02  0.47000000000E+01 0. -1.
         -5    1    4    4    0  502  0.59162945628E+02 -0.44837162151E+02  0.24482902827E+03  0.25587881571E+03  0.47000000000E+01 0. -1.
          5    1    5    5  503    0 -0.47414110954E+02 -0.20520675979E+02  0.11708555450E+03  0.12806370732E+03  0.47000000000E+01 0. -1.
         -5    1    5    5    0  503  0.40009881926E+02  0.65066362093E+02  0.36960695491E+03  0.37744643758E+03  0.47000000000E+01 0. -1.
<mgrwt>
<rscale>  0 0.27344364E+03</rscale>
<asrwt>0</asrwt>
<pdfrwt beam="1">  1        1 0.12893377E+00 0.27344364E+03</pdfrwt>
<pdfrwt beam="2">  1       -1 0.34314864E-02 0.27344364E+03</pdfrwt>
<totfact> 0.66077244E+03</totfact>
</mgrwt>
</event>
<event>
 9    1  0.8186049E-001  0.2750488E+03  0.7818608E-02  0.1098424E+00
          2   -1    0    0  501    0  0.00000000000E+00  0.00000000000E+00  0.52292770582E+03  0.52292770582E+03  0.00000000000E+00 0. -1.
         -2   -1    0    0    0  501 -0.00000000000E+00 -0.00000000000E+00 -0.36167452172E+02  0.36167452172E+02  0.00000000000E+00 0. -1.
         35    2    1    2    0    0 -0.53290705182E-14  0.10658141036E-13  0.48676025365E+03  0.55909515799E+03  0.27504881596E+03 0.  0.
         25    2    3    3    0    0 -0.32220000617E+01  0.29160518836E+02  0.14368315875E+03  0.19275452844E+03  0.12509492789E+03 0.  0.
         25    2    3    3    0    0  0.32220000617E+01 -0.29160518836E+02  0.34307709490E+03  0.36634062955E+03  0.12507136631E+03 0.  0.
          5    1    4    4  502    0  0.33037575855E+02  0.34557094404E+01  0.14420610257E+03  0.14805712872E+03  0.47000000000E+01 0.  1.
         -5    1    4    4    0  502 -0.36259575917E+02  0.25704809396E+02 -0.52294382152E+00  0.44697399723E+02  0.47000000000E+01 0.  1.
          5    1    5    5  503    0 -0.13070942744E+02  0.47565172318E+02  0.11996489246E+03  0.12979584194E+03  0.47000000000E+01 0.  1.
         -5    1    5    5    0  503  0.16292942805E+02 -0.76725691154E+02  0.22311220244E+03  0.23654478761E+03  0.47000000000E+01 0.  1.
<mgrwt>
<rscale>  0 0.27504882E+03</rscale>
<asrwt>0</asrwt>
<pdfrwt beam="1">  1        2 0.80450411E-01 0.27504882E+03</pdfrwt>
<pdfrwt beam="2">  1       -2 0.55642238E-02 0.27504882E+03</pdfrwt>
<totfact> 0.97792257E+03</totfact>
</mgrwt>
</event>
<event>
 9    1  0.8186049E-001  0.2742366E+03  0.7818608E-02  0.1098879E+00
          2   -1    0    0  501    0  0.00000000000E+00  0.00000000000E+00  0.32060662234E+03  0.32060662234E+03  0.00000000000E+00 0.  1.
         -2   -1    0    0    0  501 -0.00000000000E+00 -0.00000000000E+00 -0.58643274588E+02  0.58643274588E+02  0.00000000000E+00 0.  1.
         35    2    1    2    0    0  0.53290705182E-14  0.00000000000E+00  0.26196334775E+03  0.37924989693E+03  0.27423655620E+03 0.  0.
         25    2    3    3    0    0  0.71047366008E+01  0.26679419508E+02  0.19551461864E+03  0.23399515124E+03  0.12556072633E+03 0.  0.
         25    2    3    3    0    0 -0.71047366008E+01 -0.26679419508E+02  0.66448729116E+02  0.14525474569E+03  0.12617939149E+03 0.  0.
          5    1    4    4  502    0  0.48683111185E+02 -0.29753247888E+02  0.10285763798E+03  0.11771611939E+03  0.47000000000E+01 0.  1.
         -5    1    4    4    0  502 -0.41578374584E+02  0.56432667396E+02  0.92656980664E+02  0.11627903185E+03  0.47000000000E+01 0.  1.
          5    1    5    5  503    0 -0.18166954053E+02 -0.19594325244E+02 -0.34193909013E+02  0.43649618726E+02  0.47000000000E+01 0.  1.
         -5    1    5    5    0  503  0.11062217452E+02 -0.70850942635E+01  0.10064263813E+03  0.10160512696E+03  0.47000000000E+01 0.  1.
<mgrwt>
<rscale>  0 0.27423656E+03</rscale>
<asrwt>0</asrwt>
<pdfrwt beam="1">  1        2 0.49324095E-01 0.27423656E+03</pdfrwt>
<pdfrwt beam="2">  1       -2 0.90220425E-02 0.27423656E+03</pdfrwt>
<totfact> 0.78926838E+03</totfact>
</mgrwt>
</event>
<event>
 9    1  0.8186049E-001  0.2884608E+03  0.7818608E-02  0.1091156E+00
         -1   -1    0    0    0  501 -0.00000000000E+00  0.00000000000E+00  0.79601788211E+03  0.79601788211E+03  0.00000000000E+00 0. -1.
          1   -1    0    0  501    0  0.00000000000E+00 -0.00000000000E+00 -0.26133091488E+02  0.26133091488E+02  0.00000000000E+00 0. -1.
         35    2    1    2    0    0  0.00000000000E+00  0.00000000000E+00  0.76988479062E+03  0.82215097360E+03  0.28846079899E+03 0.  0.
         25    2    3    3    0    0 -0.38901646207E+02  0.60663323911E+02  0.28915165773E+03  0.32231674100E+03  0.12282517421E+03 0.  0.
         25    2    3    3    0    0  0.38901646207E+02 -0.60663323911E+02  0.48073313290E+03  0.49983423260E+03  0.11634662893E+03 0.  0.
          5    1    4    4  502    0  0.37897185109E+02  0.25864238010E+02  0.17085968220E+03  0.17697535548E+03  0.47000000000E+01 0. -1.
         -5    1    4    4    0  502 -0.76798831317E+02  0.34799085900E+02  0.11829197553E+03  0.14534138552E+03  0.47000000000E+01 0. -1.
          5    1    5    5  503    0 -0.27521026447E+02 -0.62804355049E+02  0.20708719158E+03  0.21819484143E+03  0.47000000000E+01 0. -1.
         -5    1    5    5    0  503  0.66422672654E+02  0.21410311381E+01  0.27364594132E+03  0.28163939117E+03  0.47000000000E+01 0. -1.
<mgrwt>
<rscale>  0 0.28846080E+03</rscale>
<asrwt>0</asrwt>
<pdfrwt beam="1">  1        1 0.40204762E-02 0.28846080E+03</pdfrwt>
<pdfrwt beam="2">  1       -1 0.12246427E+00 0.28846080E+03</pdfrwt>
<totfact> 0.14228408E+03</totfact>
</mgrwt>
</event>
<event>
 9    1  0.8186049E-001  0.2862072E+03  0.7818608E-02  0.1092346E+00
         -1   -1    0    0    0  501 -0.00000000000E+00  0.00000000000E+00  0.16578472766E+03  0.16578472766E+03  0.00000000000E+00 0. -1.
          1   -1    0    0  501    0  0.00000000000E+00 -0.00000000000E+00 -0.12352551694E+03  0.12352551694E+03  0.00000000000E+00 0. -1.
         35    2    1    2    0    0 -0.21316282073E-13  0.00000000000E+00  0.42259210727E+02  0.28931024460E+03  0.28620722692E+03 0.  0.
         25    2    3    3    0    0  0.54691077765E+02  0.22590325645E+02  0.49693555383E+02  0.15083523072E+03  0.12953910830E+03 0.  0.
         25    2    3    3    0    0 -0.54691077765E+02 -0.22590325645E+02 -0.74343446561E+01  0.13847501388E+03  0.12497449015E+03 0.  0.
          5    1    4    4  502    0 -0.12826129854E+02  0.15779048646E+02 -0.35886808815E+02  0.41514347281E+02  0.47000000000E+01 0. -1.
         -5    1    4    4    0  502  0.67517207619E+02  0.68112769992E+01  0.85580364198E+02  0.10932088344E+03  0.47000000000E+01 0. -1.
          5    1    5    5  503    0 -0.69306887932E+02  0.19206774791E+02 -0.40812799222E+02  0.82825838318E+02  0.47000000000E+01 0.  1.
         -5    1    5    5    0  503  0.14615810167E+02 -0.41797100436E+02  0.33378454566E+02  0.55649175564E+02  0.47000000000E+01 0.  1.
<mgrwt>
<rscale>  0 0.28620723E+03</rscale>
<asrwt>0</asrwt>
<pdfrwt beam="1">  1        1 0.19003926E-01 0.28620723E+03</pdfrwt>
<pdfrwt beam="2">  1       -1 0.25505343E-01 0.28620723E+03</pdfrwt>
<totfact> 0.36609726E+03</totfact>
</mgrwt>
</event>
<event>
 9    1  0.8186049E-001  0.2564012E+03  0.7818608E-02  0.1109325E+00
          2   -1    0    0  501    0  0.00000000000E+00  0.00000000000E+00  0.12913593427E+04  0.12913593427E+04  0.00000000000E+00 0. -1.
         -2   -1    0    0    0  501 -0.00000000000E+00 -0.00000000000E+00 -0.12727204604E+02  0.12727204604E+02  0.00000000000E+00 0. -1.
         35    2    1    2    0    0 -0.71054273576E-14  0.00000000000E+00  0.12786321381E+04  0.13040865474E+04  0.25640120571E+03 0.  0.
         25    2    3    3    0    0  0.45141468013E+02  0.33023612804E+01  0.70037188453E+03  0.71048141581E+03  0.11051881224E+03 0.  0.
         25    2    3    3    0    0 -0.45141468013E+02 -0.33023612804E+01  0.57826025362E+03  0.59360513154E+03  0.12622786360E+03 0.  0.
          5    1    4    4  502    0 -0.80630688586E+01  0.13866545448E+01  0.56299688645E+03  0.56307594518E+03  0.47000000000E+01 0. -1.
         -5    1    4    4    0  502  0.53204536872E+02  0.19157067356E+01  0.13737499807E+03  0.14740547063E+03  0.47000000000E+01 0. -1.
          5    1    5    5  503    0 -0.76888167168E+02 -0.67286539714E+01  0.52959346926E+03  0.53520874219E+03  0.47000000000E+01 0.  1.
         -5    1    5    5    0  503  0.31746699155E+02  0.34262926910E+01  0.48666784356E+02  0.58396389344E+02  0.47000000000E+01 0.  1.
<mgrwt>
<rscale>  0 0.25640121E+03</rscale>
<asrwt>0</asrwt>
<pdfrwt beam="1">  1        2 0.19867056E+00 0.25640121E+03</pdfrwt>
<pdfrwt beam="2">  1       -2 0.19580325E-02 0.25640121E+03</pdfrwt>
<totfact> 0.14102183E+04</totfact>
</mgrwt>
</event>
<event>
 9    1  0.8186049E-001  0.2746010E+03  0.7818608E-02  0.1098675E+00
         -2   -1    0    0    0  501 -0.00000000000E+00  0.00000000000E+00  0.73726631867E+02  0.73726631867E+02  0.00000000000E+00 0.  1.
          2   -1    0    0  501    0  0.00000000000E+00 -0.00000000000E+00 -0.25569360953E+03  0.25569360953E+03  0.00000000000E+00 0.  1.
         35    2    1    2    0    0  0.35527136788E-14  0.00000000000E+00 -0.18196697766E+03  0.32942024139E+03  0.27460100961E+03 0.  0.
         25    2    3    3    0    0  0.13537201942E+01 -0.54533159754E+02 -0.77218970997E+02  0.15741743021E+03  0.12586413222E+03 0.  0.
         25    2    3    3    0    0 -0.13537201942E+01  0.54533159754E+02 -0.10474800666E+03  0.17200281119E+03  0.12504848694E+03 0.  0.
          5    1    4    4  502    0  0.52042455650E+02  0.60504367726E+01 -0.99041976995E+01  0.53527638724E+02  0.47000000000E+01 0. -1.
         -5    1    4    4    0  502 -0.50688735456E+02 -0.60583596527E+02 -0.67314773298E+02  0.10388979148E+03  0.47000000000E+01 0. -1.
          5    1    5    5  503    0 -0.63246363124E+01  0.88126900852E+02 -0.10552634642E+03  0.13771075291E+03  0.47000000000E+01 0. -1.
         -5    1    5    5    0  503  0.49709161182E+01 -0.33593741098E+02  0.77833975990E+00  0.34292058276E+02  0.47000000000E+01 0. -1.
<mgrwt>
<rscale>  0 0.27460101E+03</rscale>
<asrwt>0</asrwt>
<pdfrwt beam="1">  1        2 0.39337478E-01 0.27460101E+03</pdfrwt>
<pdfrwt beam="2">  1       -2 0.11342559E-01 0.27460101E+03</pdfrwt>
<totfact> 0.69953555E+03</totfact>
</mgrwt>
</event>
<event>
 9    1  0.8186049E-001  0.2755979E+03  0.7818608E-02  0.1098118E+00
         -1   -1    0    0    0  501 -0.00000000000E+00  0.00000000000E+00  0.44081084452E+02  0.44081084452E+02  0.00000000000E+00 0.  1.
          1   -1    0    0  501    0  0.00000000000E+00 -0.00000000000E+00 -0.43076408030E+03  0.43076408030E+03  0.00000000000E+00 0.  1.
         35    2    1    2    0    0 -0.35527136788E-14  0.00000000000E+00 -0.38668299585E+03  0.47484516475E+03  0.27559787954E+03 0.  0.
         25    2    3    3    0    0 -0.22075802891E+02 -0.49248658880E+02 -0.22339752790E+03  0.26220550978E+03  0.12622401679E+03 0.  0.
         25    2    3    3    0    0  0.22075802891E+02  0.49248658880E+02 -0.16328546795E+03  0.21263965497E+03  0.12506281361E+03 0.  0.
          5    1    4    4  502    0  0.25398677998E+02  0.30725774813E+02 -0.40813103913E+02  0.57244786076E+02  0.47000000000E+01 0. -1.
         -5    1    4    4    0  502 -0.47474480889E+02 -0.79974433693E+02 -0.18258442398E+03  0.20496072370E+03  0.47000000000E+01 0. -1.
          5    1    5    5  503    0  0.52546035625E+02  0.77587891364E+02 -0.12116089432E+03  0.15324170144E+03  0.47000000000E+01 0.  1.
         -5    1    5    5    0  503 -0.30470232734E+02 -0.28339232484E+02 -0.42124573629E+02  0.59397953534E+02  0.47000000000E+01 0.  1.
<mgrwt>
<rscale>  0 0.27559788E+03</rscale>
<asrwt>0</asrwt>
<pdfrwt beam="1">  1        1 0.66271395E-01 0.27559788E+03</pdfrwt>
<pdfrwt beam="2">  1       -1 0.67817055E-02 0.27559788E+03</pdfrwt>
<totfact> 0.60682345E+03</totfact>
</mgrwt>
</event>
<event>
 9    1  0.8186049E-001  0.2778102E+03  0.7818608E-02  0.1096891E+00
          2   -1    0    0  501    0  0.00000000000E+00  0.00000000000E+00  0.50003125060E+03  0.50003125060E+03  0.00000000000E+00 0. -1.
         -2   -1    0    0    0  501 -0.00000000000E+00 -0.00000000000E+00 -0.38586839199E+02  0.38586839199E+02  0.00000000000E+00 0. -1.
         35    2    1    2    0    0  0.00000000000E+00  0.00000000000E+00  0.46144441140E+03  0.53861808980E+03  0.27781019032E+03 0.  0.
         25    2    3    3    0    0 -0.51561016655E+02  0.31315316360E+02  0.18712706037E+03  0.23128577173E+03  0.12180880101E+03 0.  0.
         25    2    3    3    0    0  0.51561016655E+02 -0.31315316360E+02  0.27431735103E+03  0.30733231807E+03  0.12475558976E+03 0.  0.
          5    1    4    4  502    0 -0.38198472803E+00  0.54935367031E+02  0.15865238940E+03  0.16796044513E+03  0.47000000000E+01 0. -1.
         -5    1    4    4    0  502 -0.51179031927E+02 -0.23620050671E+02  0.28474670965E+02  0.63325326602E+02  0.47000000000E+01 0. -1.
          5    1    5    5  503    0  0.73136608651E+02 -0.16339417890E+02  0.27007196937E+03  0.28031571262E+03  0.47000000000E+01 0. -1.
         -5    1    5    5    0  503 -0.21575591996E+02 -0.14975898470E+02  0.42453816668E+01  0.27016605458E+02  0.47000000000E+01 0. -1.
<mgrwt>
<rscale>  0 0.27781019E+03</rscale>
<asrwt>0</asrwt>
<pdfrwt beam="1">  1        2 0.76927880E-01 0.27781019E+03</pdfrwt>
<pdfrwt beam="2">  1       -2 0.59364371E-02 0.27781019E+03</pdfrwt>
<totfact> 0.93168599E+03</totfact>
</mgrwt>
</event>
<event>
 9    1  0.8186049E-001  0.2682763E+03  0.7818608E-02  0.1102270E+00
          2   -1    0    0  501    0  0.00000000000E+00  0.00000000000E+00  0.78853611139E+02  0.78853611139E+02  0.00000000000E+00 0. -1.
         -2   -1    0    0    0  501 -0.00000000000E+00 -0.00000000000E+00 -0.22818279637E+03  0.22818279637E+03  0.00000000000E+00 0. -1.
         35    2    1    2    0    0  0.00000000000E+00  0.71054273576E-14 -0.14932918523E+03  0.30703640751E+03  0.26827625682E+03 0.  0.
         25    2    3    3    0    0  0.38347256403E+02  0.26932165859E+02 -0.60673811004E+02  0.14664092820E+03  0.12500558727E+03 0.  0.
         25    2    3    3    0    0 -0.38347256403E+02 -0.26932165859E+02 -0.88655374229E+02  0.16039547931E+03  0.12518418739E+03 0.  0.
          5    1    4    4  502    0 -0.40107506929E+02  0.34877973364E+02 -0.15156985836E+02  0.55469895959E+02  0.47000000000E+01 0.  1.
         -5    1    4    4    0  502  0.78454763332E+02 -0.79458075056E+01 -0.45516825168E+02  0.91171032240E+02  0.47000000000E+01 0.  1.
          5    1    5    5  503    0 -0.74801428740E+02 -0.42854178826E+02 -0.34356215861E+02  0.92920255880E+02  0.47000000000E+01 0.  1.
         -5    1    5    5    0  503  0.36454172337E+02  0.15922012967E+02 -0.54299158367E+02  0.67475223431E+02  0.47000000000E+01 0.  1.
<mgrwt>
<rscale>  0 0.26827626E+03</rscale>
<asrwt>0</asrwt>
<pdfrwt beam="1">  1        2 0.12131325E-01 0.26827626E+03</pdfrwt>
<pdfrwt beam="2">  1       -2 0.35105046E-01 0.26827626E+03</pdfrwt>
<totfact> 0.38264442E+03</totfact>
</mgrwt>
</event>
<event>
 9    1  0.8186049E-001  0.2718052E+03  0.7818608E-02  0.1100251E+00
          1   -1    0    0  501    0  0.00000000000E+00  0.00000000000E+00  0.11667748418E+03  0.11667748418E+03  0.00000000000E+00 0.  1.
         -1   -1    0    0    0  501 -0.00000000000E+00 -0.00000000000E+00 -0.15829546459E+03  0.15829546459E+03  0.00000000000E+00 0.  1.
         35    2    1    2    0    0  0.00000000000E+00 -0.71054273576E-14 -0.41617980412E+02  0.27497294878E+03  0.27180519911E+03 0.  0.
         25    2    3    3    0    0 -0.25846104345E+02  0.36942796631E+02 -0.50649564508E+02  0.14226225611E+03  0.12506150405E+03 0.  0.
         25    2    3    3    0    0  0.25846104345E+02 -0.36942796631E+02  0.90315840959E+01  0.13271069267E+03  0.12449002813E+03 0.  0.
          5    1    4    4  502    0 -0.25428053357E+01  0.51839238528E+02 -0.83893882041E+02  0.98762573650E+02  0.47000000000E+01 0. -1.
         -5    1    4    4    0  502 -0.23303299009E+02 -0.14896441897E+02  0.33244317532E+02  0.43499682460E+02  0.47000000000E+01 0. -1.
          5    1    5    5  503    0  0.45191459120E+02  0.34313954471E+02 -0.58725528700E+01  0.57238905703E+02  0.47000000000E+01 0.  1.
         -5    1    5    5    0  503 -0.19345354775E+02 -0.71256751102E+02  0.14904136966E+02  0.75471786965E+02  0.47000000000E+01 0.  1.
<mgrwt>
<rscale>  0 0.27180520E+03</rscale>
<asrwt>0</asrwt>
<pdfrwt beam="1">  1        1 0.17950382E-01 0.27180520E+03</pdfrwt>
<pdfrwt beam="2">  1       -1 0.24353148E-01 0.27180520E+03</pdfrwt>
<totfact> 0.42506231E+03</totfact>
</mgrwt>
</event>
<event>
 9    1  0.8186049E-001  0.2677941E+03  0.7818608E-02  0.1102549E+00
          4   -1    0    0  501    0  0.00000000000E+00  0.00000000000E+00  0.36605109433E+03  0.36605109433E+03  0.00000000000E+00 0. -1.
         -4   -1    0    0    0  501 -0.00000000000E+00 -0.00000000000E+00 -0.48977927091E+02  0.48977927091E+02  0.00000000000E+00 0. -1.
         35    2    1    2    0    0  0.17763568394E-14  0.71054273576E-14  0.31707316724E+03  0.41502902142E+03  0.26779412846E+03 0.  0.
         25    2    3    3    0    0  0.70957508363E+01  0.44990062273E+02  0.13626539844E+03  0.19047924215E+03  0.12505849629E+03 0.  0.
         25    2    3    3    0    0 -0.70957508363E+01 -0.44990062273E+02  0.18080776880E+03  0.22454977927E+03  0.12512673067E+03 0.  0.
          5    1    4    4  502    0 -0.53718348942E+01  0.78572365449E+02  0.41680583022E+02  0.89229110852E+02  0.47000000000E+01 0.  1.
         -5    1    4    4    0  502  0.12467585731E+02 -0.33582303176E+02  0.94584815417E+02  0.10125013130E+03  0.47000000000E+01 0.  1.
          5    1    5    5  503    0  0.21042072725E+02  0.36661155784E+02  0.35276993661E+02  0.55257266035E+02  0.47000000000E+01 0. -1.
         -5    1    5    5    0  503 -0.28137823561E+02 -0.81651218057E+02  0.14553077514E+03  0.16929251323E+03  0.47000000000E+01 0. -1.
<mgrwt>
<rscale>  0 0.26779413E+03</rscale>
<asrwt>0</asrwt>
<pdfrwt beam="1">  1        4 0.56315551E-01 0.26779413E+03</pdfrwt>
<pdfrwt beam="2">  1       -4 0.75350660E-02 0.26779413E+03</pdfrwt>
<totfact> 0.69065305E+02</totfact>
</mgrwt>
</event>
<event>
 9    1  0.8186049E-001  0.2737505E+03  0.7818608E-02  0.1099152E+00
         -2   -1    0    0    0  501 -0.00000000000E+00  0.00000000000E+00  0.25057483252E+03  0.25057483252E+03  0.00000000000E+00 0.  1.
          2   -1    0    0  501    0  0.00000000000E+00 -0.00000000000E+00 -0.74767441482E+02  0.74767441482E+02  0.00000000000E+00 0.  1.
         35    2    1    2    0    0  0.00000000000E+00  0.00000000000E+00  0.17580739104E+03  0.32534227400E+03  0.27375053700E+03 0.  0.
         25    2    3    3    0    0 -0.39210938708E+02  0.31879216570E+02  0.64048866982E+02  0.14981230775E+03  0.12564906697E+03 0.  0.
         25    2    3    3    0    0  0.39210938708E+02 -0.31879216570E+02  0.11175852406E+03  0.17552996625E+03  0.12556679174E+03 0.  0.
          5    1    4    4  502    0 -0.18631993877E+02  0.59036132711E+02 -0.14768132583E+02  0.63816956221E+02  0.47000000000E+01 0.  1.
         -5    1    4    4    0  502 -0.20578944832E+02 -0.27156916141E+02  0.78816999566E+02  0.85995351533E+02  0.47000000000E+01 0.  1.
          5    1    5    5  503    0 -0.25438153556E+02 -0.30924174260E+02 -0.63361487267E+01  0.40812265199E+02  0.47000000000E+01 0.  1.
         -5    1    5    5    0  503  0.64649092264E+02 -0.95504230953E+00  0.11809467278E+03  0.13471770105E+03  0.47000000000E+01 0.  1.
<mgrwt>
<rscale>  0 0.27375054E+03</rscale>
<asrwt>0</asrwt>
<pdfrwt beam="1">  1        2 0.11502683E-01 0.27375054E+03</pdfrwt>
<pdfrwt beam="2">  1       -2 0.38549974E-01 0.27375054E+03</pdfrwt>
<totfact> 0.34261367E+03</totfact>
</mgrwt>
</event>
<event>
 9    1  0.8186049E-001  0.2762342E+03  0.7818608E-02  0.1097764E+00
          2   -1    0    0  501    0  0.00000000000E+00  0.00000000000E+00  0.13812443435E+03  0.13812443435E+03  0.00000000000E+00 0. -1.
         -2   -1    0    0    0  501 -0.00000000000E+00 -0.00000000000E+00 -0.13810972565E+03  0.13810972565E+03  0.00000000000E+00 0. -1.
         35    2    1    2    0    0  0.71054273576E-14 -0.14210854715E-13  0.14708702229E-01  0.27623416000E+03  0.27623415961E+03 0.  0.
         25    2    3    3    0    0  0.23328942988E+02 -0.51234106692E+02  0.12094935582E+02  0.13775498708E+03  0.12514382018E+03 0.  0.
         25    2    3    3    0    0 -0.23328942988E+02  0.51234106692E+02 -0.12080226880E+02  0.13847917292E+03  0.12594195560E+03 0.  0.
          5    1    4    4  502    0 -0.71019497654E+01  0.38810193462E+02  0.15197543703E+02  0.42540852620E+02  0.47000000000E+01 0. -1.
         -5    1    4    4    0  502  0.30430892753E+02 -0.90044300154E+02 -0.31026081204E+01  0.95214134461E+02  0.47000000000E+01 0. -1.
          5    1    5    5  503    0  0.45691263712E+01 -0.32066687314E+02 -0.34641967897E+02  0.47658213257E+02  0.47000000000E+01 0. -1.
         -5    1    5    5    0  503 -0.27898069359E+02  0.83300794006E+02  0.22561741017E+02  0.90820959661E+02  0.47000000000E+01 0. -1.
<mgrwt>
<rscale>  0 0.27623416E+03</rscale>
<asrwt>0</asrwt>
<pdfrwt beam="1">  1        2 0.21249913E-01 0.27623416E+03</pdfrwt>
<pdfrwt beam="2">  1       -2 0.21247650E-01 0.27623416E+03</pdfrwt>
<totfact> 0.48686827E+03</totfact>
</mgrwt>
</event>
<event>
 9    1  0.8186049E-001  0.2739727E+03  0.7818608E-02  0.1099027E+00
         -2   -1    0    0    0  501 -0.00000000000E+00  0.00000000000E+00  0.38034482710E+02  0.38034482710E+02  0.00000000000E+00 0. -1.
          2   -1    0    0  501    0  0.00000000000E+00 -0.00000000000E+00 -0.49337500599E+03  0.49337500599E+03  0.00000000000E+00 0. -1.
         35    2    1    2    0    0  0.00000000000E+00  0.00000000000E+00 -0.45534052328E+03  0.53140948870E+03  0.27397272225E+03 0.  0.
         25    2    3    3    0    0 -0.41263115157E+02  0.34615966993E+02 -0.23544174834E+03  0.27202751748E+03  0.12516087073E+03 0.  0.
         25    2    3    3    0    0  0.41263115157E+02 -0.34615966993E+02 -0.21989877494E+03  0.25938197121E+03  0.12658051165E+03 0.  0.
          5    1    4    4  502    0  0.13401466827E+02  0.38152702979E+02 -0.20535934209E+03  0.20935562433E+03  0.47000000000E+01 0.  1.
         -5    1    4    4    0  502 -0.54664581984E+02 -0.35367359851E+01 -0.30082406255E+02  0.62671893150E+02  0.47000000000E+01 0.  1.
          5    1    5    5  503    0  0.34586401644E+02  0.18641680491E+01  0.13667726437E+01  0.34980742826E+02  0.47000000000E+01 0.  1.
         -5    1    5    5    0  503  0.66767135131E+01 -0.36480135043E+02 -0.22126554758E+03  0.22440122839E+03  0.47000000000E+01 0.  1.
<mgrwt>
<rscale>  0 0.27397272E+03</rscale>
<asrwt>0</asrwt>
<pdfrwt beam="1">  1        2 0.75903842E-01 0.27397272E+03</pdfrwt>
<pdfrwt beam="2">  1       -2 0.58514592E-02 0.27397272E+03</pdfrwt>
<totfact> 0.96636297E+03</totfact>
</mgrwt>
</event>
<event>
 9    1  0.8186049E-001  0.2842231E+03  0.7818608E-02  0.1093404E+00
         -4   -1    0    0    0  501 -0.00000000000E+00  0.00000000000E+00  0.17292855957E+04  0.17292855957E+04  0.00000000000E+00 0. -1.
          4   -1    0    0  501    0  0.00000000000E+00 -0.00000000000E+00 -0.11678637063E+02  0.11678637063E+02  0.00000000000E+00 0. -1.
         35    2    1    2    0    0 -0.14210854715E-13  0.35527136788E-14  0.17176069587E+04  0.17409642328E+04  0.28422314368E+03 0.  0.
         25    2    3    3    0    0  0.60073103659E+02  0.20566897104E+02  0.71650368424E+03  0.73009246963E+03  0.12500283855E+03 0.  0.
         25    2    3    3    0    0 -0.60073103659E+02 -0.20566897104E+02  0.10011032744E+04  0.10108717632E+04  0.12498872128E+03 0.  0.
          5    1    4    4  502    0 -0.12121245173E+02  0.42940583100E+02  0.10878339482E+03  0.11767215154E+03  0.47000000000E+01 0.  1.
         -5    1    4    4    0  502  0.72194348832E+02 -0.22373685996E+02  0.60772028942E+03  0.61242031809E+03  0.47000000000E+01 0.  1.
          5    1    5    5  503    0 -0.32763778010E+02 -0.64143912162E+01  0.95291152018E+03  0.95350776864E+03  0.47000000000E+01 0. -1.
         -5    1    5    5    0  503 -0.27309325649E+02 -0.14152505888E+02  0.48191754262E+02  0.57363994537E+02  0.47000000000E+01 0. -1.
<mgrwt>
<rscale>  0 0.28422314E+03</rscale>
<asrwt>0</asrwt>
<pdfrwt beam="1">  1        4 0.17967148E-02 0.28422314E+03</pdfrwt>
<pdfrwt beam="2">  1       -4 0.26604373E+00 0.28422314E+03</pdfrwt>
<totfact> 0.12923055E+02</totfact>
</mgrwt>
</event>
<event>
 9    1  0.8186049E-001  0.2755439E+03  0.7818608E-02  0.1098148E+00
          4   -1    0    0  501    0  0.00000000000E+00  0.00000000000E+00  0.13384137560E+03  0.13384137560E+03  0.00000000000E+00 0. -1.
         -4   -1    0    0    0  501 -0.00000000000E+00 -0.00000000000E+00 -0.14181793054E+03  0.14181793054E+03  0.00000000000E+00 0. -1.
         35    2    1    2    0    0 -0.35527136788E-14  0.00000000000E+00 -0.79765549426E+01  0.27565930615E+03  0.27554387606E+03 0.  0.
         25    2    3    3    0    0 -0.31142188173E+02  0.10486242366E+02  0.40899193432E+02  0.13567061080E+03  0.12511584012E+03 0.  0.
         25    2    3    3    0    0  0.31142188173E+02 -0.10486242366E+02 -0.48875748374E+02  0.13998869535E+03  0.12699684595E+03 0.  0.
          5    1    4    4  502    0  0.28915205812E+02  0.27696338506E+02 -0.22807510700E+02  0.46318990038E+02  0.47000000000E+01 0. -1.
         -5    1    4    4    0  502 -0.60057393985E+02 -0.17210096141E+02  0.63706704132E+02  0.89351620762E+02  0.47000000000E+01 0. -1.
          5    1    5    5  503    0  0.42921272919E+02 -0.49483606671E+02 -0.68179523071E+02  0.94664673264E+02  0.47000000000E+01 0.  1.
         -5    1    5    5    0  503 -0.11779084745E+02  0.38997364305E+02  0.19303774696E+02  0.45324022082E+02  0.47000000000E+01 0.  1.
<mgrwt>
<rscale>  0 0.27554388E+03</rscale>
<asrwt>0</asrwt>
<pdfrwt beam="1">  1        4 0.20590981E-01 0.27554388E+03</pdfrwt>
<pdfrwt beam="2">  1       -4 0.21818143E-01 0.27554388E+03</pdfrwt>
<totfact> 0.77311172E+02</totfact>
</mgrwt>
</event>
<event>
 9    1  0.8186049E-001  0.2734929E+03  0.7818608E-02  0.1099297E+00
          2   -1    0    0  501    0  0.00000000000E+00  0.00000000000E+00  0.38267667915E+03  0.38267667915E+03  0.00000000000E+00 0.  1.
         -2   -1    0    0    0  501 -0.00000000000E+00 -0.00000000000E+00 -0.48865247333E+02  0.48865247333E+02  0.00000000000E+00 0.  1.
         35    2    1    2    0    0  0.35527136788E-14 -0.71054273576E-14  0.33381143182E+03  0.43154192649E+03  0.27349289260E+03 0.  0.
         25    2    3    3    0    0  0.26152260263E+02  0.31094053311E+02  0.23044632872E+03  0.26530459550E+03  0.12502094667E+03 0.  0.
         25    2    3    3    0    0 -0.26152260263E+02 -0.31094053311E+02  0.10336510311E+03  0.16623733099E+03  0.12369205636E+03 0.  0.
          5    1    4    4  502    0  0.27211818033E+02  0.78007566045E+02  0.12652598886E+03  0.15118392526E+03  0.47000000000E+01 0.  1.
         -5    1    4    4    0  502 -0.10595577706E+01 -0.46913512733E+02  0.10392033986E+03  0.11412067024E+03  0.47000000000E+01 0.  1.
          5    1    5    5  503    0 -0.37369341957E+02  0.36192388210E+02  0.76803245047E+02  0.92882641717E+02  0.47000000000E+01 0.  1.
         -5    1    5    5    0  503  0.11217081694E+02 -0.67286441521E+02  0.26561858059E+02  0.73354689270E+02  0.47000000000E+01 0.  1.
<mgrwt>
<rscale>  0 0.27349289E+03</rscale>
<asrwt>0</asrwt>
<pdfrwt beam="1">  1        2 0.58873333E-01 0.27349289E+03</pdfrwt>
<pdfrwt beam="2">  1       -2 0.75177306E-02 0.27349289E+03</pdfrwt>
<totfact> 0.86742463E+03</totfact>
</mgrwt>
</event>
<event>
 9    1  0.8186049E-001  0.2740138E+03  0.7818608E-02  0.1099004E+00
          1   -1    0    0  501    0  0.00000000000E+00  0.00000000000E+00  0.12805462887E+03  0.12805462887E+03  0.00000000000E+00 0. -1.
         -1   -1    0    0    0  501 -0.00000000000E+00 -0.00000000000E+00 -0.14658506766E+03  0.14658506766E+03  0.00000000000E+00 0. -1.
         35    2    1    2    0    0  0.00000000000E+00 -0.71054273576E-14 -0.18530438796E+02  0.27463969653E+03  0.27401384226E+03 0.  0.
         25    2    3    3    0    0 -0.36516286041E+02 -0.26569084640E+02 -0.22108605943E+02  0.14136949867E+03  0.13212565720E+03 0.  0.
         25    2    3    3    0    0  0.36516286041E+02  0.26569084640E+02  0.35781671471E+01  0.13327019787E+03  0.12533469972E+03 0.  0.
          5    1    4    4  502    0  0.13508577505E+02  0.14198591211E+02  0.44289116965E+02  0.48658992387E+02  0.47000000000E+01 0. -1.
         -5    1    4    4    0  502 -0.50024863547E+02 -0.40767675851E+02 -0.66397722908E+02  0.92710506279E+02  0.47000000000E+01 0. -1.
          5    1    5    5  503    0  0.20342353374E+01 -0.44959625124E+02 -0.21178773097E+02  0.49961349407E+02  0.47000000000E+01 0.  1.
         -5    1    5    5    0  503  0.34482050704E+02  0.71528709764E+02  0.24756940244E+02  0.83308848458E+02  0.47000000000E+01 0.  1.
<mgrwt>
<rscale>  0 0.27401384E+03</rscale>
<asrwt>0</asrwt>
<pdfrwt beam="1">  1        1 0.19700712E-01 0.27401384E+03</pdfrwt>
<pdfrwt beam="2">  1       -1 0.22551549E-01 0.27401384E+03</pdfrwt>
<totfact> 0.42797647E+03</totfact>
</mgrwt>
</event>
<event>
 9    1  0.8186049E-001  0.2849085E+03  0.7818608E-02  0.1093038E+00
          3   -1    0    0  501    0  0.00000000000E+00  0.00000000000E+00  0.37573579567E+02  0.37573579567E+02  0.00000000000E+00 0.  1.
         -3   -1    0    0    0  501 -0.00000000000E+00 -0.00000000000E+00 -0.54009262454E+03  0.54009262454E+03  0.00000000000E+00 0.  1.
         35    2    1    2    0    0  0.00000000000E+00  0.00000000000E+00 -0.50251904497E+03  0.57766620411E+03  0.28490849901E+03 0.  0.
         25    2    3    3    0    0  0.40917742360E+02 -0.33797647711E+02 -0.16988368814E+03  0.21769644758E+03  0.12535841880E+03 0.  0.
         25    2    3    3    0    0 -0.40917742360E+02  0.33797647711E+02 -0.33263535683E+03  0.35996975652E+03  0.12694645472E+03 0.  0.
          5    1    4    4  502    0 -0.25549351718E+02  0.24806593194E+02 -0.95070800772E+02  0.10163013135E+03  0.47000000000E+01 0. -1.
         -5    1    4    4    0  502  0.66467094078E+02 -0.58604240904E+02 -0.74812887372E+02  0.11606631623E+03  0.47000000000E+01 0. -1.
          5    1    5    5  503    0  0.29594205745E+02  0.18133955572E+02 -0.23933191143E+03  0.24188119230E+03  0.47000000000E+01 0. -1.
         -5    1    5    5    0  503 -0.70511948105E+02  0.15663692138E+02 -0.93303445395E+02  0.11808856422E+03  0.47000000000E+01 0. -1.
<mgrwt>
<rscale>  0 0.28490850E+03</rscale>
<asrwt>0</asrwt>
<pdfrwt beam="1">  1        3 0.57805504E-02 0.28490850E+03</pdfrwt>
<pdfrwt beam="2">  1       -3 0.83091177E-01 0.28490850E+03</pdfrwt>
<totfact> 0.63160314E+02</totfact>
</mgrwt>
</event>
<event>
 9    1  0.8186049E-001  0.2782319E+03  0.7818608E-02  0.1096659E+00
         -2   -1    0    0    0  501 -0.00000000000E+00  0.00000000000E+00  0.37225189782E+03  0.37225189782E+03  0.00000000000E+00 0.  1.
          2   -1    0    0  501    0  0.00000000000E+00 -0.00000000000E+00 -0.51989672454E+02  0.51989672454E+02  0.00000000000E+00 0.  1.
         35    2    1    2    0    0  0.00000000000E+00 -0.17763568394E-14  0.32026222537E+03  0.42424157028E+03  0.27823194812E+03 0.  0.
         25    2    3    3    0    0  0.39011802193E+02  0.39524902217E+01  0.88884025468E+02  0.15856469464E+03  0.12531899103E+03 0.  0.
         25    2    3    3    0    0 -0.39011802193E+02 -0.39524902217E+01  0.23137819990E+03  0.26567687564E+03  0.12454231397E+03 0.  0.
          5    1    4    4  502    0  0.37714764286E+02  0.61216043554E+02  0.62257374038E+02  0.95225406566E+02  0.47000000000E+01 0. -1.
         -5    1    4    4    0  502  0.12970379070E+01 -0.57263553332E+02  0.26626651430E+02  0.63339288075E+02  0.47000000000E+01 0. -1.
          5    1    5    5  503    0  0.39670368403E+02  0.84617587759E+01  0.13232160692E+03  0.13847901338E+03  0.47000000000E+01 0.  1.
         -5    1    5    5    0  503 -0.78682170596E+02 -0.12414248998E+02  0.99056592984E+02  0.12719786225E+03  0.47000000000E+01 0.  1.
<mgrwt>
<rscale>  0 0.27823195E+03</rscale>
<asrwt>0</asrwt>
<pdfrwt beam="1">  1        2 0.79984114E-02 0.27823195E+03</pdfrwt>
<pdfrwt beam="2">  1       -2 0.57269521E-01 0.27823195E+03</pdfrwt>
<totfact> 0.24714993E+03</totfact>
</mgrwt>
</event>
<event>
 9    1  0.8186049E-001  0.2772430E+03  0.7818608E-02  0.1097204E+00
          2   -1    0    0  501    0  0.00000000000E+00  0.00000000000E+00  0.28086434304E+03  0.28086434304E+03  0.00000000000E+00 0.  1.
         -2   -1    0    0    0  501 -0.00000000000E+00 -0.00000000000E+00 -0.68417095298E+02  0.68417095298E+02  0.00000000000E+00 0.  1.
         35    2    1    2    0    0  0.00000000000E+00  0.00000000000E+00  0.21244724775E+03  0.34928143834E+03  0.27724301631E+03 0.  0.
         25    2    3    3    0    0 -0.31278527707E+02 -0.19151555121E+02  0.57885067402E+02  0.14744057934E+03  0.13054851607E+03 0.  0.
         25    2    3    3    0    0  0.31278527707E+02  0.19151555121E+02  0.15456218034E+03  0.20184085901E+03  0.12451962260E+03 0.  0.
          5    1    4    4  502    0 -0.11847880211E+02 -0.31500002347E+02 -0.36679179727E+02  0.50000746382E+02  0.47000000000E+01 0.  1.
         -5    1    4    4    0  502 -0.19430647497E+02  0.12348447226E+02  0.94564247129E+02  0.97439832954E+02  0.47000000000E+01 0.  1.
          5    1    5    5  503    0  0.56370480407E+02 -0.37358008096E+02  0.79389737947E+02  0.10439383278E+03  0.47000000000E+01 0.  1.
         -5    1    5    5    0  503 -0.25091952700E+02  0.56509563217E+02  0.75172442398E+02  0.97447026231E+02  0.47000000000E+01 0.  1.
<mgrwt>
<rscale>  0 0.27724302E+03</rscale>
<asrwt>0</asrwt>
<pdfrwt beam="1">  1        2 0.43209898E-01 0.27724302E+03</pdfrwt>
<pdfrwt beam="2">  1       -2 0.10525707E-01 0.27724302E+03</pdfrwt>
<totfact> 0.71290976E+03</totfact>
</mgrwt>
</event>
<event>
 9    1  0.8186049E-001  0.2758514E+03  0.7818608E-02  0.1097977E+00
          1   -1    0    0  501    0  0.00000000000E+00  0.00000000000E+00  0.23703430734E+02  0.23703430734E+02  0.00000000000E+00 0.  1.
         -1   -1    0    0    0  501 -0.00000000000E+00 -0.00000000000E+00 -0.80256330642E+03  0.80256330642E+03  0.00000000000E+00 0.  1.
         35    2    1    2    0    0 -0.71054273576E-14 -0.71054273576E-14 -0.77885987569E+03  0.82626673716E+03  0.27585143642E+03 0.  0.
         25    2    3    3    0    0  0.28197297717E+02 -0.46675971194E+02 -0.43771716389E+03  0.45870905154E+03  0.12587273140E+03 0.  0.
         25    2    3    3    0    0 -0.28197297717E+02  0.46675971194E+02 -0.34114271180E+03  0.36755768562E+03  0.12548533206E+03 0.  0.
          5    1    4    4  502    0  0.24152883179E+02 -0.88411075016E+02 -0.25009118215E+03  0.26639738989E+03  0.47000000000E+01 0. -1.
         -5    1    4    4    0  502  0.40444145385E+01  0.41735103822E+02 -0.18762598174E+03  0.19231166165E+03  0.47000000000E+01 0. -1.
          5    1    5    5  503    0  0.24837010869E+02  0.36687533706E+02 -0.28884665659E+03  0.29226243902E+03  0.47000000000E+01 0.  1.
         -5    1    5    5    0  503 -0.53034308587E+02  0.99884374881E+01 -0.52296055210E+02  0.75295246605E+02  0.47000000000E+01 0.  1.
<mgrwt>
<rscale>  0 0.27585144E+03</rscale>
<asrwt>0</asrwt>
<pdfrwt beam="1">  1        1 0.36466816E-02 0.27585144E+03</pdfrwt>
<pdfrwt beam="2">  1       -1 0.12347128E+00 0.27585144E+03</pdfrwt>
<totfact> 0.15979058E+03</totfact>
</mgrwt>
</event>
<event>
 9    1  0.8186049E-001  0.2763134E+03  0.7818608E-02  0.1097720E+00
         -1   -1    0    0    0  501 -0.00000000000E+00  0.00000000000E+00  0.54861998265E+02  0.54861998265E+02  0.00000000000E+00 0. -1.
          1   -1    0    0  501    0  0.00000000000E+00 -0.00000000000E+00 -0.34791439343E+03  0.34791439343E+03  0.00000000000E+00 0. -1.
         35    2    1    2    0    0 -0.71054273576E-14  0.00000000000E+00 -0.29305239517E+03  0.40277639170E+03  0.27631343687E+03 0.  0.
         25    2    3    3    0    0 -0.42985102238E+02  0.36812804424E+01 -0.84850820428E+02  0.15614610298E+03  0.12377670584E+03 0.  0.
         25    2    3    3    0    0  0.42985102238E+02 -0.36812804424E+01 -0.20820157474E+03  0.24663028871E+03  0.12496932722E+03 0.  0.
          5    1    4    4  502    0 -0.47491709925E+02 -0.30313258094E+02  0.79567113084E+01  0.57094267512E+02  0.47000000000E+01 0.  1.
         -5    1    4    4    0  502  0.45066076871E+01  0.33994538536E+02 -0.92807531736E+02  0.99051835471E+02  0.47000000000E+01 0.  1.
          5    1    5    5  503    0 -0.32771951931E+02 -0.65304233836E+01 -0.11300985360E+02  0.35587210245E+02  0.47000000000E+01 0. -1.
         -5    1    5    5    0  503  0.75757054169E+02  0.28491429411E+01 -0.19690058938E+03  0.21104307847E+03  0.47000000000E+01 0. -1.
<mgrwt>
<rscale>  0 0.27631344E+03</rscale>
<asrwt>0</asrwt>
<pdfrwt beam="1">  1        1 0.53525292E-01 0.27631344E+03</pdfrwt>
<pdfrwt beam="2">  1       -1 0.84403073E-02 0.27631344E+03</pdfrwt>
<totfact> 0.57151171E+03</totfact>
</mgrwt>
</event>
<event>
 9    1  0.8186049E-001  0.2648799E+03  0.7818608E-02  0.1104246E+00
          4   -1    0    0  501    0  0.00000000000E+00  0.00000000000E+00  0.25954926540E+03  0.25954926540E+03  0.00000000000E+00 0.  1.
         -4   -1    0    0    0  501 -0.00000000000E+00 -0.00000000000E+00 -0.67580016857E+02  0.67580016857E+02  0.00000000000E+00 0.  1.
         35    2    1    2    0    0  0.00000000000E+00 -0.53290705182E-14  0.19196924855E+03  0.32712928226E+03  0.26487992548E+03 0.  0.
         25    2    3    3    0    0  0.38493390829E+02  0.12689247891E+02  0.81210513729E+02  0.15317177384E+03  0.12338430456E+03 0.  0.
         25    2    3    3    0    0 -0.38493390829E+02 -0.12689247891E+02  0.11075873482E+03  0.17395750842E+03  0.12787086943E+03 0.  0.
          5    1    4    4  502    0 -0.16992257538E+01 -0.30366833427E+01 -0.31682966361E+02  0.32218149719E+02  0.47000000000E+01 0.  1.
         -5    1    4    4    0  502  0.40192616583E+02  0.15725931234E+02  0.11289348009E+03  0.12095362412E+03  0.47000000000E+01 0.  1.
          5    1    5    5  503    0 -0.12695900115E+02 -0.62119854499E+02  0.18776377748E+02  0.66292567940E+02  0.47000000000E+01 0.  1.
         -5    1    5    5    0  503 -0.25797490714E+02  0.49430606608E+02  0.91982357069E+02  0.10766494048E+03  0.47000000000E+01 0.  1.
<mgrwt>
<rscale>  0 0.26487993E+03</rscale>
<asrwt>0</asrwt>
<pdfrwt beam="1">  1        4 0.39930656E-01 0.26487993E+03</pdfrwt>
<pdfrwt beam="2">  1       -4 0.10396926E-01 0.26487993E+03</pdfrwt>
<totfact> 0.80870263E+02</totfact>
</mgrwt>
</event>
<event>
 9    1  0.8186049E-001  0.2740340E+03  0.7818608E-02  0.1098993E+00
         -1   -1    0    0    0  501 -0.00000000000E+00  0.00000000000E+00  0.51223064868E+02  0.51223064868E+02  0.00000000000E+00 0. -1.
          1   -1    0    0  501    0  0.00000000000E+00 -0.00000000000E+00 -0.36650781426E+03  0.36650781426E+03  0.00000000000E+00 0. -1.
         35    2    1    2    0    0  0.00000000000E+00  0.00000000000E+00 -0.31528474939E+03  0.41773087913E+03  0.27403396537E+03 0.  0.
         25    2    3    3    0    0 -0.57496244316E+02 -0.29868004392E+02 -0.17755380926E+03  0.21913212234E+03  0.11088559897E+03 0.  0.
         25    2    3    3    0    0  0.57496244316E+02  0.29868004392E+02 -0.13773094013E+03  0.19859875679E+03  0.12756856405E+03 0.  0.
          5    1    4    4  502    0  0.47603860659E+01  0.21274794694E+01 -0.13881492689E+03  0.13899230688E+03  0.47000000000E+01 0. -1.
         -5    1    4    4    0  502 -0.62256630382E+02 -0.31995483861E+02 -0.38738882372E+02  0.80139815457E+02  0.47000000000E+01 0. -1.
          5    1    5    5  503    0 -0.23755135177E+01  0.68254075941E+02 -0.88887783086E+02  0.11219353782E+03  0.47000000000E+01 0.  1.
         -5    1    5    5    0  503  0.59871757834E+02 -0.38386071549E+02 -0.48843157043E+02  0.86405218968E+02  0.47000000000E+01 0.  1.
<mgrwt>
<rscale>  0 0.27403397E+03</rscale>
<asrwt>0</asrwt>
<pdfrwt beam="1">  1        1 0.56385818E-01 0.27403397E+03</pdfrwt>
<pdfrwt beam="2">  1       -1 0.78804715E-02 0.27403397E+03</pdfrwt>
<totfact> 0.59396266E+03</totfact>
</mgrwt>
</event>
<event>
 9    1  0.8186049E-001  0.2746111E+03  0.7818608E-02  0.1098669E+00
         -2   -1    0    0    0  501 -0.00000000000E+00  0.00000000000E+00  0.12612287608E+02  0.12612287608E+02  0.00000000000E+00 0.  1.
          2   -1    0    0  501    0  0.00000000000E+00 -0.00000000000E+00 -0.14947977866E+04  0.14947977866E+04  0.00000000000E+00 0.  1.
         35    2    1    2    0    0  0.00000000000E+00  0.71054273576E-14 -0.14821854990E+04  0.15074100742E+04  0.27461114034E+03 0.  0.
         25    2    3    3    0    0 -0.60226726749E+02 -0.16101819990E+02 -0.72262991701E+03  0.73624094114E+03  0.12637325364E+03 0.  0.
         25    2    3    3    0    0  0.60226726749E+02  0.16101819990E+02 -0.75955558195E+03  0.77116913303E+03  0.11785848483E+03 0.  0.
          5    1    4    4  502    0 -0.34343323442E+02 -0.55462200035E+02 -0.61736869196E+03  0.62082341396E+03  0.47000000000E+01 0. -1.
         -5    1    4    4    0  502 -0.25883403307E+02  0.39360380045E+02 -0.10526122504E+03  0.11541752718E+03  0.47000000000E+01 0. -1.
          5    1    5    5  503    0 -0.35014417382E+00  0.52368775415E+02 -0.18679786564E+03  0.19405706338E+03  0.47000000000E+01 0. -1.
         -5    1    5    5    0  503  0.60576870923E+02 -0.36266955425E+02 -0.57275771631E+03  0.57711206965E+03  0.47000000000E+01 0. -1.
<mgrwt>
<rscale>  0 0.27461114E+03</rscale>
<asrwt>0</asrwt>
<pdfrwt beam="1">  1        2 0.22996866E+00 0.27461114E+03</pdfrwt>
<pdfrwt beam="2">  1       -2 0.19403538E-02 0.27461114E+03</pdfrwt>
<totfact> 0.11099328E+04</totfact>
</mgrwt>
</event>
<event>
 9    1  0.8186049E-001  0.2718859E+03  0.7818608E-02  0.1100205E+00
         -2   -1    0    0    0  501 -0.00000000000E+00  0.00000000000E+00  0.16377927034E+03  0.16377927034E+03  0.00000000000E+00 0. -1.
          2   -1    0    0  501    0  0.00000000000E+00 -0.00000000000E+00 -0.11283776387E+03  0.11283776387E+03  0.00000000000E+00 0. -1.
         35    2    1    2    0    0  0.00000000000E+00 -0.88817841970E-15  0.50941506469E+02  0.27661703421E+03  0.27188590720E+03 0.  0.
         25    2    3    3    0    0 -0.24415045995E+01 -0.12863893869E+01  0.85422616543E+02  0.14624736613E+03  0.11867456737E+03 0.  0.
         25    2    3    3    0    0  0.24415045995E+01  0.12863893869E+01 -0.34481110073E+02  0.13036966808E+03  0.12569680848E+03 0.  0.
          5    1    4    4  502    0 -0.10343771440E+02  0.41589006412E+02  0.92289267205E+02  0.10186283868E+03  0.47000000000E+01 0. -1.
         -5    1    4    4    0  502  0.79022668408E+01 -0.42875395799E+02 -0.68666506625E+01  0.44384527456E+02  0.47000000000E+01 0. -1.
          5    1    5    5  503    0 -0.32203328360E+02  0.40604108205E+00 -0.72038810439E+02  0.79049980622E+02  0.47000000000E+01 0. -1.
         -5    1    5    5    0  503  0.34644832960E+02  0.88034830480E+00  0.37557700366E+02  0.51319687458E+02  0.47000000000E+01 0. -1.
<mgrwt>
<rscale>  0 0.27188591E+03</rscale>
<asrwt>0</asrwt>
<pdfrwt beam="1">  1        2 0.17359656E-01 0.27188591E+03</pdfrwt>
<pdfrwt beam="2">  1       -2 0.25196811E-01 0.27188591E+03</pdfrwt>
<totfact> 0.45608294E+03</totfact>
</mgrwt>
</event>
<event>
 9    1  0.8186049E-001  0.2781505E+03  0.7818608E-02  0.1096703E+00
         -1   -1    0    0    0  501 -0.00000000000E+00  0.00000000000E+00  0.39433985644E+02  0.39433985644E+02  0.00000000000E+00 0. -1.
          1   -1    0    0  501    0  0.00000000000E+00 -0.00000000000E+00 -0.49048880423E+03  0.49048880423E+03  0.00000000000E+00 0. -1.
         35    2    1    2    0    0  0.35527136788E-14  0.17763568394E-14 -0.45105481859E+03  0.52992278988E+03  0.27815052374E+03 0.  0.
         25    2    3    3    0    0 -0.29977028010E+02  0.57027742845E+01 -0.13099935117E+03  0.18339916879E+03  0.12467269654E+03 0.  0.
         25    2    3    3    0    0  0.29977028010E+02 -0.57027742845E+01 -0.32005546742E+03  0.34652362109E+03  0.12927479996E+03 0.  0.
          5    1    4    4  502    0  0.22538291768E+02 -0.13188970177E+02  0.12519887324E+02  0.29338730524E+02  0.47000000000E+01 0. -1.
         -5    1    4    4    0  502 -0.52515319778E+02  0.18891744461E+02 -0.14351923849E+03  0.15406043826E+03  0.47000000000E+01 0. -1.
          5    1    5    5  503    0 -0.99322841892E+01 -0.23145093408E+02 -0.29489326517E+03  0.29600417811E+03  0.47000000000E+01 0.  1.
         -5    1    5    5    0  503  0.39909312199E+02  0.17442319123E+02 -0.25162202249E+02  0.50519442976E+02  0.47000000000E+01 0.  1.
<mgrwt>
<rscale>  0 0.27815052E+03</rscale>
<asrwt>0</asrwt>
<pdfrwt beam="1">  1        1 0.75459816E-01 0.27815052E+03</pdfrwt>
<pdfrwt beam="2">  1       -1 0.60667671E-02 0.27815052E+03</pdfrwt>
<totfact> 0.60613725E+03</totfact>
</mgrwt>
</event>
<event>
 9    1  0.8186049E-001  0.2729912E+03  0.7818608E-02  0.1099580E+00
          2   -1    0    0  501    0  0.00000000000E+00  0.00000000000E+00  0.12233276626E+03  0.12233276626E+03  0.00000000000E+00 0. -1.
         -2   -1    0    0    0  501 -0.00000000000E+00 -0.00000000000E+00 -0.15229815217E+03  0.15229815217E+03  0.00000000000E+00 0. -1.
         35    2    1    2    0    0  0.00000000000E+00  0.00000000000E+00 -0.29965385910E+02  0.27463091843E+03  0.27299123979E+03 0.  0.
         25    2    3    3    0    0  0.37924304796E+02  0.48034874298E+02 -0.16536327791E+02  0.13529246415E+03  0.11951986729E+03 0.  0.
         25    2    3    3    0    0 -0.37924304796E+02 -0.48034874298E+02 -0.13429058119E+02  0.13933845427E+03  0.12445586846E+03 0.  0.
          5    1    4    4  502    0 -0.39061231263E+02  0.14092895420E+02 -0.27920986670E+02  0.50259934200E+02  0.47000000000E+01 0. -1.
         -5    1    4    4    0  502  0.76985536059E+02  0.33941978879E+02  0.11384658879E+02  0.85032529954E+02  0.47000000000E+01 0. -1.
          5    1    5    5  503    0  0.42125911956E+02  0.30477467755E+01  0.39743399730E+01  0.42682157827E+02  0.47000000000E+01 0. -1.
         -5    1    5    5    0  503 -0.80050216752E+02 -0.51082621074E+02 -0.17403398092E+02  0.96656296448E+02  0.47000000000E+01 0. -1.
<mgrwt>
<rscale>  0 0.27299124E+03</rscale>
<asrwt>0</asrwt>
<pdfrwt beam="1">  1        2 0.18820426E-01 0.27299124E+03</pdfrwt>
<pdfrwt beam="2">  1       -2 0.23430485E-01 0.27299124E+03</pdfrwt>
<totfact> 0.47193615E+03</totfact>
</mgrwt>
</event>
<event>
 9    1  0.8186049E-001  0.2745438E+03  0.7818608E-02  0.1098707E+00
         -3   -1    0    0    0  501 -0.00000000000E+00  0.00000000000E+00  0.52359436095E+02  0.52359436095E+02  0.00000000000E+00 0.  1.
          3   -1    0    0  501    0  0.00000000000E+00 -0.00000000000E+00 -0.35988885463E+03  0.35988885463E+03  0.00000000000E+00 0.  1.
         35    2    1    2    0    0 -0.17763568394E-14  0.71054273576E-14 -0.30752941853E+03  0.41224829072E+03  0.27454382153E+03 0.  0.
         25    2    3    3    0    0  0.12861611612E+02  0.49992959113E+02 -0.20527763086E+03  0.24547562435E+03  0.12431677041E+03 0.  0.
         25    2    3    3    0    0 -0.12861611612E+02 -0.49992959113E+02 -0.10225178767E+03  0.16677266637E+03  0.12121459133E+03 0.  0.
          5    1    4    4  502    0  0.26980692176E+01 -0.41521457420E+02 -0.54256038388E+02  0.68535528781E+02  0.47000000000E+01 0. -1.
         -5    1    4    4    0  502  0.10163542394E+02  0.91514416533E+02 -0.15102159247E+03  0.17694009557E+03  0.47000000000E+01 0. -1.
          5    1    5    5  503    0 -0.44990071443E+02 -0.56767034666E+02 -0.15951973678E+02  0.74317953533E+02  0.47000000000E+01 0. -1.
         -5    1    5    5    0  503  0.32128459830E+02  0.67740755524E+01 -0.86299813994E+02  0.92454712839E+02  0.47000000000E+01 0. -1.
<mgrwt>
<rscale>  0 0.27454382E+03</rscale>
<asrwt>0</asrwt>
<pdfrwt beam="1">  1        3 0.55367517E-01 0.27454382E+03</pdfrwt>
<pdfrwt beam="2">  1       -3 0.80552978E-02 0.27454382E+03</pdfrwt>
<totfact> 0.87133557E+02</totfact>
</mgrwt>
</event>
<event>
 9    1  0.8186049E-001  0.2755595E+03  0.7818608E-02  0.1098139E+00
          2   -1    0    0  501    0  0.00000000000E+00  0.00000000000E+00  0.55451717599E+03  0.55451717599E+03  0.00000000000E+00 0.  1.
         -2   -1    0    0    0  501 -0.00000000000E+00 -0.00000000000E+00 -0.34233851627E+02  0.34233851627E+02  0.00000000000E+00 0.  1.
         35    2    1    2    0    0 -0.71054273576E-14  0.00000000000E+00  0.52028332436E+03  0.58875102762E+03  0.27555949432E+03 0.  0.
         25    2    3    3    0    0 -0.54720199166E+02  0.22992493681E+02  0.27225906425E+03  0.30512169674E+03  0.12430324530E+03 0.  0.
         25    2    3    3    0    0  0.54720199166E+02 -0.22992493681E+02  0.24802426011E+03  0.28362933088E+03  0.12412336109E+03 0.  0.
          5    1    4    4  502    0 -0.41437605959E+00  0.43376733597E+02  0.22765538118E+03  0.23179899764E+03  0.47000000000E+01 0. -1.
         -5    1    4    4    0  502 -0.54305823106E+02 -0.20384239915E+02  0.44603683069E+02  0.73322699101E+02  0.47000000000E+01 0. -1.
          5    1    5    5  503    0  0.70826264381E+02 -0.94878506421E+01  0.25178024896E+03  0.26176661896E+03  0.47000000000E+01 0.  1.
         -5    1    5    5    0  503 -0.16106065215E+02 -0.13504643039E+02 -0.37559888442E+01  0.21862711921E+02  0.47000000000E+01 0.  1.
<mgrwt>
<rscale>  0 0.27555949E+03</rscale>
<asrwt>0</asrwt>
<pdfrwt beam="1">  1        2 0.85310328E-01 0.27555949E+03</pdfrwt>
<pdfrwt beam="2">  1       -2 0.52667468E-02 0.27555949E+03</pdfrwt>
<totfact> 0.99507057E+03</totfact>
</mgrwt>
</event>
<event>
 9    1  0.8186049E-001  0.2760906E+03  0.7818608E-02  0.1097844E+00
          2   -1    0    0  501    0  0.00000000000E+00  0.00000000000E+00  0.13125572503E+04  0.13125572503E+04  0.00000000000E+00 0.  1.
         -2   -1    0    0    0  501 -0.00000000000E+00 -0.00000000000E+00 -0.14518608767E+02  0.14518608767E+02  0.00000000000E+00 0.  1.
         35    2    1    2    0    0 -0.71054273576E-14  0.71054273576E-14  0.12980386415E+04  0.13270758591E+04  0.27609060254E+03 0.  0.
         25    2    3    3    0    0  0.32908400076E+02  0.31861165180E+02  0.52019369227E+03  0.53716728936E+03  0.12589329863E+03 0.  0.
         25    2    3    3    0    0 -0.32908400076E+02 -0.31861165180E+02  0.77784494928E+03  0.78990856972E+03  0.12967145699E+03 0.  0.
          5    1    4    4  502    0 -0.43568248562E+01  0.41151212709E+02  0.47841331435E+03  0.48022265000E+03  0.47000000000E+01 0.  1.
         -5    1    4    4    0  502  0.37265224932E+02 -0.92900475294E+01  0.41780377919E+02  0.56944639356E+02  0.47000000000E+01 0.  1.
          5    1    5    5  503    0 -0.66808302739E+01  0.50051458317E+02  0.32693348700E+03  0.33084343260E+03  0.47000000000E+01 0.  1.
         -5    1    5    5    0  503 -0.26227569802E+02 -0.81912623497E+02  0.45091146228E+03  0.45906513713E+03  0.47000000000E+01 0.  1.
<mgrwt>
<rscale>  0 0.27609060E+03</rscale>
<asrwt>0</asrwt>
<pdfrwt beam="1">  1        2 0.20193179E+00 0.27609060E+03</pdfrwt>
<pdfrwt beam="2">  1       -2 0.22336332E-02 0.27609060E+03</pdfrwt>
<totfact> 0.11331870E+04</totfact>
</mgrwt>
</event>
<event>
 9    1  0.8186049E-001  0.2740577E+03  0.7818608E-02  0.1098979E+00
         -2   -1    0    0    0  501 -0.00000000000E+00  0.00000000000E+00  0.49274993740E+02  0.49274993740E+02  0.00000000000E+00 0.  1.
          2   -1    0    0  501    0  0.00000000000E+00 -0.00000000000E+00 -0.38106363553E+03  0.38106363553E+03  0.00000000000E+00 0.  1.
         35    2    1    2    0    0  0.00000000000E+00  0.00000000000E+00 -0.33178864179E+03  0.43033862927E+03  0.27405771841E+03 0.  0.
         25    2    3    3    0    0  0.32808705440E+02  0.43348365268E+02 -0.13207063776E+03  0.18877195347E+03  0.12343704928E+03 0.  0.
         25    2    3    3    0    0 -0.32808705440E+02 -0.43348365268E+02 -0.19971800403E+03  0.24156667580E+03  0.12454591844E+03 0.  0.
          5    1    4    4  502    0 -0.35985031885E+02 -0.18881679886E+02 -0.51827893496E+02  0.66027728261E+02  0.47000000000E+01 0. -1.
         -5    1    4    4    0  502  0.68793737325E+02  0.62230045154E+02 -0.80242744266E+02  0.12274422521E+03  0.47000000000E+01 0. -1.
          5    1    5    5  503    0  0.33741939327E+02  0.22735870831E+02 -0.74923498835E+02  0.85387698000E+02  0.47000000000E+01 0.  1.
         -5    1    5    5    0  503 -0.66550644767E+02 -0.66084236100E+02 -0.12479450519E+03  0.15617897780E+03  0.47000000000E+01 0.  1.
<mgrwt>
<rscale>  0 0.27405772E+03</rscale>
<asrwt>0</asrwt>
<pdfrwt beam="1">  1        2 0.58625173E-01 0.27405772E+03</pdfrwt>
<pdfrwt beam="2">  1       -2 0.75807685E-02 0.27405772E+03</pdfrwt>
<totfact> 0.86022154E+03</totfact>
</mgrwt>
</event>
<event>
 9    1  0.8186049E-001  0.2736181E+03  0.7818608E-02  0.1099227E+00
         -2   -1    0    0    0  501 -0.00000000000E+00  0.00000000000E+00  0.69810922594E+02  0.69810922594E+02  0.00000000000E+00 0.  1.
          2   -1    0    0  501    0  0.00000000000E+00 -0.00000000000E+00 -0.26810577153E+03  0.26810577153E+03  0.00000000000E+00 0.  1.
         35    2    1    2    0    0 -0.44408920985E-14  0.00000000000E+00 -0.19829484893E+03  0.33791669412E+03  0.27361806419E+03 0.  0.
         25    2    3    3    0    0  0.34743502351E+01  0.37598862969E+02 -0.13963867753E+03  0.19504106209E+03  0.13082931641E+03 0.  0.
         25    2    3    3    0    0 -0.34743502351E+01 -0.37598862969E+02 -0.58656171401E+02  0.14287563203E+03  0.12468822790E+03 0.  0.
          5    1    4    4  502    0 -0.27807280311E+01 -0.46151883452E+02 -0.77863900443E+02  0.90678585050E+02  0.47000000000E+01 0. -1.
         -5    1    4    4    0  502  0.62550782663E+01  0.83750746421E+02 -0.61774777091E+02  0.10436247704E+03  0.47000000000E+01 0. -1.
          5    1    5    5  503    0  0.47132174970E+02  0.15146682536E+02 -0.47526208579E+02  0.68787312864E+02  0.47000000000E+01 0. -1.
         -5    1    5    5    0  503 -0.50606525205E+02 -0.52745545506E+02 -0.11129962823E+02  0.74088319163E+02  0.47000000000E+01 0. -1.
<mgrwt>
<rscale>  0 0.27361806E+03</rscale>
<asrwt>0</asrwt>
<pdfrwt beam="1">  1        2 0.41247041E-01 0.27361806E+03</pdfrwt>
<pdfrwt beam="2">  1       -2 0.10740142E-01 0.27361806E+03</pdfrwt>
<totfact> 0.72536006E+03</totfact>
</mgrwt>
</event>
<event>
 9    1  0.8186049E-001  0.2764775E+03  0.7818608E-02  0.1097629E+00
         -2   -1    0    0    0  501 -0.00000000000E+00  0.00000000000E+00  0.71402127396E+02  0.71402127396E+02  0.00000000000E+00 0.  1.
          2   -1    0    0  501    0  0.00000000000E+00 -0.00000000000E+00 -0.26763845672E+03  0.26763845672E+03  0.00000000000E+00 0.  1.
         35    2    1    2    0    0  0.00000000000E+00  0.10658141036E-13 -0.19623632933E+03  0.33904058412E+03  0.27647752301E+03 0.  0.
         25    2    3    3    0    0  0.52237501431E+02  0.22246043280E+02 -0.12337438805E+03  0.18478173149E+03  0.12529726919E+03 0.  0.
         25    2    3    3    0    0 -0.52237501431E+02 -0.22246043280E+02 -0.72861941275E+02  0.15425885263E+03  0.12354468071E+03 0.  0.
          5    1    4    4  502    0  0.44974265279E+02 -0.41992940072E+02 -0.96647699476E+02  0.11466891195E+03  0.47000000000E+01 0.  1.
         -5    1    4    4    0  502  0.72632361519E+01  0.64238983352E+02 -0.26726688575E+02  0.70112819539E+02  0.47000000000E+01 0.  1.
          5    1    5    5  503    0  0.10766176579E+02 -0.38506703959E+02 -0.79067382674E+02  0.88726646566E+02  0.47000000000E+01 0.  1.
         -5    1    5    5    0  503 -0.63003678010E+02  0.16260660679E+02  0.62054413999E+01  0.65532206063E+02  0.47000000000E+01 0.  1.
<mgrwt>
<rscale>  0 0.27647752E+03</rscale>
<asrwt>0</asrwt>
<pdfrwt beam="1">  1        2 0.41175147E-01 0.27647752E+03</pdfrwt>
<pdfrwt beam="2">  1       -2 0.10984943E-01 0.27647752E+03</pdfrwt>
<totfact> 0.70125429E+03</totfact>
</mgrwt>
</event>
<event>
 9    1  0.8186049E-001  0.2897329E+03  0.7818608E-02  0.1090489E+00
         -1   -1    0    0    0  501 -0.00000000000E+00  0.00000000000E+00  0.36950765456E+02  0.36950765456E+02  0.00000000000E+00 0. -1.
          1   -1    0    0  501    0  0.00000000000E+00 -0.00000000000E+00 -0.56795259680E+03  0.56795259680E+03  0.00000000000E+00 0. -1.
         35    2    1    2    0    0  0.00000000000E+00  0.00000000000E+00 -0.53100183135E+03  0.60490336226E+03  0.28973286451E+03 0.  0.
         25    2    3    3    0    0 -0.63805596759E+01 -0.32787380747E+02 -0.13218353852E+03  0.18559990747E+03  0.12593297391E+03 0.  0.
         25    2    3    3    0    0  0.63805596759E+01  0.32787380747E+02 -0.39881829283E+03  0.41930345479E+03  0.12507450831E+03 0.  0.
          5    1    4    4  502    0  0.93208318886E+01 -0.17507329689E+02 -0.15339594741E+03  0.15474427673E+03  0.47000000000E+01 0.  1.
         -5    1    4    4    0  502 -0.15701391565E+02 -0.15280051058E+02  0.21212408888E+02  0.30855630738E+02  0.47000000000E+01 0.  1.
          5    1    5    5  503    0  0.17166249617E+02  0.29976278178E+02 -0.19800107355E+02  0.40092288917E+02  0.47000000000E+01 0. -1.
         -5    1    5    5    0  503 -0.10785689941E+02  0.28111025685E+01 -0.37901818547E+03  0.37921116588E+03  0.47000000000E+01 0. -1.
<mgrwt>
<rscale>  0 0.28973286E+03</rscale>
<asrwt>0</asrwt>
<pdfrwt beam="1">  1        1 0.87377321E-01 0.28973286E+03</pdfrwt>
<pdfrwt beam="2">  1       -1 0.56847332E-02 0.28973286E+03</pdfrwt>
<totfact> 0.54942315E+03</totfact>
</mgrwt>
</event>
<event>
 9    1  0.8186049E-001  0.2907053E+03  0.7818608E-02  0.1089981E+00
          1   -1    0    0  501    0  0.00000000000E+00  0.00000000000E+00  0.19212071956E+02  0.19212071956E+02  0.00000000000E+00 0.  1.
         -1   -1    0    0    0  501 -0.00000000000E+00 -0.00000000000E+00 -0.10996939461E+04  0.10996939461E+04  0.00000000000E+00 0.  1.
         35    2    1    2    0    0  0.00000000000E+00  0.00000000000E+00 -0.10804818742E+04  0.11189060181E+04  0.29070534375E+03 0.  0.
         25    2    3    3    0    0  0.46283083920E+01  0.72311976109E+02 -0.48031137575E+03  0.50170879372E+03  0.12554781120E+03 0.  0.
         25    2    3    3    0    0 -0.46283083920E+01 -0.72311976109E+02 -0.60017049841E+03  0.61719722435E+03  0.12440797182E+03 0.  0.
          5    1    4    4  502    0  0.64255142209E+02  0.38552421073E+02 -0.28278761722E+03  0.29258492600E+03  0.47000000000E+01 0. -1.
         -5    1    4    4    0  502 -0.59626833817E+02  0.33759555036E+02 -0.19752375853E+03  0.20912386772E+03  0.47000000000E+01 0. -1.
          5    1    5    5  503    0 -0.22165267874E+02 -0.50963876676E+02 -0.57998330378E+03  0.58265885258E+03  0.47000000000E+01 0.  1.
         -5    1    5    5    0  503  0.17536959482E+02 -0.21348099433E+02 -0.20187194629E+02  0.34538371766E+02  0.47000000000E+01 0.  1.
<mgrwt>
<rscale>  0 0.29070534E+03</rscale>
<asrwt>0</asrwt>
<pdfrwt beam="1">  1        1 0.29557027E-02 0.29070534E+03</pdfrwt>
<pdfrwt beam="2">  1       -1 0.16918372E+00 0.29070534E+03</pdfrwt>
<totfact> 0.95021234E+02</totfact>
</mgrwt>
</event>
<event>
 9    1  0.8186049E-001  0.2754099E+03  0.7818608E-02  0.1098223E+00
         -1   -1    0    0    0  501 -0.00000000000E+00  0.00000000000E+00  0.63434139518E+02  0.63434139518E+02  0.00000000000E+00 0.  1.
          1   -1    0    0  501    0  0.00000000000E+00 -0.00000000000E+00 -0.29893459463E+03  0.29893459463E+03  0.00000000000E+00 0.  1.
         35    2    1    2    0    0  0.00000000000E+00 -0.35527136788E-14 -0.23550045511E+03  0.36236873415E+03  0.27540994014E+03 0.  0.
         25    2    3    3    0    0 -0.28530887200E+02  0.16409324737E+02 -0.13895695157E+03  0.18967801835E+03  0.12484165488E+03 0.  0.
         25    2    3    3    0    0  0.28530887200E+02 -0.16409324737E+02 -0.96543503543E+02  0.17269071580E+03  0.13934905017E+03 0.  0.
          5    1    4    4  502    0 -0.12022444517E+02 -0.12755113988E+02  0.20088889698E+02  0.27071859824E+02  0.47000000000E+01 0. -1.
         -5    1    4    4    0  502 -0.16508442682E+02  0.29164438726E+02 -0.15904584127E+03  0.16260615853E+03  0.47000000000E+01 0. -1.
          5    1    5    5  503    0 -0.19228090811E+02 -0.46478553167E+02 -0.10395116714E+03  0.11557642723E+03  0.47000000000E+01 0.  1.
         -5    1    5    5    0  503  0.47758978011E+02  0.30069228429E+02  0.74076635970E+01  0.57114288571E+02  0.47000000000E+01 0.  1.
<mgrwt>
<rscale>  0 0.27540994E+03</rscale>
<asrwt>0</asrwt>
<pdfrwt beam="1">  1        1 0.45989937E-01 0.27540994E+03</pdfrwt>
<pdfrwt beam="2">  1       -1 0.97590985E-02 0.27540994E+03</pdfrwt>
<totfact> 0.55361295E+03</totfact>
</mgrwt>
</event>
<event>
 9    1  0.8186049E-001  0.2767814E+03  0.7818608E-02  0.1097460E+00
         -2   -1    0    0    0  501 -0.00000000000E+00  0.00000000000E+00  0.48410242642E+02  0.48410242642E+02  0.00000000000E+00 0.  1.
          2   -1    0    0  501    0  0.00000000000E+00 -0.00000000000E+00 -0.39561842853E+03  0.39561842853E+03  0.00000000000E+00 0.  1.
         35    2    1    2    0    0  0.00000000000E+00  0.00000000000E+00 -0.34720818589E+03  0.44402867117E+03  0.27678138752E+03 0.  0.
         25    2    3    3    0    0  0.40908293962E+02  0.30345915250E+02 -0.22930228434E+03  0.26627633558E+03  0.12541605239E+03 0.  0.
         25    2    3    3    0    0 -0.40908293962E+02 -0.30345915250E+02 -0.11790590155E+03  0.17775233560E+03  0.12288095094E+03 0.  0.
          5    1    4    4  502    0  0.22491048445E+02  0.50418453850E+01  0.95122013035E+01  0.25373991382E+02  0.47000000000E+01 0. -1.
         -5    1    4    4    0  502  0.18417245517E+02  0.25304069865E+02 -0.23881448565E+03  0.24090234420E+03  0.47000000000E+01 0. -1.
          5    1    5    5  503    0 -0.64889155444E+02  0.25963569274E+02 -0.76406639609E+02  0.10365700169E+03  0.47000000000E+01 0. -1.
         -5    1    5    5    0  503  0.23980861482E+02 -0.56309484524E+02 -0.41499261939E+02  0.74095333904E+02  0.47000000000E+01 0. -1.
<mgrwt>
<rscale>  0 0.27678139E+03</rscale>
<asrwt>0</asrwt>
<pdfrwt beam="1">  1        2 0.60864372E-01 0.27678139E+03</pdfrwt>
<pdfrwt beam="2">  1       -2 0.74477299E-02 0.27678139E+03</pdfrwt>
<totfact> 0.84934825E+03</totfact>
</mgrwt>
</event>
<event>
 9    1  0.8186049E-001  0.2796562E+03  0.7818608E-02  0.1095877E+00
         -2   -1    0    0    0  501 -0.00000000000E+00  0.00000000000E+00  0.67143933137E+02  0.67143933137E+02  0.00000000000E+00 0.  1.
          2   -1    0    0  501    0  0.00000000000E+00 -0.00000000000E+00 -0.29119376051E+03  0.29119376051E+03  0.00000000000E+00 0.  1.
         35    2    1    2    0    0 -0.14210854715E-13  0.71054273576E-14 -0.22404982738E+03  0.35833769365E+03  0.27965617737E+03 0.  0.
         25    2    3    3    0    0  0.44271249776E+02 -0.28966210241E+02 -0.15701117904E+03  0.20763317058E+03  0.12514007467E+03 0.  0.
         25    2    3    3    0    0 -0.44271249776E+02  0.28966210241E+02 -0.67038648337E+02  0.15070452307E+03  0.12417200977E+03 0.  0.
          5    1    4    4  502    0  0.81275415424E+02  0.12913700525E+01 -0.12743955599E+03  0.15122926708E+03  0.47000000000E+01 0.  1.
         -5    1    4    4    0  502 -0.37004165648E+02 -0.30257580294E+02 -0.29571623048E+02  0.56403903502E+02  0.47000000000E+01 0.  1.
          5    1    5    5  503    0  0.78503896543E+01 -0.35503575677E+02  0.93918003797E+01  0.37847436081E+02  0.47000000000E+01 0.  1.
         -5    1    5    5    0  503 -0.52121639430E+02  0.64469785918E+02 -0.76430448717E+02  0.11285708699E+03  0.47000000000E+01 0.  1.
<mgrwt>
<rscale>  0 0.27965618E+03</rscale>
<asrwt>0</asrwt>
<pdfrwt beam="1">  1        2 0.44799041E-01 0.27965618E+03</pdfrwt>
<pdfrwt beam="2">  1       -2 0.10329836E-01 0.27965618E+03</pdfrwt>
<totfact> 0.70682762E+03</totfact>
</mgrwt>
</event>
<event>
 9    1  0.8186049E-001  0.2716866E+03  0.7818608E-02  0.1100318E+00
          2   -1    0    0  501    0  0.00000000000E+00  0.00000000000E+00  0.22515047210E+04  0.22515047210E+04  0.00000000000E+00 0.  1.
         -2   -1    0    0    0  501 -0.00000000000E+00 -0.00000000000E+00 -0.81960302449E+01  0.81960302449E+01  0.00000000000E+00 0.  1.
         35    2    1    2    0    0  0.00000000000E+00  0.00000000000E+00  0.22433086907E+04  0.22597007512E+04  0.27168658995E+03 0.  0.
         25    2    3    3    0    0 -0.38241012333E+02 -0.34572707011E+02  0.11821975222E+04  0.11899714190E+04  0.12563180104E+03 0.  0.
         25    2    3    3    0    0  0.38241012333E+02  0.34572707011E+02  0.10611111685E+04  0.10697293322E+04  0.12532471884E+03 0.  0.
          5    1    4    4  502    0  0.12012155688E+01 -0.60418389162E+02  0.99583640751E+03  0.99767933986E+03  0.47000000000E+01 0. -1.
         -5    1    4    4    0  502 -0.39442227902E+02  0.25845682152E+02  0.18636111469E+03  0.19229207913E+03  0.47000000000E+01 0. -1.
          5    1    5    5  503    0  0.54851959726E+02 -0.16666801771E+02  0.84505243186E+03  0.84700780537E+03  0.47000000000E+01 0. -1.
         -5    1    5    5    0  503 -0.16610947392E+02  0.51239508781E+02  0.21605873668E+03  0.22272152687E+03  0.47000000000E+01 0. -1.
<mgrwt>
<rscale>  0 0.27168659E+03</rscale>
<asrwt>0</asrwt>
<pdfrwt beam="1">  1        2 0.34638485E+00 0.27168659E+03</pdfrwt>
<pdfrwt beam="2">  1       -2 0.12609295E-02 0.27168659E+03</pdfrwt>
<totfact> 0.83119255E+03</totfact>
</mgrwt>
</event>
<event>
 9    1  0.8186049E-001  0.2727051E+03  0.7818608E-02  0.1099741E+00
          1   -1    0    0  501    0  0.00000000000E+00  0.00000000000E+00  0.11426123662E+03  0.11426123662E+03  0.00000000000E+00 0.  1.
         -1   -1    0    0    0  501 -0.00000000000E+00 -0.00000000000E+00 -0.16271499978E+03  0.16271499978E+03  0.00000000000E+00 0.  1.
         35    2    1    2    0    0  0.35527136788E-14  0.71054273576E-14 -0.48453763163E+02  0.27697623640E+03  0.27270509414E+03 0.  0.
         25    2    3    3    0    0  0.79571703441E+01 -0.34555282287E+02 -0.64590651379E+02  0.14609097242E+03  0.12614767490E+03 0.  0.
         25    2    3    3    0    0 -0.79571703441E+01  0.34555282287E+02  0.16136888216E+02  0.13088526399E+03  0.12495266733E+03 0.  0.
          5    1    4    4  502    0 -0.11343583708E+02 -0.40919508799E+02  0.28065398652E+02  0.51115943630E+02  0.47000000000E+01 0. -1.
         -5    1    4    4    0  502  0.19300754052E+02  0.63642265125E+01 -0.92656050031E+02  0.94975028788E+02  0.47000000000E+01 0. -1.
          5    1    5    5  503    0  0.48463314746E+02  0.10290111219E+02 -0.26103376407E+02  0.56196579299E+02  0.47000000000E+01 0.  1.
         -5    1    5    5    0  503 -0.56420485090E+02  0.24265171068E+02  0.42240264623E+02  0.74688684686E+02  0.47000000000E+01 0.  1.
<mgrwt>
<rscale>  0 0.27270509E+03</rscale>
<asrwt>0</asrwt>
<pdfrwt beam="1">  1        1 0.17578652E-01 0.27270509E+03</pdfrwt>
<pdfrwt beam="2">  1       -1 0.25033077E-01 0.27270509E+03</pdfrwt>
<totfact> 0.41728629E+03</totfact>
</mgrwt>
</event>
<event>
 9    1  0.8186049E-001  0.2741169E+03  0.7818608E-02  0.1098946E+00
          2   -1    0    0  501    0  0.00000000000E+00  0.00000000000E+00  0.33148347387E+02  0.33148347387E+02  0.00000000000E+00 0. -1.
         -2   -1    0    0    0  501 -0.00000000000E+00 -0.00000000000E+00 -0.56669539484E+03  0.56669539484E+03  0.00000000000E+00 0. -1.
         35    2    1    2    0    0  0.00000000000E+00 -0.35527136788E-14 -0.53354704745E+03  0.59984374222E+03  0.27411687880E+03 0.  0.
         25    2    3    3    0    0 -0.88602979400E+01 -0.16529488866E+02 -0.14724363175E+03  0.19421789402E+03  0.12525244263E+03 0.  0.
         25    2    3    3    0    0  0.88602979400E+01  0.16529488866E+02 -0.38630341570E+03  0.40562584821E+03  0.12227130027E+03 0.  0.
          5    1    4    4  502    0  0.60512825139E+01 -0.16922684834E+02  0.19389659374E+02  0.26852265690E+02  0.47000000000E+01 0.  1.
         -5    1    4    4    0  502 -0.14911580454E+02  0.39319596841E+00 -0.16663329112E+03  0.16736562833E+03  0.47000000000E+01 0.  1.
          5    1    5    5  503    0  0.63572768350E+02 -0.43306913976E+01 -0.17458620646E+03  0.18591042265E+03  0.47000000000E+01 0. -1.
         -5    1    5    5    0  503 -0.54712470410E+02  0.20860180263E+02 -0.21171720924E+03  0.21971542556E+03  0.47000000000E+01 0. -1.
<mgrwt>
<rscale>  0 0.27411688E+03</rscale>
<asrwt>0</asrwt>
<pdfrwt beam="1">  1        2 0.50997460E-02 0.27411688E+03</pdfrwt>
<pdfrwt beam="2">  1       -2 0.87183903E-01 0.27411688E+03</pdfrwt>
<totfact> 0.17963736E+03</totfact>
</mgrwt>
</event>
<event>
 9    1  0.8186049E-001  0.2771636E+03  0.7818608E-02  0.1097248E+00
         -3   -1    0    0    0  501 -0.00000000000E+00  0.00000000000E+00  0.17093369771E+03  0.17093369771E+03  0.00000000000E+00 0. -1.
          3   -1    0    0  501    0  0.00000000000E+00 -0.00000000000E+00 -0.11235297874E+03  0.11235297874E+03  0.00000000000E+00 0. -1.
         35    2    1    2    0    0  0.00000000000E+00  0.00000000000E+00  0.58580718977E+02  0.28328667645E+03  0.27716356258E+03 0.  0.
         25    2    3    3    0    0 -0.41570501577E+01 -0.42736179613E+02  0.67949215476E+02  0.14895458082E+03  0.12540617668E+03 0.  0.
         25    2    3    3    0    0  0.41570501577E+01  0.42736179613E+02 -0.93684964998E+01  0.13433209563E+03  0.12693967495E+03 0.  0.
          5    1    4    4  502    0 -0.60064753839E+02  0.24793493663E+01  0.35008120746E+02  0.69725033849E+02  0.47000000000E+01 0.  1.
         -5    1    4    4    0  502  0.55907703681E+02 -0.45215528980E+02  0.32941094730E+02  0.79229546975E+02  0.47000000000E+01 0.  1.
          5    1    5    5  503    0 -0.49593478312E+02 -0.17726302456E+02 -0.12556925764E+01  0.52890468458E+02  0.47000000000E+01 0. -1.
         -5    1    5    5    0  503  0.53750528470E+02  0.60462482069E+02 -0.81128039234E+01  0.81441627171E+02  0.47000000000E+01 0. -1.
<mgrwt>
<rscale>  0 0.27716356E+03</rscale>
<asrwt>0</asrwt>
<pdfrwt beam="1">  1        3 0.17285074E-01 0.27716356E+03</pdfrwt>
<pdfrwt beam="2">  1       -3 0.26297492E-01 0.27716356E+03</pdfrwt>
<totfact> 0.10116576E+03</totfact>
</mgrwt>
</event>
<event>
 9    1  0.8186049E-001  0.2779563E+03  0.7818608E-02  0.1096810E+00
          4   -1    0    0  501    0  0.00000000000E+00  0.00000000000E+00  0.98729450591E+02  0.98729450591E+02  0.00000000000E+00 0. -1.
         -4   -1    0    0    0  501 -0.00000000000E+00 -0.00000000000E+00 -0.19563495507E+03  0.19563495507E+03  0.00000000000E+00 0. -1.
         35    2    1    2    0    0  0.00000000000E+00  0.00000000000E+00 -0.96905504477E+02  0.29436440566E+03  0.27795633923E+03 0.  0.
         25    2    3    3    0    0 -0.40709659183E+02 -0.46050580696E+02 -0.46611807471E+02  0.14860916000E+03  0.12702003585E+03 0.  0.
         25    2    3    3    0    0  0.40709659183E+02  0.46050580696E+02 -0.50293697006E+02  0.14575524566E+03  0.12221785199E+03 0.  0.
          5    1    4    4  502    0 -0.56262780992E+02 -0.61635338229E+02 -0.75052432072E+02  0.11233598267E+03  0.47000000000E+01 0. -1.
         -5    1    4    4    0  502  0.15553121809E+02  0.15584757533E+02  0.28440624601E+02  0.36273177323E+02  0.47000000000E+01 0. -1.
          5    1    5    5  503    0 -0.17468772548E+01  0.77555408842E+02 -0.84652717927E+01  0.78177003315E+02  0.47000000000E+01 0.  1.
         -5    1    5    5    0  503  0.42456536438E+02 -0.31504828145E+02 -0.41828425213E+02  0.67578242346E+02  0.47000000000E+01 0.  1.
<mgrwt>
<rscale>  0 0.27795634E+03</rscale>
<asrwt>0</asrwt>
<pdfrwt beam="1">  1        4 0.15189146E-01 0.27795634E+03</pdfrwt>
<pdfrwt beam="2">  1       -4 0.30097686E-01 0.27795634E+03</pdfrwt>
<totfact> 0.73166469E+02</totfact>
</mgrwt>
</event>
<event>
 9    1  0.8186049E-001  0.2747603E+03  0.7818608E-02  0.1098586E+00
          1   -1    0    0  501    0  0.00000000000E+00  0.00000000000E+00  0.38680916924E+03  0.38680916924E+03  0.00000000000E+00 0.  1.
         -1   -1    0    0    0  501 -0.00000000000E+00 -0.00000000000E+00 -0.48792292335E+02  0.48792292335E+02  0.00000000000E+00 0.  1.
         35    2    1    2    0    0 -0.71054273576E-14 -0.53290705182E-14  0.33801687691E+03  0.43560146158E+03  0.27476030327E+03 0.  0.
         25    2    3    3    0    0  0.33417766960E+02 -0.53941854352E+01  0.17412734455E+03  0.21832238469E+03  0.12727327745E+03 0.  0.
         25    2    3    3    0    0 -0.33417766960E+02  0.53941854352E+01  0.16388953236E+03  0.21727907689E+03  0.13858056881E+03 0.  0.
          5    1    4    4  502    0  0.64975988847E+02  0.35751043586E+02  0.13144728256E+03  0.15099832561E+03  0.47000000000E+01 0.  1.
         -5    1    4    4    0  502 -0.31558221887E+02 -0.41145229021E+02  0.42680061988E+02  0.67324059081E+02  0.47000000000E+01 0.  1.
          5    1    5    5  503    0 -0.13625415474E+02 -0.95692867639E+01 -0.22950082502E+02  0.28740554672E+02  0.47000000000E+01 0.  1.
         -5    1    5    5    0  503 -0.19792351487E+02  0.14963472199E+02  0.18683961486E+03  0.18853852221E+03  0.47000000000E+01 0.  1.
<mgrwt>
<rscale>  0 0.27476030E+03</rscale>
<asrwt>0</asrwt>
<pdfrwt beam="1">  1        1 0.59509101E-01 0.27476030E+03</pdfrwt>
<pdfrwt beam="2">  1       -1 0.75065068E-02 0.27476030E+03</pdfrwt>
<totfact> 0.59721788E+03</totfact>
</mgrwt>
</event>
<event>
 9    1  0.8186049E-001  0.2727851E+03  0.7818608E-02  0.1099696E+00
          2   -1    0    0  501    0  0.00000000000E+00  0.00000000000E+00  0.21502521999E+03  0.21502521999E+03  0.00000000000E+00 0.  1.
         -2   -1    0    0    0  501 -0.00000000000E+00 -0.00000000000E+00 -0.86515099580E+02  0.86515099580E+02  0.00000000000E+00 0.  1.
         35    2    1    2    0    0  0.00000000000E+00  0.00000000000E+00  0.12851012041E+03  0.30154031957E+03  0.27278510458E+03 0.  0.
         25    2    3    3    0    0  0.39510218284E+02  0.21634320870E+02  0.29253184595E+02  0.13649791377E+03  0.12548637562E+03 0.  0.
         25    2    3    3    0    0 -0.39510218284E+02 -0.21634320870E+02  0.99256935816E+02  0.16504240580E+03  0.12392721742E+03 0.  0.
          5    1    4    4  502    0 -0.45025182264E+02  0.13697034657E+02  0.25444184758E+01  0.47364964495E+02  0.47000000000E+01 0. -1.
         -5    1    4    4    0  502  0.84535400548E+02  0.79372862132E+01  0.26708766119E+02  0.89132949271E+02  0.47000000000E+01 0. -1.
          5    1    5    5  503    0  0.25044472440E+02 -0.53787690543E+02  0.42160822640E+02  0.72938098545E+02  0.47000000000E+01 0. -1.
         -5    1    5    5    0  503 -0.64554690723E+02  0.32153369673E+02  0.57096113176E+02  0.92104307258E+02  0.47000000000E+01 0. -1.
<mgrwt>
<rscale>  0 0.27278510E+03</rscale>
<asrwt>0</asrwt>
<pdfrwt beam="1">  1        2 0.33080803E-01 0.27278510E+03</pdfrwt>
<pdfrwt beam="2">  1       -2 0.13310015E-01 0.27278510E+03</pdfrwt>
<totfact> 0.65138453E+03</totfact>
</mgrwt>
</event>
<event>
 9    1  0.8186049E-001  0.2742550E+03  0.7818608E-02  0.1098869E+00
         -1   -1    0    0    0  501 -0.00000000000E+00  0.00000000000E+00  0.20774311235E+02  0.20774311235E+02  0.00000000000E+00 0.  1.
          1   -1    0    0  501    0  0.00000000000E+00 -0.00000000000E+00 -0.90515404164E+03  0.90515404164E+03  0.00000000000E+00 0.  1.
         35    2    1    2    0    0  0.00000000000E+00 -0.17763568394E-14 -0.88437973040E+03  0.92592835287E+03  0.27425500379E+03 0.  0.
         25    2    3    3    0    0  0.47648643503E+02  0.11406144507E+02 -0.48864330442E+03  0.50673209573E+03  0.12491855158E+03 0.  0.
         25    2    3    3    0    0 -0.47648643503E+02 -0.11406144507E+02 -0.39573642598E+03  0.41919625714E+03  0.12929690558E+03 0.  0.
          5    1    4    4  502    0  0.88105601220E+02  0.21860010682E+02 -0.36439618861E+03  0.37556241733E+03  0.47000000000E+01 0.  1.
         -5    1    4    4    0  502 -0.40456957717E+02 -0.10453866175E+02 -0.12424711581E+03  0.13116967841E+03  0.47000000000E+01 0.  1.
          5    1    5    5  503    0 -0.11765844433E+02  0.50681590411E+02 -0.26413177539E+03  0.26924847905E+03  0.47000000000E+01 0.  1.
         -5    1    5    5    0  503 -0.35882799070E+02 -0.62087734919E+02 -0.13160465059E+03  0.14994777809E+03  0.47000000000E+01 0.  1.
<mgrwt>
<rscale>  0 0.27425500E+03</rscale>
<asrwt>0</asrwt>
<pdfrwt beam="1">  1        1 0.13925443E+00 0.27425500E+03</pdfrwt>
<pdfrwt beam="2">  1       -1 0.31960487E-02 0.27425500E+03</pdfrwt>
<totfact> 0.64890040E+03</totfact>
</mgrwt>
</event>
<event>
 9    1  0.8186049E-001  0.2741660E+03  0.7818608E-02  0.1098919E+00
         -1   -1    0    0    0  501 -0.00000000000E+00  0.00000000000E+00  0.20993907929E+02  0.20993907929E+02  0.00000000000E+00 0. -1.
          1   -1    0    0  501    0  0.00000000000E+00 -0.00000000000E+00 -0.89510454773E+03  0.89510454773E+03  0.00000000000E+00 0. -1.
         35    2    1    2    0    0  0.00000000000E+00  0.00000000000E+00 -0.87411063980E+03  0.91609845566E+03  0.27416595311E+03 0.  0.
         25    2    3    3    0    0  0.51044567743E+02  0.10147390453E+02 -0.51113588638E+03  0.52916818982E+03  0.12669081002E+03 0.  0.
         25    2    3    3    0    0 -0.51044567743E+02 -0.10147390453E+02 -0.36297475342E+03  0.38693026584E+03  0.12351453992E+03 0.  0.
          5    1    4    4  502    0  0.79517008343E+02 -0.22425220875E+02 -0.42126254720E+03  0.42931348549E+03  0.47000000000E+01 0.  1.
         -5    1    4    4    0  502 -0.28472440599E+02  0.32572611328E+02 -0.89873339181E+02  0.99854704336E+02  0.47000000000E+01 0.  1.
          5    1    5    5  503    0  0.28395486064E+02  0.96253010140E+01 -0.22021975741E+03  0.22230110571E+03  0.47000000000E+01 0. -1.
         -5    1    5    5    0  503 -0.79440053807E+02 -0.19772691467E+02 -0.14275499601E+03  0.16462916013E+03  0.47000000000E+01 0. -1.
<mgrwt>
<rscale>  0 0.27416595E+03</rscale>
<asrwt>0</asrwt>
<pdfrwt beam="1">  1        1 0.13770842E+00 0.27416595E+03</pdfrwt>
<pdfrwt beam="2">  1       -1 0.32298312E-02 0.27416595E+03</pdfrwt>
<totfact> 0.65060965E+03</totfact>
</mgrwt>
</event>
<event>
 9    1  0.8186049E-001  0.2757162E+03  0.7818608E-02  0.1098052E+00
         -2   -1    0    0    0  501 -0.00000000000E+00  0.00000000000E+00  0.28019805978E+03  0.28019805978E+03  0.00000000000E+00 0. -1.
          2   -1    0    0  501    0  0.00000000000E+00 -0.00000000000E+00 -0.67826505178E+02  0.67826505178E+02  0.00000000000E+00 0. -1.
         35    2    1    2    0    0 -0.17763568394E-14  0.00000000000E+00  0.21237155460E+03  0.34802456496E+03  0.27571619577E+03 0.  0.
         25    2    3    3    0    0 -0.13565251730E+02  0.22779973598E+02  0.17298589333E+03  0.21459238062E+03  0.12418867612E+03 0.  0.
         25    2    3    3    0    0  0.13565251730E+02 -0.22779973598E+02  0.39385661269E+02  0.13343218434E+03  0.12469953589E+03 0.  0.
          5    1    4    4  502    0  0.30058930176E+01  0.55052519586E+02  0.22516867035E+02  0.59740393426E+02  0.47000000000E+01 0. -1.
         -5    1    4    4    0  502 -0.16571144747E+02 -0.32272545988E+02  0.15046902630E+03  0.15485198720E+03  0.47000000000E+01 0. -1.
          5    1    5    5  503    0  0.61712112566E+02  0.15175214684E+02  0.74876708374E+01  0.64162506128E+02  0.47000000000E+01 0.  1.
         -5    1    5    5    0  503 -0.48146860836E+02 -0.37955188281E+02  0.31897990432E+02  0.69269678211E+02  0.47000000000E+01 0.  1.
<mgrwt>
<rscale>  0 0.27571620E+03</rscale>
<asrwt>0</asrwt>
<pdfrwt beam="1">  1        2 0.10434847E-01 0.27571620E+03</pdfrwt>
<pdfrwt beam="2">  1       -2 0.43107393E-01 0.27571620E+03</pdfrwt>
<totfact> 0.31182998E+03</totfact>
</mgrwt>
</event>
<event>
 9    1  0.8186049E-001  0.2763914E+03  0.7818608E-02  0.1097676E+00
         -1   -1    0    0    0  501 -0.00000000000E+00  0.00000000000E+00  0.96333325514E+02  0.96333325514E+02  0.00000000000E+00 0.  1.
          1   -1    0    0  501    0  0.00000000000E+00 -0.00000000000E+00 -0.19824965064E+03  0.19824965064E+03  0.00000000000E+00 0.  1.
         35    2    1    2    0    0  0.71054273576E-14 -0.35527136788E-14 -0.10191632512E+03  0.29458297615E+03  0.27639137561E+03 0.  0.
         25    2    3    3    0    0 -0.36152874082E+02 -0.26238726180E+02 -0.90898130348E+01  0.13307280263E+03  0.12502097842E+03 0.  0.
         25    2    3    3    0    0  0.36152874082E+02  0.26238726180E+02 -0.92826512089E+02  0.16151017352E+03  0.12439161446E+03 0.  0.
          5    1    4    4  502    0  0.17209062598E+02  0.19653428809E+02 -0.46264799998E+02  0.53337892893E+02  0.47000000000E+01 0. -1.
         -5    1    4    4    0  502 -0.53361936680E+02 -0.45892154989E+02  0.37174986963E+02  0.79734909741E+02  0.47000000000E+01 0. -1.
          5    1    5    5  503    0 -0.26083888927E+02  0.66145662601E+01 -0.92114809623E+02  0.96079914135E+02  0.47000000000E+01 0.  1.
         -5    1    5    5    0  503  0.62236763009E+02  0.19624159920E+02 -0.71170246606E+00  0.65430259382E+02  0.47000000000E+01 0.  1.
<mgrwt>
<rscale>  0 0.27639138E+03</rscale>
<asrwt>0</asrwt>
<pdfrwt beam="1">  1        1 0.30499946E-01 0.27639138E+03</pdfrwt>
<pdfrwt beam="2">  1       -1 0.14820512E-01 0.27639138E+03</pdfrwt>
<totfact> 0.48279298E+03</totfact>
</mgrwt>
</event>
<event>
 9    1  0.8186049E-001  0.2767904E+03  0.7818608E-02  0.1097455E+00
          1   -1    0    0  501    0  0.00000000000E+00  0.00000000000E+00  0.59032013549E+03  0.59032013549E+03  0.00000000000E+00 0. -1.
         -1   -1    0    0    0  501 -0.00000000000E+00 -0.00000000000E+00 -0.32445502528E+02  0.32445502528E+02  0.00000000000E+00 0. -1.
         35    2    1    2    0    0  0.14210854715E-13  0.00000000000E+00  0.55787463296E+03  0.62276563802E+03  0.27679041492E+03 0.  0.
         25    2    3    3    0    0  0.52479213972E+02  0.71846508996E+01  0.34536683146E+03  0.37120802969E+03  0.12534538655E+03 0.  0.
         25    2    3    3    0    0 -0.52479213972E+02 -0.71846508996E+01  0.21250780151E+03  0.25155760833E+03  0.12375773713E+03 0.  0.
          5    1    4    4  502    0  0.64936240541E+02  0.50164919341E+02  0.15332197826E+03  0.17396250598E+03  0.47000000000E+01 0. -1.
         -5    1    4    4    0  502 -0.12457026570E+02 -0.42980268442E+02  0.19204485319E+03  0.19724552371E+03  0.47000000000E+01 0. -1.
          5    1    5    5  503    0  0.23225714274E+02  0.35059646719E+02  0.39034547568E+02  0.57570813225E+02  0.47000000000E+01 0. -1.
         -5    1    5    5    0  503 -0.75704928246E+02 -0.42244297618E+02  0.17347325394E+03  0.19398679510E+03  0.47000000000E+01 0. -1.
<mgrwt>
<rscale>  0 0.27679041E+03</rscale>
<asrwt>0</asrwt>
<pdfrwt beam="1">  1        1 0.90818474E-01 0.27679041E+03</pdfrwt>
<pdfrwt beam="2">  1       -1 0.49916162E-02 0.27679041E+03</pdfrwt>
<totfact> 0.63262756E+03</totfact>
</mgrwt>
</event>
<event>
 9    1  0.8186049E-001  0.2723030E+03  0.7818608E-02  0.1099969E+00
          2   -1    0    0  501    0  0.00000000000E+00  0.00000000000E+00  0.78702147558E+03  0.78702147558E+03  0.00000000000E+00 0. -1.
         -2   -1    0    0    0  501 -0.00000000000E+00 -0.00000000000E+00 -0.23553648212E+02  0.23553648212E+02  0.00000000000E+00 0. -1.
         35    2    1    2    0    0  0.17763568394E-14  0.00000000000E+00  0.76346782737E+03  0.81057512379E+03  0.27230297076E+03 0.  0.
         25    2    3    3    0    0 -0.11649254982E+01 -0.49240149709E+02  0.44738784835E+03  0.46710029468E+03  0.12490335882E+03 0.  0.
         25    2    3    3    0    0  0.11649254982E+01  0.49240149709E+02  0.31607997902E+03  0.34347482911E+03  0.12506980332E+03 0.  0.
          5    1    4    4  502    0  0.50481557193E+02 -0.13954335590E+02  0.32847701811E+03  0.33265951440E+03  0.47000000000E+01 0.  1.
         -5    1    4    4    0  502 -0.51646482691E+02 -0.35285814119E+02  0.11891083024E+03  0.13444078027E+03  0.47000000000E+01 0.  1.
          5    1    5    5  503    0  0.15532400359E+02  0.12784586808E+02  0.30023889700E+03  0.30094881026E+03  0.47000000000E+01 0. -1.
         -5    1    5    5    0  503 -0.14367474861E+02  0.36455562902E+02  0.15841082014E+02  0.42526018856E+02  0.47000000000E+01 0. -1.
<mgrwt>
<rscale>  0 0.27230297E+03</rscale>
<asrwt>0</asrwt>
<pdfrwt beam="1">  1        2 0.12108021E+00 0.27230297E+03</pdfrwt>
<pdfrwt beam="2">  1       -2 0.36236388E-02 0.27230297E+03</pdfrwt>
<totfact> 0.11511187E+04</totfact>
</mgrwt>
</event>
<event>
 9    1  0.8186049E-001  0.2750648E+03  0.7818608E-02  0.1098415E+00
          2   -1    0    0  501    0  0.00000000000E+00  0.00000000000E+00  0.27124505853E+04  0.27124505853E+04  0.00000000000E+00 0. -1.
         -2   -1    0    0    0  501 -0.00000000000E+00 -0.00000000000E+00 -0.69734583279E+01  0.69734583279E+01  0.00000000000E+00 0. -1.
         35    2    1    2    0    0  0.35527136788E-14  0.71054273576E-14  0.27054771270E+04  0.27194240437E+04  0.27506480053E+03 0.  0.
         25    2    3    3    0    0 -0.26473606856E+02  0.14792523186E+02  0.87483527878E+03  0.88427935991E+03  0.12527390298E+03 0.  0.
         25    2    3    3    0    0  0.26473606856E+02 -0.14792523186E+02  0.18306418482E+04  0.18351446838E+04  0.12484695916E+03 0.  0.
          5    1    4    4  502    0  0.28476495117E+02  0.47994603430E+02  0.25319402705E+03  0.25931389871E+03  0.47000000000E+01 0.  1.
         -5    1    4    4    0  502 -0.54950101973E+02 -0.33202080244E+02  0.62164125173E+03  0.62496546120E+03  0.47000000000E+01 0.  1.
          5    1    5    5  503    0 -0.29588788176E+02  0.39105304031E+02  0.84041628287E+03  0.84185885973E+03  0.47000000000E+01 0.  1.
         -5    1    5    5    0  503  0.56062395032E+02 -0.53897827216E+02  0.99022556536E+03  0.99328582403E+03  0.47000000000E+01 0.  1.
<mgrwt>
<rscale>  0 0.27506480E+03</rscale>
<asrwt>0</asrwt>
<pdfrwt beam="1">  1        2 0.41729925E+00 0.27506480E+03</pdfrwt>
<pdfrwt beam="2">  1       -2 0.10728419E-02 0.27506480E+03</pdfrwt>
<totfact> 0.58808970E+03</totfact>
</mgrwt>
</event>
<event>
 9    1  0.8186049E-001  0.2756867E+03  0.7818608E-02  0.1098068E+00
          1   -1    0    0  501    0  0.00000000000E+00  0.00000000000E+00  0.20789349680E+02  0.20789349680E+02  0.00000000000E+00 0.  1.
         -1   -1    0    0    0  501 -0.00000000000E+00 -0.00000000000E+00 -0.91396734905E+03  0.91396734905E+03  0.00000000000E+00 0.  1.
         35    2    1    2    0    0  0.71054273576E-14  0.35527136788E-14 -0.89317799937E+03  0.93475669873E+03  0.27568668314E+03 0.  0.
         25    2    3    3    0    0  0.45192467326E+02  0.18187966032E+02 -0.56142572486E+03  0.57731052276E+03  0.12536121386E+03 0.  0.
         25    2    3    3    0    0 -0.45192467326E+02 -0.18187966032E+02 -0.33175227451E+03  0.35744617597E+03  0.12383471187E+03 0.  0.
          5    1    4    4  502    0 -0.65214997956E+01 -0.45940585442E+02 -0.13119616201E+03  0.13923932733E+03  0.47000000000E+01 0.  1.
         -5    1    4    4    0  502  0.51713967121E+02  0.64128551474E+02 -0.43022956285E+03  0.43807119542E+03  0.47000000000E+01 0.  1.
          5    1    5    5  503    0 -0.68138155290E+02 -0.49736952720E+02 -0.27998473439E+03  0.29245531994E+03  0.47000000000E+01 0. -1.
         -5    1    5    5    0  503  0.22945687965E+02  0.31548986688E+02 -0.51767540122E+02  0.64990856030E+02  0.47000000000E+01 0. -1.
<mgrwt>
<rscale>  0 0.27568668E+03</rscale>
<asrwt>0</asrwt>
<pdfrwt beam="1">  1        1 0.31983610E-02 0.27568668E+03</pdfrwt>
<pdfrwt beam="2">  1       -1 0.14061038E+00 0.27568668E+03</pdfrwt>
<totfact> 0.13918195E+03</totfact>
</mgrwt>
</event>
<event>
 9    1  0.8186049E-001  0.2752024E+03  0.7818608E-02  0.1098339E+00
         -1   -1    0    0    0  501 -0.00000000000E+00  0.00000000000E+00  0.34353360259E+02  0.34353360259E+02  0.00000000000E+00 0. -1.
          1   -1    0    0  501    0  0.00000000000E+00 -0.00000000000E+00 -0.55115685614E+03  0.55115685614E+03  0.00000000000E+00 0. -1.
         35    2    1    2    0    0  0.00000000000E+00 -0.17763568394E-14 -0.51680349588E+03  0.58551021640E+03  0.27520239852E+03 0.  0.
         25    2    3    3    0    0  0.30881371551E+02 -0.13526034088E+02 -0.16069457280E+03  0.20642155489E+03  0.12510195797E+03 0.  0.
         25    2    3    3    0    0 -0.30881371551E+02  0.13526034088E+02 -0.35610892308E+03  0.37908866151E+03  0.12553101402E+03 0.  0.
          5    1    4    4  502    0  0.78659144927E+02  0.33831837028E+00 -0.86988433416E+02  0.11737313614E+03  0.47000000000E+01 0.  1.
         -5    1    4    4    0  502 -0.47777773376E+02 -0.13864352458E+02 -0.73706139383E+02  0.89048418743E+02  0.47000000000E+01 0.  1.
          5    1    5    5  503    0 -0.25403954586E+02 -0.52502766859E+02 -0.21982839597E+03  0.22748299961E+03  0.47000000000E+01 0. -1.
         -5    1    5    5    0  503 -0.54774169648E+01  0.66028800947E+02 -0.13628052711E+03  0.15160566190E+03  0.47000000000E+01 0. -1.
<mgrwt>
<rscale>  0 0.27520240E+03</rscale>
<asrwt>0</asrwt>
<pdfrwt beam="1">  1        1 0.84793368E-01 0.27520240E+03</pdfrwt>
<pdfrwt beam="2">  1       -1 0.52851320E-02 0.27520240E+03</pdfrwt>
<totfact> 0.63783939E+03</totfact>
</mgrwt>
</event>
<event>
 9    1  0.8186049E-001  0.2798408E+03  0.7818608E-02  0.1095776E+00
         -3   -1    0    0    0  501 -0.00000000000E+00  0.00000000000E+00  0.56216684817E+02  0.56216684817E+02  0.00000000000E+00 0. -1.
          3   -1    0    0  501    0  0.00000000000E+00 -0.00000000000E+00 -0.34825448992E+03  0.34825448992E+03  0.00000000000E+00 0. -1.
         35    2    1    2    0    0  0.00000000000E+00  0.71054273576E-14 -0.29203780510E+03  0.40447117473E+03  0.27984076112E+03 0.  0.
         25    2    3    3    0    0  0.55291633136E+02  0.23529638224E+02 -0.11908126549E+03  0.18280507558E+03  0.12500615703E+03 0.  0.
         25    2    3    3    0    0 -0.55291633136E+02 -0.23529638224E+02 -0.17295653961E+03  0.22166609915E+03  0.12494433301E+03 0.  0.
          5    1    4    4  502    0 -0.29841562330E+02 -0.86368311863E+01 -0.75529602397E+02  0.81804184083E+02  0.47000000000E+01 0. -1.
         -5    1    4    4    0  502  0.85133195466E+02  0.32166469410E+02 -0.43551663094E+02  0.10100089150E+03  0.47000000000E+01 0. -1.
          5    1    5    5  503    0 -0.15627887519E+02  0.50769207865E+02 -0.79958289249E+02  0.96110152197E+02  0.47000000000E+01 0.  1.
         -5    1    5    5    0  503 -0.39663745617E+02 -0.74298846089E+02 -0.92998250358E+02  0.12555594696E+03  0.47000000000E+01 0.  1.
<mgrwt>
<rscale>  0 0.27984076E+03</rscale>
<asrwt>0</asrwt>
<pdfrwt beam="1">  1        3 0.53577612E-01 0.27984076E+03</pdfrwt>
<pdfrwt beam="2">  1       -3 0.86487210E-02 0.27984076E+03</pdfrwt>
<totfact> 0.83057249E+02</totfact>
</mgrwt>
</event>
<event>
 9    1  0.8186049E-001  0.2787829E+03  0.7818608E-02  0.1096356E+00
         -1   -1    0    0    0  501 -0.00000000000E+00  0.00000000000E+00  0.10310452655E+02  0.10310452655E+02  0.00000000000E+00 0. -1.
          1   -1    0    0  501    0  0.00000000000E+00 -0.00000000000E+00 -0.18844924599E+04  0.18844924599E+04  0.00000000000E+00 0. -1.
         35    2    1    2    0    0  0.35527136788E-14  0.00000000000E+00 -0.18741820072E+04  0.18948029125E+04  0.27878285662E+03 0.  0.
         25    2    3    3    0    0 -0.75853297774E+00 -0.31110890924E+02 -0.13042290571E+04  0.13105377291E+04  0.12460835901E+03 0.  0.
         25    2    3    3    0    0  0.75853297774E+00  0.31110890924E+02 -0.56995295016E+03  0.58426518346E+03  0.12470355367E+03 0.  0.
          5    1    4    4  502    0  0.22577278995E+02 -0.27968251624E+02 -0.10523770952E+03  0.11130598425E+03  0.47000000000E+01 0.  1.
         -5    1    4    4    0  502 -0.23335811973E+02 -0.31426392999E+01 -0.11989913475E+04  0.11992317448E+04  0.47000000000E+01 0.  1.
          5    1    5    5  503    0 -0.20221000189E+02  0.42508432321E+02 -0.55200498044E+03  0.55402837842E+03  0.47000000000E+01 0.  1.
         -5    1    5    5    0  503  0.20979533167E+02 -0.11397541397E+02 -0.17947969726E+02  0.30236805041E+02  0.47000000000E+01 0.  1.
<mgrwt>
<rscale>  0 0.27878286E+03</rscale>
<asrwt>0</asrwt>
<pdfrwt beam="1">  1        1 0.28992173E+00 0.27878286E+03</pdfrwt>
<pdfrwt beam="2">  1       -1 0.15862245E-02 0.27878286E+03</pdfrwt>
<totfact> 0.38577937E+03</totfact>
</mgrwt>
</event>
<event>
 9    1  0.8186049E-001  0.2755004E+03  0.7818608E-02  0.1098172E+00
         -2   -1    0    0    0  501 -0.00000000000E+00  0.00000000000E+00  0.21105263835E+03  0.21105263835E+03  0.00000000000E+00 0.  1.
          2   -1    0    0  501    0  0.00000000000E+00 -0.00000000000E+00 -0.89907068971E+02  0.89907068971E+02  0.00000000000E+00 0.  1.
         35    2    1    2    0    0  0.35527136788E-14  0.00000000000E+00  0.12114556938E+03  0.30095970732E+03  0.27550044728E+03 0.  0.
         25    2    3    3    0    0  0.31528115554E+02  0.33941693664E+02  0.13139351436E+02  0.13419274921E+03  0.12525570144E+03 0.  0.
         25    2    3    3    0    0 -0.31528115554E+02 -0.33941693664E+02  0.10800621795E+03  0.16676695812E+03  0.11832081205E+03 0.  0.
          5    1    4    4  502    0  0.39227710339E+02 -0.34711668613E+02 -0.21442258447E+02  0.56794133884E+02  0.47000000000E+01 0.  1.
         -5    1    4    4    0  502 -0.76995947844E+01  0.68653362277E+02  0.34581609883E+02  0.77398615323E+02  0.47000000000E+01 0.  1.
          5    1    5    5  503    0 -0.55711515650E+02  0.18270212945E+02  0.21214484498E+02  0.62527737921E+02  0.47000000000E+01 0. -1.
         -5    1    5    5    0  503  0.24183400095E+02 -0.52211906608E+02  0.86791733448E+02  0.10423922019E+03  0.47000000000E+01 0. -1.
<mgrwt>
<rscale>  0 0.27550045E+03</rscale>
<asrwt>0</asrwt>
<pdfrwt beam="1">  1        2 0.13831857E-01 0.27550045E+03</pdfrwt>
<pdfrwt beam="2">  1       -2 0.32469636E-01 0.27550045E+03</pdfrwt>
<totfact> 0.37777664E+03</totfact>
</mgrwt>
</event>
<event>
 9    1  0.8186049E-001  0.2752763E+03  0.7818608E-02  0.1098297E+00
          2   -1    0    0  501    0  0.00000000000E+00  0.00000000000E+00  0.97595572815E+02  0.97595572815E+02  0.00000000000E+00 0.  1.
         -2   -1    0    0    0  501 -0.00000000000E+00 -0.00000000000E+00 -0.19410988494E+03  0.19410988494E+03  0.00000000000E+00 0.  1.
         35    2    1    2    0    0  0.00000000000E+00  0.71054273576E-14 -0.96514312124E+02  0.29170545775E+03  0.27527633687E+03 0.  0.
         25    2    3    3    0    0  0.13305717230E+02  0.35499217978E+02 -0.56686965388E+01  0.13083318921E+03  0.12509177707E+03 0.  0.
         25    2    3    3    0    0 -0.13305717230E+02 -0.35499217978E+02 -0.90845615585E+02  0.16087226855E+03  0.12723884756E+03 0.  0.
          5    1    4    4  502    0 -0.39041671057E+02  0.45122515414E+02 -0.35549036851E+02  0.69614061060E+02  0.47000000000E+01 0. -1.
         -5    1    4    4    0  502  0.52347388287E+02 -0.96232974356E+01  0.29880340312E+02  0.61219128148E+02  0.47000000000E+01 0. -1.
          5    1    5    5  503    0  0.28817501175E+02  0.19278415221E+02  0.11904679744E+02  0.36958315264E+02  0.47000000000E+01 0. -1.
         -5    1    5    5    0  503 -0.42123218404E+02 -0.54777633199E+02 -0.10275029533E+03  0.12391395328E+03  0.47000000000E+01 0. -1.
<mgrwt>
<rscale>  0 0.27527634E+03</rscale>
<asrwt>0</asrwt>
<pdfrwt beam="1">  1        2 0.15014704E-01 0.27527634E+03</pdfrwt>
<pdfrwt beam="2">  1       -2 0.29863059E-01 0.27527634E+03</pdfrwt>
<totfact> 0.39920130E+03</totfact>
</mgrwt>
</event>
<event>
 9    1  0.8186049E-001  0.2716682E+03  0.7818608E-02  0.1100329E+00
          2   -1    0    0  501    0  0.00000000000E+00  0.00000000000E+00  0.59178435312E+03  0.59178435312E+03  0.00000000000E+00 0.  1.
         -2   -1    0    0    0  501 -0.00000000000E+00 -0.00000000000E+00 -0.31178423942E+02  0.31178423942E+02  0.00000000000E+00 0.  1.
         35    2    1    2    0    0  0.71054273576E-14 -0.17763568394E-14  0.56060592918E+03  0.62296277706E+03  0.27166820531E+03 0.  0.
         25    2    3    3    0    0  0.46154149086E+02  0.13012383117E+02  0.23672924925E+03  0.27203760704E+03  0.12515668020E+03 0.  0.
         25    2    3    3    0    0 -0.46154149086E+02 -0.13012383117E+02  0.32387667992E+03  0.35092517002E+03  0.12630456669E+03 0.  0.
          5    1    4    4  502    0 -0.76007439658E+01 -0.25099450832E+02  0.39701780078E+00  0.26645850784E+02  0.47000000000E+01 0.  1.
         -5    1    4    4    0  502  0.53754893051E+02  0.38111833949E+02  0.23633223145E+03  0.24539175625E+03  0.47000000000E+01 0.  1.
          5    1    5    5  503    0 -0.14653469633E+02 -0.24270978513E+01 -0.78914969232E+01  0.17463696629E+02  0.47000000000E+01 0.  1.
         -5    1    5    5    0  503 -0.31500679452E+02 -0.10585285266E+02  0.33176817685E+03  0.33346147339E+03  0.47000000000E+01 0.  1.
<mgrwt>
<rscale>  0 0.27166821E+03</rscale>
<asrwt>0</asrwt>
<pdfrwt beam="1">  1        2 0.91043738E-01 0.27166821E+03</pdfrwt>
<pdfrwt beam="2">  1       -2 0.47966811E-02 0.27166821E+03</pdfrwt>
<totfact> 0.10638441E+04</totfact>
</mgrwt>
</event>
<event>
 9    1  0.8186049E-001  0.2750966E+03  0.7818608E-02  0.1098398E+00
         -1   -1    0    0    0  501 -0.00000000000E+00  0.00000000000E+00  0.31077196773E+02  0.31077196773E+02  0.00000000000E+00 0. -1.
          1   -1    0    0  501    0  0.00000000000E+00 -0.00000000000E+00 -0.60879171101E+03  0.60879171101E+03  0.00000000000E+00 0. -1.
         35    2    1    2    0    0 -0.71054273576E-14 -0.71054273576E-14 -0.57771451424E+03  0.63986890779E+03  0.27509663609E+03 0.  0.
         25    2    3    3    0    0 -0.29522948747E+02  0.37433306205E+02 -0.36615241806E+03  0.38965643562E+03  0.12446560831E+03 0.  0.
         25    2    3    3    0    0  0.29522948747E+02 -0.37433306205E+02 -0.21156209618E+03  0.25021247217E+03  0.12479945421E+03 0.  0.
          5    1    4    4  502    0 -0.36121842981E+02 -0.26785729060E+02 -0.52014499752E+02  0.68919235386E+02  0.47000000000E+01 0.  1.
         -5    1    4    4    0  502  0.65988942346E+01  0.64219035265E+02 -0.31413791831E+03  0.32073720024E+03  0.47000000000E+01 0.  1.
          5    1    5    5  503    0 -0.32389726317E+01 -0.13534278208E+02  0.14413290010E+02  0.20579129214E+02  0.47000000000E+01 0.  1.
         -5    1    5    5    0  503  0.32761921378E+02 -0.23899027997E+02 -0.22597538619E+03  0.22963334295E+03  0.47000000000E+01 0.  1.
<mgrwt>
<rscale>  0 0.27509664E+03</rscale>
<asrwt>0</asrwt>
<pdfrwt beam="1">  1        1 0.93660259E-01 0.27509664E+03</pdfrwt>
<pdfrwt beam="2">  1       -1 0.47811074E-02 0.27509664E+03</pdfrwt>
<totfact> 0.64640409E+03</totfact>
</mgrwt>
</event>
<event>
 9    1  0.8186049E-001  0.2756938E+03  0.7818608E-02  0.1098064E+00
         -1   -1    0    0    0  501 -0.00000000000E+00  0.00000000000E+00  0.15829494057E+03  0.15829494057E+03  0.00000000000E+00 0.  1.
          1   -1    0    0  501    0  0.00000000000E+00 -0.00000000000E+00 -0.12004030454E+03  0.12004030454E+03  0.00000000000E+00 0.  1.
         35    2    1    2    0    0  0.00000000000E+00  0.00000000000E+00  0.38254636025E+02  0.27833524511E+03  0.27569383651E+03 0.  0.
         25    2    3    3    0    0  0.14298293859E+02 -0.55299306237E+02  0.44697294447E+01  0.13654827318E+03  0.12394756129E+03 0.  0.
         25    2    3    3    0    0 -0.14298293859E+02  0.55299306237E+02  0.33784906581E+02  0.14178697193E+03  0.12529832807E+03 0.  0.
          5    1    4    4  502    0 -0.49352785317E+02 -0.15072952892E+02 -0.22415720883E+02  0.56457469569E+02  0.47000000000E+01 0. -1.
         -5    1    4    4    0  502  0.63651079176E+02 -0.40226353345E+02  0.26885450327E+02  0.80090803611E+02  0.47000000000E+01 0. -1.
          5    1    5    5  503    0  0.39328330934E+02  0.34345033065E+02 -0.26115867653E+02  0.58569851064E+02  0.47000000000E+01 0. -1.
         -5    1    5    5    0  503 -0.53626624793E+02  0.20954273171E+02  0.59900774234E+02  0.83217120863E+02  0.47000000000E+01 0. -1.
<mgrwt>
<rscale>  0 0.27569384E+03</rscale>
<asrwt>0</asrwt>
<pdfrwt beam="1">  1        1 0.18467739E-01 0.27569384E+03</pdfrwt>
<pdfrwt beam="2">  1       -1 0.24353068E-01 0.27569384E+03</pdfrwt>
<totfact> 0.40987032E+03</totfact>
</mgrwt>
</event>
<event>
 9    1  0.8186049E-001  0.2725683E+03  0.7818608E-02  0.1099819E+00
          4   -1    0    0  501    0  0.00000000000E+00  0.00000000000E+00  0.21625147104E+03  0.21625147104E+03  0.00000000000E+00 0.  1.
         -4   -1    0    0    0  501 -0.00000000000E+00 -0.00000000000E+00 -0.85887855042E+02  0.85887855042E+02  0.00000000000E+00 0.  1.
         35    2    1    2    0    0  0.71054273576E-14  0.71054273576E-14  0.13036361600E+03  0.30213932609E+03  0.27256834004E+03 0.  0.
         25    2    3    3    0    0 -0.28392802460E+02  0.40043441561E+02  0.40075880456E+02  0.13953758642E+03  0.12431827455E+03 0.  0.
         25    2    3    3    0    0  0.28392802460E+02 -0.40043441561E+02  0.90287735545E+02  0.16260173966E+03  0.12600723038E+03 0.  0.
          5    1    4    4  502    0 -0.69184483020E+02 -0.86572936816E+01  0.23306609532E+02  0.73666338802E+02  0.47000000000E+01 0.  1.
         -5    1    4    4    0  502  0.40791680559E+02  0.48700735242E+02  0.16769270924E+02  0.65871247623E+02  0.47000000000E+01 0.  1.
          5    1    5    5  503    0 -0.10239544873E+02 -0.56988087783E+02  0.10303516822E+03  0.11828282343E+03  0.47000000000E+01 0.  1.
         -5    1    5    5    0  503  0.38632347333E+02  0.16944646222E+02 -0.12747432676E+02  0.44318916231E+02  0.47000000000E+01 0.  1.
<mgrwt>
<rscale>  0 0.27256834E+03</rscale>
<asrwt>0</asrwt>
<pdfrwt beam="1">  1        4 0.33269457E-01 0.27256834E+03</pdfrwt>
<pdfrwt beam="2">  1       -4 0.13213516E-01 0.27256834E+03</pdfrwt>
<totfact> 0.76835307E+02</totfact>
</mgrwt>
</event>
<event>
 9    1  0.8186049E-001  0.2769270E+03  0.7818608E-02  0.1097379E+00
         -3   -1    0    0    0  501 -0.00000000000E+00  0.00000000000E+00  0.25608573097E+03  0.25608573097E+03  0.00000000000E+00 0.  1.
          3   -1    0    0  501    0  0.00000000000E+00 -0.00000000000E+00 -0.74866077441E+02  0.74866077441E+02  0.00000000000E+00 0.  1.
         35    2    1    2    0    0  0.00000000000E+00  0.14210854715E-13  0.18121965353E+03  0.33095180841E+03  0.27692695186E+03 0.  0.
         25    2    3    3    0    0 -0.94612491285E+01  0.56679602042E+02  0.73939066598E+02  0.15672796787E+03  0.12567648078E+03 0.  0.
         25    2    3    3    0    0  0.94612491285E+01 -0.56679602042E+02  0.10728058693E+03  0.17422384054E+03  0.12467048471E+03 0.  0.
          5    1    4    4  502    0  0.42626954603E+02  0.71781196108E+02  0.41346732403E+02  0.93280435536E+02  0.47000000000E+01 0. -1.
         -5    1    4    4    0  502 -0.52088203731E+02 -0.15101594066E+02  0.32592334195E+02  0.63447532336E+02  0.47000000000E+01 0. -1.
          5    1    5    5  503    0 -0.25592502145E+02 -0.82906221102E+02  0.44731075399E+02  0.97731145342E+02  0.47000000000E+01 0.  1.
         -5    1    5    5    0  503  0.35053751274E+02  0.26226619060E+02  0.62549511531E+02  0.76492695197E+02  0.47000000000E+01 0.  1.
<mgrwt>
<rscale>  0 0.27692695E+03</rscale>
<asrwt>0</asrwt>
<pdfrwt beam="1">  1        3 0.11517858E-01 0.27692695E+03</pdfrwt>
<pdfrwt beam="2">  1       -3 0.39397804E-01 0.27692695E+03</pdfrwt>
<totfact> 0.94757443E+02</totfact>
</mgrwt>
</event>
<event>
 9    1  0.8186049E-001  0.2839825E+03  0.7818608E-02  0.1093533E+00
          2   -1    0    0  501    0  0.00000000000E+00  0.00000000000E+00  0.10672074142E+04  0.10672074142E+04  0.00000000000E+00 0. -1.
         -2   -1    0    0    0  501 -0.00000000000E+00 -0.00000000000E+00 -0.18891848647E+02  0.18891848647E+02  0.00000000000E+00 0. -1.
         35    2    1    2    0    0  0.71054273576E-14 -0.71054273576E-14  0.10483155655E+04  0.10860992628E+04  0.28398254132E+03 0.  0.
         25    2    3    3    0    0 -0.44082157762E+02  0.37592593439E+02  0.64997198800E+03  0.66473175015E+03  0.12668178545E+03 0.  0.
         25    2    3    3    0    0  0.44082157762E+02 -0.37592593439E+02  0.39834357752E+03  0.42136751266E+03  0.12456538548E+03 0.  0.
          5    1    4    4  502    0 -0.20287606696E+02  0.58631334640E+02  0.13376918781E+03  0.14753137292E+03  0.47000000000E+01 0. -1.
         -5    1    4    4    0  502 -0.23794551066E+02 -0.21038741201E+02  0.51620280018E+03  0.51720037723E+03  0.47000000000E+01 0. -1.
          5    1    5    5  503    0  0.62309947645E+02  0.50743590314E+01  0.34440298083E+03  0.35006253998E+03  0.47000000000E+01 0.  1.
         -5    1    5    5    0  503 -0.18227789883E+02 -0.42666952471E+02  0.53940596690E+02  0.71304972677E+02  0.47000000000E+01 0.  1.
<mgrwt>
<rscale>  0 0.28398254E+03</rscale>
<asrwt>0</asrwt>
<pdfrwt beam="1">  1        2 0.16418571E+00 0.28398254E+03</pdfrwt>
<pdfrwt beam="2">  1       -2 0.29064391E-02 0.28398254E+03</pdfrwt>
<totfact> 0.10603503E+04</totfact>
</mgrwt>
</event>
<event>
 9    1  0.8186049E-001  0.2702975E+03  0.7818608E-02  0.1101109E+00
          1   -1    0    0  501    0  0.00000000000E+00  0.00000000000E+00  0.13594199577E+04  0.13594199577E+04  0.00000000000E+00 0. -1.
         -1   -1    0    0    0  501 -0.00000000000E+00 -0.00000000000E+00 -0.13436017882E+02  0.13436017882E+02  0.00000000000E+00 0. -1.
         35    2    1    2    0    0 -0.14210854715E-13  0.00000000000E+00  0.13459839399E+04  0.13728559756E+04  0.27029754613E+03 0.  0.
         25    2    3    3    0    0  0.38711606019E+02 -0.24240434900E+02  0.52220248480E+03  0.53816042649E+03  0.12179910666E+03 0.  0.
         25    2    3    3    0    0 -0.38711606019E+02  0.24240434900E+02  0.82378145506E+03  0.83469554913E+03  0.12654875313E+03 0.  0.
          5    1    4    4  502    0  0.72620999759E+02  0.15446459112E+02  0.36325567667E+03  0.37079533349E+03  0.47000000000E+01 0.  1.
         -5    1    4    4    0  502 -0.33909393740E+02 -0.39686894012E+02  0.15894680814E+03  0.16736509301E+03  0.47000000000E+01 0.  1.
          5    1    5    5  503    0  0.16866317934E+02 -0.42596932976E+02  0.34553406137E+03  0.34858980040E+03  0.47000000000E+01 0.  1.
         -5    1    5    5    0  503 -0.55577923953E+02  0.66837367876E+02  0.47824739369E+03  0.48610574873E+03  0.47000000000E+01 0.  1.
<mgrwt>
<rscale>  0 0.27029755E+03</rscale>
<asrwt>0</asrwt>
<pdfrwt beam="1">  1        1 0.20914142E+00 0.27029755E+03</pdfrwt>
<pdfrwt beam="2">  1       -1 0.20670808E-02 0.27029755E+03</pdfrwt>
<totfact> 0.58057053E+03</totfact>
</mgrwt>
</event>
<event>
 9    1  0.8186049E-001  0.2713372E+03  0.7818608E-02  0.1100517E+00
         -1   -1    0    0    0  501 -0.00000000000E+00  0.00000000000E+00  0.10875252888E+03  0.10875252888E+03  0.00000000000E+00 0.  1.
          1   -1    0    0  501    0  0.00000000000E+00 -0.00000000000E+00 -0.16924640501E+03  0.16924640501E+03  0.00000000000E+00 0.  1.
         35    2    1    2    0    0  0.14210854715E-13 -0.71054273576E-14 -0.60493876132E+02  0.27799893389E+03  0.27133724071E+03 0.  0.
         25    2    3    3    0    0 -0.50871679709E+02  0.15950031838E+02 -0.38605293470E+02  0.14042591105E+03  0.12404328478E+03 0.  0.
         25    2    3    3    0    0  0.50871679709E+02 -0.15950031838E+02 -0.21888582662E+02  0.13757302284E+03  0.12491955512E+03 0.  0.
          5    1    4    4  502    0  0.23533956699E+02  0.33083191867E+02  0.18600525836E+02  0.44904501594E+02  0.47000000000E+01 0. -1.
         -5    1    4    4    0  502 -0.74405636407E+02 -0.17133160029E+02 -0.57205819307E+02  0.95521409455E+02  0.47000000000E+01 0. -1.
          5    1    5    5  503    0 -0.15495681994E+02  0.31297665588E+02 -0.40694364031E+02  0.53831043977E+02  0.47000000000E+01 0. -1.
         -5    1    5    5    0  503  0.66367361702E+02 -0.47247697426E+02  0.18805781370E+02  0.83741978866E+02  0.47000000000E+01 0. -1.
<mgrwt>
<rscale>  0 0.27133724E+03</rscale>
<asrwt>0</asrwt>
<pdfrwt beam="1">  1        1 0.26037908E-01 0.27133724E+03</pdfrwt>
<pdfrwt beam="2">  1       -1 0.16731158E-01 0.27133724E+03</pdfrwt>
<totfact> 0.48589389E+03</totfact>
</mgrwt>
</event>
<event>
 9    1  0.8186049E-001  0.2732979E+03  0.7818608E-02  0.1099407E+00
         -2   -1    0    0    0  501 -0.00000000000E+00  0.00000000000E+00  0.81777709935E+02  0.81777709935E+02  0.00000000000E+00 0.  1.
          2   -1    0    0  501    0  0.00000000000E+00 -0.00000000000E+00 -0.22833775120E+03  0.22833775120E+03  0.00000000000E+00 0.  1.
         35    2    1    2    0    0  0.71054273576E-14 -0.35527136788E-14 -0.14656004126E+03  0.31011546113E+03  0.27329792084E+03 0.  0.
         25    2    3    3    0    0  0.37180063034E+02  0.13255619837E+02 -0.13106273037E+03  0.18537606345E+03  0.12501510733E+03 0.  0.
         25    2    3    3    0    0 -0.37180063034E+02 -0.13255619837E+02 -0.15497310888E+02  0.12473939768E+03  0.11731019626E+03 0.  0.
          5    1    4    4  502    0 -0.36157797712E+02  0.37265897105E+02 -0.38716070932E+02  0.64939645601E+02  0.47000000000E+01 0. -1.
         -5    1    4    4    0  502  0.73337860746E+02 -0.24010277268E+02 -0.92346659442E+02  0.12043641785E+03  0.47000000000E+01 0. -1.
          5    1    5    5  503    0 -0.26330920830E+01  0.39007670437E+02 -0.41079907470E+02  0.56905011419E+02  0.47000000000E+01 0.  1.
         -5    1    5    5    0  503 -0.34546970951E+02 -0.52263290274E+02  0.25582596582E+02  0.67834386266E+02  0.47000000000E+01 0.  1.
<mgrwt>
<rscale>  0 0.27329792E+03</rscale>
<asrwt>0</asrwt>
<pdfrwt beam="1">  1        2 0.35128885E-01 0.27329792E+03</pdfrwt>
<pdfrwt beam="2">  1       -2 0.12581186E-01 0.27329792E+03</pdfrwt>
<totfact> 0.66877641E+03</totfact>
</mgrwt>
</event>
<event>
 9    1  0.8186049E-001  0.2742875E+03  0.7818608E-02  0.1098851E+00
         -2   -1    0    0    0  501 -0.00000000000E+00  0.00000000000E+00  0.99742113831E+01  0.99742113831E+01  0.00000000000E+00 0.  1.
          2   -1    0    0  501    0  0.00000000000E+00 -0.00000000000E+00 -0.18857042447E+04  0.18857042447E+04  0.00000000000E+00 0.  1.
         35    2    1    2    0    0  0.71054273576E-14  0.00000000000E+00 -0.18757300333E+04  0.18956784560E+04  0.27428753338E+03 0.  0.
         25    2    3    3    0    0 -0.16689077854E+02 -0.36382984091E+02 -0.62170871737E+03  0.63494666217E+03  0.12261030831E+03 0.  0.
         25    2    3    3    0    0  0.16689077854E+02  0.36382984091E+02 -0.12540213159E+04  0.12607317939E+04  0.12358377104E+03 0.  0.
          5    1    4    4  502    0  0.91985182826E+01  0.36215815165E+01  0.44303999257E+00  0.10955130109E+02  0.47000000000E+01 0.  1.
         -5    1    4    4    0  502 -0.25887596137E+02 -0.40004565607E+02 -0.62215175736E+03  0.62399153206E+03  0.47000000000E+01 0.  1.
          5    1    5    5  503    0  0.61612928979E+02 -0.86297959349E+01 -0.77081096574E+03  0.77333192181E+03  0.47000000000E+01 0.  1.
         -5    1    5    5    0  503 -0.44923851125E+02  0.45012780026E+02 -0.48321035017E+03  0.48739987206E+03  0.47000000000E+01 0.  1.
<mgrwt>
<rscale>  0 0.27428753E+03</rscale>
<asrwt>0</asrwt>
<pdfrwt beam="1">  1        2 0.29010826E+00 0.27428753E+03</pdfrwt>
<pdfrwt beam="2">  1       -2 0.15344945E-02 0.27428753E+03</pdfrwt>
<totfact> 0.97358218E+03</totfact>
</mgrwt>
</event>
<event>
 9    1  0.8186049E-001  0.2768717E+03  0.7818608E-02  0.1097410E+00
         -1   -1    0    0    0  501 -0.00000000000E+00  0.00000000000E+00  0.53859656841E+02  0.53859656841E+02  0.00000000000E+00 0.  1.
          1   -1    0    0  501    0  0.00000000000E+00 -0.00000000000E+00 -0.35582270269E+03  0.35582270269E+03  0.00000000000E+00 0.  1.
         35    2    1    2    0    0  0.00000000000E+00  0.14210854715E-13 -0.30196304585E+03  0.40968235953E+03  0.27687172960E+03 0.  0.
         25    2    3    3    0    0  0.36173258280E+02 -0.41848979970E+02 -0.19034296895E+03  0.23381757016E+03  0.12401761386E+03 0.  0.
         25    2    3    3    0    0 -0.36173258280E+02  0.41848979970E+02 -0.11162007689E+03  0.17586478937E+03  0.12413517163E+03 0.  0.
          5    1    4    4  502    0  0.76373415069E+02 -0.45465118332E+02 -0.95023864188E+02  0.13019831135E+03  0.47000000000E+01 0. -1.
         -5    1    4    4    0  502 -0.40200156789E+02  0.36161383619E+01 -0.95319104766E+02  0.10361925881E+03  0.47000000000E+01 0. -1.
          5    1    5    5  503    0 -0.38251391974E+02 -0.31294431717E+02 -0.10145016755E+02  0.50670719448E+02  0.47000000000E+01 0.  1.
         -5    1    5    5    0  503  0.20781336937E+01  0.73143411687E+02 -0.10147506014E+03  0.12519406992E+03  0.47000000000E+01 0.  1.
<mgrwt>
<rscale>  0 0.27687173E+03</rscale>
<asrwt>0</asrwt>
<pdfrwt beam="1">  1        1 0.54741956E-01 0.27687173E+03</pdfrwt>
<pdfrwt beam="2">  1       -1 0.82861008E-02 0.27687173E+03</pdfrwt>
<totfact> 0.57138244E+03</totfact>
</mgrwt>
</event>
<event>
 9    1  0.8186049E-001  0.2890847E+03  0.7818608E-02  0.1090828E+00
         -1   -1    0    0    0  501 -0.00000000000E+00  0.00000000000E+00  0.25456907726E+03  0.25456907726E+03  0.00000000000E+00 0. -1.
          1   -1    0    0  501    0  0.00000000000E+00 -0.00000000000E+00 -0.82070012822E+02  0.82070012822E+02  0.00000000000E+00 0. -1.
         35    2    1    2    0    0  0.00000000000E+00  0.14210854715E-13  0.17249906444E+03  0.33663909008E+03  0.28908467573E+03 0.  0.
         25    2    3    3    0    0 -0.51242498676E+02 -0.40852467085E+02  0.51767643655E+02  0.15119641523E+03  0.12603868180E+03 0.  0.
         25    2    3    3    0    0  0.51242498676E+02  0.40852467085E+02  0.12073142078E+03  0.18544267486E+03  0.12457203521E+03 0.  0.
          5    1    4    4  502    0 -0.37493194226E+02  0.27006160405E+02  0.65656356435E+02  0.80423376288E+02  0.47000000000E+01 0. -1.
         -5    1    4    4    0  502 -0.13749304450E+02 -0.67858627490E+02 -0.13888712781E+02  0.70773038937E+02  0.47000000000E+01 0. -1.
          5    1    5    5  503    0 -0.21632988466E+02 -0.27408997898E+02  0.56621167689E+02  0.66687974825E+02  0.47000000000E+01 0. -1.
         -5    1    5    5    0  503  0.72875487142E+02  0.68261464984E+02  0.64110253096E+02  0.11875470003E+03  0.47000000000E+01 0. -1.
<mgrwt>
<rscale>  0 0.28908468E+03</rscale>
<asrwt>0</asrwt>
<pdfrwt beam="1">  1        1 0.12626156E-01 0.28908468E+03</pdfrwt>
<pdfrwt beam="2">  1       -1 0.39164473E-01 0.28908468E+03</pdfrwt>
<totfact> 0.29979483E+03</totfact>
</mgrwt>
</event>
<event>
 9    1  0.8186049E-001  0.2770385E+03  0.7818608E-02  0.1097318E+00
          1   -1    0    0  501    0  0.00000000000E+00  0.00000000000E+00  0.48243564437E+03  0.48243564437E+03  0.00000000000E+00 0.  1.
         -1   -1    0    0    0  501 -0.00000000000E+00 -0.00000000000E+00 -0.39772322961E+02  0.39772322961E+02  0.00000000000E+00 0.  1.
         35    2    1    2    0    0  0.71054273576E-14  0.35527136788E-14  0.44266332140E+03  0.52220796733E+03  0.27703852624E+03 0.  0.
         25    2    3    3    0    0  0.30161177221E+02  0.14308192926E+02  0.31382183883E+03  0.33962895161E+03  0.12549604476E+03 0.  0.
         25    2    3    3    0    0 -0.30161177221E+02 -0.14308192926E+02  0.12884148257E+03  0.18257901571E+03  0.12498219214E+03 0.  0.
          5    1    4    4  502    0  0.22566652476E+02  0.58619731351E+02  0.81783221929E+02  0.10322844616E+03  0.47000000000E+01 0. -1.
         -5    1    4    4    0  502  0.75945247450E+01 -0.44311538425E+02  0.23203861690E+03  0.23640050545E+03  0.47000000000E+01 0. -1.
          5    1    5    5  503    0  0.48425376172E+02 -0.11931776959E+02  0.58067950029E+02  0.76690033116E+02  0.47000000000E+01 0. -1.
         -5    1    5    5    0  503 -0.78586553393E+02 -0.23764159666E+01  0.70773532544E+02  0.10588898260E+03  0.47000000000E+01 0. -1.
<mgrwt>
<rscale>  0 0.27703853E+03</rscale>
<asrwt>0</asrwt>
<pdfrwt beam="1">  1        1 0.74220864E-01 0.27703853E+03</pdfrwt>
<pdfrwt beam="2">  1       -1 0.61188193E-02 0.27703853E+03</pdfrwt>
<totfact> 0.61153599E+03</totfact>
</mgrwt>
</event>
<event>
 9    1  0.8186049E-001  0.2768449E+03  0.7818608E-02  0.1097425E+00
          3   -1    0    0  501    0  0.00000000000E+00  0.00000000000E+00  0.72188658047E+02  0.72188658047E+02  0.00000000000E+00 0.  1.
         -3   -1    0    0    0  501 -0.00000000000E+00 -0.00000000000E+00 -0.26542643646E+03  0.26542643646E+03  0.00000000000E+00 0.  1.
         35    2    1    2    0    0  0.00000000000E+00 -0.35527136788E-14 -0.19323777842E+03  0.33761509451E+03  0.27684492597E+03 0.  0.
         25    2    3    3    0    0 -0.49110843028E+02 -0.19509195260E+02 -0.89032935717E+02  0.16461455387E+03  0.12797892053E+03 0.  0.
         25    2    3    3    0    0  0.49110843028E+02  0.19509195260E+02 -0.10420484270E+03  0.17300054064E+03  0.12758547808E+03 0.  0.
          5    1    4    4  502    0  0.43505070829E+02 -0.12182918335E+02 -0.30278451786E+02  0.54589278522E+02  0.47000000000E+01 0. -1.
         -5    1    4    4    0  502 -0.92615913856E+02 -0.73262769256E+01 -0.58754483931E+02  0.11002527535E+03  0.47000000000E+01 0. -1.
          5    1    5    5  503    0  0.22131828402E+02  0.23950181507E+02  0.24678609841E+02  0.41164946330E+02  0.47000000000E+01 0. -1.
         -5    1    5    5    0  503  0.26979014626E+02 -0.44409862470E+01 -0.12888345254E+03  0.13183559431E+03  0.47000000000E+01 0. -1.
<mgrwt>
<rscale>  0 0.27684493E+03</rscale>
<asrwt>0</asrwt>
<pdfrwt beam="1">  1        3 0.11105948E-01 0.27684493E+03</pdfrwt>
<pdfrwt beam="2">  1       -3 0.40834835E-01 0.27684493E+03</pdfrwt>
<totfact> 0.93962300E+02</totfact>
</mgrwt>
</event>
<event>
 9    1  0.8186049E-001  0.2985040E+03  0.7818608E-02  0.1085991E+00
          2   -1    0    0  501    0  0.00000000000E+00  0.00000000000E+00  0.31613887622E+03  0.31613887622E+03  0.00000000000E+00 0. -1.
         -2   -1    0    0    0  501 -0.00000000000E+00 -0.00000000000E+00 -0.70463212187E+02  0.70463212187E+02  0.00000000000E+00 0. -1.
         35    2    1    2    0    0  0.71054273576E-14  0.00000000000E+00  0.24567566403E+03  0.38660208841E+03  0.29850400812E+03 0.  0.
         25    2    3    3    0    0  0.49333866746E+02 -0.63906704178E+02  0.12850151733E+03  0.19693415430E+03  0.12550905915E+03 0.  0.
         25    2    3    3    0    0 -0.49333866746E+02  0.63906704178E+02  0.11717414670E+03  0.18966793410E+03  0.12540433535E+03 0.  0.
          5    1    4    4  502    0 -0.21250143603E+02 -0.69744063453E+02  0.39372554146E+02  0.82994523976E+02  0.47000000000E+01 0.  1.
         -5    1    4    4    0  502  0.70584010350E+02  0.58373592751E+01  0.89128963188E+02  0.11393963033E+03  0.47000000000E+01 0.  1.
          5    1    5    5  503    0 -0.30880568607E+02  0.62695301688E+02  0.14201193488E+03  0.15834705561E+03  0.47000000000E+01 0. -1.
         -5    1    5    5    0  503 -0.18453298139E+02  0.12114024901E+01 -0.24837788179E+02  0.31320878497E+02  0.47000000000E+01 0. -1.
<mgrwt>
<rscale>  0 0.29850401E+03</rscale>
<asrwt>0</asrwt>
<pdfrwt beam="1">  1        2 0.48636749E-01 0.29850401E+03</pdfrwt>
<pdfrwt beam="2">  1       -2 0.10840494E-01 0.29850401E+03</pdfrwt>
<totfact> 0.60017602E+03</totfact>
</mgrwt>
</event>
<event>
 9    1  0.8186049E-001  0.2691860E+03  0.7818608E-02  0.1101746E+00
          2   -1    0    0  501    0  0.00000000000E+00  0.00000000000E+00  0.16146952797E+02  0.16146952797E+02  0.00000000000E+00 0.  1.
         -2   -1    0    0    0  501 -0.00000000000E+00 -0.00000000000E+00 -0.11219003145E+04  0.11219003145E+04  0.00000000000E+00 0.  1.
         35    2    1    2    0    0  0.00000000000E+00  0.00000000000E+00 -0.11057533617E+04  0.11380472673E+04  0.26918596859E+03 0.  0.
         25    2    3    3    0    0 -0.33767693853E+02 -0.13298634365E+02 -0.71919050905E+03  0.73088058830E+03  0.12503733536E+03 0.  0.
         25    2    3    3    0    0  0.33767693853E+02  0.13298634365E+02 -0.38656285263E+03  0.40716667897E+03  0.12262444537E+03 0.  0.
          5    1    4    4  502    0 -0.49000740618E+00  0.23717683103E+02 -0.61333756020E+03  0.61381415864E+03  0.47000000000E+01 0.  1.
         -5    1    4    4    0  502 -0.33277686447E+02 -0.37016317469E+02 -0.10585294885E+03  0.11706642966E+03  0.47000000000E+01 0.  1.
          5    1    5    5  503    0 -0.18165222617E+02  0.35402085789E+01 -0.32638775965E+03  0.32694581820E+03  0.47000000000E+01 0.  1.
         -5    1    5    5    0  503  0.51932916470E+02  0.97584257865E+01 -0.60175092980E+02  0.80220860766E+02  0.47000000000E+01 0.  1.
<mgrwt>
<rscale>  0 0.26918597E+03</rscale>
<asrwt>0</asrwt>
<pdfrwt beam="1">  1        2 0.24841462E-02 0.26918597E+03</pdfrwt>
<pdfrwt beam="2">  1       -2 0.17260007E+00 0.26918597E+03</pdfrwt>
<totfact> 0.88615937E+02</totfact>
</mgrwt>
</event>
