<event>
 9    1  0.7957670E-001  0.2745870E+03  0.7818608E-02  0.1098683E+00
         -1   -1    0    0    0  501 -0.00000000000E+00  0.00000000000E+00  0.25954461832E+02  0.25954461832E+02  0.00000000000E+00 0. -1.
          1   -1    0    0  501    0  0.00000000000E+00 -0.00000000000E+00 -0.72625287404E+03  0.72625287404E+03  0.00000000000E+00 0. -1.
         35    2    1    2    0    0  0.71054273576E-14 -0.35527136788E-14 -0.70029841221E+03  0.75220733587E+03  0.27458698075E+03 0.  0.
         25    2    3    3    0    0 -0.24115727469E+01 -0.30782734623E+02 -0.17421696102E+03  0.21074693564E+03  0.11449597784E+03 0.  0.
         25    2    3    3    0    0  0.24115727469E+01  0.30782734623E+02 -0.52608145119E+03  0.54146040023E+03  0.12435545545E+03 0.  0.
          5    1    4    4  502    0  0.46136957200E+02  0.16966717367E+02 -0.86475584699E+02  0.99582152351E+02  0.47000000000E+01 0. -1.
         -5    1    4    4    0  502 -0.48548529947E+02 -0.47749451989E+02 -0.87741376318E+02  0.11116478329E+03  0.47000000000E+01 0. -1.
          5    1    5    5  503    0 -0.20228322553E+02  0.23036652807E+01 -0.48848708923E+03  0.48893375651E+03  0.47000000000E+01 0. -1.
         -5    1    5    5    0  503  0.22639895300E+02  0.28479069342E+02 -0.37594361958E+02  0.52526643723E+02  0.47000000000E+01 0. -1.
<mgrwt>
<rscale>  0 0.27458698E+03</rscale>
<asrwt>0</asrwt>
<pdfrwt beam="1">  1        1 0.11173120E+00 0.27458698E+03</pdfrwt>
<pdfrwt beam="2">  1       -1 0.39929944E-02 0.27458698E+03</pdfrwt>
<totfact> 0.65647338E+03</totfact>
</mgrwt>
</event>
<event>
 9    1  0.7957670E-001  0.2739795E+03  0.7818608E-02  0.1099023E+00
         -2   -1    0    0    0  501 -0.00000000000E+00  0.00000000000E+00  0.61789514020E+03  0.61789514020E+03  0.00000000000E+00 0.  1.
          2   -1    0    0  501    0  0.00000000000E+00 -0.00000000000E+00 -0.30371155824E+02  0.30371155824E+02  0.00000000000E+00 0.  1.
         35    2    1    2    0    0 -0.71054273576E-14  0.00000000000E+00  0.58752398438E+03  0.64826629602E+03  0.27397948526E+03 0.  0.
         25    2    3    3    0    0 -0.48723881086E+02 -0.15183477690E+02  0.23750504316E+03  0.27327553689E+03  0.12516516668E+03 0.  0.
         25    2    3    3    0    0  0.48723881086E+02  0.15183477690E+02  0.35001894121E+03  0.37499075914E+03  0.12450002268E+03 0.  0.
          5    1    4    4  502    0 -0.70929708446E+02  0.35610935944E+02  0.14247776229E+03  0.16315993701E+03  0.47000000000E+01 0. -1.
         -5    1    4    4    0  502  0.22205827360E+02 -0.50794413634E+02  0.95027280873E+02  0.11011559987E+03  0.47000000000E+01 0. -1.
          5    1    5    5  503    0 -0.27470240440E+02 -0.21990981283E+02  0.39667023801E+02  0.53233261640E+02  0.47000000000E+01 0.  1.
         -5    1    5    5    0  503  0.76194121526E+02  0.37174458973E+02  0.31035191741E+03  0.32175749750E+03  0.47000000000E+01 0.  1.
<mgrwt>
<rscale>  0 0.27397949E+03</rscale>
<asrwt>0</asrwt>
<pdfrwt beam="1">  1        2 0.46724860E-02 0.27397949E+03</pdfrwt>
<pdfrwt beam="2">  1       -2 0.95060782E-01 0.27397949E+03</pdfrwt>
<totfact> 0.16575233E+03</totfact>
</mgrwt>
</event>
<event>
 9    1  0.7957670E-001  0.2777602E+03  0.7818608E-02  0.1096919E+00
          1   -1    0    0  501    0  0.00000000000E+00  0.00000000000E+00  0.65628416960E+03  0.65628416960E+03  0.00000000000E+00 0. -1.
         -1   -1    0    0    0  501 -0.00000000000E+00 -0.00000000000E+00 -0.29389226660E+02  0.29389226660E+02  0.00000000000E+00 0. -1.
         35    2    1    2    0    0 -0.71054273576E-14  0.00000000000E+00  0.62689494294E+03  0.68567339626E+03  0.27776021467E+03 0.  0.
         25    2    3    3    0    0 -0.43451127274E+02 -0.50985247361E+01  0.21707581869E+03  0.25452323183E+03  0.12548374025E+03 0.  0.
         25    2    3    3    0    0  0.43451127274E+02  0.50985247361E+01  0.40981912425E+03  0.43115016443E+03  0.12658891843E+03 0.  0.
          5    1    4    4  502    0 -0.33896675230E+02 -0.43755692469E+02  0.20537419799E+03  0.21275383995E+03  0.47000000000E+01 0. -1.
         -5    1    4    4    0  502 -0.95544520436E+01  0.38657167733E+02  0.11701620700E+02  0.41769391880E+02  0.47000000000E+01 0. -1.
          5    1    5    5  503    0  0.79259607389E+02 -0.20309748494E+01  0.15995339044E+03  0.17858719813E+03  0.47000000000E+01 0. -1.
         -5    1    5    5    0  503 -0.35808480116E+02  0.71294995854E+01  0.24986573381E+03  0.25256296630E+03  0.47000000000E+01 0. -1.
<mgrwt>
<rscale>  0 0.27776021E+03</rscale>
<asrwt>0</asrwt>
<pdfrwt beam="1">  1        1 0.10096678E+00 0.27776021E+03</pdfrwt>
<pdfrwt beam="2">  1       -1 0.45214200E-02 0.27776021E+03</pdfrwt>
<totfact> 0.63218831E+03</totfact>
</mgrwt>
</event>
<event>
 9    1  0.7957670E-001  0.2745083E+03  0.7818608E-02  0.1098727E+00
         -1   -1    0    0    0  501 -0.00000000000E+00  0.00000000000E+00  0.69959398584E+02  0.69959398584E+02  0.00000000000E+00 0.  1.
          1   -1    0    0  501    0  0.00000000000E+00 -0.00000000000E+00 -0.26928044305E+03  0.26928044305E+03  0.00000000000E+00 0.  1.
         35    2    1    2    0    0  0.00000000000E+00  0.00000000000E+00 -0.19932104446E+03  0.33923984163E+03  0.27450827198E+03 0.  0.
         25    2    3    3    0    0 -0.47306078337E+01  0.55247032513E+02 -0.12020178255E+03  0.18191806064E+03  0.12478420976E+03 0.  0.
         25    2    3    3    0    0  0.47306078337E+01 -0.55247032513E+02 -0.79119261910E+02  0.15732178099E+03  0.12415986436E+03 0.  0.
          5    1    4    4  502    0 -0.58245623414E+02  0.32064163369E+02 -0.99683743843E+02  0.11991497824E+03  0.47000000000E+01 0. -1.
         -5    1    4    4    0  502  0.53515015580E+02  0.23182869144E+02 -0.20518038710E+02  0.62003082397E+02  0.47000000000E+01 0. -1.
          5    1    5    5  503    0 -0.36436193674E+02  0.14855079046E+02 -0.62820662412E+02  0.74275131832E+02  0.47000000000E+01 0.  1.
         -5    1    5    5    0  503  0.41166801507E+02 -0.70102111560E+02 -0.16298599498E+02  0.83046649162E+02  0.47000000000E+01 0.  1.
<mgrwt>
<rscale>  0 0.27450827E+03</rscale>
<asrwt>0</asrwt>
<pdfrwt beam="1">  1        1 0.41427760E-01 0.27450827E+03</pdfrwt>
<pdfrwt beam="2">  1       -1 0.10762984E-01 0.27450827E+03</pdfrwt>
<totfact> 0.54241072E+03</totfact>
</mgrwt>
</event>
<event>
 9    1  0.7957670E-001  0.2645049E+03  0.7818608E-02  0.1104466E+00
          2   -1    0    0  501    0  0.00000000000E+00  0.00000000000E+00  0.96941944752E+03  0.96941944752E+03  0.00000000000E+00 0. -1.
         -2   -1    0    0    0  501 -0.00000000000E+00 -0.00000000000E+00 -0.18042455178E+02  0.18042455178E+02  0.00000000000E+00 0. -1.
         35    2    1    2    0    0  0.00000000000E+00 -0.35527136788E-14  0.95137699234E+03  0.98746190270E+03  0.26450487278E+03 0.  0.
         25    2    3    3    0    0  0.96404279724E+01 -0.76700817332E+01  0.62738646705E+03  0.63970864587E+03  0.12434470058E+03 0.  0.
         25    2    3    3    0    0 -0.96404279724E+01  0.76700817332E+01  0.32399052529E+03  0.34775325683E+03  0.12574060262E+03 0.  0.
          5    1    4    4  502    0 -0.47035024185E+02  0.65759282736E+01  0.12312824188E+03  0.13205374012E+03  0.47000000000E+01 0. -1.
         -5    1    4    4    0  502  0.56675452157E+02 -0.14246010007E+02  0.50425822517E+03  0.50765490575E+03  0.47000000000E+01 0. -1.
          5    1    5    5  503    0 -0.98827402537E+01  0.47023975269E+02  0.45125405571E+02  0.66085664353E+02  0.47000000000E+01 0. -1.
         -5    1    5    5    0  503  0.24231228132E+00 -0.39353893536E+02  0.27886511972E+03  0.28166759247E+03  0.47000000000E+01 0. -1.
<mgrwt>
<rscale>  0 0.26450487E+03</rscale>
<asrwt>0</asrwt>
<pdfrwt beam="1">  1        2 0.14914141E+00 0.26450487E+03</pdfrwt>
<pdfrwt beam="2">  1       -2 0.27757631E-02 0.26450487E+03</pdfrwt>
<totfact> 0.12989106E+04</totfact>
</mgrwt>
</event>
<event>
 9    1  0.7957670E-001  0.2757803E+03  0.7818608E-02  0.1098016E+00
         -1   -1    0    0    0  501 -0.00000000000E+00  0.00000000000E+00  0.52797950237E+02  0.52797950237E+02  0.00000000000E+00 0.  1.
          1   -1    0    0  501    0  0.00000000000E+00 -0.00000000000E+00 -0.36012190175E+03  0.36012190175E+03  0.00000000000E+00 0.  1.
         35    2    1    2    0    0  0.00000000000E+00  0.17763568394E-14 -0.30732395151E+03  0.41291985198E+03  0.27578033467E+03 0.  0.
         25    2    3    3    0    0  0.13283164766E+02 -0.43832083966E+01 -0.23787223555E+03  0.26918151981E+03  0.12521914861E+03 0.  0.
         25    2    3    3    0    0 -0.13283164766E+02  0.43832083966E+01 -0.69451715956E+02  0.14373833217E+03  0.12506603178E+03 0.  0.
          5    1    4    4  502    0 -0.49646039062E+02  0.24859236695E+01 -0.16573291848E+03  0.17309072557E+03  0.47000000000E+01 0. -1.
         -5    1    4    4    0  502  0.62929203828E+02 -0.68691320661E+01 -0.72139317070E+02  0.96090794238E+02  0.47000000000E+01 0. -1.
          5    1    5    5  503    0 -0.28382997297E+02 -0.28845758838E+02  0.21182505553E+02  0.45917979921E+02  0.47000000000E+01 0. -1.
         -5    1    5    5    0  503  0.15099832531E+02  0.33228967235E+02 -0.90634221508E+02  0.97820352250E+02  0.47000000000E+01 0. -1.
<mgrwt>
<rscale>  0 0.27578033E+03</rscale>
<asrwt>0</asrwt>
<pdfrwt beam="1">  1        1 0.55403370E-01 0.27578033E+03</pdfrwt>
<pdfrwt beam="2">  1       -1 0.81227616E-02 0.27578033E+03</pdfrwt>
<totfact> 0.58005543E+03</totfact>
</mgrwt>
</event>
<event>
 9    1  0.7957670E-001  0.2774909E+03  0.7818608E-02  0.1097067E+00
         -2   -1    0    0    0  501 -0.00000000000E+00  0.00000000000E+00  0.35612875868E+02  0.35612875868E+02  0.00000000000E+00 0.  1.
          2   -1    0    0  501    0  0.00000000000E+00 -0.00000000000E+00 -0.54054338431E+03  0.54054338431E+03  0.00000000000E+00 0.  1.
         35    2    1    2    0    0 -0.71054273576E-14  0.35527136788E-14 -0.50493050844E+03  0.57615626018E+03  0.27749093280E+03 0.  0.
         25    2    3    3    0    0 -0.18210363492E+02 -0.11562529428E+02 -0.37160387805E+03  0.39275947851E+03  0.12532061424E+03 0.  0.
         25    2    3    3    0    0  0.18210363492E+02  0.11562529428E+02 -0.13332663039E+03  0.18339678167E+03  0.12406885076E+03 0.  0.
          5    1    4    4  502    0  0.47369931626E+02 -0.22952339046E+02 -0.23315625109E+03  0.23907038234E+03  0.47000000000E+01 0. -1.
         -5    1    4    4    0  502 -0.65580295118E+02  0.11389809618E+02 -0.13844762696E+03  0.15368909617E+03  0.47000000000E+01 0. -1.
          5    1    5    5  503    0 -0.35573712943E+02 -0.38191639841E+02 -0.59282689055E+02  0.79124064784E+02  0.47000000000E+01 0.  1.
         -5    1    5    5    0  503  0.53784076435E+02  0.49754169269E+02 -0.74043941339E+02  0.10427271689E+03  0.47000000000E+01 0.  1.
<mgrwt>
<rscale>  0 0.27749093E+03</rscale>
<asrwt>0</asrwt>
<pdfrwt beam="1">  1        2 0.83160522E-01 0.27749093E+03</pdfrwt>
<pdfrwt beam="2">  1       -2 0.54789039E-02 0.27749093E+03</pdfrwt>
<totfact> 0.96475880E+03</totfact>
</mgrwt>
</event>
<event>
 9    1  0.7957670E-001  0.2706214E+03  0.7818608E-02  0.1100925E+00
         -2   -1    0    0    0  501 -0.00000000000E+00  0.00000000000E+00  0.20489813390E+02  0.20489813390E+02  0.00000000000E+00 0. -1.
          2   -1    0    0  501    0  0.00000000000E+00 -0.00000000000E+00 -0.89356507408E+03  0.89356507408E+03  0.00000000000E+00 0. -1.
         35    2    1    2    0    0 -0.71054273576E-14  0.00000000000E+00 -0.87307526069E+03  0.91405488747E+03  0.27062137107E+03 0.  0.
         25    2    3    3    0    0 -0.19500673124E+02 -0.29338589623E+02 -0.56516554240E+03  0.57996028790E+03  0.12530289755E+03 0.  0.
         25    2    3    3    0    0  0.19500673124E+02  0.29338589623E+02 -0.30790971830E+03  0.33409459957E+03  0.12477891549E+03 0.  0.
          5    1    4    4  502    0 -0.18756517583E+02  0.29743117200E+02 -0.44044620277E+03  0.44187261457E+03  0.47000000000E+01 0.  1.
         -5    1    4    4    0  502 -0.74415554054E+00 -0.59081706823E+02 -0.12471933963E+03  0.13808767333E+03  0.47000000000E+01 0.  1.
          5    1    5    5  503    0  0.30576408264E+02 -0.44025052988E+02 -0.10478983363E+03  0.11779694931E+03  0.47000000000E+01 0. -1.
         -5    1    5    5    0  503 -0.11075735140E+02  0.73363642611E+02 -0.20311988466E+03  0.21629765027E+03  0.47000000000E+01 0. -1.
<mgrwt>
<rscale>  0 0.27062137E+03</rscale>
<asrwt>0</asrwt>
<pdfrwt beam="1">  1        2 0.13747157E+00 0.27062137E+03</pdfrwt>
<pdfrwt beam="2">  1       -2 0.31522786E-02 0.27062137E+03</pdfrwt>
<totfact> 0.12019720E+04</totfact>
</mgrwt>
</event>
<event>
 9    1  0.7957670E-001  0.2805869E+03  0.7818608E-02  0.1095369E+00
          2   -1    0    0  501    0  0.00000000000E+00  0.00000000000E+00  0.54623395745E+03  0.54623395745E+03  0.00000000000E+00 0. -1.
         -2   -1    0    0    0  501 -0.00000000000E+00 -0.00000000000E+00 -0.36032652031E+02  0.36032652031E+02  0.00000000000E+00 0. -1.
         35    2    1    2    0    0  0.14210854715E-13 -0.35527136788E-14  0.51020130542E+03  0.58226660948E+03  0.28058694279E+03 0.  0.
         25    2    3    3    0    0  0.59108072079E+02  0.57959889308E+01  0.20676529860E+03  0.24870158727E+03  0.12479276076E+03 0.  0.
         25    2    3    3    0    0 -0.59108072079E+02 -0.57959889308E+01  0.30343600682E+03  0.33356502221E+03  0.12515932299E+03 0.  0.
          5    1    4    4  502    0 -0.35897757876E+01 -0.45648350429E+02  0.32247103358E+02  0.56201637539E+02  0.47000000000E+01 0.  1.
         -5    1    4    4    0  502  0.62697847867E+02  0.51444339360E+02  0.17451819524E+03  0.19249994974E+03  0.47000000000E+01 0.  1.
          5    1    5    5  503    0  0.10370737012E+01  0.21439715198E+02 -0.10197963907E+01  0.21996974662E+02  0.47000000000E+01 0.  1.
         -5    1    5    5    0  503 -0.60145145780E+02 -0.27235704129E+02  0.30445580321E+03  0.31156804754E+03  0.47000000000E+01 0.  1.
<mgrwt>
<rscale>  0 0.28058694E+03</rscale>
<asrwt>0</asrwt>
<pdfrwt beam="1">  1        2 0.84035987E-01 0.28058694E+03</pdfrwt>
<pdfrwt beam="2">  1       -2 0.55434853E-02 0.28058694E+03</pdfrwt>
<totfact> 0.93681966E+03</totfact>
</mgrwt>
</event>
<event>
 9    1  0.7957670E-001  0.2845022E+03  0.7818608E-02  0.1093255E+00
          1   -1    0    0  501    0  0.00000000000E+00  0.00000000000E+00  0.97768172600E+03  0.97768172600E+03  0.00000000000E+00 0.  1.
         -1   -1    0    0    0  501 -0.00000000000E+00 -0.00000000000E+00 -0.20697306511E+02  0.20697306511E+02  0.00000000000E+00 0.  1.
         35    2    1    2    0    0  0.00000000000E+00  0.00000000000E+00  0.95698441949E+03  0.99837903251E+03  0.28450222040E+03 0.  0.
         25    2    3    3    0    0  0.52351377617E+02 -0.61814465278E+01  0.32639897334E+03  0.35334286404E+03  0.12464354275E+03 0.  0.
         25    2    3    3    0    0 -0.52351377617E+02  0.61814465278E+01  0.63058544615E+03  0.64503616847E+03  0.12511905020E+03 0.  0.
          5    1    4    4  502    0  0.85519599955E+02 -0.33315295665E+02  0.21052379744E+03  0.22970822839E+03  0.47000000000E+01 0. -1.
         -5    1    4    4    0  502 -0.33168222338E+02  0.27133849137E+02  0.11587517590E+03  0.12363463565E+03  0.47000000000E+01 0. -1.
          5    1    5    5  503    0 -0.17051816136E+02  0.33523827578E+02  0.56064782336E+03  0.56192764952E+03  0.47000000000E+01 0. -1.
         -5    1    5    5    0  503 -0.35299561480E+02 -0.27342381050E+02  0.69937622782E+02  0.83108518953E+02  0.47000000000E+01 0. -1.
<mgrwt>
<rscale>  0 0.28450222E+03</rscale>
<asrwt>0</asrwt>
<pdfrwt beam="1">  1        1 0.15041254E+00 0.28450222E+03</pdfrwt>
<pdfrwt beam="2">  1       -1 0.31842018E-02 0.28450222E+03</pdfrwt>
<totfact> 0.57420590E+03</totfact>
</mgrwt>
</event>
<event>
 9    1  0.7957670E-001  0.2641544E+03  0.7818608E-02  0.1104673E+00
         -1   -1    0    0    0  501 -0.00000000000E+00  0.00000000000E+00  0.91845766825E+01  0.91845766825E+01  0.00000000000E+00 0.  1.
          1   -1    0    0  501    0  0.00000000000E+00 -0.00000000000E+00 -0.18993137199E+04  0.18993137199E+04  0.00000000000E+00 0.  1.
         35    2    1    2    0    0 -0.71054273576E-14 -0.88817841970E-15 -0.18901291432E+04  0.19084982966E+04  0.26415444350E+03 0.  0.
         25    2    3    3    0    0  0.32560550247E+02 -0.77760973957E+01 -0.11565080005E+04  0.11636259984E+04  0.12407276825E+03 0.  0.
         25    2    3    3    0    0 -0.32560550247E+02  0.77760973957E+01 -0.73362114272E+03  0.74487229818E+03  0.12455561981E+03 0.  0.
          5    1    4    4  502    0 -0.12117578786E+02  0.40309195589E+02 -0.79835955635E+03  0.79948216877E+03  0.47000000000E+01 0. -1.
         -5    1    4    4    0  502  0.44678129033E+02 -0.48085292984E+02 -0.35814844416E+03  0.36414382965E+03  0.47000000000E+01 0. -1.
          5    1    5    5  503    0  0.45840456747E+02  0.76328230462E+01 -0.36500714309E+03  0.36798357567E+03  0.47000000000E+01 0. -1.
         -5    1    5    5    0  503 -0.78401006994E+02  0.14327434949E+00 -0.36861399963E+03  0.37688872250E+03  0.47000000000E+01 0. -1.
<mgrwt>
<rscale>  0 0.26415444E+03</rscale>
<asrwt>0</asrwt>
<pdfrwt beam="1">  1        1 0.29220185E+00 0.26415444E+03</pdfrwt>
<pdfrwt beam="2">  1       -1 0.14130130E-02 0.26415444E+03</pdfrwt>
<totfact> 0.44646896E+03</totfact>
</mgrwt>
</event>
<event>
 9    1  0.7957670E-001  0.2719983E+03  0.7818608E-02  0.1100141E+00
         -2   -1    0    0    0  501 -0.00000000000E+00  0.00000000000E+00  0.11622008079E+03  0.11622008079E+03  0.00000000000E+00 0. -1.
          2   -1    0    0  501    0  0.00000000000E+00 -0.00000000000E+00 -0.15914428944E+03  0.15914428944E+03  0.00000000000E+00 0. -1.
         35    2    1    2    0    0  0.00000000000E+00  0.00000000000E+00 -0.42924208653E+02  0.27536437023E+03  0.27199825129E+03 0.  0.
         25    2    3    3    0    0  0.50765570236E+02 -0.87401680141E+01 -0.15647435858E+02  0.13715505910E+03  0.12614727238E+03 0.  0.
         25    2    3    3    0    0 -0.50765570236E+02  0.87401680141E+01 -0.27276772795E+02  0.13820931113E+03  0.12531662974E+03 0.  0.
          5    1    4    4  502    0 -0.30355576285E+02  0.11300269186E+02  0.27722934434E+02  0.42892985311E+02  0.47000000000E+01 0. -1.
         -5    1    4    4    0  502  0.81121146521E+02 -0.20040437201E+02 -0.43370370292E+02  0.94262073790E+02  0.47000000000E+01 0. -1.
          5    1    5    5  503    0 -0.34601348384E+01 -0.40508281899E+02 -0.51337302414E+02  0.65654413824E+02  0.47000000000E+01 0. -1.
         -5    1    5    5    0  503 -0.47305435397E+02  0.49248449913E+02  0.24060529619E+02  0.72554897302E+02  0.47000000000E+01 0. -1.
<mgrwt>
<rscale>  0 0.27199825E+03</rscale>
<asrwt>0</asrwt>
<pdfrwt beam="1">  1        2 0.24483737E-01 0.27199825E+03</pdfrwt>
<pdfrwt beam="2">  1       -2 0.17880012E-01 0.27199825E+03</pdfrwt>
<totfact> 0.55657064E+03</totfact>
</mgrwt>
</event>
<event>
 9    1  0.7957670E-001  0.2798624E+03  0.7818608E-02  0.1095764E+00
         -2   -1    0    0    0  501 -0.00000000000E+00  0.00000000000E+00  0.14637871841E+02  0.14637871841E+02  0.00000000000E+00 0. -1.
          2   -1    0    0  501    0  0.00000000000E+00 -0.00000000000E+00 -0.13376770364E+04  0.13376770364E+04  0.00000000000E+00 0. -1.
         35    2    1    2    0    0 -0.71054273576E-14  0.00000000000E+00 -0.13230391646E+04  0.13523149082E+04  0.27986243066E+03 0.  0.
         25    2    3    3    0    0 -0.51337133860E+02 -0.31866462389E+02 -0.74226384635E+03  0.75512716563E+03  0.12494177015E+03 0.  0.
         25    2    3    3    0    0  0.51337133860E+02  0.31866462389E+02 -0.58077531820E+03  0.59718774261E+03  0.12522881838E+03 0.  0.
          5    1    4    4  502    0 -0.21331788975E+02 -0.79395134873E+02 -0.44900199462E+03  0.45649043126E+03  0.47000000000E+01 0.  1.
         -5    1    4    4    0  502 -0.30005344885E+02  0.47528672483E+02 -0.29326185173E+03  0.29863673436E+03  0.47000000000E+01 0.  1.
          5    1    5    5  503    0 -0.38078559759E+02 -0.10718502968E+02 -0.17432007685E+03  0.17881398775E+03  0.47000000000E+01 0.  1.
         -5    1    5    5    0  503  0.89415693618E+02  0.42584965357E+02 -0.40645524135E+03  0.41837375486E+03  0.47000000000E+01 0.  1.
<mgrwt>
<rscale>  0 0.27986243E+03</rscale>
<asrwt>0</asrwt>
<pdfrwt beam="1">  1        2 0.20579647E+00 0.27986243E+03</pdfrwt>
<pdfrwt beam="2">  1       -2 0.22519802E-02 0.27986243E+03</pdfrwt>
<totfact> 0.10848162E+04</totfact>
</mgrwt>
</event>
<event>
 9    1  0.7957670E-001  0.2666715E+03  0.7818608E-02  0.1103200E+00
          2   -1    0    0  501    0  0.00000000000E+00  0.00000000000E+00  0.23514719321E+03  0.23514719321E+03  0.00000000000E+00 0.  1.
         -2   -1    0    0    0  501 -0.00000000000E+00 -0.00000000000E+00 -0.75605495064E+02  0.75605495064E+02  0.00000000000E+00 0.  1.
         35    2    1    2    0    0  0.00000000000E+00  0.00000000000E+00  0.15954169815E+03  0.31075268827E+03  0.26667148296E+03 0.  0.
         25    2    3    3    0    0  0.45093082670E+02  0.14739562968E+02  0.75751588107E+02  0.15454838482E+03  0.12608036852E+03 0.  0.
         25    2    3    3    0    0 -0.45093082670E+02 -0.14739562968E+02  0.83790110038E+02  0.15620430346E+03  0.12299740265E+03 0.  0.
          5    1    4    4  502    0 -0.47773329269E+01 -0.15735591934E+02 -0.29481303412E+02  0.34083265898E+02  0.47000000000E+01 0.  1.
         -5    1    4    4    0  502  0.49870415597E+02  0.30475154902E+02  0.10523289152E+03  0.12046511892E+03  0.47000000000E+01 0.  1.
          5    1    5    5  503    0  0.20285499688E+02  0.22487503369E+02  0.74119001184E+02  0.80205396588E+02  0.47000000000E+01 0.  1.
         -5    1    5    5    0  503 -0.65378582358E+02 -0.37227066337E+02  0.96711088547E+01  0.75998906871E+02  0.47000000000E+01 0.  1.
<mgrwt>
<rscale>  0 0.26667148E+03</rscale>
<asrwt>0</asrwt>
<pdfrwt beam="1">  1        2 0.36176491E-01 0.26667148E+03</pdfrwt>
<pdfrwt beam="2">  1       -2 0.11631615E-01 0.26667148E+03</pdfrwt>
<totfact> 0.73466074E+03</totfact>
</mgrwt>
</event>
<event>
 9    1  0.7957670E-001  0.2770889E+03  0.7818608E-02  0.1097290E+00
         -1   -1    0    0    0  501 -0.00000000000E+00  0.00000000000E+00  0.38956847467E+03  0.38956847467E+03  0.00000000000E+00 0.  1.
          1   -1    0    0  501    0  0.00000000000E+00 -0.00000000000E+00 -0.49271340312E+02  0.49271340312E+02  0.00000000000E+00 0.  1.
         35    2    1    2    0    0  0.00000000000E+00  0.00000000000E+00  0.34029713435E+03  0.43883981498E+03  0.27708887304E+03 0.  0.
         25    2    3    3    0    0  0.43573904325E+02 -0.41163391047E+02  0.17122950850E+03  0.22021867807E+03  0.12483433698E+03 0.  0.
         25    2    3    3    0    0 -0.43573904325E+02  0.41163391047E+02  0.16906762585E+03  0.21862113691E+03  0.12497291503E+03 0.  0.
          5    1    4    4  502    0  0.58167018264E+02 -0.53715716612E+02  0.42521018160E+02  0.89993928740E+02  0.47000000000E+01 0. -1.
         -5    1    4    4    0  502 -0.14593113938E+02  0.12552325564E+02  0.12870849034E+03  0.13022474933E+03  0.47000000000E+01 0. -1.
          5    1    5    5  503    0 -0.43127003738E+02  0.83702299719E+02  0.10055344148E+03  0.13783721567E+03  0.47000000000E+01 0. -1.
         -5    1    5    5    0  503 -0.44690058787E+00 -0.42538908671E+02  0.68514184368E+02  0.80783921238E+02  0.47000000000E+01 0. -1.
<mgrwt>
<rscale>  0 0.27708887E+03</rscale>
<asrwt>0</asrwt>
<pdfrwt beam="1">  1        1 0.75802065E-02 0.27708887E+03</pdfrwt>
<pdfrwt beam="2">  1       -1 0.59933609E-01 0.27708887E+03</pdfrwt>
<totfact> 0.27191787E+03</totfact>
</mgrwt>
</event>
<event>
 9    1  0.7957670E-001  0.2754271E+03  0.7818608E-02  0.1098213E+00
          4   -1    0    0  501    0  0.00000000000E+00  0.00000000000E+00  0.26373677022E+03  0.26373677022E+03  0.00000000000E+00 0. -1.
         -4   -1    0    0    0  501 -0.00000000000E+00 -0.00000000000E+00 -0.71908916869E+02  0.71908916869E+02  0.00000000000E+00 0. -1.
         35    2    1    2    0    0  0.35527136788E-14  0.00000000000E+00  0.19182785335E+03  0.33564568709E+03  0.27542712637E+03 0.  0.
         25    2    3    3    0    0  0.26214475484E+02 -0.48125912121E+02  0.84699419844E+02  0.16108982835E+03  0.12558916726E+03 0.  0.
         25    2    3    3    0    0 -0.26214475484E+02  0.48125912121E+02  0.10712843351E+03  0.17455585874E+03  0.12645135196E+03 0.  0.
          5    1    4    4  502    0 -0.39231986260E+02 -0.48809907876E+02  0.13440447694E+02  0.64220646890E+02  0.47000000000E+01 0. -1.
         -5    1    4    4    0  502  0.65446461744E+02  0.68399575487E+00  0.71258972150E+02  0.96869181461E+02  0.47000000000E+01 0. -1.
          5    1    5    5  503    0 -0.33592290995E+02  0.88822813424E+02  0.63980083200E+02  0.11460137541E+03  0.47000000000E+01 0. -1.
         -5    1    5    5    0  503  0.73778155102E+01 -0.40696901303E+02  0.43148350306E+02  0.59954483331E+02  0.47000000000E+01 0. -1.
<mgrwt>
<rscale>  0 0.27542713E+03</rscale>
<asrwt>0</asrwt>
<pdfrwt beam="1">  1        4 0.40574887E-01 0.27542713E+03</pdfrwt>
<pdfrwt beam="2">  1       -4 0.11062910E-01 0.27542713E+03</pdfrwt>
<totfact> 0.70839385E+02</totfact>
</mgrwt>
</event>
<event>
 9    1  0.7957670E-001  0.2746862E+03  0.7818608E-02  0.1098627E+00
          4   -1    0    0  501    0  0.00000000000E+00  0.00000000000E+00  0.47400058279E+03  0.47400058279E+03  0.00000000000E+00 0.  1.
         -4   -1    0    0    0  501 -0.00000000000E+00 -0.00000000000E+00 -0.39795586280E+02  0.39795586280E+02  0.00000000000E+00 0.  1.
         35    2    1    2    0    0  0.35527136788E-14 -0.71054273576E-14  0.43420499652E+03  0.51379616907E+03  0.27468622892E+03 0.  0.
         25    2    3    3    0    0 -0.81416704627E+00  0.54309205269E+02  0.24485887358E+03  0.28029963238E+03  0.12514736633E+03 0.  0.
         25    2    3    3    0    0  0.81416704627E+00 -0.54309205269E+02  0.18934612294E+03  0.23349653669E+03  0.12537354478E+03 0.  0.
          5    1    4    4  502    0  0.54633043438E+02 -0.36151695927E+01  0.82017558350E+02  0.98725927518E+02  0.47000000000E+01 0.  1.
         -5    1    4    4    0  502 -0.55447210484E+02  0.57924374862E+02  0.16284131523E+03  0.18157370487E+03  0.47000000000E+01 0.  1.
          5    1    5    5  503    0  0.29717813899E+02  0.37088573787E+01 -0.30046654663E+01  0.30463455164E+02  0.47000000000E+01 0. -1.
         -5    1    5    5    0  503 -0.28903646853E+02 -0.58018062648E+02  0.19235078840E+03  0.20303308153E+03  0.47000000000E+01 0. -1.
<mgrwt>
<rscale>  0 0.27468623E+03</rscale>
<asrwt>0</asrwt>
<pdfrwt beam="1">  1        4 0.72923163E-01 0.27468623E+03</pdfrwt>
<pdfrwt beam="2">  1       -4 0.61223982E-02 0.27468623E+03</pdfrwt>
<totfact> 0.56087843E+02</totfact>
</mgrwt>
</event>
<event>
 9    1  0.7957670E-001  0.2750812E+03  0.7818608E-02  0.1098406E+00
          2   -1    0    0  501    0  0.00000000000E+00  0.00000000000E+00  0.19497301633E+02  0.19497301633E+02  0.00000000000E+00 0.  1.
         -2   -1    0    0    0  501 -0.00000000000E+00 -0.00000000000E+00 -0.97025799976E+03  0.97025799976E+03  0.00000000000E+00 0.  1.
         35    2    1    2    0    0  0.00000000000E+00  0.35527136788E-14 -0.95076069813E+03  0.98975530140E+03  0.27508117263E+03 0.  0.
         25    2    3    3    0    0  0.50491962997E+02  0.23799810951E+02 -0.53650574172E+03  0.55370524850E+03  0.12504088130E+03 0.  0.
         25    2    3    3    0    0 -0.50491962997E+02 -0.23799810951E+02 -0.41425495641E+03  0.43605005289E+03  0.12416364358E+03 0.  0.
          5    1    4    4  502    0  0.42776320783E+02  0.11466353710E+02 -0.53657167673E+03  0.53841670215E+03  0.47000000000E+01 0.  1.
         -5    1    4    4    0  502  0.77156422143E+01  0.12333457241E+02  0.65935007148E-01  0.15288546357E+02  0.47000000000E+01 0.  1.
          5    1    5    5  503    0 -0.20922065481E+02  0.22104173184E+02 -0.17286628738E+02  0.35316353567E+02  0.47000000000E+01 0.  1.
         -5    1    5    5    0  503 -0.29569897516E+02 -0.45903984135E+02 -0.39696832767E+03  0.40073369932E+03  0.47000000000E+01 0.  1.
<mgrwt>
<rscale>  0 0.27508117E+03</rscale>
<asrwt>0</asrwt>
<pdfrwt beam="1">  1        2 0.29995850E-02 0.27508117E+03</pdfrwt>
<pdfrwt beam="2">  1       -2 0.14927046E+00 0.27508117E+03</pdfrwt>
<totfact> 0.10064908E+03</totfact>
</mgrwt>
</event>
<event>
 9    1  0.7957670E-001  0.2788992E+03  0.7818608E-02  0.1096292E+00
          2   -1    0    0  501    0  0.00000000000E+00  0.00000000000E+00  0.78687475126E+03  0.78687475126E+03  0.00000000000E+00 0.  1.
         -2   -1    0    0    0  501 -0.00000000000E+00 -0.00000000000E+00 -0.24713195316E+02  0.24713195316E+02  0.00000000000E+00 0.  1.
         35    2    1    2    0    0  0.35527136788E-14  0.88817841970E-15  0.76216155595E+03  0.81158794658E+03  0.27889918908E+03 0.  0.
         25    2    3    3    0    0  0.20223852482E+02 -0.50737429122E-02  0.55148550356E+03  0.56573030634E+03  0.12452114132E+03 0.  0.
         25    2    3    3    0    0 -0.20223852482E+02  0.50737429122E-02  0.21067605238E+03  0.24585764024E+03  0.12511025530E+03 0.  0.
          5    1    4    4  502    0 -0.41825367790E+01  0.44444971272E+02  0.81927841237E+02  0.93419003715E+02  0.47000000000E+01 0.  1.
         -5    1    4    4    0  502  0.24406389261E+02 -0.44450045015E+02  0.46955766232E+03  0.47231130262E+03  0.47000000000E+01 0.  1.
          5    1    5    5  503    0  0.16821961522E+02  0.12846904199E+01 -0.11245215364E+02  0.20812825073E+02  0.47000000000E+01 0. -1.
         -5    1    5    5    0  503 -0.37045814004E+02 -0.12796166770E+01  0.22192126775E+03  0.22504481517E+03  0.47000000000E+01 0. -1.
<mgrwt>
<rscale>  0 0.27889919E+03</rscale>
<asrwt>0</asrwt>
<pdfrwt beam="1">  1        2 0.12105763E+00 0.27889919E+03</pdfrwt>
<pdfrwt beam="2">  1       -2 0.38020307E-02 0.27889919E+03</pdfrwt>
<totfact> 0.10722253E+04</totfact>
</mgrwt>
</event>
<event>
 9    1  0.7957670E-001  0.2681119E+03  0.7818608E-02  0.1102365E+00
         -2   -1    0    0    0  501 -0.00000000000E+00  0.00000000000E+00  0.79703387588E+01  0.79703387588E+01  0.00000000000E+00 0.  1.
          2   -1    0    0  501    0  0.00000000000E+00 -0.00000000000E+00 -0.22547347294E+04  0.22547347294E+04  0.00000000000E+00 0.  1.
         35    2    1    2    0    0  0.35527136788E-14  0.71054273576E-14 -0.22467643906E+04  0.22627050681E+04  0.26811191398E+03 0.  0.
         25    2    3    3    0    0 -0.17872609373E+02  0.31902810156E+02 -0.89364645596E+03  0.90331080535E+03  0.12660649016E+03 0.  0.
         25    2    3    3    0    0  0.17872609373E+02 -0.31902810156E+02 -0.13531179346E+04  0.13593942628E+04  0.12524933987E+03 0.  0.
          5    1    4    4  502    0  0.72673364626E+01 -0.46955988204E+02 -0.38558803991E+03  0.38853301729E+03  0.47000000000E+01 0. -1.
         -5    1    4    4    0  502 -0.25139945835E+02  0.78858798360E+02 -0.50805841605E+03  0.51477778806E+03  0.47000000000E+01 0. -1.
          5    1    5    5  503    0 -0.43947976039E+02 -0.38059443731E+02 -0.91641641297E+03  0.91827069964E+03  0.47000000000E+01 0. -1.
         -5    1    5    5    0  503  0.61820585412E+02  0.61566335753E+01 -0.43670152167E+03  0.44112356312E+03  0.47000000000E+01 0. -1.
<mgrwt>
<rscale>  0 0.26811191E+03</rscale>
<asrwt>0</asrwt>
<pdfrwt beam="1">  1        2 0.34688240E+00 0.26811191E+03</pdfrwt>
<pdfrwt beam="2">  1       -2 0.12262055E-02 0.26811191E+03</pdfrwt>
<totfact> 0.86223115E+03</totfact>
</mgrwt>
</event>
<event>
 9    1  0.7957670E-001  0.2747294E+03  0.7818608E-02  0.1098603E+00
         -2   -1    0    0    0  501 -0.00000000000E+00  0.00000000000E+00  0.30725853290E+02  0.30725853290E+02  0.00000000000E+00 0. -1.
          2   -1    0    0  501    0  0.00000000000E+00 -0.00000000000E+00 -0.61411016892E+03  0.61411016892E+03  0.00000000000E+00 0. -1.
         35    2    1    2    0    0 -0.71054273576E-14  0.00000000000E+00 -0.58338431563E+03  0.64483602221E+03  0.27472938652E+03 0.  0.
         25    2    3    3    0    0  0.55107632718E+02 -0.49167888877E+01 -0.27744280540E+03  0.30936070929E+03  0.12517392774E+03 0.  0.
         25    2    3    3    0    0 -0.55107632718E+02  0.49167888877E+01 -0.30594151023E+03  0.33547531292E+03  0.12602560018E+03 0.  0.
          5    1    4    4  502    0  0.15639221149E+02  0.32882291665E+02 -0.24036704298E+03  0.24315475667E+03  0.47000000000E+01 0. -1.
         -5    1    4    4    0  502  0.39468411570E+02 -0.37799080553E+02 -0.37075762424E+02  0.66205952616E+02  0.47000000000E+01 0. -1.
          5    1    5    5  503    0 -0.27110049139E+02 -0.50442673133E+02 -0.23117848021E+03  0.23821208565E+03  0.47000000000E+01 0.  1.
         -5    1    5    5    0  503 -0.27997583580E+02  0.55359462021E+02 -0.74763030017E+02  0.97263227270E+02  0.47000000000E+01 0.  1.
<mgrwt>
<rscale>  0 0.27472939E+03</rscale>
<asrwt>0</asrwt>
<pdfrwt beam="1">  1        2 0.94478481E-01 0.27472939E+03</pdfrwt>
<pdfrwt beam="2">  1       -2 0.47270547E-02 0.27472939E+03</pdfrwt>
<totfact> 0.10422962E+04</totfact>
</mgrwt>
</event>
<event>
 9    1  0.7957670E-001  0.2768279E+03  0.7818608E-02  0.1097434E+00
          1   -1    0    0  501    0  0.00000000000E+00  0.00000000000E+00  0.17067157982E+04  0.17067157982E+04  0.00000000000E+00 0. -1.
         -1   -1    0    0    0  501 -0.00000000000E+00 -0.00000000000E+00 -0.11225312382E+02  0.11225312382E+02  0.00000000000E+00 0. -1.
         35    2    1    2    0    0  0.71054273576E-14 -0.71054273576E-14  0.16954904858E+04  0.17179411106E+04  0.27682787419E+03 0.  0.
         25    2    3    3    0    0 -0.50771602127E+02 -0.27149742150E+02  0.86130723354E+03  0.87262082105E+03  0.12767960956E+03 0.  0.
         25    2    3    3    0    0  0.50771602127E+02  0.27149742150E+02  0.83418325229E+03  0.84532028955E+03  0.12405575131E+03 0.  0.
          5    1    4    4  502    0 -0.86706426768E+02 -0.10448628808E+02  0.73435739032E+03  0.73954718916E+03  0.47000000000E+01 0. -1.
         -5    1    4    4    0  502  0.35934824640E+02 -0.16701113342E+02  0.12694984322E+03  0.13307363189E+03  0.47000000000E+01 0. -1.
          5    1    5    5  503    0  0.68211550345E+02  0.65227741788E+02  0.55997754684E+03  0.56789472339E+03  0.47000000000E+01 0.  1.
         -5    1    5    5    0  503 -0.17439948217E+02 -0.38077999638E+02  0.27420570546E+03  0.27742556616E+03  0.47000000000E+01 0.  1.
<mgrwt>
<rscale>  0 0.27682787E+03</rscale>
<asrwt>0</asrwt>
<pdfrwt beam="1">  1        1 0.26257145E+00 0.27682787E+03</pdfrwt>
<pdfrwt beam="2">  1       -1 0.17269725E-02 0.27682787E+03</pdfrwt>
<totfact> 0.44479429E+03</totfact>
</mgrwt>
</event>
<event>
 9    1  0.7957670E-001  0.2745729E+03  0.7818608E-02  0.1098691E+00
         -2   -1    0    0    0  501 -0.00000000000E+00  0.00000000000E+00  0.34332921071E+03  0.34332921071E+03  0.00000000000E+00 0. -1.
          2   -1    0    0  501    0  0.00000000000E+00 -0.00000000000E+00 -0.54896507808E+02  0.54896507808E+02  0.00000000000E+00 0. -1.
         35    2    1    2    0    0 -0.71054273576E-14  0.00000000000E+00  0.28843270290E+03  0.39822571852E+03  0.27457293892E+03 0.  0.
         25    2    3    3    0    0 -0.29497730562E+02  0.94266865507E+01  0.20812201625E+03  0.24557334123E+03  0.12661956305E+03 0.  0.
         25    2    3    3    0    0  0.29497730562E+02 -0.94266865507E+01  0.80310686648E+02  0.15265237728E+03  0.12607126307E+03 0.  0.
          5    1    4    4  502    0 -0.46125689857E+02 -0.13005645237E+02  0.21163151635E+03  0.21704081364E+03  0.47000000000E+01 0. -1.
         -5    1    4    4    0  502  0.16627959295E+02  0.22432331788E+02 -0.35095001014E+01  0.28532527590E+02  0.47000000000E+01 0. -1.
          5    1    5    5  503    0 -0.16493279351E+02 -0.31899606673E+02 -0.18946999931E+02  0.40874099085E+02  0.47000000000E+01 0. -1.
         -5    1    5    5    0  503  0.45991009912E+02  0.22472920122E+02  0.99257686580E+02  0.11177827820E+03  0.47000000000E+01 0. -1.
<mgrwt>
<rscale>  0 0.27457294E+03</rscale>
<asrwt>0</asrwt>
<pdfrwt beam="1">  1        2 0.84456168E-02 0.27457294E+03</pdfrwt>
<pdfrwt beam="2">  1       -2 0.52819877E-01 0.27457294E+03</pdfrwt>
<totfact> 0.27183589E+03</totfact>
</mgrwt>
</event>
<event>
 9    1  0.7957670E-001  0.2721658E+03  0.7818608E-02  0.1100046E+00
         -2   -1    0    0    0  501 -0.00000000000E+00  0.00000000000E+00  0.21182453867E+02  0.21182453867E+02  0.00000000000E+00 0.  1.
          2   -1    0    0  501    0  0.00000000000E+00 -0.00000000000E+00 -0.87424004675E+03  0.87424004675E+03  0.00000000000E+00 0.  1.
         35    2    1    2    0    0  0.88817841970E-15  0.00000000000E+00 -0.85305759289E+03  0.89542250062E+03  0.27216575434E+03 0.  0.
         25    2    3    3    0    0 -0.40559003563E+01  0.25781704307E+02 -0.52879370283E+03  0.54401548987E+03  0.12509566923E+03 0.  0.
         25    2    3    3    0    0  0.40559003563E+01 -0.25781704307E+02 -0.32426389006E+03  0.35140701075E+03  0.13288592930E+03 0.  0.
          5    1    4    4  502    0  0.15244011551E+01  0.40222573481E+02 -0.47450604044E+02  0.62400553207E+02  0.47000000000E+01 0.  1.
         -5    1    4    4    0  502 -0.55803015114E+01 -0.14440869174E+02 -0.48134309879E+03  0.48161493666E+03  0.47000000000E+01 0.  1.
          5    1    5    5  503    0 -0.61996693472E+02 -0.30072810625E+02 -0.16585786577E+03  0.17966325606E+03  0.47000000000E+01 0.  1.
         -5    1    5    5    0  503  0.66052593828E+02  0.42911063175E+01 -0.15840602428E+03  0.17174375469E+03  0.47000000000E+01 0.  1.
<mgrwt>
<rscale>  0 0.27216575E+03</rscale>
<asrwt>0</asrwt>
<pdfrwt beam="1">  1        2 0.13449843E+00 0.27216575E+03</pdfrwt>
<pdfrwt beam="2">  1       -2 0.32588400E-02 0.27216575E+03</pdfrwt>
<totfact> 0.11777426E+04</totfact>
</mgrwt>
</event>
<event>
 9    1  0.7957670E-001  0.2795428E+03  0.7818608E-02  0.1095939E+00
          3   -1    0    0  501    0  0.00000000000E+00  0.00000000000E+00  0.14703288592E+03  0.14703288592E+03  0.00000000000E+00 0. -1.
         -3   -1    0    0    0  501 -0.00000000000E+00 -0.00000000000E+00 -0.13286852138E+03  0.13286852138E+03  0.00000000000E+00 0. -1.
         35    2    1    2    0    0  0.00000000000E+00  0.00000000000E+00  0.14164364540E+02  0.27990140730E+03  0.27954278489E+03 0.  0.
         25    2    3    3    0    0  0.44174228893E+02 -0.12353128203E+02  0.50419880832E+02  0.14238074346E+03  0.12500459772E+03 0.  0.
         25    2    3    3    0    0 -0.44174228893E+02  0.12353128203E+02 -0.36255516292E+02  0.13752066383E+03  0.12447292174E+03 0.  0.
          5    1    4    4  502    0 -0.39107914323E+02  0.18539082758E+02  0.99540855698E+01  0.44657590304E+02  0.47000000000E+01 0. -1.
         -5    1    4    4    0  502  0.83282143216E+02 -0.30892210961E+02  0.40465795262E+02  0.97723153157E+02  0.47000000000E+01 0. -1.
          5    1    5    5  503    0 -0.20547623432E+02 -0.22508814368E+02  0.39865054902E+02  0.50400041223E+02  0.47000000000E+01 0.  1.
         -5    1    5    5    0  503 -0.23626605461E+02  0.34861942571E+02 -0.76120571194E+02  0.87120622612E+02  0.47000000000E+01 0.  1.
<mgrwt>
<rscale>  0 0.27954278E+03</rscale>
<asrwt>0</asrwt>
<pdfrwt beam="1">  1        3 0.22620444E-01 0.27954278E+03</pdfrwt>
<pdfrwt beam="2">  1       -3 0.20441311E-01 0.27954278E+03</pdfrwt>
<totfact> 0.99032196E+02</totfact>
</mgrwt>
</event>
<event>
 9    1  0.7957670E-001  0.2643812E+03  0.7818608E-02  0.1104539E+00
         -1   -1    0    0    0  501 -0.00000000000E+00  0.00000000000E+00  0.68780945494E+02  0.68780945494E+02  0.00000000000E+00 0. -1.
          1   -1    0    0  501    0  0.00000000000E+00 -0.00000000000E+00 -0.25405805054E+03  0.25405805054E+03  0.00000000000E+00 0. -1.
         35    2    1    2    0    0 -0.35527136788E-14  0.00000000000E+00 -0.18527710504E+03  0.32283899603E+03  0.26438118637E+03 0.  0.
         25    2    3    3    0    0  0.29596541909E+02 -0.35407258177E+01 -0.13569144706E+03  0.18642442532E+03  0.12431172720E+03 0.  0.
         25    2    3    3    0    0 -0.29596541909E+02  0.35407258177E+01 -0.49585657986E+02  0.13641457071E+03  0.12353827582E+03 0.  0.
          5    1    4    4  502    0 -0.45714484923E+02  0.76265646797E+01 -0.27659427372E+02  0.54176678960E+02  0.47000000000E+01 0.  1.
         -5    1    4    4    0  502  0.75311026832E+02 -0.11167290497E+02 -0.10803201969E+03  0.13224774636E+03  0.47000000000E+01 0.  1.
          5    1    5    5  503    0  0.21371087087E+02  0.37434925386E+02 -0.60122786072E+02  0.74127838273E+02  0.47000000000E+01 0.  1.
         -5    1    5    5    0  503 -0.50967628996E+02 -0.33894199569E+02  0.10537128085E+02  0.62286732441E+02  0.47000000000E+01 0.  1.
<mgrwt>
<rscale>  0 0.26438119E+03</rscale>
<asrwt>0</asrwt>
<pdfrwt beam="1">  1        1 0.39085854E-01 0.26438119E+03</pdfrwt>
<pdfrwt beam="2">  1       -1 0.10581684E-01 0.26438119E+03</pdfrwt>
<totfact> 0.59826803E+03</totfact>
</mgrwt>
</event>
<event>
 9    1  0.7957670E-001  0.2719251E+03  0.7818608E-02  0.1100183E+00
         -2   -1    0    0    0  501 -0.00000000000E+00  0.00000000000E+00  0.62538268754E+02  0.62538268754E+02  0.00000000000E+00 0.  1.
          2   -1    0    0  501    0  0.00000000000E+00 -0.00000000000E+00 -0.29559198396E+03  0.29559198396E+03  0.00000000000E+00 0.  1.
         35    2    1    2    0    0  0.71054273576E-14  0.00000000000E+00 -0.23305371521E+03  0.35813025272E+03  0.27192507008E+03 0.  0.
         25    2    3    3    0    0 -0.29054491174E+02 -0.39857796567E+02 -0.14579025699E+03  0.19773670175E+03  0.12414586897E+03 0.  0.
         25    2    3    3    0    0  0.29054491174E+02  0.39857796567E+02 -0.87263458217E+02  0.16039355096E+03  0.12521330858E+03 0.  0.
          5    1    4    4  502    0 -0.18265601449E+02 -0.32283842968E+02  0.12045409899E+02  0.39281810201E+02  0.47000000000E+01 0.  1.
         -5    1    4    4    0  502 -0.10788889725E+02 -0.75739535989E+01 -0.15783566689E+03  0.15845489155E+03  0.47000000000E+01 0.  1.
          5    1    5    5  503    0 -0.29806204310E+02  0.44699852791E+02  0.11751366055E+01  0.53944022848E+02  0.47000000000E+01 0.  1.
         -5    1    5    5    0  503  0.58860695484E+02 -0.48420562245E+01 -0.88438594823E+02  0.10644952811E+03  0.47000000000E+01 0.  1.
<mgrwt>
<rscale>  0 0.27192507E+03</rscale>
<asrwt>0</asrwt>
<pdfrwt beam="1">  1        2 0.45475690E-01 0.27192507E+03</pdfrwt>
<pdfrwt beam="2">  1       -2 0.96212720E-02 0.27192507E+03</pdfrwt>
<totfact> 0.77784016E+03</totfact>
</mgrwt>
</event>
<event>
 9    1  0.7957670E-001  0.2761518E+03  0.7818608E-02  0.1097810E+00
          1   -1    0    0  501    0  0.00000000000E+00  0.00000000000E+00  0.17710475145E+04  0.17710475145E+04  0.00000000000E+00 0.  1.
         -1   -1    0    0    0  501 -0.00000000000E+00 -0.00000000000E+00 -0.10764786974E+02  0.10764786974E+02  0.00000000000E+00 0.  1.
         35    2    1    2    0    0 -0.17763568394E-14  0.00000000000E+00  0.17602827275E+04  0.17818123015E+04  0.27615176417E+03 0.  0.
         25    2    3    3    0    0 -0.14544167547E+01 -0.56508716488E+02  0.97960248548E+03  0.98921663156E+03  0.12543191069E+03 0.  0.
         25    2    3    3    0    0  0.14544167547E+01  0.56508716488E+02  0.78068024203E+03  0.79259566990E+03  0.12470326894E+03 0.  0.
          5    1    4    4  502    0 -0.24710216658E+02 -0.65036769217E+02  0.26047573044E+03  0.26964805267E+03  0.47000000000E+01 0.  1.
         -5    1    4    4    0  502  0.23255799903E+02  0.85280527288E+01  0.71912675504E+03  0.71956857889E+03  0.47000000000E+01 0.  1.
          5    1    5    5  503    0  0.97855998088E+01  0.32013266153E+02  0.44193384772E+02  0.55639486258E+02  0.47000000000E+01 0.  1.
         -5    1    5    5    0  503 -0.83311830542E+01  0.24495450335E+02  0.73648685726E+03  0.73695618364E+03  0.47000000000E+01 0.  1.
<mgrwt>
<rscale>  0 0.27615176E+03</rscale>
<asrwt>0</asrwt>
<pdfrwt beam="1">  1        1 0.27246862E+00 0.27615176E+03</pdfrwt>
<pdfrwt beam="2">  1       -1 0.16561225E-02 0.27615176E+03</pdfrwt>
<totfact> 0.42931412E+03</totfact>
</mgrwt>
</event>
<event>
 9    1  0.7957670E-001  0.2745453E+03  0.7818608E-02  0.1098706E+00
         -2   -1    0    0    0  501 -0.00000000000E+00  0.00000000000E+00  0.34033243304E+02  0.34033243304E+02  0.00000000000E+00 0. -1.
          2   -1    0    0  501    0  0.00000000000E+00 -0.00000000000E+00 -0.55368744020E+03  0.55368744020E+03  0.00000000000E+00 0. -1.
         35    2    1    2    0    0  0.35527136788E-14  0.71054273576E-14 -0.51965419689E+03  0.58772068350E+03  0.27454529219E+03 0.  0.
         25    2    3    3    0    0  0.13617727903E+02  0.45405324668E+02 -0.33434772338E+03  0.35960638228E+03  0.12361740989E+03 0.  0.
         25    2    3    3    0    0 -0.13617727903E+02 -0.45405324668E+02 -0.18530647351E+03  0.22811430122E+03  0.12430027865E+03 0.  0.
          5    1    4    4  502    0 -0.50597430947E+02  0.39015662068E+02 -0.20818159055E+03  0.21781640560E+03  0.47000000000E+01 0. -1.
         -5    1    4    4    0  502  0.64215158850E+02  0.63896626008E+01 -0.12616613283E+03  0.14178997669E+03  0.47000000000E+01 0. -1.
          5    1    5    5  503    0 -0.14617699043E+02 -0.86162271966E+02 -0.15141781311E+03  0.17489156172E+03  0.47000000000E+01 0.  1.
         -5    1    5    5    0  503  0.99997114019E+00  0.40756947298E+02 -0.33888660406E+02  0.53222739495E+02  0.47000000000E+01 0.  1.
<mgrwt>
<rscale>  0 0.27454529E+03</rscale>
<asrwt>0</asrwt>
<pdfrwt beam="1">  1        2 0.85182679E-01 0.27454529E+03</pdfrwt>
<pdfrwt beam="2">  1       -2 0.52358838E-02 0.27454529E+03</pdfrwt>
<totfact> 0.10055936E+04</totfact>
</mgrwt>
</event>
<event>
 9    1  0.7957670E-001  0.2798343E+03  0.7818608E-02  0.1095779E+00
         -2   -1    0    0    0  501 -0.00000000000E+00  0.00000000000E+00  0.89775505650E+01  0.89775505650E+01  0.00000000000E+00 0.  1.
          2   -1    0    0  501    0  0.00000000000E+00 -0.00000000000E+00 -0.21806403005E+04  0.21806403005E+04  0.00000000000E+00 0.  1.
         35    2    1    2    0    0  0.71054273576E-14  0.00000000000E+00 -0.21716627500E+04  0.21896178511E+04  0.27983429784E+03 0.  0.
         25    2    3    3    0    0  0.76543307859E+01 -0.61049026198E+02 -0.99121675812E+03  0.10009174571E+04  0.12465761921E+03 0.  0.
         25    2    3    3    0    0 -0.76543307859E+01  0.61049026198E+02 -0.11804459918E+04  0.11887003940E+04  0.12557991310E+03 0.  0.
          5    1    4    4  502    0 -0.50043604958E+02 -0.53664496493E+02 -0.70417767026E+03  0.70800601824E+03  0.47000000000E+01 0. -1.
         -5    1    4    4    0  502  0.57697935744E+02 -0.73845297050E+01 -0.28703908786E+03  0.29291143889E+03  0.47000000000E+01 0. -1.
          5    1    5    5  503    0  0.55158869911E+02  0.54491534335E+01 -0.50157052825E+03  0.50464569651E+03  0.47000000000E+01 0. -1.
         -5    1    5    5    0  503 -0.62813200697E+02  0.55599872765E+02 -0.67887546360E+03  0.68405469745E+03  0.47000000000E+01 0. -1.
<mgrwt>
<rscale>  0 0.27983430E+03</rscale>
<asrwt>0</asrwt>
<pdfrwt beam="1">  1        2 0.33548372E+00 0.27983430E+03</pdfrwt>
<pdfrwt beam="2">  1       -2 0.13811592E-02 0.27983430E+03</pdfrwt>
<totfact> 0.79388870E+03</totfact>
</mgrwt>
</event>
<event>
 9    1  0.7957670E-001  0.2782245E+03  0.7818608E-02  0.1096663E+00
         -1   -1    0    0    0  501 -0.00000000000E+00  0.00000000000E+00  0.42768776468E+03  0.42768776468E+03  0.00000000000E+00 0. -1.
          1   -1    0    0  501    0  0.00000000000E+00 -0.00000000000E+00 -0.45248486282E+02  0.45248486282E+02  0.00000000000E+00 0. -1.
         35    2    1    2    0    0  0.71054273576E-14 -0.14210854715E-13  0.38243927839E+03  0.47293625096E+03  0.27822454207E+03 0.  0.
         25    2    3    3    0    0 -0.41483413652E+02  0.41347994594E+02  0.21577838439E+03  0.25630763851E+03  0.12531067043E+03 0.  0.
         25    2    3    3    0    0  0.41483413652E+02 -0.41347994594E+02  0.16666089400E+03  0.21662861245E+03  0.12538569247E+03 0.  0.
          5    1    4    4  502    0  0.20695584347E+01  0.46708721513E+02  0.12961981162E+02  0.48745160715E+02  0.47000000000E+01 0.  1.
         -5    1    4    4    0  502 -0.43552972087E+02 -0.53607269189E+01  0.20281640323E+03  0.20756247780E+03  0.47000000000E+01 0.  1.
          5    1    5    5  503    0  0.11879683526E+02  0.35214243792E+02  0.85593976047E+01  0.38425553137E+02  0.47000000000E+01 0. -1.
         -5    1    5    5    0  503  0.29603730126E+02 -0.76562238386E+02  0.15810149640E+03  0.17820305931E+03  0.47000000000E+01 0. -1.
<mgrwt>
<rscale>  0 0.27822454E+03</rscale>
<asrwt>0</asrwt>
<pdfrwt beam="1">  1        1 0.69613059E-02 0.27822454E+03</pdfrwt>
<pdfrwt beam="2">  1       -1 0.65798115E-01 0.27822454E+03</pdfrwt>
<totfact> 0.25475632E+03</totfact>
</mgrwt>
</event>
<event>
 9    1  0.7957670E-001  0.2726297E+03  0.7818608E-02  0.1099784E+00
          1   -1    0    0  501    0  0.00000000000E+00  0.00000000000E+00  0.23222781849E+02  0.23222781849E+02  0.00000000000E+00 0. -1.
         -1   -1    0    0    0  501 -0.00000000000E+00 -0.00000000000E+00 -0.80015143173E+03  0.80015143173E+03  0.00000000000E+00 0. -1.
         35    2    1    2    0    0  0.71054273576E-14  0.00000000000E+00 -0.77692864988E+03  0.82337421358E+03  0.27262972799E+03 0.  0.
         25    2    3    3    0    0 -0.22541747169E+02  0.24617698202E+02 -0.52863565486E+03  0.54428255766E+03  0.12519459075E+03 0.  0.
         25    2    3    3    0    0  0.22541747169E+02 -0.24617698202E+02 -0.24829299502E+03  0.27909165592E+03  0.12299829104E+03 0.  0.
          5    1    4    4  502    0 -0.70880644719E+02  0.13909016187E+02 -0.39741609146E+03  0.40395441114E+03  0.47000000000E+01 0.  1.
         -5    1    4    4    0  502  0.48338897550E+02  0.10708682016E+02 -0.13121956340E+03  0.14032814652E+03  0.47000000000E+01 0.  1.
          5    1    5    5  503    0 -0.17414155145E+02  0.31981998500E+02 -0.17222031307E+03  0.17609096303E+03  0.47000000000E+01 0.  1.
         -5    1    5    5    0  503  0.39955902315E+02 -0.56599696703E+02 -0.76072681954E+02  0.10300069289E+03  0.47000000000E+01 0.  1.
<mgrwt>
<rscale>  0 0.27262973E+03</rscale>
<asrwt>0</asrwt>
<pdfrwt beam="1">  1        1 0.35727362E-02 0.27262973E+03</pdfrwt>
<pdfrwt beam="2">  1       -1 0.12310020E+00 0.27262973E+03</pdfrwt>
<totfact> 0.16560031E+03</totfact>
</mgrwt>
</event>
<event>
 9    1  0.7957670E-001  0.2751166E+03  0.7818608E-02  0.1098386E+00
         -2   -1    0    0    0  501 -0.00000000000E+00  0.00000000000E+00  0.69293260652E+02  0.69293260652E+02  0.00000000000E+00 0. -1.
          2   -1    0    0  501    0  0.00000000000E+00 -0.00000000000E+00 -0.27307543566E+03  0.27307543566E+03  0.00000000000E+00 0. -1.
         35    2    1    2    0    0  0.00000000000E+00  0.00000000000E+00 -0.20378217501E+03  0.34236869631E+03  0.27511661048E+03 0.  0.
         25    2    3    3    0    0  0.23804633167E+02  0.45178455101E+02 -0.12922162293E+03  0.18710757990E+03  0.12531266998E+03 0.  0.
         25    2    3    3    0    0 -0.23804633167E+02 -0.45178455101E+02 -0.74560552078E+02  0.15526111642E+03  0.12624969299E+03 0.  0.
          5    1    4    4  502    0  0.65008223420E+02  0.40317349934E+02 -0.12295574066E+03  0.14488534081E+03  0.47000000000E+01 0. -1.
         -5    1    4    4    0  502 -0.41203590254E+02  0.48611051671E+01 -0.62658822647E+01  0.42222239090E+02  0.47000000000E+01 0. -1.
          5    1    5    5  503    0 -0.60337247505E+02 -0.65189658198E+02 -0.69809722341E+02  0.11307414517E+03  0.47000000000E+01 0.  1.
         -5    1    5    5    0  503  0.36532614338E+02  0.20011203097E+02 -0.47508297377E+01  0.42186971247E+02  0.47000000000E+01 0.  1.
<mgrwt>
<rscale>  0 0.27511661E+03</rscale>
<asrwt>0</asrwt>
<pdfrwt beam="1">  1        2 0.42011606E-01 0.27511661E+03</pdfrwt>
<pdfrwt beam="2">  1       -2 0.10660502E-01 0.27511661E+03</pdfrwt>
<totfact> 0.71982164E+03</totfact>
</mgrwt>
</event>
<event>
 9    1  0.7957670E-001  0.2771090E+03  0.7818608E-02  0.1097278E+00
         -1   -1    0    0    0  501 -0.00000000000E+00  0.00000000000E+00  0.29107325940E+02  0.29107325940E+02  0.00000000000E+00 0.  1.
          1   -1    0    0  501    0  0.00000000000E+00 -0.00000000000E+00 -0.65953673446E+03  0.65953673446E+03  0.00000000000E+00 0.  1.
         35    2    1    2    0    0  0.00000000000E+00 -0.35527136788E-14 -0.63042940852E+03  0.68864406040E+03  0.27710900887E+03 0.  0.
         25    2    3    3    0    0 -0.65819770947E+02  0.11522736704E+02 -0.36814446961E+03  0.39499554686E+03  0.12659429618E+03 0.  0.
         25    2    3    3    0    0  0.65819770947E+02 -0.11522736704E+02 -0.26228493892E+03  0.29364851354E+03  0.11389049397E+03 0.  0.
          5    1    4    4  502    0 -0.57538495002E+02  0.46410777379E+02 -0.34310332256E+03  0.35100800363E+03  0.47000000000E+01 0.  1.
         -5    1    4    4    0  502 -0.82812759452E+01 -0.34888040676E+02 -0.25041147050E+02  0.43987543226E+02  0.47000000000E+01 0.  1.
          5    1    5    5  503    0 -0.15325118816E+02  0.10357076067E+02 -0.96785452585E+00  0.19109030163E+02  0.47000000000E+01 0.  1.
         -5    1    5    5    0  503  0.81144889763E+02 -0.21879812771E+02 -0.26131708439E+03  0.27453948338E+03  0.47000000000E+01 0.  1.
<mgrwt>
<rscale>  0 0.27710901E+03</rscale>
<asrwt>0</asrwt>
<pdfrwt beam="1">  1        1 0.10146719E+00 0.27710901E+03</pdfrwt>
<pdfrwt beam="2">  1       -1 0.44780503E-02 0.27710901E+03</pdfrwt>
<totfact> 0.63679487E+03</totfact>
</mgrwt>
</event>
<event>
 9    1  0.7957670E-001  0.2694496E+03  0.7818608E-02  0.1101595E+00
         -3   -1    0    0    0  501 -0.00000000000E+00  0.00000000000E+00  0.12127543263E+03  0.12127543263E+03  0.00000000000E+00 0. -1.
          3   -1    0    0  501    0  0.00000000000E+00 -0.00000000000E+00 -0.14966563815E+03  0.14966563815E+03  0.00000000000E+00 0. -1.
         35    2    1    2    0    0  0.00000000000E+00  0.00000000000E+00 -0.28390205521E+02  0.27094107078E+03  0.26944955013E+03 0.  0.
         25    2    3    3    0    0  0.24154287159E+02  0.34829454685E+02 -0.40454337996E+02  0.13819857881E+03  0.12516298662E+03 0.  0.
         25    2    3    3    0    0 -0.24154287159E+02 -0.34829454685E+02  0.12064132475E+02  0.13274249197E+03  0.12521383861E+03 0.  0.
          5    1    4    4  502    0 -0.21969129119E+02 -0.18322548189E+01 -0.68979582291E+02  0.72569088219E+02  0.47000000000E+01 0. -1.
         -5    1    4    4    0  502  0.46123416278E+02  0.36661709504E+02  0.28525244295E+02  0.65629490589E+02  0.47000000000E+01 0. -1.
          5    1    5    5  503    0  0.25674084301E+02  0.77431088860E+01  0.49955911951E+02  0.56892859647E+02  0.47000000000E+01 0.  1.
         -5    1    5    5    0  503 -0.49828371460E+02 -0.42572563571E+02 -0.37891779476E+02  0.75849632321E+02  0.47000000000E+01 0.  1.
<mgrwt>
<rscale>  0 0.26944955E+03</rscale>
<asrwt>0</asrwt>
<pdfrwt beam="1">  1        3 0.23025483E-01 0.26944955E+03</pdfrwt>
<pdfrwt beam="2">  1       -3 0.18657759E-01 0.26944955E+03</pdfrwt>
<totfact> 0.11232802E+03</totfact>
</mgrwt>
</event>
<event>
 9    1  0.7957670E-001  0.2756506E+03  0.7818608E-02  0.1098088E+00
         -1   -1    0    0    0  501 -0.00000000000E+00  0.00000000000E+00  0.72435000948E+01  0.72435000948E+01  0.00000000000E+00 0.  1.
          1   -1    0    0  501    0  0.00000000000E+00 -0.00000000000E+00 -0.26224628460E+04  0.26224628460E+04  0.00000000000E+00 0.  1.
         35    2    1    2    0    0 -0.71054273576E-14  0.35527136788E-14 -0.26152193459E+04  0.26297063461E+04  0.27565057499E+03 0.  0.
         25    2    3    3    0    0 -0.32201082652E+02  0.29601921895E+02 -0.17133723496E+04  0.17184648272E+04  0.12475323772E+03 0.  0.
         25    2    3    3    0    0  0.32201082652E+02 -0.29601921895E+02 -0.90184699626E+03  0.91124151889E+03  0.12296307403E+03 0.  0.
          5    1    4    4  502    0 -0.51998383466E+02 -0.79561700748E+01 -0.14961802102E+04  0.14971120345E+04  0.47000000000E+01 0.  1.
         -5    1    4    4    0  502  0.19797300815E+02  0.37558091970E+02 -0.21719213942E+03  0.22135279266E+03  0.47000000000E+01 0.  1.
          5    1    5    5  503    0 -0.88133256534E+01  0.21918751706E+02 -0.38770966356E+02  0.45644103865E+02  0.47000000000E+01 0.  1.
         -5    1    5    5    0  503  0.41014408305E+02 -0.51520673601E+02 -0.86307602990E+03  0.86559741502E+03  0.47000000000E+01 0.  1.
<mgrwt>
<rscale>  0 0.27565057E+03</rscale>
<asrwt>0</asrwt>
<pdfrwt beam="1">  1        1 0.40345597E+00 0.27565057E+03</pdfrwt>
<pdfrwt beam="2">  1       -1 0.11143842E-02 0.27565057E+03</pdfrwt>
<totfact> 0.21112416E+03</totfact>
</mgrwt>
</event>
<event>
 9    1  0.7957670E-001  0.2774637E+03  0.7818608E-02  0.1097082E+00
          2   -1    0    0  501    0  0.00000000000E+00  0.00000000000E+00  0.28387013679E+03  0.28387013679E+03  0.00000000000E+00 0.  1.
         -2   -1    0    0    0  501 -0.00000000000E+00 -0.00000000000E+00 -0.67800461494E+02  0.67800461494E+02  0.00000000000E+00 0.  1.
         35    2    1    2    0    0  0.71054273576E-14  0.00000000000E+00  0.21606967530E+03  0.35167059828E+03  0.27746370054E+03 0.  0.
         25    2    3    3    0    0  0.23403988146E+02 -0.30747568570E+02  0.15898881232E+03  0.20603886118E+03  0.12522543767E+03 0.  0.
         25    2    3    3    0    0 -0.23403988146E+02  0.30747568570E+02  0.57080862981E+02  0.14563173711E+03  0.12828569016E+03 0.  0.
          5    1    4    4  502    0 -0.61630989560E+01  0.10022412276E+02 -0.17973122555E+02  0.21989899294E+02  0.47000000000E+01 0. -1.
         -5    1    4    4    0  502  0.29567087102E+02 -0.40769980846E+02  0.17696193487E+03  0.18404896189E+03  0.47000000000E+01 0. -1.
          5    1    5    5  503    0  0.52624203300E+02  0.18266112248E+02  0.15773646800E+02  0.58084899612E+02  0.47000000000E+01 0.  1.
         -5    1    5    5    0  503 -0.76028191446E+02  0.12481456322E+02  0.41307216181E+02  0.87546837493E+02  0.47000000000E+01 0.  1.
<mgrwt>
<rscale>  0 0.27746370E+03</rscale>
<asrwt>0</asrwt>
<pdfrwt beam="1">  1        2 0.43672328E-01 0.27746370E+03</pdfrwt>
<pdfrwt beam="2">  1       -2 0.10430840E-01 0.27746370E+03</pdfrwt>
<totfact> 0.71506979E+03</totfact>
</mgrwt>
</event>
<event>
 9    1  0.7957670E-001  0.2746884E+03  0.7818608E-02  0.1098626E+00
         -2   -1    0    0    0  501 -0.00000000000E+00  0.00000000000E+00  0.21384631180E+02  0.21384631180E+02  0.00000000000E+00 0.  1.
          2   -1    0    0  501    0  0.00000000000E+00 -0.00000000000E+00 -0.88210239140E+03  0.88210239140E+03  0.00000000000E+00 0.  1.
         35    2    1    2    0    0  0.00000000000E+00  0.00000000000E+00 -0.86071776022E+03  0.90348702258E+03  0.27468843662E+03 0.  0.
         25    2    3    3    0    0  0.50767080824E+01  0.31117606896E+01 -0.61668631972E+03  0.62920144543E+03  0.12472764722E+03 0.  0.
         25    2    3    3    0    0 -0.50767080824E+01 -0.31117606896E+01 -0.24403144050E+03  0.27428557715E+03  0.12508308383E+03 0.  0.
          5    1    4    4  502    0  0.43181779376E+02 -0.12180955747E+02 -0.54174583962E+03  0.54362090330E+03  0.47000000000E+01 0. -1.
         -5    1    4    4    0  502 -0.38105071293E+02  0.15292716437E+02 -0.74940480096E+02  0.85580542130E+02  0.47000000000E+01 0. -1.
          5    1    5    5  503    0 -0.59554463168E+02  0.18508528096E+02 -0.91670792044E+02  0.11097262640E+03  0.47000000000E+01 0. -1.
         -5    1    5    5    0  503  0.54477755085E+02 -0.21620288786E+02 -0.15236064845E+03  0.16331295075E+03  0.47000000000E+01 0. -1.
<mgrwt>
<rscale>  0 0.27468844E+03</rscale>
<asrwt>0</asrwt>
<pdfrwt beam="1">  1        2 0.13570805E+00 0.27468844E+03</pdfrwt>
<pdfrwt beam="2">  1       -2 0.32899435E-02 0.27468844E+03</pdfrwt>
<totfact> 0.11478456E+04</totfact>
</mgrwt>
</event>
<event>
 9    1  0.7957670E-001  0.2781277E+03  0.7818608E-02  0.1096716E+00
          1   -1    0    0  501    0  0.00000000000E+00  0.00000000000E+00  0.55809541936E+03  0.55809541936E+03  0.00000000000E+00 0. -1.
         -1   -1    0    0    0  501 -0.00000000000E+00 -0.00000000000E+00 -0.34651344914E+02  0.34651344914E+02  0.00000000000E+00 0. -1.
         35    2    1    2    0    0  0.00000000000E+00  0.00000000000E+00  0.52344407445E+03  0.59274676428E+03  0.27812771794E+03 0.  0.
         25    2    3    3    0    0 -0.48432649532E+02 -0.13225311934E+02  0.33581517627E+03  0.36188227514E+03  0.12516516301E+03 0.  0.
         25    2    3    3    0    0  0.48432649532E+02  0.13225311934E+02  0.18762889818E+03  0.23086448914E+03  0.12479254183E+03 0.  0.
          5    1    4    4  502    0  0.35093093642E+02  0.24528984600E+02  0.10605367961E+03  0.11446689157E+03  0.47000000000E+01 0. -1.
         -5    1    4    4    0  502 -0.83525743174E+02 -0.37754296535E+02  0.22976149666E+03  0.24741538357E+03  0.47000000000E+01 0. -1.
          5    1    5    5  503    0  0.88369865557E+02  0.12421005643E+02  0.15565608755E+03  0.17948376559E+03  0.47000000000E+01 0.  1.
         -5    1    5    5    0  503 -0.39937216025E+02  0.80430629147E+00  0.31972810630E+02  0.51380723545E+02  0.47000000000E+01 0.  1.
<mgrwt>
<rscale>  0 0.27812772E+03</rscale>
<asrwt>0</asrwt>
<pdfrwt beam="1">  1        1 0.85860827E-01 0.27812772E+03</pdfrwt>
<pdfrwt beam="2">  1       -1 0.53309766E-02 0.27812772E+03</pdfrwt>
<totfact> 0.61918680E+03</totfact>
</mgrwt>
</event>
<event>
 9    1  0.7957670E-001  0.2684856E+03  0.7818608E-02  0.1102149E+00
         -2   -1    0    0    0  501 -0.00000000000E+00  0.00000000000E+00  0.77314546906E+02  0.77314546906E+02  0.00000000000E+00 0.  1.
          2   -1    0    0  501    0  0.00000000000E+00 -0.00000000000E+00 -0.23308849387E+03  0.23308849387E+03  0.00000000000E+00 0.  1.
         35    2    1    2    0    0 -0.35527136788E-14  0.00000000000E+00 -0.15577394697E+03  0.31040304078E+03  0.26848561446E+03 0.  0.
         25    2    3    3    0    0  0.14824974232E+02 -0.27607397626E+02 -0.43841540095E+02  0.13649956999E+03  0.12541173671E+03 0.  0.
         25    2    3    3    0    0 -0.14824974232E+02  0.27607397626E+02 -0.11193240687E+03  0.17390347079E+03  0.12935070614E+03 0.  0.
          5    1    4    4  502    0 -0.24794751032E+02  0.18798012684E+02 -0.64615870422E+02  0.71871034986E+02  0.47000000000E+01 0. -1.
         -5    1    4    4    0  502  0.39619725264E+02 -0.46405410310E+02  0.20774330327E+02  0.64628535002E+02  0.47000000000E+01 0. -1.
          5    1    5    5  503    0  0.49783715032E+02  0.42036373703E+02 -0.68106075932E+02  0.94371619544E+02  0.47000000000E+01 0. -1.
         -5    1    5    5    0  503 -0.64608689264E+02 -0.14428976077E+02 -0.43826330940E+02  0.79531851246E+02  0.47000000000E+01 0. -1.
<mgrwt>
<rscale>  0 0.26848561E+03</rscale>
<asrwt>0</asrwt>
<pdfrwt beam="1">  1        2 0.35859768E-01 0.26848561E+03</pdfrwt>
<pdfrwt beam="2">  1       -2 0.11894546E-01 0.26848561E+03</pdfrwt>
<totfact> 0.71565207E+03</totfact>
</mgrwt>
</event>
<event>
 9    1  0.7957670E-001  0.2708045E+03  0.7818608E-02  0.1100820E+00
          2   -1    0    0  501    0  0.00000000000E+00  0.00000000000E+00  0.23984788766E+04  0.23984788766E+04  0.00000000000E+00 0. -1.
         -2   -1    0    0    0  501 -0.00000000000E+00 -0.00000000000E+00 -0.76439133422E+01  0.76439133422E+01  0.00000000000E+00 0. -1.
         35    2    1    2    0    0 -0.71054273576E-14  0.00000000000E+00  0.23908349633E+04  0.24061227900E+04  0.27080446589E+03 0.  0.
         25    2    3    3    0    0 -0.24638185527E+02  0.45421940629E+02  0.12514373307E+04  0.12586951552E+04  0.12469125136E+03 0.  0.
         25    2    3    3    0    0  0.24638185527E+02 -0.45421940629E+02  0.11393976325E+04  0.11474276347E+04  0.12527178065E+03 0.  0.
          5    1    4    4  502    0  0.48084071136E+02  0.12315967977E+01  0.54405073645E+03  0.54619308725E+03  0.47000000000E+01 0.  1.
         -5    1    4    4    0  502 -0.72722256663E+02  0.44190343832E+02  0.70738659429E+03  0.71250206799E+03  0.47000000000E+01 0.  1.
          5    1    5    5  503    0  0.63145044123E+02 -0.63244860198E+02  0.88017757062E+03  0.88471569148E+03  0.47000000000E+01 0. -1.
         -5    1    5    5    0  503 -0.38506858596E+02  0.17822919568E+02  0.25922006191E+03  0.26271194324E+03  0.47000000000E+01 0. -1.
<mgrwt>
<rscale>  0 0.27080447E+03</rscale>
<asrwt>0</asrwt>
<pdfrwt beam="1">  1        2 0.36899615E+00 0.27080447E+03</pdfrwt>
<pdfrwt beam="2">  1       -2 0.11759886E-02 0.27080447E+03</pdfrwt>
<totfact> 0.76706265E+03</totfact>
</mgrwt>
</event>
<event>
 9    1  0.7957670E-001  0.2726281E+03  0.7818608E-02  0.1099785E+00
          1   -1    0    0  501    0  0.00000000000E+00  0.00000000000E+00  0.28748215874E+02  0.28748215874E+02  0.00000000000E+00 0.  1.
         -1   -1    0    0    0  501 -0.00000000000E+00 -0.00000000000E+00 -0.64635381176E+03  0.64635381176E+03  0.00000000000E+00 0.  1.
         35    2    1    2    0    0  0.71054273576E-14 -0.35527136788E-14 -0.61760559589E+03  0.67510202764E+03  0.27262809035E+03 0.  0.
         25    2    3    3    0    0 -0.47891627074E+02 -0.18694800445E+02 -0.27147308457E+03  0.30326264401E+03  0.12500996799E+03 0.  0.
         25    2    3    3    0    0  0.47891627074E+02  0.18694800445E+02 -0.34613251132E+03  0.37183938363E+03  0.12575256785E+03 0.  0.
          5    1    4    4  502    0  0.24366789068E+02 -0.42353875048E+02 -0.54714436903E+02  0.73507487692E+02  0.47000000000E+01 0.  1.
         -5    1    4    4    0  502 -0.72258416143E+02  0.23659074603E+02 -0.21675864767E+03  0.22975515632E+03  0.47000000000E+01 0.  1.
          5    1    5    5  503    0  0.30040379949E+02 -0.50872152098E+02 -0.10959009669E+03  0.12458924344E+03  0.47000000000E+01 0.  1.
         -5    1    5    5    0  503  0.17851247125E+02  0.69566952543E+02 -0.23654241462E+03  0.24725014019E+03  0.47000000000E+01 0.  1.
<mgrwt>
<rscale>  0 0.27262809E+03</rscale>
<asrwt>0</asrwt>
<pdfrwt beam="1">  1        1 0.44228025E-02 0.27262809E+03</pdfrwt>
<pdfrwt beam="2">  1       -1 0.99439047E-01 0.27262809E+03</pdfrwt>
<totfact> 0.20135496E+03</totfact>
</mgrwt>
</event>
<event>
 9    1  0.7957670E-001  0.2785837E+03  0.7818608E-02  0.1096465E+00
          1   -1    0    0  501    0  0.00000000000E+00  0.00000000000E+00  0.18613945116E+04  0.18613945116E+04  0.00000000000E+00 0.  1.
         -1   -1    0    0    0  501 -0.00000000000E+00 -0.00000000000E+00 -0.10423485721E+02  0.10423485721E+02  0.00000000000E+00 0.  1.
         35    2    1    2    0    0  0.00000000000E+00  0.00000000000E+00  0.18509710259E+04  0.18718179973E+04  0.27858369739E+03 0.  0.
         25    2    3    3    0    0  0.47411610000E+02  0.46330356423E+02  0.85283734324E+03  0.86453461068E+03  0.12527647962E+03 0.  0.
         25    2    3    3    0    0 -0.47411610000E+02 -0.46330356423E+02  0.99813368264E+03  0.10072833866E+04  0.11812963176E+03 0.  0.
          5    1    4    4  502    0  0.20662330269E+02 -0.30305106072E+02  0.54132490460E+03  0.54258646655E+03  0.47000000000E+01 0. -1.
         -5    1    4    4    0  502  0.26749279730E+02  0.76635462495E+02  0.31151243864E+03  0.32194814413E+03  0.47000000000E+01 0. -1.
          5    1    5    5  503    0 -0.56295662077E+02 -0.41775217965E+01  0.87342893459E+03  0.87526387281E+03  0.47000000000E+01 0. -1.
         -5    1    5    5    0  503  0.88840520777E+01 -0.42152834626E+02  0.12470474804E+03  0.13201951383E+03  0.47000000000E+01 0. -1.
<mgrwt>
<rscale>  0 0.27858370E+03</rscale>
<asrwt>0</asrwt>
<pdfrwt beam="1">  1        1 0.28636812E+00 0.27858370E+03</pdfrwt>
<pdfrwt beam="2">  1       -1 0.16036147E-02 0.27858370E+03</pdfrwt>
<totfact> 0.39304325E+03</totfact>
</mgrwt>
</event>
<event>
 9    1  0.7957670E-001  0.2753586E+03  0.7818608E-02  0.1098251E+00
          2   -1    0    0  501    0  0.00000000000E+00  0.00000000000E+00  0.25122195863E+04  0.25122195863E+04  0.00000000000E+00 0. -1.
         -2   -1    0    0    0  501 -0.00000000000E+00 -0.00000000000E+00 -0.75453571296E+01  0.75453571296E+01  0.00000000000E+00 0. -1.
         35    2    1    2    0    0 -0.71054273576E-14 -0.71054273576E-14  0.25046742292E+04  0.25197649435E+04  0.27535863136E+03 0.  0.
         25    2    3    3    0    0  0.36217836713E+02  0.39324454941E+02  0.14031850800E+04  0.14098019960E+04  0.12551953938E+03 0.  0.
         25    2    3    3    0    0 -0.36217836713E+02 -0.39324454941E+02  0.11014891492E+04  0.11099629475E+04  0.12602084928E+03 0.  0.
          5    1    4    4  502    0  0.26478939655E+02  0.84177117751E+02  0.10278765643E+04  0.10316681844E+04  0.47000000000E+01 0.  1.
         -5    1    4    4    0  502  0.97388970581E+01 -0.44852662810E+02  0.37530851569E+03  0.37813381153E+03  0.47000000000E+01 0.  1.
          5    1    5    5  503    0 -0.35100895967E+02  0.36785941871E+02  0.25610401080E+03  0.26114485016E+03  0.47000000000E+01 0.  1.
         -5    1    5    5    0  503 -0.11169407459E+01 -0.76110396812E+02  0.84538513843E+03  0.84881809732E+03  0.47000000000E+01 0.  1.
<mgrwt>
<rscale>  0 0.27535863E+03</rscale>
<asrwt>0</asrwt>
<pdfrwt beam="1">  1        2 0.38649466E+00 0.27535863E+03</pdfrwt>
<pdfrwt beam="2">  1       -2 0.11608262E-02 0.27535863E+03</pdfrwt>
<totfact> 0.67767266E+03</totfact>
</mgrwt>
</event>
<event>
 9    1  0.7957670E-001  0.2764463E+03  0.7818608E-02  0.1097646E+00
          2   -1    0    0  501    0  0.00000000000E+00  0.00000000000E+00  0.20987197572E+03  0.20987197572E+03  0.00000000000E+00 0. -1.
         -2   -1    0    0    0  501 -0.00000000000E+00 -0.00000000000E+00 -0.91034720580E+02  0.91034720580E+02  0.00000000000E+00 0. -1.
         35    2    1    2    0    0  0.00000000000E+00  0.00000000000E+00  0.11883725514E+03  0.30090669630E+03  0.27644628170E+03 0.  0.
         25    2    3    3    0    0 -0.17698289213E+02  0.41762586475E+02  0.18410337153E+02  0.13430352244E+03  0.12506459353E+03 0.  0.
         25    2    3    3    0    0  0.17698289213E+02 -0.41762586475E+02  0.10042691798E+03  0.16660317386E+03  0.12495482629E+03 0.  0.
          5    1    4    4  502    0 -0.19191301508E+02 -0.31286272505E+02 -0.29056421349E+02  0.47047874792E+02  0.47000000000E+01 0.  1.
         -5    1    4    4    0  502  0.14930122953E+01  0.73048858980E+02  0.47466758502E+02  0.87255647649E+02  0.47000000000E+01 0.  1.
          5    1    5    5  503    0  0.74199767491E+01 -0.66163462411E+02  0.44075256592E+01  0.66889282368E+02  0.47000000000E+01 0. -1.
         -5    1    5    5    0  503  0.10278312464E+02  0.24400875936E+02  0.96019392324E+02  0.99713891489E+02  0.47000000000E+01 0. -1.
<mgrwt>
<rscale>  0 0.27644628E+03</rscale>
<asrwt>0</asrwt>
<pdfrwt beam="1">  1        2 0.32287996E-01 0.27644628E+03</pdfrwt>
<pdfrwt beam="2">  1       -2 0.14005342E-01 0.27644628E+03</pdfrwt>
<totfact> 0.61569059E+03</totfact>
</mgrwt>
</event>
<event>
 9    1  0.7957670E-001  0.2798921E+03  0.7818608E-02  0.1095748E+00
         -2   -1    0    0    0  501 -0.00000000000E+00  0.00000000000E+00  0.28754791777E+03  0.28754791777E+03  0.00000000000E+00 0.  1.
          2   -1    0    0  501    0  0.00000000000E+00 -0.00000000000E+00 -0.68110019621E+02  0.68110019621E+02  0.00000000000E+00 0.  1.
         35    2    1    2    0    0 -0.17763568394E-14 -0.21316282073E-13  0.21943789815E+03  0.35565793739E+03  0.27989208149E+03 0.  0.
         25    2    3    3    0    0 -0.31092389129E+01 -0.54696132504E+02  0.75007180312E+02  0.15681651828E+03  0.12634875951E+03 0.  0.
         25    2    3    3    0    0  0.31092389129E+01  0.54696132504E+02  0.14443071783E+03  0.19884141911E+03  0.12520520525E+03 0.  0.
          5    1    4    4  502    0 -0.11100099894E+02 -0.83403838071E+02  0.89858873123E+02  0.12319139378E+03  0.47000000000E+01 0. -1.
         -5    1    4    4    0  502  0.79908609810E+01  0.28707705567E+02 -0.14851692812E+02  0.33625124498E+02  0.47000000000E+01 0. -1.
          5    1    5    5  503    0 -0.14474455661E+02 -0.17926999394E+02 -0.11269060009E+02  0.26076213058E+02  0.47000000000E+01 0.  1.
         -5    1    5    5    0  503  0.17583694574E+02  0.72623131898E+02  0.15569977784E+03  0.17276520605E+03  0.47000000000E+01 0.  1.
<mgrwt>
<rscale>  0 0.27989208E+03</rscale>
<asrwt>0</asrwt>
<pdfrwt beam="1">  1        2 0.10478465E-01 0.27989208E+03</pdfrwt>
<pdfrwt beam="2">  1       -2 0.44238140E-01 0.27989208E+03</pdfrwt>
<totfact> 0.29513938E+03</totfact>
</mgrwt>
</event>
<event>
 9    1  0.7957670E-001  0.2755389E+03  0.7818608E-02  0.1098151E+00
         -1   -1    0    0    0  501 -0.00000000000E+00  0.00000000000E+00  0.80749189889E+01  0.80749189889E+01  0.00000000000E+00 0.  1.
          1   -1    0    0  501    0  0.00000000000E+00 -0.00000000000E+00 -0.23505394886E+04  0.23505394886E+04  0.00000000000E+00 0.  1.
         35    2    1    2    0    0 -0.71054273576E-14  0.00000000000E+00 -0.23424645696E+04  0.23586144076E+04  0.27553886079E+03 0.  0.
         25    2    3    3    0    0 -0.35921377980E+02  0.60146673586E+01 -0.15585204750E+04  0.15639066494E+04  0.12446451554E+03 0.  0.
         25    2    3    3    0    0  0.35921377980E+02 -0.60146673586E+01 -0.78394409466E+03  0.79470775818E+03  0.12516211778E+03 0.  0.
          5    1    4    4  502    0 -0.11788350575E+02 -0.22601463320E+02 -0.14229063504E+04  0.14231424255E+04  0.47000000000E+01 0.  1.
         -5    1    4    4    0  502 -0.24133027406E+02  0.28616130679E+02 -0.13561412456E+03  0.14076422388E+03  0.47000000000E+01 0.  1.
          5    1    5    5  503    0  0.77296087805E+02  0.21087086958E+02 -0.51428699361E+03  0.52051181756E+03  0.47000000000E+01 0. -1.
         -5    1    5    5    0  503 -0.41374709825E+02 -0.27101754317E+02 -0.26965710106E+03  0.27419594062E+03  0.47000000000E+01 0. -1.
<mgrwt>
<rscale>  0 0.27553886E+03</rscale>
<asrwt>0</asrwt>
<pdfrwt beam="1">  1        1 0.36162196E+00 0.27553886E+03</pdfrwt>
<pdfrwt beam="2">  1       -1 0.12422935E-02 0.27553886E+03</pdfrwt>
<totfact> 0.27342774E+03</totfact>
</mgrwt>
</event>
<event>
 9    1  0.7957670E-001  0.2740193E+03  0.7818608E-02  0.1099001E+00
         -2   -1    0    0    0  501 -0.00000000000E+00  0.00000000000E+00  0.43186545625E+03  0.43186545625E+03  0.00000000000E+00 0. -1.
          2   -1    0    0  501    0  0.00000000000E+00 -0.00000000000E+00 -0.43466408831E+02  0.43466408831E+02  0.00000000000E+00 0. -1.
         35    2    1    2    0    0  0.00000000000E+00  0.00000000000E+00  0.38839904742E+03  0.47533186508E+03  0.27401927291E+03 0.  0.
         25    2    3    3    0    0  0.26219158214E+02  0.49181959823E+02  0.16437005597E+03  0.21409887519E+03  0.12535750329E+03 0.  0.
         25    2    3    3    0    0 -0.26219158214E+02 -0.49181959823E+02  0.22402899145E+03  0.26123298988E+03  0.12225946411E+03 0.  0.
          5    1    4    4  502    0  0.21538677062E+01  0.85771488739E+02  0.13858078487E+03  0.16305861327E+03  0.47000000000E+01 0. -1.
         -5    1    4    4    0  502  0.24065290508E+02 -0.36589528917E+02  0.25789271099E+02  0.51040261925E+02  0.47000000000E+01 0. -1.
          5    1    5    5  503    0 -0.51750783206E+02  0.12928116596E+02  0.44929360087E+02  0.69900051209E+02  0.47000000000E+01 0.  1.
         -5    1    5    5    0  503  0.25531624992E+02 -0.62110076419E+02  0.17909963136E+03  0.19133293868E+03  0.47000000000E+01 0.  1.
<mgrwt>
<rscale>  0 0.27401927E+03</rscale>
<asrwt>0</asrwt>
<pdfrwt beam="1">  1        2 0.66871401E-02 0.27401927E+03</pdfrwt>
<pdfrwt beam="2">  1       -2 0.66440837E-01 0.27401927E+03</pdfrwt>
<totfact> 0.22806119E+03</totfact>
</mgrwt>
</event>
<event>
 9    1  0.7957670E-001  0.2761295E+03  0.7818608E-02  0.1097822E+00
         -1   -1    0    0    0  501 -0.00000000000E+00  0.00000000000E+00  0.11063258740E+02  0.11063258740E+02  0.00000000000E+00 0.  1.
          1   -1    0    0  501    0  0.00000000000E+00 -0.00000000000E+00 -0.17229891209E+04  0.17229891209E+04  0.00000000000E+00 0.  1.
         35    2    1    2    0    0  0.00000000000E+00  0.35527136788E-14 -0.17119258622E+04  0.17340523797E+04  0.27612949463E+03 0.  0.
         25    2    3    3    0    0 -0.36350704627E+02 -0.19653470290E+02 -0.59750511195E+03  0.61186731807E+03  0.12514640819E+03 0.  0.
         25    2    3    3    0    0  0.36350704627E+02  0.19653470290E+02 -0.11144207502E+04  0.11221850616E+04  0.12513221533E+03 0.  0.
          5    1    4    4  502    0 -0.58859207358E+01 -0.38900998562E+02 -0.53118753591E+02  0.66269327257E+02  0.47000000000E+01 0.  1.
         -5    1    4    4    0  502 -0.30464783891E+02  0.19247528272E+02 -0.54438635836E+03  0.54559799081E+03  0.47000000000E+01 0.  1.
          5    1    5    5  503    0 -0.74271968536E+01  0.62003199989E+02 -0.37002821350E+03  0.37528992638E+03  0.47000000000E+01 0. -1.
         -5    1    5    5    0  503  0.43777901480E+02 -0.42349729699E+02 -0.74439253673E+03  0.74689513522E+03  0.47000000000E+01 0. -1.
<mgrwt>
<rscale>  0 0.27612949E+03</rscale>
<asrwt>0</asrwt>
<pdfrwt beam="1">  1        1 0.26507512E+00 0.27612949E+03</pdfrwt>
<pdfrwt beam="2">  1       -1 0.17020406E-02 0.27612949E+03</pdfrwt>
<totfact> 0.44335795E+03</totfact>
</mgrwt>
</event>
<event>
 9    1  0.7957670E-001  0.2723812E+03  0.7818608E-02  0.1099924E+00
         -1   -1    0    0    0  501 -0.00000000000E+00  0.00000000000E+00  0.39884265203E+01  0.39884265203E+01  0.00000000000E+00 0.  1.
          1   -1    0    0  501    0  0.00000000000E+00 -0.00000000000E+00 -0.46504245755E+04  0.46504245755E+04  0.00000000000E+00 0.  1.
         35    2    1    2    0    0  0.71054273576E-14  0.00000000000E+00 -0.46464361489E+04  0.46544130020E+04  0.27238117929E+03 0.  0.
         25    2    3    3    0    0 -0.46778657715E+02 -0.28151113120E+02 -0.20851967046E+04  0.20895576027E+04  0.12338942506E+03 0.  0.
         25    2    3    3    0    0  0.46778657715E+02  0.28151113120E+02 -0.25612394444E+04  0.25648553993E+04  0.12471968527E+03 0.  0.
          5    1    4    4  502    0 -0.51597145006E+02 -0.43146045992E+02 -0.20452574596E+04  0.20463684939E+04  0.47000000000E+01 0.  1.
         -5    1    4    4    0  502  0.48184872912E+01  0.14994932871E+02 -0.39939244956E+02  0.43189108804E+02  0.47000000000E+01 0.  1.
          5    1    5    5  503    0  0.84513575661E+02  0.26681095474E+02 -0.12914776174E+04  0.12945234457E+04  0.47000000000E+01 0.  1.
         -5    1    5    5    0  503 -0.37734917946E+02  0.14700176458E+01 -0.12697618270E+04  0.12703319536E+04  0.47000000000E+01 0.  1.
<mgrwt>
<rscale>  0 0.27238118E+03</rscale>
<asrwt>0</asrwt>
<pdfrwt beam="1">  1        1 0.71545182E+00 0.27238118E+03</pdfrwt>
<pdfrwt beam="2">  1       -1 0.61360246E-03 0.27238118E+03</pdfrwt>
<totfact> 0.11859179E+02</totfact>
</mgrwt>
</event>
<event>
 9    1  0.7957670E-001  0.2751940E+03  0.7818608E-02  0.1098343E+00
         -2   -1    0    0    0  501 -0.00000000000E+00  0.00000000000E+00  0.14335104121E+02  0.14335104121E+02  0.00000000000E+00 0. -1.
          2   -1    0    0  501    0  0.00000000000E+00 -0.00000000000E+00 -0.13207391528E+04  0.13207391528E+04  0.00000000000E+00 0. -1.
         35    2    1    2    0    0  0.00000000000E+00 -0.35527136788E-14 -0.13064040487E+04  0.13350742569E+04  0.27519399173E+03 0.  0.
         25    2    3    3    0    0 -0.44925500670E+02 -0.31051161070E+02 -0.75033439697E+03  0.76258159659E+03  0.12468564056E+03 0.  0.
         25    2    3    3    0    0  0.44925500670E+02  0.31051161070E+02 -0.55606965169E+03  0.57249266031E+03  0.12470731081E+03 0.  0.
          5    1    4    4  502    0 -0.31037415770E+02  0.72470622341E+01 -0.68288128328E+03  0.68364082539E+03  0.47000000000E+01 0. -1.
         -5    1    4    4    0  502 -0.13888084900E+02 -0.38298223304E+02 -0.67453113697E+02  0.78940771201E+02  0.47000000000E+01 0. -1.
          5    1    5    5  503    0  0.21586775767E+02 -0.46775078646E+02 -0.16025015613E+03  0.16839269405E+03  0.47000000000E+01 0.  1.
         -5    1    5    5    0  503  0.23338724903E+02  0.77826239717E+02 -0.39581949556E+03  0.40409996626E+03  0.47000000000E+01 0.  1.
<mgrwt>
<rscale>  0 0.27519399E+03</rscale>
<asrwt>0</asrwt>
<pdfrwt beam="1">  1        2 0.20319059E+00 0.27519399E+03</pdfrwt>
<pdfrwt beam="2">  1       -2 0.22054012E-02 0.27519399E+03</pdfrwt>
<totfact> 0.11426174E+04</totfact>
</mgrwt>
</event>
<event>
 9    1  0.7957670E-001  0.2727420E+03  0.7818608E-02  0.1099720E+00
         -2   -1    0    0    0  501 -0.00000000000E+00  0.00000000000E+00  0.23290096441E+03  0.23290096441E+03  0.00000000000E+00 0. -1.
          2   -1    0    0  501    0  0.00000000000E+00 -0.00000000000E+00 -0.79849593416E+02  0.79849593416E+02  0.00000000000E+00 0. -1.
         35    2    1    2    0    0  0.71054273576E-14  0.00000000000E+00  0.15305137099E+03  0.31275055782E+03  0.27274198294E+03 0.  0.
         25    2    3    3    0    0  0.33982229136E+02  0.38043441564E+02  0.54080905417E+02  0.14559760277E+03  0.12518714893E+03 0.  0.
         25    2    3    3    0    0 -0.33982229136E+02 -0.38043441564E+02  0.98970465575E+02  0.16715295506E+03  0.12467101502E+03 0.  0.
          5    1    4    4  502    0 -0.37859198469E+02  0.14573486280E+02  0.56643391762E+02  0.69830288853E+02  0.47000000000E+01 0.  1.
         -5    1    4    4    0  502  0.71841427605E+02  0.23469955284E+02 -0.25624863448E+01  0.75767313913E+02  0.47000000000E+01 0.  1.
          5    1    5    5  503    0  0.41915701550E+02 -0.19850113712E+02  0.81693865053E+01  0.47326334389E+02  0.47000000000E+01 0. -1.
         -5    1    5    5    0  503 -0.75897930686E+02 -0.18193327852E+02  0.90801079070E+02  0.11982662067E+03  0.47000000000E+01 0. -1.
<mgrwt>
<rscale>  0 0.27274198E+03</rscale>
<asrwt>0</asrwt>
<pdfrwt beam="1">  1        2 0.12284553E-01 0.27274198E+03</pdfrwt>
<pdfrwt beam="2">  1       -2 0.35830917E-01 0.27274198E+03</pdfrwt>
<totfact> 0.36291472E+03</totfact>
</mgrwt>
</event>
<event>
 9    1  0.7957670E-001  0.2749852E+03  0.7818608E-02  0.1098460E+00
         -2   -1    0    0    0  501 -0.00000000000E+00  0.00000000000E+00  0.97496113577E+03  0.97496113577E+03  0.00000000000E+00 0.  1.
          2   -1    0    0  501    0  0.00000000000E+00 -0.00000000000E+00 -0.19389717988E+02  0.19389717988E+02  0.00000000000E+00 0.  1.
         35    2    1    2    0    0  0.00000000000E+00  0.71054273576E-14  0.95557141778E+03  0.99435085376E+03  0.27498524667E+03 0.  0.
         25    2    3    3    0    0  0.17769289438E+02 -0.43212585870E+02  0.45163797803E+03  0.47087932799E+03  0.12476939974E+03 0.  0.
         25    2    3    3    0    0 -0.17769289438E+02  0.43212585870E+02  0.50393343975E+03  0.52347152576E+03  0.13375519189E+03 0.  0.
          5    1    4    4  502    0  0.56821786455E+02 -0.11552427816E+02  0.10044638338E+03  0.11607644007E+03  0.47000000000E+01 0. -1.
         -5    1    4    4    0  502 -0.39052497016E+02 -0.31660158054E+02  0.35119159464E+03  0.35480288792E+03  0.47000000000E+01 0. -1.
          5    1    5    5  503    0 -0.25816647591E+01 -0.43587490811E+02  0.26802351592E+03  0.27159755049E+03  0.47000000000E+01 0.  1.
         -5    1    5    5    0  503 -0.15187624679E+02  0.86800076681E+02  0.23590992384E+03  0.25187397527E+03  0.47000000000E+01 0.  1.
<mgrwt>
<rscale>  0 0.27498525E+03</rscale>
<asrwt>0</asrwt>
<pdfrwt beam="1">  1        2 0.29830343E-02 0.27498525E+03</pdfrwt>
<pdfrwt beam="2">  1       -2 0.14999398E+00 0.27498525E+03</pdfrwt>
<totfact> 0.10015132E+03</totfact>
</mgrwt>
</event>
<event>
 9    1  0.7957670E-001  0.2712207E+03  0.7818608E-02  0.1100583E+00
         -2   -1    0    0    0  501 -0.00000000000E+00  0.00000000000E+00  0.48734756791E+02  0.48734756791E+02  0.00000000000E+00 0. -1.
          2   -1    0    0  501    0  0.00000000000E+00 -0.00000000000E+00 -0.37735210283E+03  0.37735210283E+03  0.00000000000E+00 0. -1.
         35    2    1    2    0    0  0.00000000000E+00  0.00000000000E+00 -0.32861734604E+03  0.42608685962E+03  0.27122066998E+03 0.  0.
         25    2    3    3    0    0  0.20147117078E+02  0.48383659576E+02 -0.17500867053E+03  0.22108098580E+03  0.12450655677E+03 0.  0.
         25    2    3    3    0    0 -0.20147117078E+02 -0.48383659576E+02 -0.15360867551E+03  0.20500587383E+03  0.12523936391E+03 0.  0.
          5    1    4    4  502    0 -0.39862194319E+02  0.61498661076E+02 -0.97993281370E+02  0.12245755609E+03  0.47000000000E+01 0.  1.
         -5    1    4    4    0  502  0.60009311397E+02 -0.13115001500E+02 -0.77015389165E+02  0.98623429706E+02  0.47000000000E+01 0.  1.
          5    1    5    5  503    0 -0.45839933758E+02  0.90412464432E+01 -0.12901551315E+03  0.13729579854E+03  0.47000000000E+01 0.  1.
         -5    1    5    5    0  503  0.25692816680E+02 -0.57424906019E+02 -0.24593162356E+02  0.67710075284E+02  0.47000000000E+01 0.  1.
<mgrwt>
<rscale>  0 0.27122067E+03</rscale>
<asrwt>0</asrwt>
<pdfrwt beam="1">  1        2 0.58054170E-01 0.27122067E+03</pdfrwt>
<pdfrwt beam="2">  1       -2 0.74976549E-02 0.27122067E+03</pdfrwt>
<totfact> 0.88405850E+03</totfact>
</mgrwt>
</event>
<event>
 9    1  0.7957670E-001  0.2777345E+03  0.7818608E-02  0.1096933E+00
          4   -1    0    0  501    0  0.00000000000E+00  0.00000000000E+00  0.14737311602E+03  0.14737311602E+03  0.00000000000E+00 0. -1.
         -4   -1    0    0    0  501 -0.00000000000E+00 -0.00000000000E+00 -0.13085235659E+03  0.13085235659E+03  0.00000000000E+00 0. -1.
         35    2    1    2    0    0 -0.35527136788E-14 -0.71054273576E-14  0.16520759435E+02  0.27822547261E+03  0.27773454613E+03 0.  0.
         25    2    3    3    0    0 -0.26535212439E+02 -0.47033159097E+02 -0.15392387773E+02  0.13705367656E+03  0.12502219444E+03 0.  0.
         25    2    3    3    0    0  0.26535212439E+02  0.47033159097E+02  0.31913147208E+02  0.14117179605E+03  0.12647051625E+03 0.  0.
          5    1    4    4  502    0  0.11467307899E+02  0.26577608774E+02  0.30435447904E+02  0.42264345822E+02  0.47000000000E+01 0.  1.
         -5    1    4    4    0  502 -0.38002520338E+02 -0.73610767871E+02 -0.45827835677E+02  0.94789330736E+02  0.47000000000E+01 0.  1.
          5    1    5    5  503    0  0.87932588281E+01  0.29507462411E+02  0.80522670540E+02  0.86336563573E+02  0.47000000000E+01 0. -1.
         -5    1    5    5    0  503  0.17741953610E+02  0.17525696685E+02 -0.48609523332E+02  0.54835232476E+02  0.47000000000E+01 0. -1.
<mgrwt>
<rscale>  0 0.27773455E+03</rscale>
<asrwt>0</asrwt>
<pdfrwt beam="1">  1        4 0.22672787E-01 0.27773455E+03</pdfrwt>
<pdfrwt beam="2">  1       -4 0.20131132E-01 0.27773455E+03</pdfrwt>
<totfact> 0.75145806E+02</totfact>
</mgrwt>
</event>
<event>
 9    1  0.7957670E-001  0.2721553E+03  0.7818608E-02  0.1100052E+00
          4   -1    0    0  501    0  0.00000000000E+00  0.00000000000E+00  0.72992625644E+03  0.72992625644E+03  0.00000000000E+00 0.  1.
         -4   -1    0    0    0  501 -0.00000000000E+00 -0.00000000000E+00 -0.25368499002E+02  0.25368499002E+02  0.00000000000E+00 0.  1.
         35    2    1    2    0    0  0.00000000000E+00 -0.71054273576E-14  0.70455775743E+03  0.75529475544E+03  0.27215534908E+03 0.  0.
         25    2    3    3    0    0 -0.37982987930E+02  0.24941959597E+02  0.28898994034E+03  0.31844311662E+03  0.12580152695E+03 0.  0.
         25    2    3    3    0    0  0.37982987930E+02 -0.24941959597E+02  0.41556781709E+03  0.43685163882E+03  0.12679879736E+03 0.  0.
          5    1    4    4  502    0  0.18219611346E+02 -0.39605351677E+02  0.63116616089E+02  0.76852686001E+02  0.47000000000E+01 0. -1.
         -5    1    4    4    0  502 -0.56202599275E+02  0.64547311274E+02  0.22587332425E+03  0.24159043062E+03  0.47000000000E+01 0. -1.
          5    1    5    5  503    0  0.59782228931E+02 -0.63565406968E+02  0.31378897216E+03  0.32573007983E+03  0.47000000000E+01 0.  1.
         -5    1    5    5    0  503 -0.21799241001E+02  0.38623447372E+02  0.10177884493E+03  0.11112155898E+03  0.47000000000E+01 0.  1.
<mgrwt>
<rscale>  0 0.27215535E+03</rscale>
<asrwt>0</asrwt>
<pdfrwt beam="1">  1        4 0.11229633E+00 0.27215535E+03</pdfrwt>
<pdfrwt beam="2">  1       -4 0.39028466E-02 0.27215535E+03</pdfrwt>
<totfact> 0.43148101E+02</totfact>
</mgrwt>
</event>
<event>
 9    1  0.7957670E-001  0.2739791E+03  0.7818608E-02  0.1099024E+00
          2   -1    0    0  501    0  0.00000000000E+00  0.00000000000E+00  0.32715305621E+03  0.32715305621E+03  0.00000000000E+00 0.  1.
         -2   -1    0    0    0  501 -0.00000000000E+00 -0.00000000000E+00 -0.57361951430E+02  0.57361951430E+02  0.00000000000E+00 0.  1.
         35    2    1    2    0    0  0.71054273576E-14  0.71054273576E-14  0.26979110478E+03  0.38451500764E+03  0.27397910665E+03 0.  0.
         25    2    3    3    0    0  0.19990014489E+02  0.15124747667E+02  0.74569648840E+02  0.14762150209E+03  0.12491243605E+03 0.  0.
         25    2    3    3    0    0 -0.19990014489E+02 -0.15124747667E+02  0.19522145594E+03  0.23689350555E+03  0.13182851528E+03 0.  0.
          5    1    4    4  502    0 -0.34376861098E+02  0.34849984547E+02 -0.46810094662E+01  0.49399310233E+02  0.47000000000E+01 0.  1.
         -5    1    4    4    0  502  0.54366875586E+02 -0.19725236880E+02  0.79250658306E+02  0.98222191855E+02  0.47000000000E+01 0.  1.
          5    1    5    5  503    0  0.30424034150E+02 -0.56812732878E+02  0.12558454150E+03  0.14123340800E+03  0.47000000000E+01 0.  1.
         -5    1    5    5    0  503 -0.50414048638E+02  0.41687985210E+02  0.69636914434E+02  0.95660097548E+02  0.47000000000E+01 0.  1.
<mgrwt>
<rscale>  0 0.27397911E+03</rscale>
<asrwt>0</asrwt>
<pdfrwt beam="1">  1        2 0.50331238E-01 0.27397911E+03</pdfrwt>
<pdfrwt beam="2">  1       -2 0.88249158E-02 0.27397911E+03</pdfrwt>
<totfact> 0.79959420E+03</totfact>
</mgrwt>
</event>
<event>
 9    1  0.7957670E-001  0.2739818E+03  0.7818608E-02  0.1099022E+00
         -1   -1    0    0    0  501 -0.00000000000E+00  0.00000000000E+00  0.10529331899E+03  0.10529331899E+03  0.00000000000E+00 0. -1.
          1   -1    0    0  501    0  0.00000000000E+00 -0.00000000000E+00 -0.17823069653E+03  0.17823069653E+03  0.00000000000E+00 0. -1.
         35    2    1    2    0    0 -0.71054273576E-14 -0.71054273576E-14 -0.72937377539E+02  0.28352401552E+03  0.27398176278E+03 0.  0.
         25    2    3    3    0    0  0.44664268289E+02 -0.31834217370E+02 -0.52464601923E+02  0.14596842509E+03  0.12468332852E+03 0.  0.
         25    2    3    3    0    0 -0.44664268289E+02  0.31834217370E+02 -0.20472775616E+02  0.13755559043E+03  0.12447526526E+03 0.  0.
          5    1    4    4  502    0  0.42739880961E+02  0.41929535027E+02 -0.10552754677E+02  0.60977323354E+02  0.47000000000E+01 0. -1.
         -5    1    4    4    0  502  0.19243873279E+01 -0.73763752397E+02 -0.41911847246E+02  0.84991101733E+02  0.47000000000E+01 0. -1.
          5    1    5    5  503    0 -0.10027735181E+02 -0.23567512965E+02 -0.56918890024E+02  0.62592596861E+02  0.47000000000E+01 0.  1.
         -5    1    5    5    0  503 -0.34636533107E+02  0.55401730336E+02  0.36446114408E+02  0.74962993572E+02  0.47000000000E+01 0.  1.
<mgrwt>
<rscale>  0 0.27398176E+03</rscale>
<asrwt>0</asrwt>
<pdfrwt beam="1">  1        1 0.27420107E-01 0.27398176E+03</pdfrwt>
<pdfrwt beam="2">  1       -1 0.16198972E-01 0.27398176E+03</pdfrwt>
<totfact> 0.47931209E+03</totfact>
</mgrwt>
</event>
<event>
 9    1  0.7957670E-001  0.2752596E+03  0.7818608E-02  0.1098307E+00
          1   -1    0    0  501    0  0.00000000000E+00  0.00000000000E+00  0.66754315866E+03  0.66754315866E+03  0.00000000000E+00 0. -1.
         -1   -1    0    0    0  501 -0.00000000000E+00 -0.00000000000E+00 -0.28375626349E+02  0.28375626349E+02  0.00000000000E+00 0. -1.
         35    2    1    2    0    0 -0.35527136788E-14 -0.71054273576E-14  0.63916753231E+03  0.69591878501E+03  0.27525955200E+03 0.  0.
         25    2    3    3    0    0 -0.29741241131E+02 -0.32248132817E+02  0.22652780545E+03  0.26264924465E+03  0.12548025973E+03 0.  0.
         25    2    3    3    0    0  0.29741241131E+02  0.32248132817E+02  0.41263972687E+03  0.43326954036E+03  0.12460524436E+03 0.  0.
          5    1    4    4  502    0 -0.42426083700E+02 -0.12808368673E+02  0.23369402276E+03  0.23790547106E+03  0.47000000000E+01 0.  1.
         -5    1    4    4    0  502  0.12684842569E+02 -0.19439764144E+02 -0.71662173137E+01  0.24743773592E+02  0.47000000000E+01 0.  1.
          5    1    5    5  503    0  0.63147667940E+02  0.27093700836E+02  0.37950102711E+03  0.38570042283E+03  0.47000000000E+01 0. -1.
         -5    1    5    5    0  503 -0.33406426809E+02  0.51544319810E+01  0.33138699752E+02  0.47569117529E+02  0.47000000000E+01 0. -1.
<mgrwt>
<rscale>  0 0.27525955E+03</rscale>
<asrwt>0</asrwt>
<pdfrwt beam="1">  1        1 0.10269894E+00 0.27525955E+03</pdfrwt>
<pdfrwt beam="2">  1       -1 0.43654815E-02 0.27525955E+03</pdfrwt>
<totfact> 0.64999076E+03</totfact>
</mgrwt>
</event>
<event>
 9    1  0.7957670E-001  0.2705006E+03  0.7818608E-02  0.1100993E+00
         -1   -1    0    0    0  501 -0.00000000000E+00  0.00000000000E+00  0.51364942042E+02  0.51364942042E+02  0.00000000000E+00 0. -1.
          1   -1    0    0  501    0  0.00000000000E+00 -0.00000000000E+00 -0.35613103157E+03  0.35613103157E+03  0.00000000000E+00 0. -1.
         35    2    1    2    0    0  0.00000000000E+00 -0.71054273576E-14 -0.30476608953E+03  0.40749597362E+03  0.27050064544E+03 0.  0.
         25    2    3    3    0    0 -0.18308220390E+02  0.43016688513E+02 -0.18495108547E+03  0.22778878444E+03  0.12447971672E+03 0.  0.
         25    2    3    3    0    0  0.18308220390E+02 -0.43016688513E+02 -0.11981500406E+03  0.17970718918E+03  0.12551259785E+03 0.  0.
          5    1    4    4  502    0  0.40238989832E+02 -0.14424532174E+02 -0.10360303433E+03  0.11217362504E+03  0.47000000000E+01 0.  1.
         -5    1    4    4    0  502 -0.58547210222E+02  0.57441220687E+02 -0.81348051139E+02  0.11561515940E+03  0.47000000000E+01 0.  1.
          5    1    5    5  503    0  0.51237098789E+02 -0.32737761315E+01 -0.11694135438E+03  0.12780191026E+03  0.47000000000E+01 0. -1.
         -5    1    5    5    0  503 -0.32928878398E+02 -0.39742912382E+02 -0.28736496820E+01  0.51905278919E+02  0.47000000000E+01 0. -1.
<mgrwt>
<rscale>  0 0.27050065E+03</rscale>
<asrwt>0</asrwt>
<pdfrwt beam="1">  1        1 0.54789391E-01 0.27050065E+03</pdfrwt>
<pdfrwt beam="2">  1       -1 0.79022986E-02 0.27050065E+03</pdfrwt>
<totfact> 0.61318721E+03</totfact>
</mgrwt>
</event>
<event>
 9    1  0.7957670E-001  0.2739899E+03  0.7818608E-02  0.1099018E+00
          2   -1    0    0  501    0  0.00000000000E+00  0.00000000000E+00  0.16992971766E+04  0.16992971766E+04  0.00000000000E+00 0. -1.
         -2   -1    0    0    0  501 -0.00000000000E+00 -0.00000000000E+00 -0.11044340430E+02  0.11044340430E+02  0.00000000000E+00 0. -1.
         35    2    1    2    0    0  0.00000000000E+00  0.00000000000E+00  0.16882528362E+04  0.17103415170E+04  0.27398990135E+03 0.  0.
         25    2    3    3    0    0  0.95330681531E+01 -0.45449027915E+02  0.65254764523E+03  0.66619090015E+03  0.12583875642E+03 0.  0.
         25    2    3    3    0    0 -0.95330681531E+01  0.45449027915E+02  0.10357051909E+04  0.10441506169E+04  0.12413208559E+03 0.  0.
          5    1    4    4  502    0 -0.36304706335E+02 -0.53243407150E+02  0.54645294377E+03  0.55025975854E+03  0.47000000000E+01 0. -1.
         -5    1    4    4    0  502  0.45837774488E+02  0.77943792353E+01  0.10609470146E+03  0.11593114161E+03  0.47000000000E+01 0. -1.
          5    1    5    5  503    0  0.11205763482E+02 -0.19915621451E+02  0.74742498645E+03  0.74778900867E+03  0.47000000000E+01 0.  1.
         -5    1    5    5    0  503 -0.20738831635E+02  0.65364649365E+02  0.28828020448E+03  0.29636160821E+03  0.47000000000E+01 0.  1.
<mgrwt>
<rscale>  0 0.27398990E+03</rscale>
<asrwt>0</asrwt>
<pdfrwt beam="1">  1        2 0.26143013E+00 0.27398990E+03</pdfrwt>
<pdfrwt beam="2">  1       -2 0.16991306E-02 0.27398990E+03</pdfrwt>
<totfact> 0.10506354E+04</totfact>
</mgrwt>
</event>
<event>
 9    1  0.7957670E-001  0.2758600E+03  0.7818608E-02  0.1097972E+00
          1   -1    0    0  501    0  0.00000000000E+00  0.00000000000E+00  0.13406115759E+03  0.13406115759E+03  0.00000000000E+00 0.  1.
         -1   -1    0    0    0  501 -0.00000000000E+00 -0.00000000000E+00 -0.14191049986E+03  0.14191049986E+03  0.00000000000E+00 0.  1.
         35    2    1    2    0    0  0.14210854715E-13  0.26645352591E-14 -0.78493422745E+01  0.27597165745E+03  0.27586000714E+03 0.  0.
         25    2    3    3    0    0  0.35451364740E+02 -0.51081508689E+01  0.24216844270E+02  0.13180704963E+03  0.12451405671E+03 0.  0.
         25    2    3    3    0    0 -0.35451364740E+02  0.51081508689E+01 -0.32066186545E+02  0.14416460782E+03  0.13591284472E+03 0.  0.
          5    1    4    4  502    0 -0.97207327968E+01 -0.32497002017E+02 -0.37266125214E+02  0.50610294157E+02  0.47000000000E+01 0.  1.
         -5    1    4    4    0  502  0.45172097536E+02  0.27388851148E+02  0.61482969484E+02  0.81196755475E+02  0.47000000000E+01 0.  1.
          5    1    5    5  503    0 -0.57790911051E+02  0.25692233369E+01 -0.75381502814E+02  0.95135962050E+02  0.47000000000E+01 0. -1.
         -5    1    5    5    0  503  0.22339546312E+02  0.25389275319E+01  0.43315316269E+02  0.49028645768E+02  0.47000000000E+01 0. -1.
<mgrwt>
<rscale>  0 0.27586001E+03</rscale>
<asrwt>0</asrwt>
<pdfrwt beam="1">  1        1 0.20624793E-01 0.27586001E+03</pdfrwt>
<pdfrwt beam="2">  1       -1 0.21832385E-01 0.27586001E+03</pdfrwt>
<totfact> 0.42558317E+03</totfact>
</mgrwt>
</event>
<event>
 9    1  0.7957670E-001  0.2732522E+03  0.7818608E-02  0.1099433E+00
         -3   -1    0    0    0  501 -0.00000000000E+00  0.00000000000E+00  0.37165270979E+03  0.37165270979E+03  0.00000000000E+00 0. -1.
          3   -1    0    0  501    0  0.00000000000E+00 -0.00000000000E+00 -0.50226173852E+02  0.50226173852E+02  0.00000000000E+00 0. -1.
         35    2    1    2    0    0  0.00000000000E+00  0.00000000000E+00  0.32142653594E+03  0.42187888364E+03  0.27325221766E+03 0.  0.
         25    2    3    3    0    0  0.23187638037E+02 -0.23371557151E+02  0.22579531351E+03  0.25953926595E+03  0.12366572171E+03 0.  0.
         25    2    3    3    0    0 -0.23187638037E+02  0.23371557151E+02  0.95631222430E+02  0.16233961769E+03  0.12698395382E+03 0.  0.
          5    1    4    4  502    0 -0.39151316155E+01 -0.77818397559E+01  0.22765185604E+03  0.22786694110E+03  0.47000000000E+01 0.  1.
         -5    1    4    4    0  502  0.27102769653E+02 -0.15589717395E+02 -0.18565425360E+01  0.31672324851E+02  0.47000000000E+01 0.  1.
          5    1    5    5  503    0 -0.53885128404E+02 -0.27891233615E+02  0.79782615970E+02  0.10034382785E+03  0.47000000000E+01 0. -1.
         -5    1    5    5    0  503  0.30697490367E+02  0.51262790766E+02  0.15848606460E+02  0.61995789846E+02  0.47000000000E+01 0. -1.
<mgrwt>
<rscale>  0 0.27325222E+03</rscale>
<asrwt>0</asrwt>
<pdfrwt beam="1">  1        3 0.77271039E-02 0.27325222E+03</pdfrwt>
<pdfrwt beam="2">  1       -3 0.57177338E-01 0.27325222E+03</pdfrwt>
<totfact> 0.87212803E+02</totfact>
</mgrwt>
</event>
<event>
 9    1  0.7957670E-001  0.2641593E+03  0.7818608E-02  0.1104670E+00
          1   -1    0    0  501    0  0.00000000000E+00  0.00000000000E+00  0.28269868298E+03  0.28269868298E+03  0.00000000000E+00 0.  1.
         -1   -1    0    0    0  501 -0.00000000000E+00 -0.00000000000E+00 -0.61708924936E+02  0.61708924936E+02  0.00000000000E+00 0.  1.
         35    2    1    2    0    0  0.17763568394E-14 -0.35527136788E-14  0.22098975805E+03  0.34440760792E+03  0.26415928382E+03 0.  0.
         25    2    3    3    0    0  0.37105941217E+01  0.68009909178E+01  0.55668363010E+02  0.13711868720E+03  0.12507016332E+03 0.  0.
         25    2    3    3    0    0 -0.37105941217E+01 -0.68009909178E+01  0.16532139504E+03  0.20728892072E+03  0.12480989949E+03 0.  0.
          5    1    4    4  502    0  0.53990082398E+02  0.99757504113E+01  0.65476287326E+02  0.85578494936E+02  0.47000000000E+01 0.  1.
         -5    1    4    4    0  502 -0.50279488276E+02 -0.31747594936E+01 -0.98079243164E+01  0.51540192263E+02  0.47000000000E+01 0.  1.
          5    1    5    5  503    0  0.14108123830E+01 -0.63376483431E+02  0.11430974806E+03  0.13079517401E+03  0.47000000000E+01 0.  1.
         -5    1    5    5    0  503 -0.51214065047E+01  0.56575492513E+02  0.51011646975E+02  0.76493746704E+02  0.47000000000E+01 0.  1.
<mgrwt>
<rscale>  0 0.26415928E+03</rscale>
<asrwt>0</asrwt>
<pdfrwt beam="1">  1        1 0.43492104E-01 0.26415928E+03</pdfrwt>
<pdfrwt beam="2">  1       -1 0.94936809E-02 0.26415928E+03</pdfrwt>
<totfact> 0.61873368E+03</totfact>
</mgrwt>
</event>
<event>
 9    1  0.7957670E-001  0.2771695E+03  0.7818608E-02  0.1097245E+00
         -2   -1    0    0    0  501 -0.00000000000E+00  0.00000000000E+00  0.88379918521E+02  0.88379918521E+02  0.00000000000E+00 0. -1.
          2   -1    0    0  501    0  0.00000000000E+00 -0.00000000000E+00 -0.21730882976E+03  0.21730882976E+03  0.00000000000E+00 0. -1.
         35    2    1    2    0    0  0.00000000000E+00 -0.14210854715E-13 -0.12892891124E+03  0.30568874828E+03  0.27716952696E+03 0.  0.
         25    2    3    3    0    0  0.29086193585E+02  0.45392459535E+02 -0.10928804661E+03  0.17459396817E+03  0.12503077441E+03 0.  0.
         25    2    3    3    0    0 -0.29086193585E+02 -0.45392459535E+02 -0.19640864631E+02  0.13109478012E+03  0.11787109811E+03 0.  0.
          5    1    4    4  502    0  0.44319343322E+01 -0.35126634288E+02 -0.75904118462E+02  0.83887112704E+02  0.47000000000E+01 0.  1.
         -5    1    4    4    0  502  0.24654259253E+02  0.80519093822E+02 -0.33383928148E+02  0.90706855462E+02  0.47000000000E+01 0.  1.
          5    1    5    5  503    0 -0.46287709461E+02 -0.75129908480E+02 -0.32437453908E+02  0.94134656803E+02  0.47000000000E+01 0. -1.
         -5    1    5    5    0  503  0.17201515876E+02  0.29737448945E+02  0.12796589278E+02  0.36960123313E+02  0.47000000000E+01 0. -1.
<mgrwt>
<rscale>  0 0.27716953E+03</rscale>
<asrwt>0</asrwt>
<pdfrwt beam="1">  1        2 0.33432127E-01 0.27716953E+03</pdfrwt>
<pdfrwt beam="2">  1       -2 0.13596911E-01 0.27716953E+03</pdfrwt>
<totfact> 0.62225338E+03</totfact>
</mgrwt>
</event>
<event>
 9    1  0.7957670E-001  0.2776755E+03  0.7818608E-02  0.1096965E+00
         -2   -1    0    0    0  501 -0.00000000000E+00  0.00000000000E+00  0.76286808373E+01  0.76286808373E+01  0.00000000000E+00 0. -1.
          2   -1    0    0  501    0  0.00000000000E+00 -0.00000000000E+00 -0.25267693780E+04  0.25267693780E+04  0.00000000000E+00 0. -1.
         35    2    1    2    0    0 -0.71054273576E-14 -0.35527136788E-14 -0.25191406972E+04  0.25343980588E+04  0.27767547342E+03 0.  0.
         25    2    3    3    0    0 -0.51774921390E+02 -0.29795845122E+02 -0.11528728116E+04  0.11611405238E+04  0.12475240077E+03 0.  0.
         25    2    3    3    0    0  0.51774921390E+02  0.29795845122E+02 -0.13662678856E+04  0.13732575350E+04  0.12481941933E+03 0.  0.
          5    1    4    4  502    0 -0.31065902539E+02 -0.50281008089E+02 -0.10908176123E+04  0.10924277658E+04  0.47000000000E+01 0. -1.
         -5    1    4    4    0  502 -0.20709018851E+02  0.20485162967E+02 -0.62055199271E+02  0.68712758059E+02  0.47000000000E+01 0. -1.
          5    1    5    5  503    0  0.81520541501E+01 -0.18181895115E+02 -0.10584810422E+04  0.10586790089E+04  0.47000000000E+01 0. -1.
         -5    1    5    5    0  503  0.43622867240E+02  0.47977740237E+02 -0.30778684341E+03  0.31457852609E+03  0.47000000000E+01 0. -1.
<mgrwt>
<rscale>  0 0.27767547E+03</rscale>
<asrwt>0</asrwt>
<pdfrwt beam="1">  1        2 0.38873418E+00 0.27767547E+03</pdfrwt>
<pdfrwt beam="2">  1       -2 0.11736419E-02 0.27767547E+03</pdfrwt>
<totfact> 0.65471535E+03</totfact>
</mgrwt>
</event>
<event>
 9    1  0.7957670E-001  0.2760846E+03  0.7818608E-02  0.1097847E+00
          2   -1    0    0  501    0  0.00000000000E+00  0.00000000000E+00  0.91881519445E+03  0.91881519445E+03  0.00000000000E+00 0. -1.
         -2   -1    0    0    0  501 -0.00000000000E+00 -0.00000000000E+00 -0.20739399110E+02  0.20739399110E+02  0.00000000000E+00 0. -1.
         35    2    1    2    0    0 -0.35527136788E-14 -0.35527136788E-14  0.89807579534E+03  0.93955459356E+03  0.27608458868E+03 0.  0.
         25    2    3    3    0    0 -0.23494395064E+02  0.13085581891E+02  0.61437985534E+03  0.62833592687E+03  0.12891939843E+03 0.  0.
         25    2    3    3    0    0  0.23494395064E+02 -0.13085581891E+02  0.28369593999E+03  0.31121866669E+03  0.12510177086E+03 0.  0.
          5    1    4    4  502    0 -0.59188607232E+02  0.51736524393E+02  0.38078779932E+03  0.38884623862E+03  0.47000000000E+01 0.  1.
         -5    1    4    4    0  502  0.35694212169E+02 -0.38650942501E+02  0.23359205603E+03  0.23948968825E+03  0.47000000000E+01 0.  1.
          5    1    5    5  503    0 -0.13120571594E+02  0.14076556004E+02 -0.37340102024E+01  0.20157670006E+02  0.47000000000E+01 0.  1.
         -5    1    5    5    0  503  0.36614966658E+02 -0.27162137896E+02  0.28742995020E+03  0.29106099668E+03  0.47000000000E+01 0.  1.
<mgrwt>
<rscale>  0 0.27608459E+03</rscale>
<asrwt>0</asrwt>
<pdfrwt beam="1">  1        2 0.14135615E+00 0.27608459E+03</pdfrwt>
<pdfrwt beam="2">  1       -2 0.31906775E-02 0.27608459E+03</pdfrwt>
<totfact> 0.11378849E+04</totfact>
</mgrwt>
</event>
<event>
 9    1  0.7957670E-001  0.2732283E+03  0.7818608E-02  0.1099446E+00
          1   -1    0    0  501    0  0.00000000000E+00  0.00000000000E+00  0.17827921330E+03  0.17827921330E+03  0.00000000000E+00 0.  1.
         -1   -1    0    0    0  501 -0.00000000000E+00 -0.00000000000E+00 -0.10468651233E+03  0.10468651233E+03  0.00000000000E+00 0.  1.
         35    2    1    2    0    0 -0.35527136788E-14  0.00000000000E+00  0.73592700974E+02  0.28296572563E+03  0.27322832255E+03 0.  0.
         25    2    3    3    0    0  0.25460146531E+01 -0.51585270756E+02  0.19817425467E+02  0.13668399905E+03  0.12498905110E+03 0.  0.
         25    2    3    3    0    0 -0.25460146531E+01  0.51585270756E+02  0.53775275507E+02  0.14628172658E+03  0.12585325155E+03 0.  0.
          5    1    4    4  502    0  0.47368208718E+02  0.19191559131E+02  0.67924498549E+01  0.51771522231E+02  0.47000000000E+01 0. -1.
         -5    1    4    4    0  502 -0.44822194065E+02 -0.70776829887E+02  0.13024975612E+02  0.84912476818E+02  0.47000000000E+01 0. -1.
          5    1    5    5  503    0  0.27036849909E+02  0.81476590133E+02  0.58069094330E+02  0.10374746122E+03  0.47000000000E+01 0. -1.
         -5    1    5    5    0  503 -0.29582864563E+02 -0.29891319377E+02 -0.42938188227E+01  0.42534265362E+02  0.47000000000E+01 0. -1.
<mgrwt>
<rscale>  0 0.27322832E+03</rscale>
<asrwt>0</asrwt>
<pdfrwt beam="1">  1        1 0.27427571E-01 0.27322832E+03</pdfrwt>
<pdfrwt beam="2">  1       -1 0.16105617E-01 0.27322832E+03</pdfrwt>
<totfact> 0.48354311E+03</totfact>
</mgrwt>
</event>
<event>
 9    1  0.7957670E-001  0.2784703E+03  0.7818608E-02  0.1096527E+00
          1   -1    0    0  501    0  0.00000000000E+00  0.00000000000E+00  0.26497765672E+04  0.26497765672E+04  0.00000000000E+00 0.  1.
         -1   -1    0    0    0  501 -0.00000000000E+00 -0.00000000000E+00 -0.73162508442E+01  0.73162508442E+01  0.00000000000E+00 0.  1.
         35    2    1    2    0    0  0.00000000000E+00  0.35527136788E-14  0.26424603164E+04  0.26570928181E+04  0.27847032192E+03 0.  0.
         25    2    3    3    0    0 -0.30299812912E+02  0.26316683414E+02  0.89846802736E+03  0.90819500870E+03  0.12634370248E+03 0.  0.
         25    2    3    3    0    0  0.30299812912E+02 -0.26316683414E+02  0.17439922890E+04  0.17488978094E+04  0.12459453020E+03 0.  0.
          5    1    4    4  502    0 -0.14960701541E+02  0.57630681660E+02  0.19723213960E+03  0.20607698792E+03  0.47000000000E+01 0. -1.
         -5    1    4    4    0  502 -0.15339111371E+02 -0.31313998246E+02  0.70123588776E+03  0.70211802078E+03  0.47000000000E+01 0. -1.
          5    1    5    5  503    0  0.26665159838E+02 -0.57118978963E+02  0.43890250190E+03  0.44343105967E+03  0.47000000000E+01 0. -1.
         -5    1    5    5    0  503  0.36346530741E+01  0.30802295549E+02  0.13050897871E+04  0.13054667497E+04  0.47000000000E+01 0. -1.
<mgrwt>
<rscale>  0 0.27847032E+03</rscale>
<asrwt>0</asrwt>
<pdfrwt beam="1">  1        1 0.40765717E+00 0.27847032E+03</pdfrwt>
<pdfrwt beam="2">  1       -1 0.11255792E-02 0.27847032E+03</pdfrwt>
<totfact> 0.19942009E+03</totfact>
</mgrwt>
</event>
<event>
 9    1  0.7957670E-001  0.2751869E+03  0.7818608E-02  0.1098347E+00
          2   -1    0    0  501    0  0.00000000000E+00  0.00000000000E+00  0.17802785972E+03  0.17802785972E+03  0.00000000000E+00 0. -1.
         -2   -1    0    0    0  501 -0.00000000000E+00 -0.00000000000E+00 -0.10634266508E+03  0.10634266508E+03  0.00000000000E+00 0. -1.
         35    2    1    2    0    0  0.17763568394E-14  0.00000000000E+00  0.71685194642E+02  0.28437052480E+03  0.27518689694E+03 0.  0.
         25    2    3    3    0    0  0.19179422809E+01  0.14208884149E+02  0.93537834579E+02  0.15541349546E+03  0.12328202295E+03 0.  0.
         25    2    3    3    0    0 -0.19179422809E+01 -0.14208884149E+02 -0.21852639937E+02  0.12895702934E+03  0.12628066619E+03 0.  0.
          5    1    4    4  502    0 -0.12882496307E+02  0.43837805089E+02  0.10920724559E+03  0.11847372855E+03  0.47000000000E+01 0.  1.
         -5    1    4    4    0  502  0.14800438587E+02 -0.29628920940E+02 -0.15669411011E+02  0.36939766917E+02  0.47000000000E+01 0.  1.
          5    1    5    5  503    0  0.18549149525E+02 -0.19446309469E+02 -0.70563717306E+02  0.75654200809E+02  0.47000000000E+01 0. -1.
         -5    1    5    5    0  503 -0.20467091806E+02  0.52374253200E+01  0.48711077369E+02  0.53302828531E+02  0.47000000000E+01 0. -1.
<mgrwt>
<rscale>  0 0.27518690E+03</rscale>
<asrwt>0</asrwt>
<pdfrwt beam="1">  1        2 0.27388901E-01 0.27518690E+03</pdfrwt>
<pdfrwt beam="2">  1       -2 0.16360410E-01 0.27518690E+03</pdfrwt>
<totfact> 0.57037226E+03</totfact>
</mgrwt>
</event>
<event>
 9    1  0.7957670E-001  0.2753291E+03  0.7818608E-02  0.1098268E+00
         -1   -1    0    0    0  501 -0.00000000000E+00  0.00000000000E+00  0.25068522315E+02  0.25068522315E+02  0.00000000000E+00 0. -1.
          1   -1    0    0  501    0  0.00000000000E+00 -0.00000000000E+00 -0.75598920947E+03  0.75598920947E+03  0.00000000000E+00 0. -1.
         35    2    1    2    0    0  0.35527136788E-14 -0.14210854715E-13 -0.73092068716E+03  0.78105773178E+03  0.27532912935E+03 0.  0.
         25    2    3    3    0    0 -0.10384607286E+02  0.46505652772E+02 -0.45084856335E+03  0.47004473523E+03  0.12412497831E+03 0.  0.
         25    2    3    3    0    0  0.10384607286E+02 -0.46505652772E+02 -0.28007212381E+03  0.31101299655E+03  0.12656252874E+03 0.  0.
          5    1    4    4  502    0  0.20558680651E+02  0.66832102667E+02 -0.13602165519E+03  0.15301362677E+03  0.47000000000E+01 0.  1.
         -5    1    4    4    0  502 -0.30943287938E+02 -0.20326449896E+02 -0.31482690815E+03  0.31703110846E+03  0.47000000000E+01 0.  1.
          5    1    5    5  503    0  0.40947607314E+02 -0.62828599273E+02 -0.87696641975E+02  0.11548562874E+03  0.47000000000E+01 0.  1.
         -5    1    5    5    0  503 -0.30563000028E+02  0.16322946501E+02 -0.19237548183E+03  0.19552736781E+03  0.47000000000E+01 0.  1.
<mgrwt>
<rscale>  0 0.27532913E+03</rscale>
<asrwt>0</asrwt>
<pdfrwt beam="1">  1        1 0.11630604E+00 0.27532913E+03</pdfrwt>
<pdfrwt beam="2">  1       -1 0.38566955E-02 0.27532913E+03</pdfrwt>
<totfact> 0.65115709E+03</totfact>
</mgrwt>
</event>
<event>
 9    1  0.7957670E-001  0.2743511E+03  0.7818608E-02  0.1098815E+00
          2   -1    0    0  501    0  0.00000000000E+00  0.00000000000E+00  0.33659437438E+02  0.33659437438E+02  0.00000000000E+00 0. -1.
         -2   -1    0    0    0  501 -0.00000000000E+00 -0.00000000000E+00 -0.55904494495E+03  0.55904494495E+03  0.00000000000E+00 0. -1.
         35    2    1    2    0    0 -0.71054273576E-14  0.00000000000E+00 -0.52538550751E+03  0.59270438238E+03  0.27435114980E+03 0.  0.
         25    2    3    3    0    0  0.52564446872E+02  0.11918735245E+02 -0.22777684081E+03  0.26536929929E+03  0.12503398927E+03 0.  0.
         25    2    3    3    0    0 -0.52564446872E+02 -0.11918735245E+02 -0.29760866670E+03  0.32733508309E+03  0.12518890048E+03 0.  0.
          5    1    4    4  502    0  0.54348028733E+01 -0.51472208227E+02 -0.56917915837E+02  0.77075705934E+02  0.47000000000E+01 0.  1.
         -5    1    4    4    0  502  0.47129643999E+02  0.63390943472E+02 -0.17085892497E+03  0.18829359336E+03  0.47000000000E+01 0.  1.
          5    1    5    5  503    0  0.11526253423E+02  0.47119550158E+02 -0.11719792043E+03  0.12692733779E+03  0.47000000000E+01 0. -1.
         -5    1    5    5    0  503 -0.64090700295E+02 -0.59038285403E+02 -0.18041074627E+03  0.20040774530E+03  0.47000000000E+01 0. -1.
<mgrwt>
<rscale>  0 0.27435115E+03</rscale>
<asrwt>0</asrwt>
<pdfrwt beam="1">  1        2 0.51783750E-02 0.27435115E+03</pdfrwt>
<pdfrwt beam="2">  1       -2 0.86006914E-01 0.27435115E+03</pdfrwt>
<totfact> 0.18150179E+03</totfact>
</mgrwt>
</event>
<event>
 9    1  0.7957670E-001  0.2769729E+03  0.7818608E-02  0.1097354E+00
         -2   -1    0    0    0  501 -0.00000000000E+00  0.00000000000E+00  0.39032273136E+02  0.39032273136E+02  0.00000000000E+00 0.  1.
          2   -1    0    0  501    0  0.00000000000E+00 -0.00000000000E+00 -0.49134963252E+03  0.49134963252E+03  0.00000000000E+00 0.  1.
         35    2    1    2    0    0  0.00000000000E+00  0.88817841970E-15 -0.45231735938E+03  0.53038190566E+03  0.27697287277E+03 0.  0.
         25    2    3    3    0    0 -0.11613540146E+02 -0.34909383340E+01 -0.11493983168E+03  0.17036672783E+03  0.12516627373E+03 0.  0.
         25    2    3    3    0    0  0.11613540146E+02  0.34909383340E+01 -0.33737752771E+03  0.36001517783E+03  0.12506106948E+03 0.  0.
          5    1    4    4  502    0 -0.54562586468E+02 -0.92042350591E+01 -0.95853244301E+01  0.56353901636E+02  0.47000000000E+01 0.  1.
         -5    1    4    4    0  502  0.42949046322E+02  0.57132967251E+01 -0.10535450725E+03  0.11401282619E+03  0.47000000000E+01 0.  1.
          5    1    5    5  503    0  0.29025010234E+02  0.59668076716E+02 -0.18685887118E+03  0.19834580494E+03  0.47000000000E+01 0.  1.
         -5    1    5    5    0  503 -0.17411470088E+02 -0.56177138382E+02 -0.15051865652E+03  0.16166937289E+03  0.47000000000E+01 0.  1.
<mgrwt>
<rscale>  0 0.27697287E+03</rscale>
<asrwt>0</asrwt>
<pdfrwt beam="1">  1        2 0.75592252E-01 0.27697287E+03</pdfrwt>
<pdfrwt beam="2">  1       -2 0.60049651E-02 0.27697287E+03</pdfrwt>
<totfact> 0.93341259E+03</totfact>
</mgrwt>
</event>
<event>
 9    1  0.7957670E-001  0.2756720E+03  0.7818608E-02  0.1098077E+00
          2   -1    0    0  501    0  0.00000000000E+00  0.00000000000E+00  0.33325588195E+03  0.33325588195E+03  0.00000000000E+00 0. -1.
         -2   -1    0    0    0  501 -0.00000000000E+00 -0.00000000000E+00 -0.57009519284E+02  0.57009519284E+02  0.00000000000E+00 0. -1.
         35    2    1    2    0    0  0.71054273576E-14  0.00000000000E+00  0.27624636267E+03  0.39026540124E+03  0.27567196179E+03 0.  0.
         25    2    3    3    0    0 -0.53238210015E+02 -0.25373983515E+02  0.13198814892E+03  0.19041269938E+03  0.12392731169E+03 0.  0.
         25    2    3    3    0    0  0.53238210015E+02  0.25373983515E+02  0.14425821375E+03  0.19985270186E+03  0.12511004821E+03 0.  0.
          5    1    4    4  502    0  0.27276476303E+02  0.69732072543E+01 -0.42126088621E+01  0.28852518994E+02  0.47000000000E+01 0.  1.
         -5    1    4    4    0  502 -0.80514686318E+02 -0.32347190770E+02  0.13620075779E+03  0.16156018038E+03  0.47000000000E+01 0.  1.
          5    1    5    5  503    0  0.61152411553E+02 -0.37241600626E+02  0.54876286768E+02  0.90333001198E+02  0.47000000000E+01 0. -1.
         -5    1    5    5    0  503 -0.79142015376E+01  0.62615584141E+02  0.89381926979E+02  0.10951970067E+03  0.47000000000E+01 0. -1.
<mgrwt>
<rscale>  0 0.27567196E+03</rscale>
<asrwt>0</asrwt>
<pdfrwt beam="1">  1        2 0.51270135E-01 0.27567196E+03</pdfrwt>
<pdfrwt beam="2">  1       -2 0.87706954E-02 0.27567196E+03</pdfrwt>
<totfact> 0.79165804E+03</totfact>
</mgrwt>
</event>
<event>
 9    1  0.7957670E-001  0.2748577E+03  0.7818608E-02  0.1098531E+00
          3   -1    0    0  501    0  0.00000000000E+00  0.00000000000E+00  0.64257193492E+03  0.64257193492E+03  0.00000000000E+00 0. -1.
         -3   -1    0    0    0  501 -0.00000000000E+00 -0.00000000000E+00 -0.29392339857E+02  0.29392339857E+02  0.00000000000E+00 0. -1.
         35    2    1    2    0    0  0.71054273576E-14  0.10658141036E-13  0.61317959506E+03  0.67196427478E+03  0.27485772824E+03 0.  0.
         25    2    3    3    0    0 -0.47868481711E+02  0.60460523496E+01  0.37935054890E+03  0.40245523574E+03  0.12544094841E+03 0.  0.
         25    2    3    3    0    0  0.47868481711E+02 -0.60460523496E+01  0.23382904617E+03  0.26950903904E+03  0.12502460958E+03 0.  0.
          5    1    4    4  502    0 -0.34262729194E+02  0.64672617004E+02  0.22820585309E+03  0.23970082058E+03  0.47000000000E+01 0.  1.
         -5    1    4    4    0  502 -0.13605752516E+02 -0.58626564655E+02  0.15114469580E+03  0.16275441516E+03  0.47000000000E+01 0.  1.
          5    1    5    5  503    0 -0.30098934626E+02 -0.34361730261E+02  0.50644748874E+02  0.68364135046E+02  0.47000000000E+01 0. -1.
         -5    1    5    5    0  503  0.77967416337E+02  0.28315677911E+02  0.18318429729E+03  0.20114490399E+03  0.47000000000E+01 0. -1.
<mgrwt>
<rscale>  0 0.27485773E+03</rscale>
<asrwt>0</asrwt>
<pdfrwt beam="1">  1        3 0.98857210E-01 0.27485773E+03</pdfrwt>
<pdfrwt beam="2">  1       -3 0.45218989E-02 0.27485773E+03</pdfrwt>
<totfact> 0.63191372E+02</totfact>
</mgrwt>
</event>
<event>
 9    1  0.7957670E-001  0.2736647E+03  0.7818608E-02  0.1099200E+00
         -1   -1    0    0    0  501 -0.00000000000E+00  0.00000000000E+00  0.97756357206E+02  0.97756357206E+02  0.00000000000E+00 0. -1.
          1   -1    0    0  501    0  0.00000000000E+00 -0.00000000000E+00 -0.19152817566E+03  0.19152817566E+03  0.00000000000E+00 0. -1.
         35    2    1    2    0    0  0.00000000000E+00  0.35527136788E-14 -0.93771818457E+02  0.28928453287E+03  0.27366473470E+03 0.  0.
         25    2    3    3    0    0  0.52953943138E+02  0.21941695435E-01 -0.33352780547E+02  0.14129278936E+03  0.12667724254E+03 0.  0.
         25    2    3    3    0    0 -0.52953943138E+02 -0.21941695435E-01 -0.60419037909E+02  0.14799174351E+03  0.12428586175E+03 0.  0.
          5    1    4    4  502    0  0.65498942273E+02 -0.41278249697E+02 -0.52685206980E+02  0.93764739489E+02  0.47000000000E+01 0. -1.
         -5    1    4    4    0  502 -0.12544999136E+02  0.41300191392E+02  0.19332426433E+02  0.47528049867E+02  0.47000000000E+01 0. -1.
          5    1    5    5  503    0  0.36610733093E+02  0.21697357362E+02 -0.19300300232E+02  0.46965015524E+02  0.47000000000E+01 0.  1.
         -5    1    5    5    0  503 -0.89564676230E+02 -0.21719299058E+02 -0.41118737678E+02  0.10102672799E+03  0.47000000000E+01 0.  1.
<mgrwt>
<rscale>  0 0.27366473E+03</rscale>
<asrwt>0</asrwt>
<pdfrwt beam="1">  1        1 0.29465873E-01 0.27366473E+03</pdfrwt>
<pdfrwt beam="2">  1       -1 0.15039440E-01 0.27366473E+03</pdfrwt>
<totfact> 0.49251970E+03</totfact>
</mgrwt>
</event>
<event>
 9    1  0.7957670E-001  0.2642164E+03  0.7818608E-02  0.1104636E+00
          2   -1    0    0  501    0  0.00000000000E+00  0.00000000000E+00  0.20830908561E+04  0.20830908561E+04  0.00000000000E+00 0. -1.
         -2   -1    0    0    0  501 -0.00000000000E+00 -0.00000000000E+00 -0.83782133335E+01  0.83782133335E+01  0.00000000000E+00 0. -1.
         35    2    1    2    0    0 -0.35527136788E-14  0.71054273576E-14  0.20747126428E+04  0.20914690695E+04  0.26421642330E+03 0.  0.
         25    2    3    3    0    0 -0.15600532952E+01  0.42854148093E+02  0.10147959071E+04  0.10233550697E+04  0.12492379246E+03 0.  0.
         25    2    3    3    0    0  0.15600532952E+01 -0.42854148093E+02  0.10599167357E+04  0.10681139997E+04  0.12492044676E+03 0.  0.
          5    1    4    4  502    0  0.39770283838E+02  0.42602043130E+02  0.22527758636E+03  0.23274168185E+03  0.47000000000E+01 0.  1.
         -5    1    4    4    0  502 -0.41330337134E+02  0.25210496379E+00  0.78951832075E+03  0.79061338789E+03  0.47000000000E+01 0.  1.
          5    1    5    5  503    0 -0.11427340689E+02 -0.77752688976E+02  0.43469857760E+03  0.44177031150E+03  0.47000000000E+01 0. -1.
         -5    1    5    5    0  503  0.12987393984E+02  0.34898540883E+02  0.62521815810E+03  0.62634368823E+03  0.47000000000E+01 0. -1.
<mgrwt>
<rscale>  0 0.26421642E+03</rscale>
<asrwt>0</asrwt>
<pdfrwt beam="1">  1        2 0.32047510E+00 0.26421642E+03</pdfrwt>
<pdfrwt beam="2">  1       -2 0.12889576E-02 0.26421642E+03</pdfrwt>
<totfact> 0.98857786E+03</totfact>
</mgrwt>
</event>
<event>
 9    1  0.7957670E-001  0.2765699E+03  0.7818608E-02  0.1097577E+00
         -2   -1    0    0    0  501 -0.00000000000E+00  0.00000000000E+00  0.19425986773E+02  0.19425986773E+02  0.00000000000E+00 0. -1.
          2   -1    0    0  501    0  0.00000000000E+00 -0.00000000000E+00 -0.98438901837E+03  0.98438901837E+03  0.00000000000E+00 0. -1.
         35    2    1    2    0    0 -0.71054273576E-14 -0.17763568394E-14 -0.96496303160E+03  0.10038150051E+04  0.27656990473E+03 0.  0.
         25    2    3    3    0    0  0.58889633418E+02  0.26328016242E+01 -0.47421370778E+03  0.49391304446E+03  0.12488608520E+03 0.  0.
         25    2    3    3    0    0 -0.58889633418E+02 -0.26328016242E+01 -0.49074932382E+03  0.50990196068E+03  0.12526048902E+03 0.  0.
          5    1    4    4  502    0  0.10434043192E+02  0.11256552597E+02  0.10483439899E+01  0.16086275480E+02  0.47000000000E+01 0. -1.
         -5    1    4    4    0  502  0.48455590226E+02 -0.86237509724E+01 -0.47526205177E+03  0.47782676898E+03  0.47000000000E+01 0. -1.
          5    1    5    5  503    0  0.25499455659E+02  0.31003995400E+02 -0.23513705253E+03  0.23858540073E+03  0.47000000000E+01 0. -1.
         -5    1    5    5    0  503 -0.84389089077E+02 -0.33636797024E+02 -0.25561227130E+03  0.27131655996E+03  0.47000000000E+01 0. -1.
<mgrwt>
<rscale>  0 0.27656990E+03</rscale>
<asrwt>0</asrwt>
<pdfrwt beam="1">  1        2 0.15144448E+00 0.27656990E+03</pdfrwt>
<pdfrwt beam="2">  1       -2 0.29886131E-02 0.27656990E+03</pdfrwt>
<totfact> 0.11410044E+04</totfact>
</mgrwt>
</event>
<event>
 9    1  0.7957670E-001  0.2757818E+03  0.7818608E-02  0.1098015E+00
         -2   -1    0    0    0  501 -0.00000000000E+00  0.00000000000E+00  0.63371468172E+02  0.63371468172E+02  0.00000000000E+00 0. -1.
          2   -1    0    0  501    0  0.00000000000E+00 -0.00000000000E+00 -0.30003872702E+03  0.30003872702E+03  0.00000000000E+00 0. -1.
         35    2    1    2    0    0  0.35527136788E-14  0.71054273576E-14 -0.23666725885E+03  0.36341019519E+03  0.27578175893E+03 0.  0.
         25    2    3    3    0    0  0.29748092958E+02  0.93030799294E+01 -0.18311697812E+03  0.22351183813E+03  0.12431499417E+03 0.  0.
         25    2    3    3    0    0 -0.29748092958E+02 -0.93030799294E+01 -0.53550280726E+02  0.13989835707E+03  0.12542894966E+03 0.  0.
          5    1    4    4  502    0  0.14315365727E+02 -0.11802920765E+01 -0.19837905749E+03  0.19895392240E+03  0.47000000000E+01 0. -1.
         -5    1    4    4    0  502  0.15432727231E+02  0.10483372006E+02  0.15262079368E+02  0.24557915730E+02  0.47000000000E+01 0. -1.
          5    1    5    5  503    0  0.47949273914E+01 -0.61492853938E+02 -0.45135670839E+02  0.76574677251E+02  0.47000000000E+01 0. -1.
         -5    1    5    5    0  503 -0.34543020349E+02  0.52189774008E+02 -0.84146098878E+01  0.63323679816E+02  0.47000000000E+01 0. -1.
<mgrwt>
<rscale>  0 0.27578176E+03</rscale>
<asrwt>0</asrwt>
<pdfrwt beam="1">  1        2 0.46159803E-01 0.27578176E+03</pdfrwt>
<pdfrwt beam="2">  1       -2 0.97494569E-02 0.27578176E+03</pdfrwt>
<totfact> 0.74996777E+03</totfact>
</mgrwt>
</event>
<event>
 9    1  0.7957670E-001  0.2728878E+03  0.7818608E-02  0.1099638E+00
         -2   -1    0    0    0  501 -0.00000000000E+00  0.00000000000E+00  0.18339957445E+02  0.18339957445E+02  0.00000000000E+00 0.  1.
          2   -1    0    0  501    0  0.00000000000E+00 -0.00000000000E+00 -0.10151027320E+04  0.10151027320E+04  0.00000000000E+00 0.  1.
         35    2    1    2    0    0 -0.17763568394E-14 -0.35527136788E-14 -0.99676277453E+03  0.10334426894E+04  0.27288782242E+03 0.  0.
         25    2    3    3    0    0  0.14919334952E+02  0.52574042064E+01 -0.29047680365E+03  0.31635668347E+03  0.12431633386E+03 0.  0.
         25    2    3    3    0    0 -0.14919334952E+02 -0.52574042064E+01 -0.70628597088E+03  0.71708600595E+03  0.12297251892E+03 0.  0.
          5    1    4    4  502    0 -0.44766999140E+02 -0.25654442704E+02 -0.17655610212E+03  0.18400103760E+03  0.47000000000E+01 0.  1.
         -5    1    4    4    0  502  0.59686334092E+02  0.30911846911E+02 -0.11392070153E+03  0.13235564587E+03  0.47000000000E+01 0.  1.
          5    1    5    5  503    0  0.40922815793E+01  0.22949664101E+02 -0.65460543565E+03  0.65503725102E+03  0.47000000000E+01 0.  1.
         -5    1    5    5    0  503 -0.19011616532E+02 -0.28207068307E+02 -0.51680535235E+02  0.62048754926E+02  0.47000000000E+01 0.  1.
<mgrwt>
<rscale>  0 0.27288782E+03</rscale>
<asrwt>0</asrwt>
<pdfrwt beam="1">  1        2 0.15616971E+00 0.27288782E+03</pdfrwt>
<pdfrwt beam="2">  1       -2 0.28215308E-02 0.27288782E+03</pdfrwt>
<totfact> 0.11896765E+04</totfact>
</mgrwt>
</event>
<event>
 9    1  0.7957670E-001  0.2642101E+03  0.7818608E-02  0.1104640E+00
          2   -1    0    0  501    0  0.00000000000E+00  0.00000000000E+00  0.10017945532E+04  0.10017945532E+04  0.00000000000E+00 0.  1.
         -2   -1    0    0    0  501 -0.00000000000E+00 -0.00000000000E+00 -0.17420486139E+02  0.17420486139E+02  0.00000000000E+00 0.  1.
         35    2    1    2    0    0  0.00000000000E+00  0.00000000000E+00  0.98437406709E+03  0.10192150394E+04  0.26421012947E+03 0.  0.
         25    2    3    3    0    0  0.37822715569E+02 -0.16856027377E+01  0.46822206860E+03  0.48603744775E+03  0.12476816913E+03 0.  0.
         25    2    3    3    0    0 -0.37822715569E+02  0.16856027377E+01  0.51615199850E+03  0.53317759162E+03  0.12818759528E+03 0.  0.
          5    1    4    4  502    0  0.56257885720E+02 -0.27591440645E+02  0.43607465504E+03  0.44057851976E+03  0.47000000000E+01 0. -1.
         -5    1    4    4    0  502 -0.18435170151E+02  0.25905837907E+02  0.32147413558E+02  0.45458927997E+02  0.47000000000E+01 0. -1.
          5    1    5    5  503    0 -0.40583868747E+02  0.35231836582E+02  0.84912773256E+02  0.10060120165E+03  0.47000000000E+01 0. -1.
         -5    1    5    5    0  503  0.27611531782E+01 -0.33546233844E+02  0.43123922524E+03  0.43257638997E+03  0.47000000000E+01 0. -1.
<mgrwt>
<rscale>  0 0.26421013E+03</rscale>
<asrwt>0</asrwt>
<pdfrwt beam="1">  1        2 0.15412219E+00 0.26421013E+03</pdfrwt>
<pdfrwt beam="2">  1       -2 0.26800756E-02 0.26421013E+03</pdfrwt>
<totfact> 0.13067845E+04</totfact>
</mgrwt>
</event>
<event>
 9    1  0.7957670E-001  0.2742607E+03  0.7818608E-02  0.1098866E+00
         -1   -1    0    0    0  501 -0.00000000000E+00  0.00000000000E+00  0.12109130123E+02  0.12109130123E+02  0.00000000000E+00 0.  1.
          1   -1    0    0  501    0  0.00000000000E+00 -0.00000000000E+00 -0.15529387269E+04  0.15529387269E+04  0.00000000000E+00 0.  1.
         35    2    1    2    0    0 -0.17763568394E-14 -0.71054273576E-14 -0.15408295968E+04  0.15650478570E+04  0.27426073082E+03 0.  0.
         25    2    3    3    0    0  0.10985732178E+02 -0.33955877623E+02 -0.48937960901E+03  0.50591629168E+03  0.12322826192E+03 0.  0.
         25    2    3    3    0    0 -0.10985732178E+02  0.33955877623E+02 -0.10514499878E+04  0.10591315653E+04  0.12222482561E+03 0.  0.
          5    1    4    4  502    0 -0.83602703697E+01 -0.23515865443E+02 -0.48138884530E+03  0.48205829567E+03  0.47000000000E+01 0. -1.
         -5    1    4    4    0  502  0.19346002547E+02 -0.10440012180E+02 -0.79907637124E+01  0.23857996010E+02  0.47000000000E+01 0. -1.
          5    1    5    5  503    0 -0.20147157649E+01 -0.35925926931E+02 -0.68379011134E+03  0.68475231848E+03  0.47000000000E+01 0.  1.
         -5    1    5    5    0  503 -0.89710164128E+01  0.69881804554E+02 -0.36765987643E+03  0.37437924686E+03  0.47000000000E+01 0.  1.
<mgrwt>
<rscale>  0 0.27426073E+03</rscale>
<asrwt>0</asrwt>
<pdfrwt beam="1">  1        1 0.23891373E+00 0.27426073E+03</pdfrwt>
<pdfrwt beam="2">  1       -1 0.18629425E-02 0.27426073E+03</pdfrwt>
<totfact> 0.50222544E+03</totfact>
</mgrwt>
</event>
<event>
 9    1  0.7957670E-001  0.2872256E+03  0.7818608E-02  0.1091807E+00
          2   -1    0    0  501    0  0.00000000000E+00  0.00000000000E+00  0.38834746370E+03  0.38834746370E+03  0.00000000000E+00 0.  1.
         -2   -1    0    0    0  501 -0.00000000000E+00 -0.00000000000E+00 -0.53108725296E+02  0.53108725296E+02  0.00000000000E+00 0.  1.
         35    2    1    2    0    0  0.14210854715E-13  0.00000000000E+00  0.33523873841E+03  0.44145618900E+03  0.28722561703E+03 0.  0.
         25    2    3    3    0    0  0.55179235476E+02 -0.43864933421E+02  0.16607815789E+03  0.21970816567E+03  0.12538278639E+03 0.  0.
         25    2    3    3    0    0 -0.55179235476E+02  0.43864933421E+02  0.16916058052E+03  0.22174802333E+03  0.12485192604E+03 0.  0.
          5    1    4    4  502    0  0.65524938291E+02 -0.79803005373E+02  0.13935249164E+03  0.17350286490E+03  0.47000000000E+01 0.  1.
         -5    1    4    4    0  502 -0.10345702816E+02  0.35938071952E+02  0.26725666253E+02  0.46205300768E+02  0.47000000000E+01 0.  1.
          5    1    5    5  503    0  0.10873199603E+02  0.57031709133E+02  0.26655392503E+02  0.64058116315E+02  0.47000000000E+01 0. -1.
         -5    1    5    5    0  503 -0.66052435079E+02 -0.13166775712E+02  0.14250518802E+03  0.15768990701E+03  0.47000000000E+01 0. -1.
<mgrwt>
<rscale>  0 0.28722562E+03</rscale>
<asrwt>0</asrwt>
<pdfrwt beam="1">  1        2 0.59745762E-01 0.28722562E+03</pdfrwt>
<pdfrwt beam="2">  1       -2 0.81705734E-02 0.28722562E+03</pdfrwt>
<totfact> 0.75097750E+03</totfact>
</mgrwt>
</event>
<event>
 9    1  0.7957670E-001  0.2738429E+03  0.7818608E-02  0.1099100E+00
         -2   -1    0    0    0  501 -0.00000000000E+00  0.00000000000E+00  0.16772139736E+02  0.16772139736E+02  0.00000000000E+00 0. -1.
          2   -1    0    0  501    0  0.00000000000E+00 -0.00000000000E+00 -0.11177753506E+04  0.11177753506E+04  0.00000000000E+00 0. -1.
         35    2    1    2    0    0  0.00000000000E+00  0.00000000000E+00 -0.11010032108E+04  0.11345474903E+04  0.27384290659E+03 0.  0.
         25    2    3    3    0    0 -0.53572472485E+02 -0.11875895455E+02 -0.52930885011E+03  0.54668713075E+03  0.12525140087E+03 0.  0.
         25    2    3    3    0    0  0.53572472485E+02  0.11875895455E+02 -0.57169436074E+03  0.58786035957E+03  0.12543649212E+03 0.  0.
          5    1    4    4  502    0 -0.67339277168E+02 -0.13239629828E+02 -0.52749822216E+03  0.53196459509E+03  0.47000000000E+01 0.  1.
         -5    1    4    4    0  502  0.13766804683E+02  0.13637343734E+01 -0.18106279498E+01  0.14722535658E+02  0.47000000000E+01 0.  1.
          5    1    5    5  503    0 -0.57245986393E+01  0.58498950689E+02 -0.19771213383E+03  0.20631790064E+03  0.47000000000E+01 0. -1.
         -5    1    5    5    0  503  0.59297071124E+02 -0.46623055235E+02 -0.37398222691E+03  0.38154245893E+03  0.47000000000E+01 0. -1.
<mgrwt>
<rscale>  0 0.27384291E+03</rscale>
<asrwt>0</asrwt>
<pdfrwt beam="1">  1        2 0.17196547E+00 0.27384291E+03</pdfrwt>
<pdfrwt beam="2">  1       -2 0.25803288E-02 0.27384291E+03</pdfrwt>
<totfact> 0.11800936E+04</totfact>
</mgrwt>
</event>
<event>
 9    1  0.7957670E-001  0.2745936E+03  0.7818608E-02  0.1098679E+00
         -3   -1    0    0    0  501 -0.00000000000E+00  0.00000000000E+00  0.35490992211E+03  0.35490992211E+03  0.00000000000E+00 0.  1.
          3   -1    0    0  501    0  0.00000000000E+00 -0.00000000000E+00 -0.53113214672E+02  0.53113214672E+02  0.00000000000E+00 0.  1.
         35    2    1    2    0    0  0.00000000000E+00 -0.35527136788E-14  0.30179670744E+03  0.40802313679E+03  0.27459356790E+03 0.  0.
         25    2    3    3    0    0  0.26448670992E+02  0.22059642377E+02  0.79776778587E+02  0.15072845427E+03  0.12316075879E+03 0.  0.
         25    2    3    3    0    0 -0.26448670992E+02 -0.22059642377E+02  0.22201992885E+03  0.25729468252E+03  0.12538558460E+03 0.  0.
          5    1    4    4  502    0  0.14910896288E+01  0.49656853198E+02 -0.12224409968E+02  0.51376576539E+02  0.47000000000E+01 0.  1.
         -5    1    4    4    0  502  0.24957581364E+02 -0.27597210821E+02  0.92001188555E+02  0.99351877728E+02  0.47000000000E+01 0.  1.
          5    1    5    5  503    0 -0.41293974133E+02 -0.53104427691E+02  0.20996946782E+03  0.22053240115E+03  0.47000000000E+01 0.  1.
         -5    1    5    5    0  503  0.14845303141E+02  0.31044785314E+02  0.12050461039E+02  0.36762281374E+02  0.47000000000E+01 0.  1.
<mgrwt>
<rscale>  0 0.27459357E+03</rscale>
<asrwt>0</asrwt>
<pdfrwt beam="1">  1        3 0.81712640E-02 0.27459357E+03</pdfrwt>
<pdfrwt beam="2">  1       -3 0.54601525E-01 0.27459357E+03</pdfrwt>
<totfact> 0.87516841E+02</totfact>
</mgrwt>
</event>
<event>
 9    1  0.7957670E-001  0.2745313E+03  0.7818608E-02  0.1098714E+00
          2   -1    0    0  501    0  0.00000000000E+00  0.00000000000E+00  0.27591600031E+02  0.27591600031E+02  0.00000000000E+00 0. -1.
         -2   -1    0    0    0  501 -0.00000000000E+00 -0.00000000000E+00 -0.68288362473E+03  0.68288362473E+03  0.00000000000E+00 0. -1.
         35    2    1    2    0    0  0.00000000000E+00  0.00000000000E+00 -0.65529202470E+03  0.71047522476E+03  0.27453125025E+03 0.  0.
         25    2    3    3    0    0  0.10903882381E+02 -0.14235171966E+01 -0.18176615046E+03  0.22065960348E+03  0.12462265485E+03 0.  0.
         25    2    3    3    0    0 -0.10903882381E+02  0.14235171966E+01 -0.47352587424E+03  0.48981562128E+03  0.12478649057E+03 0.  0.
          5    1    4    4  502    0 -0.17541320732E+02  0.49259695220E+02 -0.13830663141E+03  0.14793589760E+03  0.47000000000E+01 0.  1.
         -5    1    4    4    0  502  0.28445203113E+02 -0.50683212417E+02 -0.43459519056E+02  0.72723705884E+02  0.47000000000E+01 0.  1.
          5    1    5    5  503    0  0.28253442515E+02 -0.51246368351E+02 -0.25040296514E+03  0.25719288916E+03  0.47000000000E+01 0. -1.
         -5    1    5    5    0  503 -0.39157324896E+02  0.52669885548E+02 -0.22312290909E+03  0.23262273212E+03  0.47000000000E+01 0. -1.
<mgrwt>
<rscale>  0 0.27453125E+03</rscale>
<asrwt>0</asrwt>
<pdfrwt beam="1">  1        2 0.42448615E-02 0.27453125E+03</pdfrwt>
<pdfrwt beam="2">  1       -2 0.10505902E+00 0.27453125E+03</pdfrwt>
<totfact> 0.14931540E+03</totfact>
</mgrwt>
</event>
<event>
 9    1  0.7957670E-001  0.2828765E+03  0.7818608E-02  0.1094128E+00
         -1   -1    0    0    0  501 -0.00000000000E+00  0.00000000000E+00  0.52313765268E+02  0.52313765268E+02  0.00000000000E+00 0.  1.
          1   -1    0    0  501    0  0.00000000000E+00 -0.00000000000E+00 -0.38239982485E+03  0.38239982485E+03  0.00000000000E+00 0.  1.
         35    2    1    2    0    0 -0.35527136788E-14  0.17763568394E-14 -0.33008605958E+03  0.43471359012E+03  0.28287647252E+03 0.  0.
         25    2    3    3    0    0  0.77536677816E+00  0.11691735332E+02 -0.57759797319E+02  0.13760183533E+03  0.12434135688E+03 0.  0.
         25    2    3    3    0    0 -0.77536677816E+00 -0.11691735332E+02 -0.27232626227E+03  0.29711175479E+03  0.11822226461E+03 0.  0.
          5    1    4    4  502    0  0.23989022714E+02 -0.45008287145E+02  0.28426413483E+01  0.51297073331E+02  0.47000000000E+01 0. -1.
         -5    1    4    4    0  502 -0.23213655936E+02  0.56700022477E+02 -0.60602438667E+02  0.86304761996E+02  0.47000000000E+01 0. -1.
          5    1    5    5  503    0  0.57051069593E+02 -0.11504122299E+02 -0.16626035999E+03  0.17621511478E+03  0.47000000000E+01 0. -1.
         -5    1    5    5    0  503 -0.57826436371E+02 -0.18761303299E+00 -0.10606590227E+03  0.12089664002E+03  0.47000000000E+01 0. -1.
<mgrwt>
<rscale>  0 0.28287647E+03</rscale>
<asrwt>0</asrwt>
<pdfrwt beam="1">  1        1 0.58830742E-01 0.28287647E+03</pdfrwt>
<pdfrwt beam="2">  1       -1 0.80482716E-02 0.28287647E+03</pdfrwt>
<totfact> 0.54538371E+03</totfact>
</mgrwt>
</event>
<event>
 9    1  0.7957670E-001  0.2755860E+03  0.7818608E-02  0.1098124E+00
          1   -1    0    0  501    0  0.00000000000E+00  0.00000000000E+00  0.19549029455E+04  0.19549029455E+04  0.00000000000E+00 0.  1.
         -1   -1    0    0    0  501 -0.00000000000E+00 -0.00000000000E+00 -0.97124600595E+01  0.97124600595E+01  0.00000000000E+00 0.  1.
         35    2    1    2    0    0  0.00000000000E+00  0.00000000000E+00  0.19451904855E+04  0.19646154056E+04  0.27558604303E+03 0.  0.
         25    2    3    3    0    0 -0.43918323439E+02  0.35916191936E+02  0.88216586271E+03  0.89280381525E+03  0.12515291136E+03 0.  0.
         25    2    3    3    0    0  0.43918323439E+02 -0.35916191936E+02  0.10630246228E+04  0.10718115903E+04  0.12465931417E+03 0.  0.
          5    1    4    4  502    0 -0.22540069088E+02  0.10836397023E+02  0.27416068661E+02  0.37406056137E+02  0.47000000000E+01 0.  1.
         -5    1    4    4    0  502 -0.21378254351E+02  0.25079794913E+02  0.85474979405E+03  0.85539775911E+03  0.47000000000E+01 0.  1.
          5    1    5    5  503    0  0.40574781661E+02 -0.87792453066E+01  0.10184625016E+04  0.10193190595E+04  0.47000000000E+01 0. -1.
         -5    1    5    5    0  503  0.33435417782E+01 -0.27136946630E+02  0.44562121220E+02  0.52492530818E+02  0.47000000000E+01 0. -1.
<mgrwt>
<rscale>  0 0.27558604E+03</rscale>
<asrwt>0</asrwt>
<pdfrwt beam="1">  1        1 0.30075399E+00 0.27558604E+03</pdfrwt>
<pdfrwt beam="2">  1       -1 0.14942262E-02 0.27558604E+03</pdfrwt>
<totfact> 0.37881872E+03</totfact>
</mgrwt>
</event>
<event>
 9    1  0.7957670E-001  0.2755079E+03  0.7818608E-02  0.1098168E+00
          2   -1    0    0  501    0  0.00000000000E+00  0.00000000000E+00  0.19319467877E+03  0.19319467877E+03  0.00000000000E+00 0.  1.
         -2   -1    0    0    0  501 -0.00000000000E+00 -0.00000000000E+00 -0.98222912037E+02  0.98222912037E+02  0.00000000000E+00 0.  1.
         35    2    1    2    0    0 -0.71054273576E-14  0.00000000000E+00  0.94971766731E+02  0.29141759080E+03  0.27550785062E+03 0.  0.
         25    2    3    3    0    0  0.32064238657E+02  0.41590759133E+02  0.22438950104E+02  0.13743516063E+03  0.12500804074E+03 0.  0.
         25    2    3    3    0    0 -0.32064238657E+02 -0.41590759133E+02  0.72532816627E+02  0.15398243018E+03  0.12526640679E+03 0.  0.
          5    1    4    4  502    0  0.67684891996E+02  0.58183247863E+02  0.34889265340E+02  0.95947307270E+02  0.47000000000E+01 0. -1.
         -5    1    4    4    0  502 -0.35620653339E+02 -0.16592488730E+02 -0.12450315236E+02  0.41487853355E+02  0.47000000000E+01 0. -1.
          5    1    5    5  503    0  0.14298628776E+02 -0.49427007245E+02 -0.15607550297E+02  0.53973747844E+02  0.47000000000E+01 0. -1.
         -5    1    5    5    0  503 -0.46362867433E+02  0.78362481117E+01  0.88140366924E+02  0.10000868234E+03  0.47000000000E+01 0. -1.
<mgrwt>
<rscale>  0 0.27550785E+03</rscale>
<asrwt>0</asrwt>
<pdfrwt beam="1">  1        2 0.29722258E-01 0.27550785E+03</pdfrwt>
<pdfrwt beam="2">  1       -2 0.15111217E-01 0.27550785E+03</pdfrwt>
<totfact> 0.59473698E+03</totfact>
</mgrwt>
</event>
<event>
 9    1  0.7957670E-001  0.2719219E+03  0.7818608E-02  0.1100185E+00
          2   -1    0    0  501    0  0.00000000000E+00  0.00000000000E+00  0.78220915362E+03  0.78220915362E+03  0.00000000000E+00 0.  1.
         -2   -1    0    0    0  501 -0.00000000000E+00 -0.00000000000E+00 -0.23632271005E+02  0.23632271005E+02  0.00000000000E+00 0.  1.
         35    2    1    2    0    0  0.14210854715E-13  0.00000000000E+00  0.75857688262E+03  0.80584142463E+03  0.27192189100E+03 0.  0.
         25    2    3    3    0    0  0.45835718437E+02 -0.24264029121E+02  0.34269218519E+03  0.36843223951E+03  0.12495889373E+03 0.  0.
         25    2    3    3    0    0 -0.45835718437E+02  0.24264029121E+02  0.41588469743E+03  0.43740918512E+03  0.12520805678E+03 0.  0.
          5    1    4    4  502    0  0.86947759398E+02 -0.20450159894E+01  0.19806858572E+03  0.21637317210E+03  0.47000000000E+01 0. -1.
         -5    1    4    4    0  502 -0.41112040960E+02 -0.22219013132E+02  0.14462359947E+03  0.15205906741E+03  0.47000000000E+01 0. -1.
          5    1    5    5  503    0  0.18039773793E+02 -0.20083062101E+02  0.19979161680E+02  0.33911940718E+02  0.47000000000E+01 0. -1.
         -5    1    5    5    0  503 -0.63875492231E+02  0.44347091222E+02  0.39590553575E+03  0.40349724441E+03  0.47000000000E+01 0. -1.
<mgrwt>
<rscale>  0 0.27192189E+03</rscale>
<asrwt>0</asrwt>
<pdfrwt beam="1">  1        2 0.12033985E+00 0.27192189E+03</pdfrwt>
<pdfrwt beam="2">  1       -2 0.36357346E-02 0.27192189E+03</pdfrwt>
<totfact> 0.11542344E+04</totfact>
</mgrwt>
</event>
<event>
 9    1  0.7957670E-001  0.2744607E+03  0.7818608E-02  0.1098753E+00
         -2   -1    0    0    0  501 -0.00000000000E+00  0.00000000000E+00  0.16328561016E+02  0.16328561016E+02  0.00000000000E+00 0. -1.
          2   -1    0    0  501    0  0.00000000000E+00 -0.00000000000E+00 -0.11533271697E+04  0.11533271697E+04  0.00000000000E+00 0. -1.
         35    2    1    2    0    0  0.00000000000E+00  0.71054273576E-14 -0.11369986086E+04  0.11696557307E+04  0.27446072988E+03 0.  0.
         25    2    3    3    0    0 -0.50035509166E+01 -0.33287344802E+02 -0.76513749709E+03  0.77605568225E+03  0.12527549504E+03 0.  0.
         25    2    3    3    0    0  0.50035509166E+01  0.33287344802E+02 -0.37186111155E+03  0.39360004842E+03  0.12452802490E+03 0.  0.
          5    1    4    4  502    0  0.14384259108E+02  0.45622370799E+02 -0.26074668884E+03  0.26514002596E+03  0.47000000000E+01 0. -1.
         -5    1    4    4    0  502 -0.19387810024E+02 -0.78909715602E+02 -0.50439080825E+03  0.51091565629E+03  0.47000000000E+01 0. -1.
          5    1    5    5  503    0  0.13110996202E+02 -0.20863889707E+01 -0.35138448858E+03  0.35166660355E+03  0.47000000000E+01 0. -1.
         -5    1    5    5    0  503 -0.81074452853E+01  0.35373733773E+02 -0.20476622971E+02  0.41933444867E+02  0.47000000000E+01 0. -1.
<mgrwt>
<rscale>  0 0.27446073E+03</rscale>
<asrwt>0</asrwt>
<pdfrwt beam="1">  1        2 0.17743501E+00 0.27446073E+03</pdfrwt>
<pdfrwt beam="2">  1       -2 0.25120854E-02 0.27446073E+03</pdfrwt>
<totfact> 0.11710147E+04</totfact>
</mgrwt>
</event>
<event>
 9    1  0.7957670E-001  0.2730089E+03  0.7818608E-02  0.1099570E+00
         -1   -1    0    0    0  501 -0.00000000000E+00  0.00000000000E+00  0.58379853040E+02  0.58379853040E+02  0.00000000000E+00 0.  1.
          1   -1    0    0  501    0  0.00000000000E+00 -0.00000000000E+00 -0.31917628610E+03  0.31917628610E+03  0.00000000000E+00 0.  1.
         35    2    1    2    0    0 -0.35527136788E-14  0.00000000000E+00 -0.26079643306E+03  0.37755613914E+03  0.27300889858E+03 0.  0.
         25    2    3    3    0    0  0.18004188980E+02  0.29523646097E+02 -0.70654432180E+02  0.14791349334E+03  0.12526195043E+03 0.  0.
         25    2    3    3    0    0 -0.18004188980E+02 -0.29523646097E+02 -0.19014200088E+03  0.22964264579E+03  0.12404018611E+03 0.  0.
          5    1    4    4  502    0 -0.64106852771E+01  0.68028739090E+02 -0.75364263293E+02  0.10183746074E+03  0.47000000000E+01 0.  1.
         -5    1    4    4    0  502  0.24414874257E+02 -0.38505092992E+02  0.47098311128E+01  0.46076032603E+02  0.47000000000E+01 0.  1.
          5    1    5    5  503    0 -0.66512680497E+02 -0.33424576324E+02 -0.81340226459E+02  0.11036059718E+03  0.47000000000E+01 0.  1.
         -5    1    5    5    0  503  0.48508491517E+02  0.39009302263E+01 -0.10880177442E+03  0.11928204862E+03  0.47000000000E+01 0.  1.
<mgrwt>
<rscale>  0 0.27300890E+03</rscale>
<asrwt>0</asrwt>
<pdfrwt beam="1">  1        1 0.49104045E-01 0.27300890E+03</pdfrwt>
<pdfrwt beam="2">  1       -1 0.89815157E-02 0.27300890E+03</pdfrwt>
<totfact> 0.57913899E+03</totfact>
</mgrwt>
</event>
<event>
 9    1  0.7957670E-001  0.2771108E+03  0.7818608E-02  0.1097278E+00
          3   -1    0    0  501    0  0.00000000000E+00  0.00000000000E+00  0.37274900998E+02  0.37274900998E+02  0.00000000000E+00 0. -1.
         -3   -1    0    0    0  501 -0.00000000000E+00 -0.00000000000E+00 -0.51502736788E+03  0.51502736788E+03  0.00000000000E+00 0. -1.
         35    2    1    2    0    0  0.00000000000E+00  0.71054273576E-14 -0.47775246688E+03  0.55230226888E+03  0.27711076593E+03 0.  0.
         25    2    3    3    0    0  0.22924303326E+02  0.55405687311E+02 -0.26898455461E+03  0.30141669401E+03  0.12208201728E+03 0.  0.
         25    2    3    3    0    0 -0.22924303326E+02 -0.55405687311E+02 -0.20876791227E+03  0.25088557486E+03  0.12555563154E+03 0.  0.
          5    1    4    4  502    0  0.28861158559E+02 -0.26307200148E+02 -0.16130410059E+03  0.16603053370E+03  0.47000000000E+01 0.  1.
         -5    1    4    4    0  502 -0.59368552325E+01  0.81712887459E+02 -0.10768045402E+03  0.13538616031E+03  0.47000000000E+01 0.  1.
          5    1    5    5  503    0  0.29714266345E+02  0.10827062009E+02 -0.79836602755E+01  0.32954388594E+02  0.47000000000E+01 0.  1.
         -5    1    5    5    0  503 -0.52638569672E+02 -0.66232749320E+02 -0.20078425200E+03  0.21793118627E+03  0.47000000000E+01 0.  1.
<mgrwt>
<rscale>  0 0.27711077E+03</rscale>
<asrwt>0</asrwt>
<pdfrwt beam="1">  1        3 0.57345998E-02 0.27711077E+03</pdfrwt>
<pdfrwt beam="2">  1       -3 0.79234984E-01 0.27711077E+03</pdfrwt>
<totfact> 0.70844494E+02</totfact>
</mgrwt>
</event>
<event>
 9    1  0.7957670E-001  0.2980038E+03  0.7818608E-02  0.1086243E+00
         -2   -1    0    0    0  501 -0.00000000000E+00  0.00000000000E+00  0.11742025551E+03  0.11742025551E+03  0.00000000000E+00 0.  1.
          2   -1    0    0  501    0  0.00000000000E+00 -0.00000000000E+00 -0.18907784857E+03  0.18907784857E+03  0.00000000000E+00 0.  1.
         35    2    1    2    0    0 -0.14210854715E-13  0.00000000000E+00 -0.71657593065E+02  0.30649810408E+03  0.29800382071E+03 0.  0.
         25    2    3    3    0    0  0.57784832724E+02  0.52100669140E+02 -0.56230258775E+02  0.15992564238E+03  0.12790935255E+03 0.  0.
         25    2    3    3    0    0 -0.57784832724E+02 -0.52100669140E+02 -0.15427334290E+02  0.14657246170E+03  0.12325549589E+03 0.  0.
          5    1    4    4  502    0  0.28871153746E+02  0.84328270600E+02 -0.70878957799E+02  0.11397682835E+03  0.47000000000E+01 0.  1.
         -5    1    4    4    0  502  0.28913678978E+02 -0.32227601461E+02  0.14648699023E+02  0.45948814033E+02  0.47000000000E+01 0.  1.
          5    1    5    5  503    0 -0.29797942386E+02  0.25115843656E+02  0.32851199723E+02  0.51186075219E+02  0.47000000000E+01 0.  1.
         -5    1    5    5    0  503 -0.27986890338E+02 -0.77216512796E+02 -0.48278534013E+02  0.95386386479E+02  0.47000000000E+01 0.  1.
<mgrwt>
<rscale>  0 0.29800382E+03</rscale>
<asrwt>0</asrwt>
<pdfrwt beam="1">  1        2 0.29088899E-01 0.29800382E+03</pdfrwt>
<pdfrwt beam="2">  1       -2 0.18064655E-01 0.29800382E+03</pdfrwt>
<totfact> 0.45298338E+03</totfact>
</mgrwt>
</event>
<event>
 9    1  0.7957670E-001  0.2749345E+03  0.7818608E-02  0.1098488E+00
          1   -1    0    0  501    0  0.00000000000E+00  0.00000000000E+00  0.10744924931E+03  0.10744924931E+03  0.00000000000E+00 0.  1.
         -1   -1    0    0    0  501 -0.00000000000E+00 -0.00000000000E+00 -0.17587138459E+03  0.17587138459E+03  0.00000000000E+00 0.  1.
         35    2    1    2    0    0  0.00000000000E+00 -0.71054273576E-14 -0.68422135283E+02  0.28332063390E+03  0.27493452493E+03 0.  0.
         25    2    3    3    0    0  0.36866248354E+02  0.28600041919E+02 -0.12182863930E+01  0.13332463682E+03  0.12488751697E+03 0.  0.
         25    2    3    3    0    0 -0.36866248354E+02 -0.28600041919E+02 -0.67203848890E+02  0.14999599708E+03  0.12571936672E+03 0.  0.
          5    1    4    4  502    0  0.52422123792E+02 -0.23858813166E+02 -0.36220243752E+02  0.68200572476E+02  0.47000000000E+01 0. -1.
         -5    1    4    4    0  502 -0.15555875438E+02  0.52458855085E+02  0.35001957359E+02  0.65124064342E+02  0.47000000000E+01 0. -1.
          5    1    5    5  503    0 -0.22641184278E+02 -0.78581156458E+02 -0.40268723147E+02  0.91275853541E+02  0.47000000000E+01 0.  1.
         -5    1    5    5    0  503 -0.14225064076E+02  0.49981114539E+02 -0.26935125743E+02  0.58720143540E+02  0.47000000000E+01 0.  1.
<mgrwt>
<rscale>  0 0.27493452E+03</rscale>
<asrwt>0</asrwt>
<pdfrwt beam="1">  1        1 0.16530654E-01 0.27493452E+03</pdfrwt>
<pdfrwt beam="2">  1       -1 0.27057136E-01 0.27493452E+03</pdfrwt>
<totfact> 0.39707071E+03</totfact>
</mgrwt>
</event>
<event>
 9    1  0.7957670E-001  0.2745682E+03  0.7818608E-02  0.1098693E+00
         -2   -1    0    0    0  501 -0.00000000000E+00  0.00000000000E+00  0.75580977283E+01  0.75580977283E+01  0.00000000000E+00 0. -1.
          2   -1    0    0  501    0  0.00000000000E+00 -0.00000000000E+00 -0.24936059589E+04  0.24936059589E+04  0.00000000000E+00 0. -1.
         35    2    1    2    0    0  0.00000000000E+00  0.71054273576E-14 -0.24860478612E+04  0.25011640567E+04  0.27456815207E+03 0.  0.
         25    2    3    3    0    0 -0.46044104314E+02  0.31849963765E+02 -0.13544557509E+04  0.13612946954E+04  0.12425130527E+03 0.  0.
         25    2    3    3    0    0  0.46044104314E+02 -0.31849963765E+02 -0.11315921103E+04  0.11398693613E+04  0.12516779494E+03 0.  0.
          5    1    4    4  502    0 -0.61770557192E+02  0.12367792229E+02 -0.12958839112E+04  0.12974227396E+04  0.47000000000E+01 0. -1.
         -5    1    4    4    0  502  0.15726452878E+02  0.19482171536E+02 -0.58571839697E+02  0.63871955766E+02  0.47000000000E+01 0. -1.
          5    1    5    5  503    0 -0.25800600114E+02 -0.49495205163E+02 -0.31695260593E+03  0.32186408732E+03  0.47000000000E+01 0.  1.
         -5    1    5    5    0  503  0.71844704428E+02  0.17645241398E+02 -0.81463950441E+03  0.81800527397E+03  0.47000000000E+01 0.  1.
<mgrwt>
<rscale>  0 0.27456815E+03</rscale>
<asrwt>0</asrwt>
<pdfrwt beam="1">  1        2 0.38363220E+00 0.27456815E+03</pdfrwt>
<pdfrwt beam="2">  1       -2 0.11627827E-02 0.27456815E+03</pdfrwt>
<totfact> 0.69208968E+03</totfact>
</mgrwt>
</event>
<event>
 9    1  0.7957670E-001  0.2779889E+03  0.7818608E-02  0.1096792E+00
         -1   -1    0    0    0  501 -0.00000000000E+00  0.00000000000E+00  0.88916930444E+01  0.88916930444E+01  0.00000000000E+00 0. -1.
          1   -1    0    0  501    0  0.00000000000E+00 -0.00000000000E+00 -0.21727530564E+04  0.21727530564E+04  0.00000000000E+00 0. -1.
         35    2    1    2    0    0  0.00000000000E+00  0.35527136788E-14 -0.21638613633E+04  0.21816447494E+04  0.27798887200E+03 0.  0.
         25    2    3    3    0    0 -0.35270662309E+02 -0.10696955827E+02 -0.14529218988E+04  0.14587427220E+04  0.12485928358E+03 0.  0.
         25    2    3    3    0    0  0.35270662309E+02  0.10696955827E+02 -0.71093946457E+03  0.72290202739E+03  0.12567408021E+03 0.  0.
          5    1    4    4  502    0  0.18156098885E+02  0.20450010288E+02 -0.11041889609E+04  0.11045375495E+04  0.47000000000E+01 0.  1.
         -5    1    4    4    0  502 -0.53426761194E+02 -0.31146966114E+02 -0.34873293785E+03  0.35420517253E+03  0.47000000000E+01 0.  1.
          5    1    5    5  503    0 -0.32900350831E+01  0.44294776440E+02 -0.58761819323E+03  0.58931322959E+03  0.47000000000E+01 0.  1.
         -5    1    5    5    0  503  0.38560697392E+02 -0.33597820613E+02 -0.12332127134E+03  0.13358879780E+03  0.47000000000E+01 0.  1.
<mgrwt>
<rscale>  0 0.27798887E+03</rscale>
<asrwt>0</asrwt>
<pdfrwt beam="1">  1        1 0.33426980E+00 0.27798887E+03</pdfrwt>
<pdfrwt beam="2">  1       -1 0.13679524E-02 0.27798887E+03</pdfrwt>
<totfact> 0.31080900E+03</totfact>
</mgrwt>
</event>
<event>
 9    1  0.7957670E-001  0.2752151E+03  0.7818608E-02  0.1098331E+00
          1   -1    0    0  501    0  0.00000000000E+00  0.00000000000E+00  0.11843376114E+03  0.11843376114E+03  0.00000000000E+00 0. -1.
         -1   -1    0    0    0  501 -0.00000000000E+00 -0.00000000000E+00 -0.15988541534E+03  0.15988541534E+03  0.00000000000E+00 0. -1.
         35    2    1    2    0    0 -0.35527136788E-14 -0.71054273576E-14 -0.41451654195E+02  0.27831917648E+03  0.27521505112E+03 0.  0.
         25    2    3    3    0    0  0.12294615759E+02  0.91432078199E+01  0.39566486735E+02  0.13186176905E+03  0.12484896250E+03 0.  0.
         25    2    3    3    0    0 -0.12294615759E+02 -0.91432078199E+01 -0.81018140929E+02  0.14645740744E+03  0.12104163419E+03 0.  0.
          5    1    4    4  502    0 -0.16310694465E+02  0.28087536960E+02 -0.36014750595E+02  0.48724744708E+02  0.47000000000E+01 0.  1.
         -5    1    4    4    0  502  0.28605310224E+02 -0.18944329140E+02  0.75581237330E+02  0.83137024339E+02  0.47000000000E+01 0.  1.
          5    1    5    5  503    0 -0.48709745442E+02 -0.47974226620E+02 -0.47299815242E+02  0.83267810364E+02  0.47000000000E+01 0.  1.
         -5    1    5    5    0  503  0.36415129684E+02  0.38831018800E+02 -0.33718325688E+02  0.63189597072E+02  0.47000000000E+01 0.  1.
<mgrwt>
<rscale>  0 0.27521505E+03</rscale>
<asrwt>0</asrwt>
<pdfrwt beam="1">  1        1 0.18220579E-01 0.27521505E+03</pdfrwt>
<pdfrwt beam="2">  1       -1 0.24597756E-01 0.27521505E+03</pdfrwt>
<totfact> 0.41020579E+03</totfact>
</mgrwt>
</event>
<event>
 9    1  0.7957670E-001  0.2672754E+03  0.7818608E-02  0.1102849E+00
         -2   -1    0    0    0  501 -0.00000000000E+00  0.00000000000E+00  0.75658867735E+01  0.75658867735E+01  0.00000000000E+00 0. -1.
          2   -1    0    0  501    0  0.00000000000E+00 -0.00000000000E+00 -0.23604683139E+04  0.23604683139E+04  0.00000000000E+00 0. -1.
         35    2    1    2    0    0  0.35527136788E-14  0.00000000000E+00 -0.23529024271E+04  0.23680342006E+04  0.26727540848E+03 0.  0.
         25    2    3    3    0    0  0.16270768212E+02 -0.38341746740E+02 -0.96589630538E+03  0.97478339165E+03  0.12454782399E+03 0.  0.
         25    2    3    3    0    0 -0.16270768212E+02  0.38341746740E+02 -0.13870061217E+04  0.13932508090E+04  0.12500803023E+03 0.  0.
          5    1    4    4  502    0  0.61589962011E+02 -0.39225514056E+02 -0.77827391081E+03  0.78170604105E+03  0.47000000000E+01 0.  1.
         -5    1    4    4    0  502 -0.45319193799E+02  0.88376731579E+00 -0.18762239457E+03  0.19307735060E+03  0.47000000000E+01 0.  1.
          5    1    5    5  503    0 -0.11337316893E+02 -0.37657810464E+02 -0.84176788175E+03  0.84269917657E+03  0.47000000000E+01 0. -1.
         -5    1    5    5    0  503 -0.49334513196E+01  0.75999557204E+02 -0.54523823997E+03  0.55055163243E+03  0.47000000000E+01 0. -1.
<mgrwt>
<rscale>  0 0.26727541E+03</rscale>
<asrwt>0</asrwt>
<pdfrwt beam="1">  1        2 0.36314916E+00 0.26727541E+03</pdfrwt>
<pdfrwt beam="2">  1       -2 0.11639820E-02 0.26727541E+03</pdfrwt>
<totfact> 0.81628874E+03</totfact>
</mgrwt>
</event>
<event>
 9    1  0.7957670E-001  0.2746978E+03  0.7818608E-02  0.1098621E+00
          1   -1    0    0  501    0  0.00000000000E+00  0.00000000000E+00  0.29023576008E+02  0.29023576008E+02  0.00000000000E+00 0.  1.
         -1   -1    0    0    0  501 -0.00000000000E+00 -0.00000000000E+00 -0.64997940974E+03  0.64997940974E+03  0.00000000000E+00 0.  1.
         35    2    1    2    0    0  0.00000000000E+00  0.00000000000E+00 -0.62095583373E+03  0.67900298575E+03  0.27469784711E+03 0.  0.
         25    2    3    3    0    0  0.34973883805E+02  0.34509616802E+02 -0.23844962819E+03  0.27364740494E+03  0.12494235009E+03 0.  0.
         25    2    3    3    0    0 -0.34973883805E+02 -0.34509616802E+02 -0.38250620554E+03  0.40535558080E+03  0.12485216623E+03 0.  0.
          5    1    4    4  502    0  0.56510930525E+00 -0.23545860840E+01  0.14626805359E+02  0.15553033761E+02  0.47000000000E+01 0.  1.
         -5    1    4    4    0  502  0.34408774500E+02  0.36864202886E+02 -0.25307643355E+03  0.25809437118E+03  0.47000000000E+01 0.  1.
          5    1    5    5  503    0  0.17173581030E+02 -0.39918560980E+02 -0.41372342807E+02  0.60184583952E+02  0.47000000000E+01 0. -1.
         -5    1    5    5    0  503 -0.52147464836E+02  0.54089441780E+01 -0.34113386273E+03  0.34517099685E+03  0.47000000000E+01 0. -1.
<mgrwt>
<rscale>  0 0.27469785E+03</rscale>
<asrwt>0</asrwt>
<pdfrwt beam="1">  1        1 0.44651656E-02 0.27469785E+03</pdfrwt>
<pdfrwt beam="2">  1       -1 0.99996830E-01 0.27469785E+03</pdfrwt>
<totfact> 0.19627677E+03</totfact>
</mgrwt>
</event>
<event>
 9    1  0.7957670E-001  0.2759588E+03  0.7818608E-02  0.1097917E+00
          1   -1    0    0  501    0  0.00000000000E+00  0.00000000000E+00  0.75862346588E+03  0.75862346588E+03  0.00000000000E+00 0.  1.
         -1   -1    0    0    0  501 -0.00000000000E+00 -0.00000000000E+00 -0.25095877554E+02  0.25095877554E+02  0.00000000000E+00 0.  1.
         35    2    1    2    0    0  0.14210854715E-13 -0.71054273576E-14  0.73352758833E+03  0.78371934344E+03  0.27595884917E+03 0.  0.
         25    2    3    3    0    0  0.34720172472E+02 -0.35562155743E+02  0.27271672359E+03  0.30386021295E+03  0.12444460772E+03 0.  0.
         25    2    3    3    0    0 -0.34720172472E+02  0.35562155743E+02  0.46081086473E+03  0.47985913048E+03  0.12428988194E+03 0.  0.
          5    1    4    4  502    0  0.48974872942E+00 -0.37546856186E+02  0.10366682234E+02  0.39237282829E+02  0.47000000000E+01 0.  1.
         -5    1    4    4    0  502  0.34230423742E+02  0.19847004431E+01  0.26235004136E+03  0.26462293012E+03  0.47000000000E+01 0.  1.
          5    1    5    5  503    0  0.34641410199E+02  0.81342577682E+01  0.45881123803E+02  0.58252561930E+02  0.47000000000E+01 0. -1.
         -5    1    5    5    0  503 -0.69361582671E+02  0.27427897975E+02  0.41492974093E+03  0.42160656855E+03  0.47000000000E+01 0. -1.
<mgrwt>
<rscale>  0 0.27595885E+03</rscale>
<asrwt>0</asrwt>
<pdfrwt beam="1">  1        1 0.11671128E+00 0.27595885E+03</pdfrwt>
<pdfrwt beam="2">  1       -1 0.38609048E-02 0.27595885E+03</pdfrwt>
<totfact> 0.64674972E+03</totfact>
</mgrwt>
</event>
<event>
 9    1  0.7957670E-001  0.2746990E+03  0.7818608E-02  0.1098620E+00
         -1   -1    0    0    0  501 -0.00000000000E+00  0.00000000000E+00  0.93044090051E+02  0.93044090051E+02  0.00000000000E+00 0.  1.
          1   -1    0    0  501    0  0.00000000000E+00 -0.00000000000E+00 -0.20275216681E+03  0.20275216681E+03  0.00000000000E+00 0.  1.
         35    2    1    2    0    0  0.00000000000E+00 -0.10658141036E-13 -0.10970807676E+03  0.29579625686E+03  0.27469904162E+03 0.  0.
         25    2    3    3    0    0 -0.24918811396E+01  0.61519290913E+01  0.24301078436E+01  0.12508938991E+03  0.12488952854E+03 0.  0.
         25    2    3    3    0    0  0.24918811396E+01 -0.61519290913E+01 -0.11213818460E+03  0.17070686695E+03  0.12853717857E+03 0.  0.
          5    1    4    4  502    0 -0.30143119697E+02 -0.51344230982E+02 -0.80507849776E+01  0.60263943274E+02  0.47000000000E+01 0. -1.
         -5    1    4    4    0  502  0.27651238557E+02  0.57496160073E+02  0.10480892821E+02  0.64825446633E+02  0.47000000000E+01 0. -1.
          5    1    5    5  503    0  0.52439700582E+02 -0.37193983897E+02 -0.34245444739E+02  0.72994212926E+02  0.47000000000E+01 0. -1.
         -5    1    5    5    0  503 -0.49947819442E+02  0.31042054806E+02 -0.77892739864E+02  0.97712654028E+02  0.47000000000E+01 0. -1.
<mgrwt>
<rscale>  0 0.27469904E+03</rscale>
<asrwt>0</asrwt>
<pdfrwt beam="1">  1        1 0.31192641E-01 0.27469904E+03</pdfrwt>
<pdfrwt beam="2">  1       -1 0.14314475E-01 0.27469904E+03</pdfrwt>
<totfact> 0.49575735E+03</totfact>
</mgrwt>
</event>
<event>
 9    1  0.7957670E-001  0.2796230E+03  0.7818608E-02  0.1095895E+00
         -2   -1    0    0    0  501 -0.00000000000E+00  0.00000000000E+00  0.66174141189E+01  0.66174141189E+01  0.00000000000E+00 0. -1.
          2   -1    0    0  501    0  0.00000000000E+00 -0.00000000000E+00 -0.29539109616E+04  0.29539109616E+04  0.00000000000E+00 0. -1.
         35    2    1    2    0    0  0.00000000000E+00  0.00000000000E+00 -0.29472935475E+04  0.29605283757E+04  0.27962297548E+03 0.  0.
         25    2    3    3    0    0 -0.38142061678E+02 -0.32984777451E+02 -0.10788318518E+04  0.10872337624E+04  0.12512504612E+03 0.  0.
         25    2    3    3    0    0  0.38142061678E+02  0.32984777451E+02 -0.18684616957E+04  0.18732946134E+04  0.12466269594E+03 0.  0.
          5    1    4    4  502    0  0.39545782675E+02 -0.31138591610E+02 -0.59877283406E+03  0.60090305177E+03  0.47000000000E+01 0.  1.
         -5    1    4    4    0  502 -0.77687844354E+02 -0.18461858406E+01 -0.48005901774E+03  0.48633071060E+03  0.47000000000E+01 0.  1.
          5    1    5    5  503    0 -0.42387164820E+02 -0.33693446111E+01 -0.81582465955E+03  0.81694552411E+03  0.47000000000E+01 0. -1.
         -5    1    5    5    0  503  0.80529226498E+02  0.36354122062E+02 -0.10526370361E+04  0.10563490893E+04  0.47000000000E+01 0. -1.
<mgrwt>
<rscale>  0 0.27962298E+03</rscale>
<asrwt>0</asrwt>
<pdfrwt beam="1">  1        2 0.45444765E+00 0.27962298E+03</pdfrwt>
<pdfrwt beam="2">  1       -2 0.10180641E-02 0.27962298E+03</pdfrwt>
<totfact> 0.46066697E+03</totfact>
</mgrwt>
</event>
<event>
 9    1  0.7957670E-001  0.2666600E+03  0.7818608E-02  0.1103207E+00
          2   -1    0    0  501    0  0.00000000000E+00  0.00000000000E+00  0.34382780038E+04  0.34382780038E+04  0.00000000000E+00 0. -1.
         -2   -1    0    0    0  501 -0.00000000000E+00 -0.00000000000E+00 -0.51702894604E+01  0.51702894604E+01  0.00000000000E+00 0. -1.
         35    2    1    2    0    0  0.00000000000E+00  0.00000000000E+00  0.34331077144E+04  0.34434482933E+04  0.26666002719E+03 0.  0.
         25    2    3    3    0    0  0.20055503650E+02 -0.42769834834E+02  0.16626636299E+04  0.16680096080E+04  0.12479673152E+03 0.  0.
         25    2    3    3    0    0 -0.20055503650E+02  0.42769834834E+02  0.17704440844E+04  0.17754386852E+04  0.12441377329E+03 0.  0.
          5    1    4    4  502    0  0.61366507888E+02 -0.32714292196E+02  0.53321724102E+03  0.53775346519E+03  0.47000000000E+01 0.  1.
         -5    1    4    4    0  502 -0.41311004238E+02 -0.10055542637E+02  0.11294463889E+04  0.11302561429E+04  0.47000000000E+01 0.  1.
          5    1    5    5  503    0  0.39834044544E+02  0.15932620649E+02  0.12642419039E+04  0.12649783718E+04  0.47000000000E+01 0.  1.
         -5    1    5    5    0  503 -0.59889548194E+02  0.26837214184E+02  0.50620218050E+03  0.51046031343E+03  0.47000000000E+01 0.  1.
<mgrwt>
<rscale>  0 0.26666003E+03</rscale>
<asrwt>0</asrwt>
<pdfrwt beam="1">  1        2 0.52896402E+00 0.26666003E+03</pdfrwt>
<pdfrwt beam="2">  1       -2 0.79543190E-03 0.26666003E+03</pdfrwt>
<totfact> 0.33125465E+03</totfact>
</mgrwt>
</event>
<event>
 9    1  0.7957670E-001  0.2740097E+03  0.7818608E-02  0.1099006E+00
          2   -1    0    0  501    0  0.00000000000E+00  0.00000000000E+00  0.48220266949E+03  0.48220266949E+03  0.00000000000E+00 0.  1.
         -2   -1    0    0    0  501 -0.00000000000E+00 -0.00000000000E+00 -0.38926236804E+02  0.38926236804E+02  0.00000000000E+00 0.  1.
         35    2    1    2    0    0  0.35527136788E-14  0.00000000000E+00  0.44327643268E+03  0.52112890629E+03  0.27400974654E+03 0.  0.
         25    2    3    3    0    0  0.15649077654E+01 -0.65069686013E+02  0.16902492598E+03  0.21273893494E+03  0.11158815289E+03 0.  0.
         25    2    3    3    0    0 -0.15649077654E+01  0.65069686013E+02  0.27425150670E+03  0.30838997135E+03  0.12511583642E+03 0.  0.
          5    1    4    4  502    0 -0.30619640046E+02 -0.54953288329E+02  0.30466834669E+02  0.70055294371E+02  0.47000000000E+01 0.  1.
         -5    1    4    4    0  502  0.32184547811E+02 -0.10116397684E+02  0.13855809131E+03  0.14268364057E+03  0.47000000000E+01 0.  1.
          5    1    5    5  503    0  0.45954786513E+02 -0.13106542329E+02  0.11584841306E+03  0.12540561655E+03  0.47000000000E+01 0.  1.
         -5    1    5    5    0  503 -0.47519694278E+02  0.78176228342E+02  0.15840309364E+03  0.18298435479E+03  0.47000000000E+01 0.  1.
<mgrwt>
<rscale>  0 0.27400975E+03</rscale>
<asrwt>0</asrwt>
<pdfrwt beam="1">  1        2 0.74185022E-01 0.27400975E+03</pdfrwt>
<pdfrwt beam="2">  1       -2 0.59886522E-02 0.27400975E+03</pdfrwt>
<totfact> 0.95674698E+03</totfact>
</mgrwt>
</event>
<event>
 9    1  0.7957670E-001  0.2652068E+03  0.7818608E-02  0.1104055E+00
         -3   -1    0    0    0  501 -0.00000000000E+00  0.00000000000E+00  0.22607703337E+02  0.22607703337E+02  0.00000000000E+00 0. -1.
          3   -1    0    0  501    0  0.00000000000E+00 -0.00000000000E+00 -0.77777330812E+03  0.77777330812E+03  0.00000000000E+00 0. -1.
         35    2    1    2    0    0  0.71054273576E-14 -0.17763568394E-14 -0.75516560478E+03  0.80038101145E+03  0.26520684918E+03 0.  0.
         25    2    3    3    0    0  0.39912089631E+02  0.95605882058E+01 -0.33590533045E+03  0.36097976760E+03  0.12565676206E+03 0.  0.
         25    2    3    3    0    0 -0.39912089631E+02 -0.95605882058E+01 -0.41926027433E+03  0.43940124385E+03  0.12493956826E+03 0.  0.
          5    1    4    4  502    0  0.35670206929E+02  0.23452275182E+01 -0.13604727373E+02  0.38536247370E+02  0.47000000000E+01 0. -1.
         -5    1    4    4    0  502  0.42418827026E+01  0.72153606876E+01 -0.32230060307E+03  0.32244352023E+03  0.47000000000E+01 0. -1.
          5    1    5    5  503    0 -0.72142352300E+02  0.19564359968E+02 -0.16223456464E+03  0.17868807218E+03  0.47000000000E+01 0.  1.
         -5    1    5    5    0  503  0.32230262669E+02 -0.29124948174E+02 -0.25702570969E+03  0.26071317167E+03  0.47000000000E+01 0.  1.
<mgrwt>
<rscale>  0 0.26520685E+03</rscale>
<asrwt>0</asrwt>
<pdfrwt beam="1">  1        3 0.11965744E+00 0.26520685E+03</pdfrwt>
<pdfrwt beam="2">  1       -3 0.34781080E-02 0.26520685E+03</pdfrwt>
<totfact> 0.61021792E+02</totfact>
</mgrwt>
</event>
<event>
 9    1  0.7957670E-001  0.2651538E+03  0.7818608E-02  0.1104086E+00
         -2   -1    0    0    0  501 -0.00000000000E+00  0.00000000000E+00  0.14554562385E+03  0.14554562385E+03  0.00000000000E+00 0.  1.
          2   -1    0    0  501    0  0.00000000000E+00 -0.00000000000E+00 -0.12076372588E+03  0.12076372588E+03  0.00000000000E+00 0.  1.
         35    2    1    2    0    0  0.00000000000E+00  0.00000000000E+00  0.24781897969E+02  0.26630934974E+03  0.26515378045E+03 0.  0.
         25    2    3    3    0    0  0.72673296304E+01  0.31113092892E+02  0.33202548293E+02  0.13312984419E+03  0.12490119124E+03 0.  0.
         25    2    3    3    0    0 -0.72673296304E+01 -0.31113092892E+02 -0.84206503238E+01  0.13317950554E+03  0.12901563749E+03 0.  0.
          5    1    4    4  502    0  0.20740858681E+02 -0.45822283888E+02  0.16258339097E+02  0.53068714981E+02  0.47000000000E+01 0. -1.
         -5    1    4    4    0  502 -0.13473529050E+02  0.76935376780E+02  0.16944209196E+02  0.80061129211E+02  0.47000000000E+01 0. -1.
          5    1    5    5  503    0  0.31992336955E+02  0.13622761075E+02  0.42215167077E+02  0.54893529441E+02  0.47000000000E+01 0. -1.
         -5    1    5    5    0  503 -0.39259666585E+02 -0.44735853967E+02 -0.50635817401E+02  0.78285976103E+02  0.47000000000E+01 0. -1.
<mgrwt>
<rscale>  0 0.26515378E+03</rscale>
<asrwt>0</asrwt>
<pdfrwt beam="1">  1        2 0.18579035E-01 0.26515378E+03</pdfrwt>
<pdfrwt beam="2">  1       -2 0.22391635E-01 0.26515378E+03</pdfrwt>
<totfact> 0.51785040E+03</totfact>
</mgrwt>
</event>
<event>
 9    1  0.7957670E-001  0.2730922E+03  0.7818608E-02  0.1099523E+00
         -2   -1    0    0    0  501 -0.00000000000E+00  0.00000000000E+00  0.12022095989E+02  0.12022095989E+02  0.00000000000E+00 0. -1.
          2   -1    0    0  501    0  0.00000000000E+00 -0.00000000000E+00 -0.15508806864E+04  0.15508806864E+04  0.00000000000E+00 0. -1.
         35    2    1    2    0    0  0.17763568394E-14  0.00000000000E+00 -0.15388585904E+04  0.15629027823E+04  0.27309219306E+03 0.  0.
         25    2    3    3    0    0  0.56997480013E+01  0.84975086035E+01 -0.45734208385E+03  0.47425586284E+03  0.12510854089E+03 0.  0.
         25    2    3    3    0    0 -0.56997480013E+01 -0.84975086035E+01 -0.10815165065E+04  0.10886469195E+04  0.12397365318E+03 0.  0.
          5    1    4    4  502    0  0.44167457904E+01  0.16221487276E+02 -0.46312031734E+03  0.46344920177E+03  0.47000000000E+01 0. -1.
         -5    1    4    4    0  502  0.12830022108E+01 -0.77239786723E+01  0.57782334915E+01  0.10806661070E+02  0.47000000000E+01 0. -1.
          5    1    5    5  503    0 -0.48490614798E+02  0.20411614207E+02 -0.83838037813E+03  0.84004269067E+03  0.47000000000E+01 0.  1.
         -5    1    5    5    0  503  0.42790866796E+02 -0.28909122811E+02 -0.24313612839E+03  0.24860422883E+03  0.47000000000E+01 0.  1.
<mgrwt>
<rscale>  0 0.27309219E+03</rscale>
<asrwt>0</asrwt>
<pdfrwt beam="1">  1        2 0.23859699E+00 0.27309219E+03</pdfrwt>
<pdfrwt beam="2">  1       -2 0.18495535E-02 0.27309219E+03</pdfrwt>
<totfact> 0.11114480E+04</totfact>
</mgrwt>
</event>
<event>
 9    1  0.7957670E-001  0.2750408E+03  0.7818608E-02  0.1098429E+00
         -1   -1    0    0    0  501 -0.00000000000E+00  0.00000000000E+00  0.41876078336E+02  0.41876078336E+02  0.00000000000E+00 0. -1.
          1   -1    0    0  501    0  0.00000000000E+00 -0.00000000000E+00 -0.45161498576E+03  0.45161498576E+03  0.00000000000E+00 0. -1.
         35    2    1    2    0    0  0.71054273576E-14  0.71054273576E-14 -0.40973890743E+03  0.49349106410E+03  0.27504082985E+03 0.  0.
         25    2    3    3    0    0  0.48095044479E+00 -0.50249912321E+02 -0.16124810027E+03  0.21010468959E+03  0.12497097961E+03 0.  0.
         25    2    3    3    0    0 -0.48095044479E+00  0.50249912321E+02 -0.24849080715E+03  0.28338637451E+03  0.12662887118E+03 0.  0.
          5    1    4    4  502    0 -0.48529871904E+02  0.16041093209E+02 -0.73103111635E+02  0.89323121694E+02  0.47000000000E+01 0. -1.
         -5    1    4    4    0  502  0.49010822349E+02 -0.66291005530E+02 -0.88144988637E+02  0.12078156790E+03  0.47000000000E+01 0. -1.
          5    1    5    5  503    0 -0.29347837569E+02 -0.28070872066E+02 -0.14330677105E+03  0.14902412575E+03  0.47000000000E+01 0. -1.
         -5    1    5    5    0  503  0.28866887124E+02  0.78320784387E+02 -0.10518403610E+03  0.13436224875E+03  0.47000000000E+01 0. -1.
<mgrwt>
<rscale>  0 0.27504083E+03</rscale>
<asrwt>0</asrwt>
<pdfrwt beam="1">  1        1 0.69479225E-01 0.27504083E+03</pdfrwt>
<pdfrwt beam="2">  1       -1 0.64424739E-02 0.27504083E+03</pdfrwt>
<totfact> 0.61674533E+03</totfact>
</mgrwt>
</event>
<event>
 9    1  0.7957670E-001  0.2778913E+03  0.7818608E-02  0.1096846E+00
         -2   -1    0    0    0  501 -0.00000000000E+00  0.00000000000E+00  0.11844502145E+03  0.11844502145E+03  0.00000000000E+00 0.  1.
          2   -1    0    0  501    0  0.00000000000E+00 -0.00000000000E+00 -0.16299452645E+03  0.16299452645E+03  0.00000000000E+00 0.  1.
         35    2    1    2    0    0 -0.35527136788E-14  0.00000000000E+00 -0.44549504993E+02  0.28143954790E+03  0.27789127501E+03 0.  0.
         25    2    3    3    0    0  0.57746430982E+01  0.54660630242E+02 -0.47689377277E+02  0.14452358267E+03  0.12486656174E+03 0.  0.
         25    2    3    3    0    0 -0.57746430982E+01 -0.54660630242E+02  0.31398722844E+01  0.13691596523E+03  0.12535945013E+03 0.  0.
          5    1    4    4  502    0 -0.16606661557E+02 -0.23575819704E+02 -0.55416931617E+02  0.62647639961E+02  0.47000000000E+01 0.  1.
         -5    1    4    4    0  502  0.22381304656E+02  0.78236449946E+02  0.77275543397E+01  0.81875942708E+02  0.47000000000E+01 0.  1.
          5    1    5    5  503    0 -0.30220012257E+02  0.18504853463E+02 -0.35614322430E+02  0.50459376776E+02  0.47000000000E+01 0. -1.
         -5    1    5    5    0  503  0.24445369159E+02 -0.73165483706E+02  0.38754194714E+02  0.86456588454E+02  0.47000000000E+01 0. -1.
<mgrwt>
<rscale>  0 0.27789128E+03</rscale>
<asrwt>0</asrwt>
<pdfrwt beam="1">  1        2 0.25076081E-01 0.27789128E+03</pdfrwt>
<pdfrwt beam="2">  1       -2 0.18222311E-01 0.27789128E+03</pdfrwt>
<totfact> 0.52521827E+03</totfact>
</mgrwt>
</event>
<event>
 9    1  0.7957670E-001  0.2744902E+03  0.7818608E-02  0.1098737E+00
          1   -1    0    0  501    0  0.00000000000E+00  0.00000000000E+00  0.17685042407E+04  0.17685042407E+04  0.00000000000E+00 0. -1.
         -1   -1    0    0    0  501 -0.00000000000E+00 -0.00000000000E+00 -0.10650928768E+02  0.10650928768E+02  0.00000000000E+00 0. -1.
         35    2    1    2    0    0  0.00000000000E+00 -0.17763568394E-14  0.17578533119E+04  0.17791551695E+04  0.27449016517E+03 0.  0.
         25    2    3    3    0    0 -0.39359366218E+01  0.10191394943E+02  0.11547192260E+04  0.11631639296E+04  0.13947931751E+03 0.  0.
         25    2    3    3    0    0  0.39359366218E+01 -0.10191394943E+02  0.60313408591E+03  0.61599123988E+03  0.12472019042E+03 0.  0.
          5    1    4    4  502    0  0.64950729746E+02 -0.28156877116E+01  0.70270587473E+03  0.70572243961E+03  0.47000000000E+01 0.  1.
         -5    1    4    4    0  502 -0.68886666367E+02  0.13007082655E+02  0.45201335130E+03  0.45744148998E+03  0.47000000000E+01 0.  1.
          5    1    5    5  503    0 -0.52882558898E+02 -0.15866005249E+02  0.43158165671E+03  0.43512424843E+03  0.47000000000E+01 0. -1.
         -5    1    5    5    0  503  0.56818495520E+02  0.56746103055E+01  0.17155242920E+03  0.18086699146E+03  0.47000000000E+01 0. -1.
<mgrwt>
<rscale>  0 0.27449017E+03</rscale>
<asrwt>0</asrwt>
<pdfrwt beam="1">  1        1 0.27207734E+00 0.27449017E+03</pdfrwt>
<pdfrwt beam="2">  1       -1 0.16386058E-02 0.27449017E+03</pdfrwt>
<totfact> 0.43768012E+03</totfact>
</mgrwt>
</event>
<event>
 9    1  0.7957670E-001  0.2737744E+03  0.7818608E-02  0.1099139E+00
         -2   -1    0    0    0  501 -0.00000000000E+00  0.00000000000E+00  0.17490506965E+02  0.17490506965E+02  0.00000000000E+00 0. -1.
          2   -1    0    0  501    0  0.00000000000E+00 -0.00000000000E+00 -0.10713298151E+04  0.10713298151E+04  0.00000000000E+00 0. -1.
         35    2    1    2    0    0  0.71054273576E-14 -0.17763568394E-14 -0.10538393081E+04  0.10888203220E+04  0.27377437128E+03 0.  0.
         25    2    3    3    0    0  0.35860084095E+02 -0.22409106859E+01 -0.71437692646E+03  0.72552380712E+03  0.12148841231E+03 0.  0.
         25    2    3    3    0    0 -0.35860084095E+02  0.22409106859E+01 -0.33946238165E+03  0.36329651492E+03  0.12433294771E+03 0.  0.
          5    1    4    4  502    0  0.16780132914E+02 -0.17084804677E+02 -0.22452433201E+02  0.33161199738E+02  0.47000000000E+01 0.  1.
         -5    1    4    4    0  502  0.19079951180E+02  0.14843893991E+02 -0.69192449326E+03  0.69236260738E+03  0.47000000000E+01 0.  1.
          5    1    5    5  503    0  0.87169064730E+01  0.19475616535E+02 -0.30093935813E+03  0.30173145571E+03  0.47000000000E+01 0. -1.
         -5    1    5    5    0  503 -0.44576990568E+02 -0.17234705849E+02 -0.38523023523E+02  0.61565059207E+02  0.47000000000E+01 0. -1.
<mgrwt>
<rscale>  0 0.27377437E+03</rscale>
<asrwt>0</asrwt>
<pdfrwt beam="1">  1        2 0.16481997E+00 0.27377437E+03</pdfrwt>
<pdfrwt beam="2">  1       -2 0.26908472E-02 0.27377437E+03</pdfrwt>
<totfact> 0.11810158E+04</totfact>
</mgrwt>
</event>
<event>
 9    1  0.7957670E-001  0.2754177E+03  0.7818608E-02  0.1098218E+00
          2   -1    0    0  501    0  0.00000000000E+00  0.00000000000E+00  0.33246639376E+04  0.33246639376E+04  0.00000000000E+00 0.  1.
         -2   -1    0    0    0  501 -0.00000000000E+00 -0.00000000000E+00 -0.57039525484E+01  0.57039525484E+01  0.00000000000E+00 0.  1.
         35    2    1    2    0    0 -0.71054273576E-14  0.00000000000E+00  0.33189599851E+04  0.33303678902E+04  0.27541768527E+03 0.  0.
         25    2    3    3    0    0 -0.40556895102E+02  0.37711062727E+02  0.14231445814E+04  0.14297066171E+04  0.12511404931E+03 0.  0.
         25    2    3    3    0    0  0.40556895102E+02 -0.37711062727E+02  0.18958154036E+04  0.19006612731E+04  0.12381536361E+03 0.  0.
          5    1    4    4  502    0 -0.81697687462E+02  0.46966167829E+02  0.99755417105E+03  0.10020063609E+04  0.47000000000E+01 0.  1.
         -5    1    4    4    0  502  0.41140792360E+02 -0.92551051019E+01  0.42559041036E+03  0.42770025621E+03  0.47000000000E+01 0.  1.
          5    1    5    5  503    0 -0.97756783863E+01 -0.29184926263E+02  0.16089390129E+04  0.16092402434E+04  0.47000000000E+01 0.  1.
         -5    1    5    5    0  503  0.50332573488E+02 -0.85261364639E+01  0.28687639076E+03  0.29142102966E+03  0.47000000000E+01 0.  1.
<mgrwt>
<rscale>  0 0.27541769E+03</rscale>
<asrwt>0</asrwt>
<pdfrwt beam="1">  1        2 0.51148521E+00 0.27541769E+03</pdfrwt>
<pdfrwt beam="2">  1       -2 0.87753382E-03 0.27541769E+03</pdfrwt>
<totfact> 0.33960199E+03</totfact>
</mgrwt>
</event>
<event>
 9    1  0.7957670E-001  0.2765406E+03  0.7818608E-02  0.1097594E+00
          2   -1    0    0  501    0  0.00000000000E+00  0.00000000000E+00  0.33469798153E+04  0.33469798153E+04  0.00000000000E+00 0.  1.
         -2   -1    0    0    0  501 -0.00000000000E+00 -0.00000000000E+00 -0.57122174632E+01  0.57122174632E+01  0.00000000000E+00 0.  1.
         35    2    1    2    0    0  0.00000000000E+00 -0.71054273576E-14  0.33412675978E+04  0.33526920327E+04  0.27654060497E+03 0.  0.
         25    2    3    3    0    0 -0.73685531665E+01  0.32318013418E+02  0.21716537628E+04  0.21758817990E+04  0.13146401858E+03 0.  0.
         25    2    3    3    0    0  0.73685531665E+01 -0.32318013418E+02  0.11696138350E+04  0.11768102337E+04  0.12564654235E+03 0.  0.
          5    1    4    4  502    0  0.33021660169E+02  0.71617130730E+02  0.12448722059E+04  0.12473765840E+04  0.47000000000E+01 0. -1.
         -5    1    4    4    0  502 -0.40390213335E+02 -0.39299117312E+02  0.92678155699E+03  0.92850521502E+03  0.47000000000E+01 0. -1.
          5    1    5    5  503    0 -0.16578003628E+02 -0.61495857126E+02  0.10337855443E+04  0.10357563479E+04  0.47000000000E+01 0. -1.
         -5    1    5    5    0  503  0.23946556795E+02  0.29177843708E+02  0.13582829063E+03  0.14105388574E+03  0.47000000000E+01 0. -1.
<mgrwt>
<rscale>  0 0.27654060E+03</rscale>
<asrwt>0</asrwt>
<pdfrwt beam="1">  1        2 0.51491841E+00 0.27654060E+03</pdfrwt>
<pdfrwt beam="2">  1       -2 0.87880536E-03 0.27654060E+03</pdfrwt>
<totfact> 0.32793978E+03</totfact>
</mgrwt>
</event>
<event>
 9    1  0.7957670E-001  0.2736936E+03  0.7818608E-02  0.1099184E+00
          1   -1    0    0  501    0  0.00000000000E+00  0.00000000000E+00  0.98432797757E+03  0.98432797757E+03  0.00000000000E+00 0. -1.
         -1   -1    0    0    0  501 -0.00000000000E+00 -0.00000000000E+00 -0.19025214505E+02  0.19025214505E+02  0.00000000000E+00 0. -1.
         35    2    1    2    0    0  0.35527136788E-14  0.00000000000E+00  0.96530276307E+03  0.10033531921E+04  0.27369363103E+03 0.  0.
         25    2    3    3    0    0  0.18718178089E+02 -0.39510178098E+02  0.60229186074E+03  0.61698080595E+03  0.12648480162E+03 0.  0.
         25    2    3    3    0    0 -0.18718178089E+02  0.39510178098E+02  0.36301090233E+03  0.38637238613E+03  0.12488106816E+03 0.  0.
          5    1    4    4  502    0 -0.40896540673E+01  0.39346337573E+02  0.33413475663E+03  0.33650109233E+03  0.47000000000E+01 0.  1.
         -5    1    4    4    0  502  0.22807832157E+02 -0.78856515671E+02  0.26815710410E+03  0.28047971362E+03  0.47000000000E+01 0.  1.
          5    1    5    5  503    0 -0.38245733963E+02 -0.34586119123E+02  0.10326962801E+03  0.11552333908E+03  0.47000000000E+01 0. -1.
         -5    1    5    5    0  503  0.19527555874E+02  0.74096297221E+02  0.25974127433E+03  0.27084904705E+03  0.47000000000E+01 0. -1.
<mgrwt>
<rscale>  0 0.27369363E+03</rscale>
<asrwt>0</asrwt>
<pdfrwt beam="1">  1        1 0.15143503E+00 0.27369363E+03</pdfrwt>
<pdfrwt beam="2">  1       -1 0.29269568E-02 0.27369363E+03</pdfrwt>
<totfact> 0.64230634E+03</totfact>
</mgrwt>
</event>
<event>
 9    1  0.7957670E-001  0.2755745E+03  0.7818608E-02  0.1098131E+00
         -2   -1    0    0    0  501 -0.00000000000E+00  0.00000000000E+00  0.29710404260E+03  0.29710404260E+03  0.00000000000E+00 0.  1.
          2   -1    0    0  501    0  0.00000000000E+00 -0.00000000000E+00 -0.63901283970E+02  0.63901283970E+02  0.00000000000E+00 0.  1.
         35    2    1    2    0    0 -0.71054273576E-14  0.00000000000E+00  0.23320275863E+03  0.36100532657E+03  0.27557452564E+03 0.  0.
         25    2    3    3    0    0  0.41851189678E+02  0.40255576353E+02  0.13103002186E+03  0.18945848274E+03  0.12390971127E+03 0.  0.
         25    2    3    3    0    0 -0.41851189678E+02 -0.40255576353E+02  0.10217273677E+03  0.17154684383E+03  0.12496806786E+03 0.  0.
          5    1    4    4  502    0  0.56870927398E+02  0.18502979859E+02  0.14661574629E+03  0.15841379267E+03  0.47000000000E+01 0.  1.
         -5    1    4    4    0  502 -0.15019737720E+02  0.21752596493E+02 -0.15585724432E+02  0.31044690068E+02  0.47000000000E+01 0.  1.
          5    1    5    5  503    0  0.76917065270E+01  0.12625352390E+02 -0.22463775433E+02  0.27299690090E+02  0.47000000000E+01 0.  1.
         -5    1    5    5    0  503 -0.49542896205E+02 -0.52880928743E+02  0.12463651220E+03  0.14424715374E+03  0.47000000000E+01 0.  1.
<mgrwt>
<rscale>  0 0.27557453E+03</rscale>
<asrwt>0</asrwt>
<pdfrwt beam="1">  1        2 0.98309669E-02 0.27557453E+03</pdfrwt>
<pdfrwt beam="2">  1       -2 0.45708314E-01 0.27557453E+03</pdfrwt>
<totfact> 0.29954084E+03</totfact>
</mgrwt>
</event>
<event>
 9    1  0.7957670E-001  0.2729039E+03  0.7818608E-02  0.1099629E+00
         -4   -1    0    0    0  501 -0.00000000000E+00  0.00000000000E+00  0.34003676893E+03  0.34003676893E+03  0.00000000000E+00 0.  1.
          4   -1    0    0  501    0  0.00000000000E+00 -0.00000000000E+00 -0.54756257859E+02  0.54756257859E+02  0.00000000000E+00 0.  1.
         35    2    1    2    0    0 -0.35527136788E-14  0.35527136788E-14  0.28528051107E+03  0.39479302679E+03  0.27290394648E+03 0.  0.
         25    2    3    3    0    0  0.17503722322E+02  0.16316601777E+02  0.19729629445E+03  0.24016060975E+03  0.13482833116E+03 0.  0.
         25    2    3    3    0    0 -0.17503722322E+02 -0.16316601777E+02  0.87984216625E+02  0.15463241704E+03  0.12488935197E+03 0.  0.
          5    1    4    4  502    0  0.24381508024E+02 -0.55899418444E+02  0.65317149776E+02  0.89485322656E+02  0.47000000000E+01 0. -1.
         -5    1    4    4    0  502 -0.68777857026E+01  0.72216020220E+02  0.13197914467E+03  0.15067528709E+03  0.47000000000E+01 0. -1.
          5    1    5    5  503    0 -0.31567183996E+01 -0.14161882181E+02  0.11905122899E+03  0.12002420132E+03  0.47000000000E+01 0. -1.
         -5    1    5    5    0  503 -0.14347003922E+02 -0.21547195956E+01 -0.31067012367E+02  0.34608215722E+02  0.47000000000E+01 0. -1.
<mgrwt>
<rscale>  0 0.27290395E+03</rscale>
<asrwt>0</asrwt>
<pdfrwt beam="1">  1        4 0.84240398E-02 0.27290395E+03</pdfrwt>
<pdfrwt beam="2">  1       -4 0.52313348E-01 0.27290395E+03</pdfrwt>
<totfact> 0.67026435E+02</totfact>
</mgrwt>
</event>
<event>
 9    1  0.7957670E-001  0.2698640E+03  0.7818608E-02  0.1101357E+00
         -2   -1    0    0    0  501 -0.00000000000E+00  0.00000000000E+00  0.36253478552E+02  0.36253478552E+02  0.00000000000E+00 0.  1.
          2   -1    0    0  501    0  0.00000000000E+00 -0.00000000000E+00 -0.50220408297E+03  0.50220408297E+03  0.00000000000E+00 0.  1.
         35    2    1    2    0    0  0.00000000000E+00  0.00000000000E+00 -0.46595060441E+03  0.53845756152E+03  0.26986400242E+03 0.  0.
         25    2    3    3    0    0 -0.39343359526E+02 -0.25391373499E+02 -0.28485152665E+03  0.31314594823E+03  0.12135637960E+03 0.  0.
         25    2    3    3    0    0  0.39343359526E+02  0.25391373499E+02 -0.18109907776E+03  0.22531161329E+03  0.12560185241E+03 0.  0.
          5    1    4    4  502    0 -0.41936707544E+02  0.42246834106E+02 -0.16425841546E+03  0.17477528281E+03  0.47000000000E+01 0. -1.
         -5    1    4    4    0  502  0.25933480184E+01 -0.67638207606E+02 -0.12059311119E+03  0.13837066542E+03  0.47000000000E+01 0. -1.
          5    1    5    5  503    0  0.71577096239E+02  0.42976994806E+02 -0.72833855446E+02  0.11089257544E+03  0.47000000000E+01 0.  1.
         -5    1    5    5    0  503 -0.32233736713E+02 -0.17585621306E+02 -0.10826522232E+03  0.11441903785E+03  0.47000000000E+01 0.  1.
<mgrwt>
<rscale>  0 0.26986400E+03</rscale>
<asrwt>0</asrwt>
<pdfrwt beam="1">  1        2 0.77262161E-01 0.26986400E+03</pdfrwt>
<pdfrwt beam="2">  1       -2 0.55774586E-02 0.26986400E+03</pdfrwt>
<totfact> 0.10189003E+04</totfact>
</mgrwt>
</event>
<event>
 9    1  0.7957670E-001  0.2731738E+03  0.7818608E-02  0.1099477E+00
         -4   -1    0    0    0  501 -0.00000000000E+00  0.00000000000E+00  0.27334582448E+03  0.27334582448E+03  0.00000000000E+00 0.  1.
          4   -1    0    0  501    0  0.00000000000E+00 -0.00000000000E+00 -0.68250489341E+02  0.68250489341E+02  0.00000000000E+00 0.  1.
         35    2    1    2    0    0 -0.71054273576E-14 -0.71054273576E-14  0.20509533514E+03  0.34159631382E+03  0.27317383682E+03 0.  0.
         25    2    3    3    0    0 -0.42531674283E+02  0.46696904229E+02  0.11128493434E+03  0.17308108772E+03  0.11654690959E+03 0.  0.
         25    2    3    3    0    0  0.42531674283E+02 -0.46696904229E+02  0.93810400796E+02  0.16851522610E+03  0.12492976406E+03 0.  0.
          5    1    4    4  502    0 -0.16765727797E+02 -0.33328884348E+02  0.69637966291E+02  0.79141901099E+02  0.47000000000E+01 0. -1.
         -5    1    4    4    0  502 -0.25765946487E+02  0.80025788578E+02  0.41646968054E+02  0.93939186626E+02  0.47000000000E+01 0. -1.
          5    1    5    5  503    0 -0.32705490163E+02 -0.15351048659E+02 -0.87090005155E+01  0.37459851464E+02  0.47000000000E+01 0.  1.
         -5    1    5    5    0  503  0.75237164446E+02 -0.31345855570E+02  0.10251940131E+03  0.13105537463E+03  0.47000000000E+01 0.  1.
<mgrwt>
<rscale>  0 0.27317384E+03</rscale>
<asrwt>0</asrwt>
<pdfrwt beam="1">  1        4 0.10500075E-01 0.27317384E+03</pdfrwt>
<pdfrwt beam="2">  1       -4 0.42053203E-01 0.27317384E+03</pdfrwt>
<totfact> 0.72032900E+02</totfact>
</mgrwt>
</event>
<event>
 9    1  0.7957670E-001  0.2720515E+03  0.7818608E-02  0.1100111E+00
          1   -1    0    0  501    0  0.00000000000E+00  0.00000000000E+00  0.26367461322E+03  0.26367461322E+03  0.00000000000E+00 0. -1.
         -1   -1    0    0    0  501 -0.00000000000E+00 -0.00000000000E+00 -0.70173652416E+02  0.70173652416E+02  0.00000000000E+00 0. -1.
         35    2    1    2    0    0 -0.71054273576E-14 -0.35527136788E-14  0.19350096081E+03  0.33384826564E+03  0.27205154408E+03 0.  0.
         25    2    3    3    0    0  0.50698600163E+02  0.16335153747E+02  0.85162694558E+02  0.15991903716E+03  0.12443564038E+03 0.  0.
         25    2    3    3    0    0 -0.50698600163E+02 -0.16335153747E+02  0.10833826625E+03  0.17392922848E+03  0.12520787227E+03 0.  0.
          5    1    4    4  502    0 -0.24717209884E+02  0.42467080917E+02  0.10374050555E+02  0.50439115287E+02  0.47000000000E+01 0.  1.
         -5    1    4    4    0  502  0.75415810046E+02 -0.26131927170E+02  0.74788644002E+02  0.10947992188E+03  0.47000000000E+01 0.  1.
          5    1    5    5  503    0 -0.46262794257E+02 -0.67296330143E+02  0.83426718188E+02  0.11683813372E+03  0.47000000000E+01 0. -1.
         -5    1    5    5    0  503 -0.44358059063E+01  0.50961176396E+02  0.24911548062E+02  0.57091094757E+02  0.47000000000E+01 0. -1.
<mgrwt>
<rscale>  0 0.27205154E+03</rscale>
<asrwt>0</asrwt>
<pdfrwt beam="1">  1        1 0.40565325E-01 0.27205154E+03</pdfrwt>
<pdfrwt beam="2">  1       -1 0.10795947E-01 0.27205154E+03</pdfrwt>
<totfact> 0.55411172E+03</totfact>
</mgrwt>
</event>
<event>
 9    1  0.7957670E-001  0.2771899E+03  0.7818608E-02  0.1097234E+00
         -2   -1    0    0    0  501 -0.00000000000E+00  0.00000000000E+00  0.14050680077E+02  0.14050680077E+02  0.00000000000E+00 0.  1.
          2   -1    0    0  501    0  0.00000000000E+00 -0.00000000000E+00 -0.13670909413E+04  0.13670909413E+04  0.00000000000E+00 0.  1.
         35    2    1    2    0    0  0.35527136788E-14  0.00000000000E+00 -0.13530402612E+04  0.13811416214E+04  0.27718988042E+03 0.  0.
         25    2    3    3    0    0 -0.18655371646E+02  0.26247993205E+02 -0.93745939638E+03  0.94614291706E+03  0.12377123901E+03 0.  0.
         25    2    3    3    0    0  0.18655371646E+02 -0.26247993205E+02 -0.41558086483E+03  0.43499870430E+03  0.12441638756E+03 0.  0.
          5    1    4    4  502    0 -0.69122557199E+02 -0.39337367491E+00 -0.58052354305E+03  0.58464327302E+03  0.47000000000E+01 0.  1.
         -5    1    4    4    0  502  0.50467185553E+02  0.26641366880E+02 -0.35693585334E+03  0.36149964404E+03  0.47000000000E+01 0.  1.
          5    1    5    5  503    0  0.37582974308E+02  0.35584845749E+02 -0.27914027827E+03  0.28393687002E+03  0.47000000000E+01 0. -1.
         -5    1    5    5    0  503 -0.18927602662E+02 -0.61832838954E+02 -0.13644058656E+03  0.15106183428E+03  0.47000000000E+01 0. -1.
<mgrwt>
<rscale>  0 0.27718988E+03</rscale>
<asrwt>0</asrwt>
<pdfrwt beam="1">  1        2 0.21032169E+00 0.27718988E+03</pdfrwt>
<pdfrwt beam="2">  1       -2 0.21616430E-02 0.27718988E+03</pdfrwt>
<totfact> 0.11101258E+04</totfact>
</mgrwt>
</event>
<event>
 9    1  0.7957670E-001  0.2747355E+03  0.7818608E-02  0.1098600E+00
          2   -1    0    0  501    0  0.00000000000E+00  0.00000000000E+00  0.34156714972E+03  0.34156714972E+03  0.00000000000E+00 0. -1.
         -2   -1    0    0    0  501 -0.00000000000E+00 -0.00000000000E+00 -0.55245057432E+02  0.55245057432E+02  0.00000000000E+00 0. -1.
         35    2    1    2    0    0  0.35527136788E-14 -0.71054273576E-14  0.28632209229E+03  0.39681220716E+03  0.27473548590E+03 0.  0.
         25    2    3    3    0    0 -0.49583675641E+01  0.56991563628E+02  0.12948917230E+03  0.18835934568E+03  0.12425447126E+03 0.  0.
         25    2    3    3    0    0  0.49583675641E+01 -0.56991563628E+02  0.15683291999E+03  0.20845286147E+03  0.12483351685E+03 0.  0.
          5    1    4    4  502    0 -0.48056326508E+02  0.72069388183E+02  0.10544149343E+03  0.13654085750E+03  0.47000000000E+01 0. -1.
         -5    1    4    4    0  502  0.43097958944E+02 -0.15077824554E+02  0.24047678875E+02  0.51818488184E+02  0.47000000000E+01 0. -1.
          5    1    5    5  503    0 -0.29972165803E+02  0.29991638165E+02  0.59805192085E+02  0.73461419011E+02  0.47000000000E+01 0. -1.
         -5    1    5    5    0  503  0.34930533368E+02 -0.86983201793E+02  0.97027727905E+02  0.13499144246E+03  0.47000000000E+01 0. -1.
<mgrwt>
<rscale>  0 0.27473549E+03</rscale>
<asrwt>0</asrwt>
<pdfrwt beam="1">  1        2 0.52548791E-01 0.27473549E+03</pdfrwt>
<pdfrwt beam="2">  1       -2 0.84992398E-02 0.27473549E+03</pdfrwt>
<totfact> 0.80983738E+03</totfact>
</mgrwt>
</event>
<event>
 9    1  0.7957670E-001  0.2619362E+03  0.7818608E-02  0.1105985E+00
          2   -1    0    0  501    0  0.00000000000E+00  0.00000000000E+00  0.15457557021E+04  0.15457557021E+04  0.00000000000E+00 0.  1.
         -2   -1    0    0    0  501 -0.00000000000E+00 -0.00000000000E+00 -0.11096604297E+02  0.11096604297E+02  0.00000000000E+00 0.  1.
         35    2    1    2    0    0  0.71054273576E-14 -0.17763568394E-14  0.15346590978E+04  0.15568523064E+04  0.26193617060E+03 0.  0.
         25    2    3    3    0    0 -0.37931271944E+02 -0.29306484890E+01  0.77384458567E+03  0.78482440728E+03  0.12516603932E+03 0.  0.
         25    2    3    3    0    0  0.37931271944E+02  0.29306484890E+01  0.76081451218E+03  0.77202789916E+03  0.12546308243E+03 0.  0.
          5    1    4    4  502    0 -0.11184329522E+02 -0.19754500872E+02  0.73106856150E+03  0.73143602669E+03  0.47000000000E+01 0. -1.
         -5    1    4    4    0  502 -0.26746942421E+02  0.16823852383E+02  0.42776024173E+02  0.53388380590E+02  0.47000000000E+01 0. -1.
          5    1    5    5  503    0 -0.44911409748E+02  0.11147150607E+02  0.32463729309E+03  0.32795236813E+03  0.47000000000E+01 0.  1.
         -5    1    5    5    0  503  0.82842681692E+02 -0.82165021181E+01  0.43617721908E+03  0.44407553103E+03  0.47000000000E+01 0.  1.
<mgrwt>
<rscale>  0 0.26193617E+03</rscale>
<asrwt>0</asrwt>
<pdfrwt beam="1">  1        2 0.23780840E+00 0.26193617E+03</pdfrwt>
<pdfrwt beam="2">  1       -2 0.17071711E-02 0.26193617E+03</pdfrwt>
<totfact> 0.12566782E+04</totfact>
</mgrwt>
</event>
<event>
 9    1  0.7957670E-001  0.2641793E+03  0.7818608E-02  0.1104658E+00
          2   -1    0    0  501    0  0.00000000000E+00  0.00000000000E+00  0.62946198158E+02  0.62946198158E+02  0.00000000000E+00 0.  1.
         -2   -1    0    0    0  501 -0.00000000000E+00 -0.00000000000E+00 -0.27718403143E+03  0.27718403143E+03  0.00000000000E+00 0.  1.
         35    2    1    2    0    0  0.00000000000E+00 -0.17763568394E-14 -0.21423783327E+03  0.34013022959E+03  0.26417934036E+03 0.  0.
         25    2    3    3    0    0  0.13492163706E+02  0.53735655893E+01 -0.16295968689E+03  0.20578905866E+03  0.12482933719E+03 0.  0.
         25    2    3    3    0    0 -0.13492163706E+02 -0.53735655893E+01 -0.51278146382E+02  0.13434117093E+03  0.12331742870E+03 0.  0.
          5    1    4    4  502    0 -0.27379993530E+02  0.71694985875E+01  0.81242032799E+01  0.29818759777E+02  0.47000000000E+01 0. -1.
         -5    1    4    4    0  502  0.40872157236E+02 -0.17959329981E+01 -0.17108389017E+03  0.17597029888E+03  0.47000000000E+01 0. -1.
          5    1    5    5  503    0  0.42983523071E+02 -0.38926751998E+02 -0.27124380148E+02  0.64192657486E+02  0.47000000000E+01 0. -1.
         -5    1    5    5    0  503 -0.56475686777E+02  0.33553186409E+02 -0.24153766233E+02  0.70148513444E+02  0.47000000000E+01 0. -1.
<mgrwt>
<rscale>  0 0.26417934E+03</rscale>
<asrwt>0</asrwt>
<pdfrwt beam="1">  1        2 0.96840304E-02 0.26417934E+03</pdfrwt>
<pdfrwt beam="2">  1       -2 0.42643697E-01 0.26417934E+03</pdfrwt>
<totfact> 0.34887080E+03</totfact>
</mgrwt>
</event>
<event>
 9    1  0.7957670E-001  0.2755509E+03  0.7818608E-02  0.1098144E+00
          3   -1    0    0  501    0  0.00000000000E+00  0.00000000000E+00  0.48301570973E+03  0.48301570973E+03  0.00000000000E+00 0. -1.
         -3   -1    0    0    0  501 -0.00000000000E+00 -0.00000000000E+00 -0.39299072035E+02  0.39299072035E+02  0.00000000000E+00 0. -1.
         35    2    1    2    0    0  0.71054273576E-14  0.00000000000E+00  0.44371663770E+03  0.52231478177E+03  0.27555086043E+03 0.  0.
         25    2    3    3    0    0 -0.48518382699E+02  0.25712246305E+02  0.18079590392E+03  0.22654543331E+03  0.12498208435E+03 0.  0.
         25    2    3    3    0    0  0.48518382699E+02 -0.25712246305E+02  0.26292073378E+03  0.29576934846E+03  0.12384281235E+03 0.  0.
          5    1    4    4  502    0  0.41176600041E+02  0.19631142535E+02  0.71576887729E+02  0.85007264426E+02  0.47000000000E+01 0.  1.
         -5    1    4    4    0  502 -0.89694982741E+02  0.60811037699E+01  0.10921901619E+03  0.14153816888E+03  0.47000000000E+01 0.  1.
          5    1    5    5  503    0  0.28573810338E+02 -0.74898218507E+02  0.13322031639E+03  0.15555046921E+03  0.47000000000E+01 0.  1.
         -5    1    5    5    0  503  0.19944572361E+02  0.49185972202E+02  0.12970041739E+03  0.14021887925E+03  0.47000000000E+01 0.  1.
<mgrwt>
<rscale>  0 0.27555086E+03</rscale>
<asrwt>0</asrwt>
<pdfrwt beam="1">  1        3 0.74310105E-01 0.27555086E+03</pdfrwt>
<pdfrwt beam="2">  1       -3 0.60460114E-02 0.27555086E+03</pdfrwt>
<totfact> 0.74863255E+02</totfact>
</mgrwt>
</event>
<event>
 9    1  0.7957670E-001  0.2770445E+03  0.7818608E-02  0.1097314E+00
          2   -1    0    0  501    0  0.00000000000E+00  0.00000000000E+00  0.20321369507E+04  0.20321369507E+04  0.00000000000E+00 0.  1.
         -2   -1    0    0    0  501 -0.00000000000E+00 -0.00000000000E+00 -0.94424806442E+01  0.94424806442E+01  0.00000000000E+00 0.  1.
         35    2    1    2    0    0 -0.14210854715E-13 -0.35527136788E-14  0.20226944701E+04  0.20415794314E+04  0.27704450057E+03 0.  0.
         25    2    3    3    0    0  0.57804368807E+02 -0.70539499446E+01  0.11281688025E+04  0.11365911202E+04  0.12523347922E+03 0.  0.
         25    2    3    3    0    0 -0.57804368807E+02  0.70539499446E+01  0.89452566761E+03  0.90498831120E+03  0.12424399435E+03 0.  0.
          5    1    4    4  502    0  0.63765709063E+02  0.15793970630E+02  0.10862917293E+04  0.10882864174E+04  0.47000000000E+01 0. -1.
         -5    1    4    4    0  502 -0.59613402562E+01 -0.22847920574E+02  0.41877073191E+02  0.48304702786E+02  0.47000000000E+01 0. -1.
          5    1    5    5  503    0 -0.24234230164E+02 -0.30065380614E+02  0.80445926905E+02  0.89358056037E+02  0.47000000000E+01 0.  1.
         -5    1    5    5    0  503 -0.33570138643E+02  0.37119330558E+02  0.81407974071E+03  0.81563025517E+03  0.47000000000E+01 0.  1.
<mgrwt>
<rscale>  0 0.27704450E+03</rscale>
<asrwt>0</asrwt>
<pdfrwt beam="1">  1        2 0.31263611E+00 0.27704450E+03</pdfrwt>
<pdfrwt beam="2">  1       -2 0.14526909E-02 0.27704450E+03</pdfrwt>
<totfact> 0.88358380E+03</totfact>
</mgrwt>
</event>
<event>
 9    1  0.7957670E-001  0.2826406E+03  0.7818608E-02  0.1094255E+00
         -2   -1    0    0    0  501 -0.00000000000E+00  0.00000000000E+00  0.33761780927E+02  0.33761780927E+02  0.00000000000E+00 0. -1.
          2   -1    0    0  501    0  0.00000000000E+00 -0.00000000000E+00 -0.59153958039E+03  0.59153958039E+03  0.00000000000E+00 0. -1.
         35    2    1    2    0    0 -0.14210854715E-13  0.10658141036E-13 -0.55777779946E+03  0.62530136132E+03  0.28264061791E+03 0.  0.
         25    2    3    3    0    0  0.61335445890E+02 -0.23285275831E+02 -0.28700550454E+03  0.31989726875E+03  0.12513137865E+03 0.  0.
         25    2    3    3    0    0 -0.61335445890E+02  0.23285275831E+02 -0.27077229492E+03  0.30540409257E+03  0.12509909299E+03 0.  0.
          5    1    4    4  502    0  0.21753180203E+02  0.37147541762E+02 -0.20914329676E+03  0.21357937468E+03  0.47000000000E+01 0.  1.
         -5    1    4    4    0  502  0.39582265686E+02 -0.60432817593E+02 -0.77862207778E+02  0.10631789407E+03  0.47000000000E+01 0.  1.
          5    1    5    5  503    0 -0.89972009548E+02 -0.16832156781E+02 -0.18100823702E+03  0.20289000929E+03  0.47000000000E+01 0. -1.
         -5    1    5    5    0  503  0.28636563659E+02  0.40117432612E+02 -0.89764057907E+02  0.10251408327E+03  0.47000000000E+01 0. -1.
<mgrwt>
<rscale>  0 0.28264062E+03</rscale>
<asrwt>0</asrwt>
<pdfrwt beam="1">  1        2 0.91006090E-01 0.28264062E+03</pdfrwt>
<pdfrwt beam="2">  1       -2 0.51941201E-02 0.28264062E+03</pdfrwt>
<totfact> 0.94445429E+03</totfact>
</mgrwt>
</event>
<event>
 9    1  0.7957670E-001  0.2693567E+03  0.7818608E-02  0.1101648E+00
         -2   -1    0    0    0  501 -0.00000000000E+00  0.00000000000E+00  0.60597439143E+01  0.60597439143E+01  0.00000000000E+00 0.  1.
          2   -1    0    0  501    0  0.00000000000E+00 -0.00000000000E+00 -0.29932376103E+04  0.29932376103E+04  0.00000000000E+00 0.  1.
         35    2    1    2    0    0  0.00000000000E+00  0.35527136788E-14 -0.29871778664E+04  0.29992973543E+04  0.26935666610E+03 0.  0.
         25    2    3    3    0    0 -0.36360591494E+02 -0.29788061838E+02 -0.12655793487E+04  0.12725328002E+04  0.12425465161E+03 0.  0.
         25    2    3    3    0    0  0.36360591494E+02  0.29788061838E+02 -0.17215985177E+04  0.17267645540E+04  0.12491976512E+03 0.  0.
          5    1    4    4  502    0 -0.43811672807E+02 -0.57295992165E+02 -0.11799770989E+04  0.11821887909E+04  0.47000000000E+01 0. -1.
         -5    1    4    4    0  502  0.74510813132E+01  0.27507930326E+02 -0.85602249827E+02  0.90344009315E+02  0.47000000000E+01 0. -1.
          5    1    5    5  503    0  0.48190154689E+02 -0.17127409344E+02 -0.30214772411E+03  0.30648160850E+03  0.47000000000E+01 0.  1.
         -5    1    5    5    0  503 -0.11829563195E+02  0.46915471182E+02 -0.14194507936E+04  0.14202829455E+04  0.47000000000E+01 0.  1.
<mgrwt>
<rscale>  0 0.26935667E+03</rscale>
<asrwt>0</asrwt>
<pdfrwt beam="1">  1        2 0.46049783E+00 0.26935667E+03</pdfrwt>
<pdfrwt beam="2">  1       -2 0.93226882E-03 0.26935667E+03</pdfrwt>
<totfact> 0.49663704E+03</totfact>
</mgrwt>
</event>
<event>
 9    1  0.7957670E-001  0.2757589E+03  0.7818608E-02  0.1098028E+00
          2   -1    0    0  501    0  0.00000000000E+00  0.00000000000E+00  0.57250828405E+03  0.57250828405E+03  0.00000000000E+00 0.  1.
         -2   -1    0    0    0  501 -0.00000000000E+00 -0.00000000000E+00 -0.33206058990E+02  0.33206058990E+02  0.00000000000E+00 0.  1.
         35    2    1    2    0    0  0.00000000000E+00  0.00000000000E+00  0.53930222506E+03  0.60571434304E+03  0.27575890812E+03 0.  0.
         25    2    3    3    0    0  0.51327080506E+02 -0.18661891272E+02  0.21793363208E+03  0.25682529034E+03  0.12442438019E+03 0.  0.
         25    2    3    3    0    0 -0.51327080506E+02  0.18661891272E+02  0.32136859298E+03  0.34888905270E+03  0.12435056560E+03 0.  0.
          5    1    4    4  502    0  0.10720990527E+02 -0.49129779071E+02  0.19406979076E+03  0.20053390864E+03  0.47000000000E+01 0.  1.
         -5    1    4    4    0  502  0.40606089979E+02  0.30467887799E+02  0.23863841322E+02  0.56291381694E+02  0.47000000000E+01 0.  1.
          5    1    5    5  503    0 -0.62644475603E+02  0.43457057918E+02  0.30950844247E+03  0.31879525117E+03  0.47000000000E+01 0. -1.
         -5    1    5    5    0  503  0.11317395097E+02 -0.24795166646E+02  0.11860150506E+02  0.30093801535E+02  0.47000000000E+01 0. -1.
<mgrwt>
<rscale>  0 0.27575891E+03</rscale>
<asrwt>0</asrwt>
<pdfrwt beam="1">  1        2 0.88078190E-01 0.27575891E+03</pdfrwt>
<pdfrwt beam="2">  1       -2 0.51086249E-02 0.27575891E+03</pdfrwt>
<totfact> 0.10049603E+04</totfact>
</mgrwt>
</event>
<event>
 9    1  0.7957670E-001  0.2735046E+03  0.7818608E-02  0.1099290E+00
          2   -1    0    0  501    0  0.00000000000E+00  0.00000000000E+00  0.37364006905E+03  0.37364006905E+03  0.00000000000E+00 0. -1.
         -2   -1    0    0    0  501 -0.00000000000E+00 -0.00000000000E+00 -0.50051341745E+02  0.50051341745E+02  0.00000000000E+00 0. -1.
         35    2    1    2    0    0  0.00000000000E+00  0.00000000000E+00  0.32358872731E+03  0.42369141080E+03  0.27350456512E+03 0.  0.
         25    2    3    3    0    0 -0.16231493658E+02  0.25370566743E+02  0.83945804980E+02  0.15154416571E+03  0.12252187129E+03 0.  0.
         25    2    3    3    0    0  0.16231493658E+02 -0.25370566743E+02  0.23964292233E+03  0.27214724508E+03  0.12541238273E+03 0.  0.
          5    1    4    4  502    0  0.12350713160E+02  0.15977478584E+02 -0.28389392761E+02  0.35154908033E+02  0.47000000000E+01 0.  1.
         -5    1    4    4    0  502 -0.28582206818E+02  0.93930881589E+01  0.11233519774E+03  0.11638925768E+03  0.47000000000E+01 0.  1.
          5    1    5    5  503    0 -0.35553139585E+02  0.30598621296E+02  0.13187591845E+03  0.14004873875E+03  0.47000000000E+01 0.  1.
         -5    1    5    5    0  503  0.51784633243E+02 -0.55969188038E+02  0.10776700388E+03  0.13209850633E+03  0.47000000000E+01 0.  1.
<mgrwt>
<rscale>  0 0.27350457E+03</rscale>
<asrwt>0</asrwt>
<pdfrwt beam="1">  1        2 0.57483086E-01 0.27350457E+03</pdfrwt>
<pdfrwt beam="2">  1       -2 0.77002067E-02 0.27350457E+03</pdfrwt>
<totfact> 0.85752688E+03</totfact>
</mgrwt>
</event>
<event>
 9    1  0.7957670E-001  0.2669263E+03  0.7818608E-02  0.1103052E+00
          2   -1    0    0  501    0  0.00000000000E+00  0.00000000000E+00  0.16130974613E+03  0.16130974613E+03  0.00000000000E+00 0.  1.
         -2   -1    0    0    0  501 -0.00000000000E+00 -0.00000000000E+00 -0.11042365453E+03  0.11042365453E+03  0.00000000000E+00 0.  1.
         35    2    1    2    0    0 -0.71054273576E-14  0.71054273576E-14  0.50886091606E+02  0.27173340066E+03  0.26692629454E+03 0.  0.
         25    2    3    3    0    0  0.72945415715E+01  0.59857849443E+01  0.70618888350E+02  0.14462225492E+03  0.12585519166E+03 0.  0.
         25    2    3    3    0    0 -0.72945415715E+01 -0.59857849443E+01 -0.19732796743E+02  0.12711114574E+03  0.12521509552E+03 0.  0.
          5    1    4    4  502    0  0.23854082302E+02 -0.42116835030E+02 -0.95485721408E+01  0.49559159248E+02  0.47000000000E+01 0. -1.
         -5    1    4    4    0  502 -0.16559540730E+02  0.48102619974E+02  0.80167460491E+02  0.95063095674E+02  0.47000000000E+01 0. -1.
          5    1    5    5  503    0 -0.50654972013E+02 -0.44288519530E+02 -0.84231284735E+01  0.67973805581E+02  0.47000000000E+01 0.  1.
         -5    1    5    5    0  503  0.43360430441E+02  0.38302734586E+02 -0.11309668270E+02  0.59137340160E+02  0.47000000000E+01 0.  1.
<mgrwt>
<rscale>  0 0.26692629E+03</rscale>
<asrwt>0</asrwt>
<pdfrwt beam="1">  1        2 0.24816884E-01 0.26692629E+03</pdfrwt>
<pdfrwt beam="2">  1       -2 0.16988255E-01 0.26692629E+03</pdfrwt>
<totfact> 0.59700430E+03</totfact>
</mgrwt>
</event>
<event>
 9    1  0.7957670E-001  0.2781679E+03  0.7818608E-02  0.1096694E+00
          2   -1    0    0  501    0  0.00000000000E+00  0.00000000000E+00  0.13429537448E+04  0.13429537448E+04  0.00000000000E+00 0.  1.
         -2   -1    0    0    0  501 -0.00000000000E+00 -0.00000000000E+00 -0.14404324042E+02  0.14404324042E+02  0.00000000000E+00 0.  1.
         35    2    1    2    0    0  0.00000000000E+00  0.00000000000E+00  0.13285494208E+04  0.13573580689E+04  0.27816786955E+03 0.  0.
         25    2    3    3    0    0 -0.50514177496E+02 -0.27613618678E+02  0.55992170846E+03  0.57654218983E+03  0.12479736768E+03 0.  0.
         25    2    3    3    0    0  0.50514177496E+02  0.27613618678E+02  0.76862771232E+03  0.78081587903E+03  0.12478254183E+03 0.  0.
          5    1    4    4  502    0  0.16001518314E+01 -0.67226646870E+02  0.35579856487E+03  0.36212800402E+03  0.47000000000E+01 0.  1.
         -5    1    4    4    0  502 -0.52114329327E+02  0.39613028192E+02  0.20412314359E+03  0.21441418580E+03  0.47000000000E+01 0.  1.
          5    1    5    5  503    0  0.43160032577E+02  0.24061964930E+02  0.95564594118E+02  0.10768680614E+03  0.47000000000E+01 0.  1.
         -5    1    5    5    0  503  0.73541449187E+01  0.35516537485E+01  0.67306311820E+03  0.67312907289E+03  0.47000000000E+01 0.  1.
<mgrwt>
<rscale>  0 0.27816787E+03</rscale>
<asrwt>0</asrwt>
<pdfrwt beam="1">  1        2 0.20660817E+00 0.27816787E+03</pdfrwt>
<pdfrwt beam="2">  1       -2 0.22160509E-02 0.27816787E+03</pdfrwt>
<totfact> 0.11033297E+04</totfact>
</mgrwt>
</event>
<event>
 9    1  0.7957670E-001  0.2676159E+03  0.7818608E-02  0.1102652E+00
          2   -1    0    0  501    0  0.00000000000E+00  0.00000000000E+00  0.69747363410E+03  0.69747363410E+03  0.00000000000E+00 0.  1.
         -2   -1    0    0    0  501 -0.00000000000E+00 -0.00000000000E+00 -0.25670610058E+02  0.25670610058E+02  0.00000000000E+00 0.  1.
         35    2    1    2    0    0  0.71054273576E-14  0.00000000000E+00  0.67180302404E+03  0.72314424416E+03  0.26761594636E+03 0.  0.
         25    2    3    3    0    0  0.40855882250E+02  0.18914615707E+02  0.39141031712E+03  0.41308300767E+03  0.12413125747E+03 0.  0.
         25    2    3    3    0    0 -0.40855882250E+02 -0.18914615707E+02  0.28039270692E+03  0.31006123648E+03  0.12446258262E+03 0.  0.
          5    1    4    4  502    0 -0.42220651026E+02  0.21281782547E+02  0.17095543016E+03  0.17743547206E+03  0.47000000000E+01 0. -1.
         -5    1    4    4    0  502  0.83076533276E+02 -0.23671668406E+01  0.22045488695E+03  0.23564753562E+03  0.47000000000E+01 0. -1.
          5    1    5    5  503    0 -0.22054861203E+02 -0.58596739254E+02  0.24656242990E+03  0.25443096626E+03  0.47000000000E+01 0. -1.
         -5    1    5    5    0  503 -0.18801021048E+02  0.39682123548E+02  0.33830277022E+02  0.55630270223E+02  0.47000000000E+01 0. -1.
<mgrwt>
<rscale>  0 0.26761595E+03</rscale>
<asrwt>0</asrwt>
<pdfrwt beam="1">  1        2 0.10730362E+00 0.26761595E+03</pdfrwt>
<pdfrwt beam="2">  1       -2 0.39493252E-02 0.26761595E+03</pdfrwt>
<totfact> 0.11739042E+04</totfact>
</mgrwt>
</event>
<event>
 9    1  0.7957670E-001  0.2734746E+03  0.7818608E-02  0.1099307E+00
          2   -1    0    0  501    0  0.00000000000E+00  0.00000000000E+00  0.27460486913E+03  0.27460486913E+03  0.00000000000E+00 0.  1.
         -2   -1    0    0    0  501 -0.00000000000E+00 -0.00000000000E+00 -0.68087250568E+02  0.68087250568E+02  0.00000000000E+00 0.  1.
         35    2    1    2    0    0  0.00000000000E+00  0.00000000000E+00  0.20651761856E+03  0.34269211970E+03  0.27347460966E+03 0.  0.
         25    2    3    3    0    0 -0.21045318191E+02 -0.42407519993E+02  0.66408825998E+02  0.14916384381E+03  0.12489362257E+03 0.  0.
         25    2    3    3    0    0  0.21045318191E+02  0.42407519993E+02  0.14010879257E+03  0.19352827589E+03  0.12482554485E+03 0.  0.
          5    1    4    4  502    0  0.40478495272E+02  0.20219749249E+02  0.26098561500E+02  0.52445893562E+02  0.47000000000E+01 0.  1.
         -5    1    4    4    0  502 -0.61523813463E+02 -0.62627269242E+02  0.40310264498E+02  0.96717950245E+02  0.47000000000E+01 0.  1.
          5    1    5    5  503    0  0.24121523689E+02  0.62297156173E+02  0.15446910321E+03  0.16836144873E+03  0.47000000000E+01 0. -1.
         -5    1    5    5    0  503 -0.30762054981E+01 -0.19889636179E+02 -0.14360310644E+02  0.25166827162E+02  0.47000000000E+01 0. -1.
<mgrwt>
<rscale>  0 0.27347461E+03</rscale>
<asrwt>0</asrwt>
<pdfrwt beam="1">  1        2 0.42246902E-01 0.27347461E+03</pdfrwt>
<pdfrwt beam="2">  1       -2 0.10474962E-01 0.27347461E+03</pdfrwt>
<totfact> 0.73568182E+03</totfact>
</mgrwt>
</event>
<event>
 9    1  0.7957670E-001  0.2644425E+03  0.7818608E-02  0.1104503E+00
          2   -1    0    0  501    0  0.00000000000E+00  0.00000000000E+00  0.22020604735E+03  0.22020604735E+03  0.00000000000E+00 0.  1.
         -2   -1    0    0    0  501 -0.00000000000E+00 -0.00000000000E+00 -0.79391354303E+02  0.79391354303E+02  0.00000000000E+00 0.  1.
         35    2    1    2    0    0  0.35527136788E-14 -0.35527136788E-14  0.14081469305E+03  0.29959740165E+03  0.26444248013E+03 0.  0.
         25    2    3    3    0    0 -0.10780820447E+02 -0.12594843876E+02  0.11682804094E+03  0.17061063380E+03  0.12322475819E+03 0.  0.
         25    2    3    3    0    0  0.10780820447E+02  0.12594843876E+02  0.23986652106E+02  0.12898676786E+03  0.12564780389E+03 0.  0.
          5    1    4    4  502    0  0.65178207712E+01 -0.18342771242E+02  0.13962052769E+03  0.14104935660E+03  0.47000000000E+01 0. -1.
         -5    1    4    4    0  502 -0.17298641218E+02  0.57479273664E+01 -0.22792486751E+02  0.29561277193E+02  0.47000000000E+01 0. -1.
          5    1    5    5  503    0  0.46297531201E+02  0.65614048381E+01 -0.35764864045E+02  0.59056997290E+02  0.47000000000E+01 0.  1.
         -5    1    5    5    0  503 -0.35516710754E+02  0.60334390375E+01  0.59751516151E+02  0.69929770568E+02  0.47000000000E+01 0.  1.
<mgrwt>
<rscale>  0 0.26444248E+03</rscale>
<asrwt>0</asrwt>
<pdfrwt beam="1">  1        2 0.33877853E-01 0.26444248E+03</pdfrwt>
<pdfrwt beam="2">  1       -2 0.12214055E-01 0.26444248E+03</pdfrwt>
<totfact> 0.72887669E+03</totfact>
</mgrwt>
</event>
<event>
 9    1  0.7957670E-001  0.2897042E+03  0.7818608E-02  0.1090504E+00
          1   -1    0    0  501    0  0.00000000000E+00  0.00000000000E+00  0.23429496624E+04  0.23429496624E+04  0.00000000000E+00 0. -1.
         -1   -1    0    0    0  501 -0.00000000000E+00 -0.00000000000E+00 -0.89554352039E+01  0.89554352039E+01  0.00000000000E+00 0. -1.
         35    2    1    2    0    0  0.00000000000E+00  0.00000000000E+00  0.23339942272E+04  0.23519050976E+04  0.28970422080E+03 0.  0.
         25    2    3    3    0    0  0.40790409204E+02 -0.64848126659E+02  0.11567345874E+04  0.11662772905E+04  0.12766626649E+03 0.  0.
         25    2    3    3    0    0 -0.40790409204E+02  0.64848126659E+02  0.11772596398E+04  0.11856278072E+04  0.11791480189E+03 0.  0.
          5    1    4    4  502    0 -0.33818980268E+02 -0.32509297104E+02  0.74924431558E+03  0.75072612333E+03  0.47000000000E+01 0. -1.
         -5    1    4    4    0  502  0.74609389472E+02 -0.32338829555E+02  0.40749027181E+03  0.41555116714E+03  0.47000000000E+01 0. -1.
          5    1    5    5  503    0 -0.80954866571E+02  0.40405821930E+02  0.87780473221E+03  0.88246787974E+03  0.47000000000E+01 0.  1.
         -5    1    5    5    0  503  0.40164457368E+02  0.24442304730E+02  0.29945490764E+03  0.30315992744E+03  0.47000000000E+01 0.  1.
<mgrwt>
<rscale>  0 0.28970422E+03</rscale>
<asrwt>0</asrwt>
<pdfrwt beam="1">  1        1 0.36045331E+00 0.28970422E+03</pdfrwt>
<pdfrwt beam="2">  1       -1 0.13777611E-02 0.28970422E+03</pdfrwt>
<totfact> 0.23779642E+03</totfact>
</mgrwt>
</event>
<event>
 9    1  0.7957670E-001  0.2752329E+03  0.7818608E-02  0.1098321E+00
          2   -1    0    0  501    0  0.00000000000E+00  0.00000000000E+00  0.14292729515E+04  0.14292729515E+04  0.00000000000E+00 0. -1.
         -2   -1    0    0    0  501 -0.00000000000E+00 -0.00000000000E+00 -0.13250297748E+02  0.13250297748E+02  0.00000000000E+00 0. -1.
         35    2    1    2    0    0  0.00000000000E+00  0.35527136788E-14  0.14160226537E+04  0.14425232492E+04  0.27523293531E+03 0.  0.
         25    2    3    3    0    0 -0.26893337115E+02  0.10646655824E+02  0.43128186177E+03  0.44936936088E+03  0.12285021508E+03 0.  0.
         25    2    3    3    0    0  0.26893337115E+02 -0.10646655824E+02  0.98474079196E+03  0.99315388834E+03  0.12571243264E+03 0.  0.
          5    1    4    4  502    0  0.37334901448E+02  0.56504978426E+01  0.50947900554E+02  0.63589319566E+02  0.47000000000E+01 0. -1.
         -5    1    4    4    0  502 -0.64228238563E+02  0.49961579813E+01  0.38033396121E+03  0.38578004131E+03  0.47000000000E+01 0. -1.
          5    1    5    5  503    0 -0.39576794997E+02  0.26795032717E+02  0.26040525425E+03  0.26479668224E+03  0.47000000000E+01 0.  1.
         -5    1    5    5    0  503  0.66470132112E+02 -0.37441688541E+02  0.72433553770E+03  0.72835720610E+03  0.47000000000E+01 0.  1.
<mgrwt>
<rscale>  0 0.27523294E+03</rscale>
<asrwt>0</asrwt>
<pdfrwt beam="1">  1        2 0.21988802E+00 0.27523294E+03</pdfrwt>
<pdfrwt beam="2">  1       -2 0.20385085E-02 0.27523294E+03</pdfrwt>
<totfact> 0.11195457E+04</totfact>
</mgrwt>
</event>
<event>
 9    1  0.7957670E-001  0.2772677E+03  0.7818608E-02  0.1097191E+00
         -1   -1    0    0    0  501 -0.00000000000E+00  0.00000000000E+00  0.92765117196E+01  0.92765117196E+01  0.00000000000E+00 0. -1.
          1   -1    0    0  501    0  0.00000000000E+00 -0.00000000000E+00 -0.20718285722E+04  0.20718285722E+04  0.00000000000E+00 0. -1.
         35    2    1    2    0    0  0.00000000000E+00  0.00000000000E+00 -0.20625520605E+04  0.20811050839E+04  0.27726768316E+03 0.  0.
         25    2    3    3    0    0  0.35466103775E+02  0.22281159295E+02 -0.71293024196E+03  0.72495593521E+03  0.12464864027E+03 0.  0.
         25    2    3    3    0    0 -0.35466103775E+02 -0.22281159295E+02 -0.13496218185E+04  0.13561491487E+04  0.12612361371E+03 0.  0.
          5    1    4    4  502    0  0.17939866834E+02 -0.32506364157E+02 -0.56390112966E+03  0.56514164293E+03  0.47000000000E+01 0.  1.
         -5    1    4    4    0  502  0.17526236941E+02  0.54787523452E+02 -0.14902911230E+03  0.15981429229E+03  0.47000000000E+01 0.  1.
          5    1    5    5  503    0  0.84962748934E+01 -0.47826332660E+02 -0.11135148761E+04  0.11145837851E+04  0.47000000000E+01 0. -1.
         -5    1    5    5    0  503 -0.43962378668E+02  0.25545173365E+02 -0.23610694244E+03  0.24156536360E+03  0.47000000000E+01 0. -1.
<mgrwt>
<rscale>  0 0.27726768E+03</rscale>
<asrwt>0</asrwt>
<pdfrwt beam="1">  1        1 0.31874340E+00 0.27726768E+03</pdfrwt>
<pdfrwt beam="2">  1       -1 0.14271532E-02 0.27726768E+03</pdfrwt>
<totfact> 0.34000160E+03</totfact>
</mgrwt>
</event>
<event>
 9    1  0.7957670E-001  0.2756614E+03  0.7818608E-02  0.1098082E+00
          2   -1    0    0  501    0  0.00000000000E+00  0.00000000000E+00  0.11612457551E+03  0.11612457551E+03  0.00000000000E+00 0. -1.
         -2   -1    0    0    0  501 -0.00000000000E+00 -0.00000000000E+00 -0.16359420352E+03  0.16359420352E+03  0.00000000000E+00 0. -1.
         35    2    1    2    0    0 -0.35527136788E-14 -0.71054273576E-14 -0.47469628014E+02  0.27971877903E+03  0.27566144047E+03 0.  0.
         25    2    3    3    0    0  0.21111474959E+02  0.13045700765E+02 -0.76023874908E+02  0.14832919744E+03  0.12492412327E+03 0.  0.
         25    2    3    3    0    0 -0.21111474959E+02 -0.13045700765E+02  0.28554246894E+02  0.13138958159E+03  0.12582524569E+03 0.  0.
          5    1    4    4  502    0  0.32686659320E+02 -0.33594893066E+02  0.11391134814E+02  0.48465270967E+02  0.47000000000E+01 0.  1.
         -5    1    4    4    0  502 -0.11575184361E+02  0.46640593831E+02 -0.87415009722E+02  0.99863926473E+02  0.47000000000E+01 0.  1.
          5    1    5    5  503    0  0.87879124693E+01 -0.59442245099E+02 -0.13589632593E+02  0.61784917431E+02  0.47000000000E+01 0. -1.
         -5    1    5    5    0  503 -0.29899387428E+02  0.46396544333E+02  0.42143879487E+02  0.69604664161E+02  0.47000000000E+01 0. -1.
<mgrwt>
<rscale>  0 0.27566144E+03</rscale>
<asrwt>0</asrwt>
<pdfrwt beam="1">  1        2 0.17865320E-01 0.27566144E+03</pdfrwt>
<pdfrwt beam="2">  1       -2 0.25168339E-01 0.27566144E+03</pdfrwt>
<totfact> 0.44219384E+03</totfact>
</mgrwt>
</event>
<event>
 9    1  0.7957670E-001  0.2753575E+03  0.7818608E-02  0.1098252E+00
         -2   -1    0    0    0  501 -0.00000000000E+00  0.00000000000E+00  0.62887502869E+02  0.62887502869E+02  0.00000000000E+00 0.  1.
          2   -1    0    0  501    0  0.00000000000E+00 -0.00000000000E+00 -0.30141830301E+03  0.30141830301E+03  0.00000000000E+00 0.  1.
         35    2    1    2    0    0  0.71054273576E-14 -0.14210854715E-13 -0.23853080014E+03  0.36430580588E+03  0.27535754499E+03 0.  0.
         25    2    3    3    0    0 -0.46510240464E+02  0.28478191162E+02 -0.13932774231E+03  0.19537799528E+03  0.12564287255E+03 0.  0.
         25    2    3    3    0    0  0.46510240464E+02 -0.28478191162E+02 -0.99203057834E+02  0.16892781060E+03  0.12538400484E+03 0.  0.
          5    1    4    4  502    0  0.49303257839E+01 -0.35754919929E+02 -0.95117424013E+02  0.10184368789E+03  0.47000000000E+01 0. -1.
         -5    1    4    4    0  502 -0.51440566248E+02  0.64233111091E+02 -0.44210318298E+02  0.93534307397E+02  0.47000000000E+01 0. -1.
          5    1    5    5  503    0 -0.55579217751E+01 -0.44640106623E+02 -0.10458158520E+03  0.11394308920E+03  0.47000000000E+01 0. -1.
         -5    1    5    5    0  503  0.52068162239E+02  0.16161915461E+02  0.53785273691E+01  0.54984721396E+02  0.47000000000E+01 0. -1.
<mgrwt>
<rscale>  0 0.27535754E+03</rscale>
<asrwt>0</asrwt>
<pdfrwt beam="1">  1        2 0.46372046E-01 0.27535754E+03</pdfrwt>
<pdfrwt beam="2">  1       -2 0.96750006E-02 0.27535754E+03</pdfrwt>
<totfact> 0.75536008E+03</totfact>
</mgrwt>
</event>
<event>
 9    1  0.7957670E-001  0.2817180E+03  0.7818608E-02  0.1094754E+00
          1   -1    0    0  501    0  0.00000000000E+00  0.00000000000E+00  0.14344231838E+03  0.14344231838E+03  0.00000000000E+00 0.  1.
         -1   -1    0    0    0  501 -0.00000000000E+00 -0.00000000000E+00 -0.13832220300E+03  0.13832220300E+03  0.00000000000E+00 0.  1.
         35    2    1    2    0    0  0.00000000000E+00 -0.71054273576E-14  0.51201153826E+01  0.28176452138E+03  0.28171799717E+03 0.  0.
         25    2    3    3    0    0 -0.24163499661E+02  0.28670876482E+02 -0.51983535270E+02  0.13854130263E+03  0.12282308709E+03 0.  0.
         25    2    3    3    0    0  0.24163499661E+02 -0.28670876482E+02  0.57103650652E+02  0.14322321875E+03  0.12588156973E+03 0.  0.
          5    1    4    4  502    0  0.30970959951E+01  0.61305643151E+02  0.10863804793E+02  0.62514687397E+02  0.47000000000E+01 0.  1.
         -5    1    4    4    0  502 -0.27260595656E+02 -0.32634766669E+02 -0.62847340062E+02  0.76026615234E+02  0.47000000000E+01 0.  1.
          5    1    5    5  503    0  0.53416896616E+02 -0.12736728150E+02 -0.20371382917E+02  0.58759444602E+02  0.47000000000E+01 0.  1.
         -5    1    5    5    0  503 -0.29253396954E+02 -0.15934148332E+02  0.77475033569E+02  0.84463774146E+02  0.47000000000E+01 0.  1.
<mgrwt>
<rscale>  0 0.28171800E+03</rscale>
<asrwt>0</asrwt>
<pdfrwt beam="1">  1        1 0.22068049E-01 0.28171800E+03</pdfrwt>
<pdfrwt beam="2">  1       -1 0.21280339E-01 0.28171800E+03</pdfrwt>
<totfact> 0.40714688E+03</totfact>
</mgrwt>
</event>
<event>
 9    1  0.7957670E-001  0.2761562E+03  0.7818608E-02  0.1097807E+00
         -3   -1    0    0    0  501 -0.00000000000E+00  0.00000000000E+00  0.10400123714E+02  0.10400123714E+02  0.00000000000E+00 0. -1.
          3   -1    0    0  501    0  0.00000000000E+00 -0.00000000000E+00 -0.18332052374E+04  0.18332052374E+04  0.00000000000E+00 0. -1.
         35    2    1    2    0    0  0.71054273576E-14  0.17763568394E-14 -0.18228051137E+04  0.18436053611E+04  0.27615619683E+03 0.  0.
         25    2    3    3    0    0 -0.15105180782E+02 -0.10381503520E+02 -0.13011588403E+04  0.13072795248E+04  0.12501794284E+03 0.  0.
         25    2    3    3    0    0  0.15105180782E+02  0.10381503520E+02 -0.52164627337E+03  0.53632583635E+03  0.12326648415E+03 0.  0.
          5    1    4    4  502    0 -0.57875881326E+02 -0.37934137039E+02 -0.93558546295E+03  0.93815290058E+03  0.47000000000E+01 0. -1.
         -5    1    4    4    0  502  0.42770700543E+02  0.27552633519E+02 -0.36557337735E+03  0.36912662417E+03  0.47000000000E+01 0. -1.
          5    1    5    5  503    0 -0.52670951766E+02 -0.14948554726E+01 -0.17236857408E+03  0.18030385210E+03  0.47000000000E+01 0.  1.
         -5    1    5    5    0  503  0.67776132549E+02  0.11876358993E+02 -0.34927769929E+03  0.35602198425E+03  0.47000000000E+01 0.  1.
<mgrwt>
<rscale>  0 0.27615620E+03</rscale>
<asrwt>0</asrwt>
<pdfrwt beam="1">  1        3 0.28203150E+00 0.27615620E+03</pdfrwt>
<pdfrwt beam="2">  1       -3 0.16000195E-02 0.27615620E+03</pdfrwt>
<totfact> 0.18842129E+02</totfact>
</mgrwt>
</event>
<event>
 9    1  0.7957670E-001  0.2750606E+03  0.7818608E-02  0.1098418E+00
         -2   -1    0    0    0  501 -0.00000000000E+00  0.00000000000E+00  0.50087491452E+01  0.50087491452E+01  0.00000000000E+00 0. -1.
          2   -1    0    0  501    0  0.00000000000E+00 -0.00000000000E+00 -0.37763087778E+04  0.37763087778E+04  0.00000000000E+00 0. -1.
         35    2    1    2    0    0  0.71054273576E-14  0.71054273576E-14 -0.37713000287E+04  0.37813175270E+04  0.27506059960E+03 0.  0.
         25    2    3    3    0    0 -0.61050008426E+01 -0.49391511291E+02 -0.15552629102E+04  0.15611841411E+04  0.12639782462E+03 0.  0.
         25    2    3    3    0    0  0.61050008426E+01  0.49391511291E+02 -0.22160371185E+04  0.22201333859E+04  0.12527948066E+03 0.  0.
          5    1    4    4  502    0  0.59762913975E+01 -0.62761734461E+01 -0.13860243748E+04  0.13860594374E+04  0.47000000000E+01 0. -1.
         -5    1    4    4    0  502 -0.12081292240E+02 -0.43115337845E+02 -0.16923853547E+03  0.17512470376E+03  0.47000000000E+01 0. -1.
          5    1    5    5  503    0  0.64178873759E+02  0.39372383579E+02 -0.13081445207E+04  0.13103180109E+04  0.47000000000E+01 0.  1.
         -5    1    5    5    0  503 -0.58073872917E+02  0.10019127712E+02 -0.90789259771E+03  0.90981537501E+03  0.47000000000E+01 0.  1.
<mgrwt>
<rscale>  0 0.27506060E+03</rscale>
<asrwt>0</asrwt>
<pdfrwt beam="1">  1        2 0.58097431E+00 0.27506060E+03</pdfrwt>
<pdfrwt beam="2">  1       -2 0.77057184E-03 0.27506060E+03</pdfrwt>
<totfact> 0.20372859E+03</totfact>
</mgrwt>
</event>
<event>
 9    1  0.7957670E-001  0.2752687E+03  0.7818608E-02  0.1098302E+00
          2   -1    0    0  501    0  0.00000000000E+00  0.00000000000E+00  0.42438387769E+03  0.42438387769E+03  0.00000000000E+00 0. -1.
         -2   -1    0    0    0  501 -0.00000000000E+00 -0.00000000000E+00 -0.44636967478E+02  0.44636967478E+02  0.00000000000E+00 0. -1.
         35    2    1    2    0    0 -0.71054273576E-14  0.00000000000E+00  0.37974691021E+03  0.46902084517E+03  0.27526866401E+03 0.  0.
         25    2    3    3    0    0 -0.34882095001E+02 -0.41834753025E+02  0.22235706834E+03  0.26094090201E+03  0.12522212819E+03 0.  0.
         25    2    3    3    0    0  0.34882095001E+02  0.41834753025E+02  0.15738984187E+03  0.20807994316E+03  0.12473489211E+03 0.  0.
          5    1    4    4  502    0  0.14286757125E+02  0.27363097504E+02  0.10965447138E+02  0.33093527540E+02  0.47000000000E+01 0. -1.
         -5    1    4    4    0  502 -0.49168852126E+02 -0.69197850529E+02  0.21139162120E+03  0.22784737447E+03  0.47000000000E+01 0. -1.
          5    1    5    5  503    0 -0.38909802293E+02  0.47068038624E+02  0.60550990141E+02  0.86127146600E+02  0.47000000000E+01 0. -1.
         -5    1    5    5    0  503  0.73791897294E+02 -0.52332855985E+01  0.96838851729E+02  0.12195279656E+03  0.47000000000E+01 0. -1.
<mgrwt>
<rscale>  0 0.27526866E+03</rscale>
<asrwt>0</asrwt>
<pdfrwt beam="1">  1        2 0.65289825E-01 0.27526866E+03</pdfrwt>
<pdfrwt beam="2">  1       -2 0.68672261E-02 0.27526866E+03</pdfrwt>
<totfact> 0.89214549E+03</totfact>
</mgrwt>
</event>
<event>
 9    1  0.7957670E-001  0.2701372E+03  0.7818608E-02  0.1101201E+00
          1   -1    0    0  501    0  0.00000000000E+00  0.00000000000E+00  0.90329022745E+03  0.90329022745E+03  0.00000000000E+00 0. -1.
         -1   -1    0    0    0  501 -0.00000000000E+00 -0.00000000000E+00 -0.20196749690E+02  0.20196749690E+02  0.00000000000E+00 0. -1.
         35    2    1    2    0    0  0.00000000000E+00  0.00000000000E+00  0.88309347776E+03  0.92348697714E+03  0.27013719937E+03 0.  0.
         25    2    3    3    0    0 -0.32725314295E+02 -0.34661302712E+01  0.57222570020E+03  0.58682794217E+03  0.12586429789E+03 0.  0.
         25    2    3    3    0    0  0.32725314295E+02  0.34661302712E+01  0.31086777755E+03  0.33665903496E+03  0.12497027826E+03 0.  0.
          5    1    4    4  502    0 -0.34015440934E+02  0.30433140121E+02  0.53209692760E+03  0.53407158378E+03  0.47000000000E+01 0. -1.
         -5    1    4    4    0  502  0.12901266391E+01 -0.33899270392E+02  0.40128772601E+02  0.52756358388E+02  0.47000000000E+01 0. -1.
          5    1    5    5  503    0 -0.23389283118E+02 -0.46422732016E+02  0.15569519149E+03  0.16421087438E+03  0.47000000000E+01 0.  1.
         -5    1    5    5    0  503  0.56114597412E+02  0.49888862288E+02  0.15517258606E+03  0.17244816058E+03  0.47000000000E+01 0.  1.
<mgrwt>
<rscale>  0 0.27013720E+03</rscale>
<asrwt>0</asrwt>
<pdfrwt beam="1">  1        1 0.13896770E+00 0.27013720E+03</pdfrwt>
<pdfrwt beam="2">  1       -1 0.31071930E-02 0.27013720E+03</pdfrwt>
<totfact> 0.67852970E+03</totfact>
</mgrwt>
</event>
<event>
 9    1  0.7957670E-001  0.2727268E+03  0.7818608E-02  0.1099729E+00
         -1   -1    0    0    0  501 -0.00000000000E+00  0.00000000000E+00  0.39831691827E+02  0.39831691827E+02  0.00000000000E+00 0.  1.
          1   -1    0    0  501    0  0.00000000000E+00 -0.00000000000E+00 -0.46683881371E+03  0.46683881371E+03  0.00000000000E+00 0.  1.
         35    2    1    2    0    0 -0.17763568394E-14 -0.35527136788E-14 -0.42700712189E+03  0.50667050554E+03  0.27272682128E+03 0.  0.
         25    2    3    3    0    0 -0.12696981217E+02 -0.27907109410E+02 -0.29639946841E+03  0.32317111412E+03  0.12508758546E+03 0.  0.
         25    2    3    3    0    0  0.12696981217E+02  0.27907109410E+02 -0.13060765347E+03  0.18349939142E+03  0.12519443845E+03 0.  0.
          5    1    4    4  502    0 -0.48500479413E+00  0.10033019201E+02 -0.27934421625E+03  0.27956426427E+03  0.47000000000E+01 0.  1.
         -5    1    4    4    0  502 -0.12211976423E+02 -0.37940128611E+02 -0.17055252160E+02  0.43606849845E+02  0.47000000000E+01 0.  1.
          5    1    5    5  503    0 -0.33600772806E+02  0.56572623768E+00 -0.12466419174E+03  0.12919977818E+03  0.47000000000E+01 0. -1.
         -5    1    5    5    0  503  0.46297754023E+02  0.27341383172E+02 -0.59434617363E+01  0.54299613247E+02  0.47000000000E+01 0. -1.
<mgrwt>
<rscale>  0 0.27272682E+03</rscale>
<asrwt>0</asrwt>
<pdfrwt beam="1">  1        1 0.71821351E-01 0.27272682E+03</pdfrwt>
<pdfrwt beam="2">  1       -1 0.61279530E-02 0.27272682E+03</pdfrwt>
<totfact> 0.63680730E+03</totfact>
</mgrwt>
</event>
<event>
 9    1  0.7957670E-001  0.2694063E+03  0.7818608E-02  0.1101620E+00
          2   -1    0    0  501    0  0.00000000000E+00  0.00000000000E+00  0.16346358607E+03  0.16346358607E+03  0.00000000000E+00 0.  1.
         -2   -1    0    0    0  501 -0.00000000000E+00 -0.00000000000E+00 -0.11100293132E+03  0.11100293132E+03  0.00000000000E+00 0.  1.
         35    2    1    2    0    0  0.00000000000E+00  0.17763568394E-14  0.52460654756E+02  0.27446651739E+03  0.26940628959E+03 0.  0.
         25    2    3    3    0    0  0.32770451782E+02  0.15236341325E+02  0.26873512044E+01  0.13013091819E+03  0.12498314049E+03 0.  0.
         25    2    3    3    0    0 -0.32770451782E+02 -0.15236341325E+02  0.49773303551E+02  0.14433559920E+03  0.13057310152E+03 0.  0.
          5    1    4    4  502    0 -0.29727903928E+02  0.34794077234E+01 -0.42343139187E+02  0.52066169306E+02  0.47000000000E+01 0. -1.
         -5    1    4    4    0  502  0.62498355710E+02  0.11756933601E+02  0.45030490391E+02  0.78064748888E+02  0.47000000000E+01 0. -1.
          5    1    5    5  503    0  0.31122432779E+02  0.17534186105E+02 -0.22393773897E+02  0.42421982672E+02  0.47000000000E+01 0. -1.
         -5    1    5    5    0  503 -0.63892884561E+02 -0.32770527429E+02  0.72167077448E+02  0.10191361652E+03  0.47000000000E+01 0. -1.
<mgrwt>
<rscale>  0 0.26940629E+03</rscale>
<asrwt>0</asrwt>
<pdfrwt beam="1">  1        2 0.25148244E-01 0.26940629E+03</pdfrwt>
<pdfrwt beam="2">  1       -2 0.17077374E-01 0.26940629E+03</pdfrwt>
<totfact> 0.58329403E+03</totfact>
</mgrwt>
</event>
<event>
 9    1  0.7957670E-001  0.2684403E+03  0.7818608E-02  0.1102176E+00
          2   -1    0    0  501    0  0.00000000000E+00  0.00000000000E+00  0.22076038847E+04  0.22076038847E+04  0.00000000000E+00 0.  1.
         -2   -1    0    0    0  501 -0.00000000000E+00 -0.00000000000E+00 -0.81604505426E+01  0.81604505426E+01  0.00000000000E+00 0.  1.
         35    2    1    2    0    0 -0.17763568394E-14  0.00000000000E+00  0.21994434342E+04  0.22157643353E+04  0.26844025271E+03 0.  0.
         25    2    3    3    0    0 -0.30824383365E+00  0.51405081563E+02  0.11213633609E+04  0.11293755891E+04  0.12405989144E+03 0.  0.
         25    2    3    3    0    0  0.30824383365E+00 -0.51405081563E+02  0.10780800733E+04  0.10863887462E+04  0.12385994495E+03 0.  0.
          5    1    4    4  502    0  0.47844443606E+02  0.12947613916E+01  0.74973027691E+03  0.75127115298E+03  0.47000000000E+01 0. -1.
         -5    1    4    4    0  502 -0.48152687440E+02  0.50110320171E+02  0.37163308400E+03  0.37810443612E+03  0.47000000000E+01 0. -1.
          5    1    5    5  503    0  0.65756105819E+01  0.15489466263E+02  0.21679707460E+02  0.27843525911E+02  0.47000000000E+01 0. -1.
         -5    1    5    5    0  503 -0.62673667483E+01 -0.66894547826E+02  0.10564003658E+04  0.10585452203E+04  0.47000000000E+01 0. -1.
<mgrwt>
<rscale>  0 0.26844025E+03</rscale>
<asrwt>0</asrwt>
<pdfrwt beam="1">  1        2 0.33963089E+00 0.26844025E+03</pdfrwt>
<pdfrwt beam="2">  1       -2 0.12554557E-02 0.26844025E+03</pdfrwt>
<totfact> 0.88271653E+03</totfact>
</mgrwt>
</event>
<event>
 9    1  0.7957670E-001  0.2741859E+03  0.7818608E-02  0.1098908E+00
         -2   -1    0    0    0  501 -0.00000000000E+00  0.00000000000E+00  0.29505093931E+02  0.29505093931E+02  0.00000000000E+00 0. -1.
          2   -1    0    0  501    0  0.00000000000E+00 -0.00000000000E+00 -0.63699071852E+03  0.63699071852E+03  0.00000000000E+00 0. -1.
         35    2    1    2    0    0 -0.10658141036E-13  0.71054273576E-14 -0.60748562459E+03  0.66649581245E+03  0.27418585655E+03 0.  0.
         25    2    3    3    0    0 -0.25227900580E+02  0.38854816162E+02 -0.22459834756E+03  0.26084351773E+03  0.12429311850E+03 0.  0.
         25    2    3    3    0    0  0.25227900580E+02 -0.38854816162E+02 -0.38288727702E+03  0.40565229472E+03  0.12571783326E+03 0.  0.
          5    1    4    4  502    0  0.42157024153E+02  0.26627831903E+02 -0.15581381978E+03  0.16366518430E+03  0.47000000000E+01 0. -1.
         -5    1    4    4    0  502 -0.67384924733E+02  0.12226984259E+02 -0.68784527781E+02  0.97178333426E+02  0.47000000000E+01 0. -1.
          5    1    5    5  503    0 -0.13574005130E+01  0.21002290064E+01 -0.34130418509E+03  0.34134570491E+03  0.47000000000E+01 0. -1.
         -5    1    5    5    0  503  0.26585301093E+02 -0.40955045168E+02 -0.41583091933E+02  0.64306589815E+02  0.47000000000E+01 0. -1.
<mgrwt>
<rscale>  0 0.27418586E+03</rscale>
<asrwt>0</asrwt>
<pdfrwt beam="1">  1        2 0.97998568E-01 0.27418586E+03</pdfrwt>
<pdfrwt beam="2">  1       -2 0.45392454E-02 0.27418586E+03</pdfrwt>
<totfact> 0.10616125E+04</totfact>
</mgrwt>
</event>
<event>
 9    1  0.7957670E-001  0.2802385E+03  0.7818608E-02  0.1095559E+00
         -2   -1    0    0    0  501 -0.00000000000E+00  0.00000000000E+00  0.11261369506E+02  0.11261369506E+02  0.00000000000E+00 0.  1.
          2   -1    0    0  501    0  0.00000000000E+00 -0.00000000000E+00 -0.17434294506E+04  0.17434294506E+04  0.00000000000E+00 0.  1.
         35    2    1    2    0    0  0.00000000000E+00 -0.71054273576E-14 -0.17321680811E+04  0.17546908201E+04  0.28023849307E+03 0.  0.
         25    2    3    3    0    0  0.74434432752E+01  0.31259133178E+02 -0.12168338663E+04  0.12233852860E+04  0.12228802635E+03 0.  0.
         25    2    3    3    0    0 -0.74434432752E+01 -0.31259133178E+02 -0.51533421473E+03  0.53130553412E+03  0.12523449787E+03 0.  0.
          5    1    4    4  502    0  0.12200044594E+02  0.13103418493E+02 -0.11908264600E+04  0.11909703139E+04  0.47000000000E+01 0. -1.
         -5    1    4    4    0  502 -0.47566013192E+01  0.18155714685E+02 -0.26007406334E+02  0.32414972097E+02  0.47000000000E+01 0. -1.
          5    1    5    5  503    0  0.18904415149E+02  0.14911971938E+02 -0.42972293097E+03  0.43042261932E+03  0.47000000000E+01 0.  1.
         -5    1    5    5    0  503 -0.26347858424E+02 -0.46171105116E+02 -0.85611283764E+02  0.10088291480E+03  0.47000000000E+01 0.  1.
<mgrwt>
<rscale>  0 0.28023849E+03</rscale>
<asrwt>0</asrwt>
<pdfrwt beam="1">  1        2 0.26821996E+00 0.28023849E+03</pdfrwt>
<pdfrwt beam="2">  1       -2 0.17325181E-02 0.28023849E+03</pdfrwt>
<totfact> 0.96822623E+03</totfact>
</mgrwt>
</event>
<event>
 9    1  0.7957670E-001  0.2672939E+03  0.7818608E-02  0.1102838E+00
         -2   -1    0    0    0  501 -0.00000000000E+00  0.00000000000E+00  0.26806744190E+02  0.26806744190E+02  0.00000000000E+00 0. -1.
          2   -1    0    0  501    0  0.00000000000E+00 -0.00000000000E+00 -0.66630633049E+03  0.66630633049E+03  0.00000000000E+00 0. -1.
         35    2    1    2    0    0 -0.35527136788E-14  0.71054273576E-14 -0.63949958630E+03  0.69311307468E+03  0.26729387089E+03 0.  0.
         25    2    3    3    0    0 -0.14293918247E+02 -0.27065600020E+02 -0.22813396501E+03  0.26195961217E+03  0.12506346234E+03 0.  0.
         25    2    3    3    0    0  0.14293918247E+02  0.27065600020E+02 -0.41136562129E+03  0.43115346251E+03  0.12543831573E+03 0.  0.
          5    1    4    4  502    0  0.20182693758E+02  0.19395488255E+02 -0.19546123165E+01  0.28450599313E+02  0.47000000000E+01 0. -1.
         -5    1    4    4    0  502 -0.34476612005E+02 -0.46461088275E+02 -0.22617935270E+03  0.23350901286E+03  0.47000000000E+01 0. -1.
          5    1    5    5  503    0 -0.36934256834E+02  0.39347866542E+02 -0.32787942599E+03  0.33232424214E+03  0.47000000000E+01 0.  1.
         -5    1    5    5    0  503  0.51228175081E+02 -0.12282266522E+02 -0.83486195299E+02  0.98829220368E+02  0.47000000000E+01 0.  1.
<mgrwt>
<rscale>  0 0.26729387E+03</rscale>
<asrwt>0</asrwt>
<pdfrwt beam="1">  1        2 0.10250866E+00 0.26729387E+03</pdfrwt>
<pdfrwt beam="2">  1       -2 0.41241148E-02 0.26729387E+03</pdfrwt>
<totfact> 0.11619864E+04</totfact>
</mgrwt>
</event>
<event>
 9    1  0.7957670E-001  0.2760377E+03  0.7818608E-02  0.1097873E+00
         -2   -1    0    0    0  501 -0.00000000000E+00  0.00000000000E+00  0.79994998105E+01  0.79994998105E+01  0.00000000000E+00 0. -1.
          2   -1    0    0  501    0  0.00000000000E+00 -0.00000000000E+00 -0.23812990997E+04  0.23812990997E+04  0.00000000000E+00 0. -1.
         35    2    1    2    0    0  0.00000000000E+00 -0.35527136788E-14 -0.23732995999E+04  0.23892985995E+04  0.27603769088E+03 0.  0.
         25    2    3    3    0    0  0.52717485260E+02 -0.24396501401E+02 -0.10712227361E+04  0.10799754727E+04  0.12431632589E+03 0.  0.
         25    2    3    3    0    0 -0.52717485260E+02  0.24396501401E+02 -0.13020768639E+04  0.13093231268E+04  0.12469389924E+03 0.  0.
          5    1    4    4  502    0  0.75530983310E+02  0.25403227879E+02 -0.73006663088E+03  0.73441788441E+03  0.47000000000E+01 0.  1.
         -5    1    4    4    0  502 -0.22813498051E+02 -0.49799729280E+02 -0.34115610518E+03  0.34555758830E+03  0.47000000000E+01 0.  1.
          5    1    5    5  503    0 -0.21328520065E+02  0.72044576030E+02 -0.90710656445E+03  0.91022510182E+03  0.47000000000E+01 0. -1.
         -5    1    5    5    0  503 -0.31388965194E+02 -0.47648074629E+02 -0.39497029940E+03  0.39909802500E+03  0.47000000000E+01 0. -1.
<mgrwt>
<rscale>  0 0.27603769E+03</rscale>
<asrwt>0</asrwt>
<pdfrwt beam="1">  1        2 0.36635409E+00 0.27603769E+03</pdfrwt>
<pdfrwt beam="2">  1       -2 0.12306910E-02 0.27603769E+03</pdfrwt>
<totfact> 0.73340903E+03</totfact>
</mgrwt>
</event>
<event>
 9    1  0.7957670E-001  0.2662809E+03  0.7818608E-02  0.1103427E+00
         -2   -1    0    0    0  501 -0.00000000000E+00  0.00000000000E+00  0.77471557990E+03  0.77471557990E+03  0.00000000000E+00 0.  1.
          2   -1    0    0  501    0  0.00000000000E+00 -0.00000000000E+00 -0.22881146195E+02  0.22881146195E+02  0.00000000000E+00 0.  1.
         35    2    1    2    0    0  0.10658141036E-13 -0.14210854715E-13  0.75183443370E+03  0.79759672609E+03  0.26628090764E+03 0.  0.
         25    2    3    3    0    0 -0.13524674747E+02  0.46725674445E+02  0.38242853369E+03  0.40539347211E+03  0.12540366172E+03 0.  0.
         25    2    3    3    0    0  0.13524674747E+02 -0.46725674445E+02  0.36940590001E+03  0.39220325398E+03  0.12246006692E+03 0.  0.
          5    1    4    4  502    0 -0.52948387553E+02 -0.18760410580E+02  0.19320654501E+03  0.20126187862E+03  0.47000000000E+01 0. -1.
         -5    1    4    4    0  502  0.39423712806E+02  0.65486085025E+02  0.18922198868E+03  0.20413159349E+03  0.47000000000E+01 0. -1.
          5    1    5    5  503    0 -0.17471726806E+02  0.37527947919E+02  0.12745589397E+03  0.13409214377E+03  0.47000000000E+01 0. -1.
         -5    1    5    5    0  503  0.30996401553E+02 -0.84253622365E+02  0.24195000604E+03  0.25811111021E+03  0.47000000000E+01 0. -1.
<mgrwt>
<rscale>  0 0.26628091E+03</rscale>
<asrwt>0</asrwt>
<pdfrwt beam="1">  1        2 0.35201769E-02 0.26628091E+03</pdfrwt>
<pdfrwt beam="2">  1       -2 0.11918699E+00 0.26628091E+03</pdfrwt>
<totfact> 0.14204746E+03</totfact>
</mgrwt>
</event>
<event>
 9    1  0.7957670E-001  0.2715499E+03  0.7818608E-02  0.1100396E+00
          2   -1    0    0  501    0  0.00000000000E+00  0.00000000000E+00  0.21625865914E+03  0.21625865914E+03  0.00000000000E+00 0. -1.
         -2   -1    0    0    0  501 -0.00000000000E+00 -0.00000000000E+00 -0.85244395944E+02  0.85244395944E+02  0.00000000000E+00 0. -1.
         35    2    1    2    0    0  0.00000000000E+00  0.00000000000E+00  0.13101426320E+03  0.30150305508E+03  0.27154991266E+03 0.  0.
         25    2    3    3    0    0  0.51583342356E+02  0.60800170594E+01  0.60927523712E+02  0.14852213280E+03  0.12509537549E+03 0.  0.
         25    2    3    3    0    0 -0.51583342356E+02 -0.60800170594E+01  0.70086739484E+02  0.15298092228E+03  0.12567101382E+03 0.  0.
          5    1    4    4  502    0 -0.95547179114E+01 -0.23362027696E+02 -0.27064187245E+02  0.37304653914E+02  0.47000000000E+01 0.  1.
         -5    1    4    4    0  502  0.61138060268E+02  0.29442044755E+02  0.87991710957E+02  0.11121747889E+03  0.47000000000E+01 0.  1.
          5    1    5    5  503    0 -0.10546885506E+02 -0.55448842124E+02  0.68108713331E+02  0.88581587919E+02  0.47000000000E+01 0.  1.
         -5    1    5    5    0  503 -0.41036456850E+02  0.49368825064E+02  0.19780261531E+01  0.64399334364E+02  0.47000000000E+01 0.  1.
<mgrwt>
<rscale>  0 0.27154991E+03</rscale>
<asrwt>0</asrwt>
<pdfrwt beam="1">  1        2 0.33270563E-01 0.27154991E+03</pdfrwt>
<pdfrwt beam="2">  1       -2 0.13114523E-01 0.27154991E+03</pdfrwt>
<totfact> 0.66302968E+03</totfact>
</mgrwt>
</event>
<event>
 9    1  0.7957670E-001  0.2760326E+03  0.7818608E-02  0.1097876E+00
         -2   -1    0    0    0  501 -0.00000000000E+00  0.00000000000E+00  0.17555719289E+02  0.17555719289E+02  0.00000000000E+00 0.  1.
          2   -1    0    0  501    0  0.00000000000E+00 -0.00000000000E+00 -0.10850312584E+04  0.10850312584E+04  0.00000000000E+00 0.  1.
         35    2    1    2    0    0  0.00000000000E+00  0.71054273576E-14 -0.10674755392E+04  0.11025869777E+04  0.27603263715E+03 0.  0.
         25    2    3    3    0    0 -0.19285088708E+02  0.40219097946E+02 -0.37885396245E+03  0.40117846264E+03  0.12419478062E+03 0.  0.
         25    2    3    3    0    0  0.19285088708E+02 -0.40219097946E+02 -0.68862157671E+03  0.70140851510E+03  0.12563732988E+03 0.  0.
          5    1    4    4  502    0  0.65513772678E+01  0.80830629157E+02 -0.19913066414E+03  0.21506190401E+03  0.47000000000E+01 0.  1.
         -5    1    4    4    0  502 -0.25836465976E+02 -0.40611531211E+02 -0.17972329831E+03  0.18611655863E+03  0.47000000000E+01 0.  1.
          5    1    5    5  503    0 -0.15608402502E+02  0.27059105435E+02 -0.44748436546E+03  0.44859799904E+03  0.47000000000E+01 0.  1.
         -5    1    5    5    0  503  0.34893491211E+02 -0.67278203381E+02 -0.24113721125E+03  0.25281051606E+03  0.47000000000E+01 0.  1.
<mgrwt>
<rscale>  0 0.27603264E+03</rscale>
<asrwt>0</asrwt>
<pdfrwt beam="1">  1        2 0.16692787E+00 0.27603264E+03</pdfrwt>
<pdfrwt beam="2">  1       -2 0.27008802E-02 0.27603264E+03</pdfrwt>
<totfact> 0.11530571E+04</totfact>
</mgrwt>
</event>
<event>
 9    1  0.7957670E-001  0.2739459E+03  0.7818608E-02  0.1099042E+00
          1   -1    0    0  501    0  0.00000000000E+00  0.00000000000E+00  0.34329236152E+03  0.34329236152E+03  0.00000000000E+00 0. -1.
         -1   -1    0    0    0  501 -0.00000000000E+00 -0.00000000000E+00 -0.54651930631E+02  0.54651930631E+02  0.00000000000E+00 0. -1.
         35    2    1    2    0    0  0.00000000000E+00  0.71054273576E-14  0.28864043089E+03  0.39794429215E+03  0.27394590947E+03 0.  0.
         25    2    3    3    0    0  0.40674077289E+02 -0.36064745581E+02  0.12756445986E+03  0.18664614959E+03  0.12493617290E+03 0.  0.
         25    2    3    3    0    0 -0.40674077289E+02  0.36064745581E+02  0.16107597103E+03  0.21129814257E+03  0.12548462126E+03 0.  0.
          5    1    4    4  502    0 -0.23944792086E+02 -0.75526171791E+01 -0.13445556955E+02  0.28866383496E+02  0.47000000000E+01 0.  1.
         -5    1    4    4    0  502  0.64618869375E+02 -0.28512128402E+02  0.14101001681E+03  0.15777976609E+03  0.47000000000E+01 0.  1.
          5    1    5    5  503    0 -0.11242361340E+02  0.77445084243E+02  0.62310881089E+02  0.10014423430E+03  0.47000000000E+01 0.  1.
         -5    1    5    5    0  503 -0.29431715949E+02 -0.41380338662E+02  0.98765089944E+02  0.11115390827E+03  0.47000000000E+01 0.  1.
<mgrwt>
<rscale>  0 0.27394591E+03</rscale>
<asrwt>0</asrwt>
<pdfrwt beam="1">  1        1 0.52814208E-01 0.27394591E+03</pdfrwt>
<pdfrwt beam="2">  1       -1 0.84079896E-02 0.27394591E+03</pdfrwt>
<totfact> 0.58454055E+03</totfact>
</mgrwt>
</event>
<event>
 9    1  0.7957670E-001  0.2806331E+03  0.7818608E-02  0.1095344E+00
          2   -1    0    0  501    0  0.00000000000E+00  0.00000000000E+00  0.29344889458E+03  0.29344889458E+03  0.00000000000E+00 0. -1.
         -2   -1    0    0    0  501 -0.00000000000E+00 -0.00000000000E+00 -0.67094248951E+02  0.67094248951E+02  0.00000000000E+00 0. -1.
         35    2    1    2    0    0 -0.71054273576E-14  0.00000000000E+00  0.22635464563E+03  0.36054314353E+03  0.28063309275E+03 0.  0.
         25    2    3    3    0    0  0.32862712407E+02  0.10122087149E+02  0.47422159252E+02  0.13922889808E+03  0.12630681042E+03 0.  0.
         25    2    3    3    0    0 -0.32862712407E+02 -0.10122087149E+02  0.17893248637E+03  0.22131424545E+03  0.12562143943E+03 0.  0.
          5    1    4    4  502    0 -0.94700805462E+01 -0.47068544953E+02  0.47810002011E+02  0.67919191999E+02  0.47000000000E+01 0. -1.
         -5    1    4    4    0  502  0.42332792953E+02  0.57190632102E+02 -0.38784275891E+00  0.71309706081E+02  0.47000000000E+01 0. -1.
          5    1    5    5  503    0  0.33194230974E+01 -0.82284027434E+01  0.18413667905E+03  0.18441022681E+03  0.47000000000E+01 0.  1.
         -5    1    5    5    0  503 -0.36182135504E+02 -0.18936844058E+01 -0.52041926737E+01  0.36904018638E+02  0.47000000000E+01 0.  1.
<mgrwt>
<rscale>  0 0.28063309E+03</rscale>
<asrwt>0</asrwt>
<pdfrwt beam="1">  1        2 0.45145983E-01 0.28063309E+03</pdfrwt>
<pdfrwt beam="2">  1       -2 0.10322192E-01 0.28063309E+03</pdfrwt>
<totfact> 0.70190297E+03</totfact>
</mgrwt>
</event>
<event>
 9    1  0.7957670E-001  0.2781029E+03  0.7818608E-02  0.1096730E+00
          2   -1    0    0  501    0  0.00000000000E+00  0.00000000000E+00  0.15736709743E+04  0.15736709743E+04  0.00000000000E+00 0. -1.
         -2   -1    0    0    0  501 -0.00000000000E+00 -0.00000000000E+00 -0.12286752887E+02  0.12286752887E+02  0.00000000000E+00 0. -1.
         35    2    1    2    0    0  0.00000000000E+00  0.00000000000E+00  0.15613842214E+04  0.15859577271E+04  0.27810290459E+03 0.  0.
         25    2    3    3    0    0 -0.38081780428E+02  0.47302667539E+02  0.84386485645E+03  0.85499887206E+03  0.12339939593E+03 0.  0.
         25    2    3    3    0    0  0.38081780428E+02 -0.47302667539E+02  0.71751936492E+03  0.73095885509E+03  0.12561466647E+03 0.  0.
          5    1    4    4  502    0 -0.70542445226E+02  0.18688696517E+02  0.27782176684E+03  0.28728475087E+03  0.47000000000E+01 0. -1.
         -5    1    4    4    0  502  0.32460664797E+02  0.28613971022E+02  0.56604308961E+03  0.56771412118E+03  0.47000000000E+01 0. -1.
          5    1    5    5  503    0 -0.12854662240E+02 -0.71819328572E+02  0.53085164627E+03  0.53586268637E+03  0.47000000000E+01 0. -1.
         -5    1    5    5    0  503  0.50936442668E+02  0.24516661033E+02  0.18666771866E+03  0.19509616872E+03  0.47000000000E+01 0. -1.
<mgrwt>
<rscale>  0 0.27810290E+03</rscale>
<asrwt>0</asrwt>
<pdfrwt beam="1">  1        2 0.24210307E+00 0.27810290E+03</pdfrwt>
<pdfrwt beam="2">  1       -2 0.18902709E-02 0.27810290E+03</pdfrwt>
<totfact> 0.10472011E+04</totfact>
</mgrwt>
</event>
<event>
 9    1  0.7957670E-001  0.2692696E+03  0.7818608E-02  0.1101698E+00
         -2   -1    0    0    0  501 -0.00000000000E+00  0.00000000000E+00  0.84584364557E+02  0.84584364557E+02  0.00000000000E+00 0. -1.
          2   -1    0    0  501    0  0.00000000000E+00 -0.00000000000E+00 -0.21430114225E+03  0.21430114225E+03  0.00000000000E+00 0. -1.
         35    2    1    2    0    0  0.00000000000E+00 -0.71054273576E-14 -0.12971677770E+03  0.29888550681E+03  0.26926957452E+03 0.  0.
         25    2    3    3    0    0  0.80968598161E+01 -0.15056405088E+02 -0.14398451535E+02  0.12718994303E+03  0.12521066939E+03 0.  0.
         25    2    3    3    0    0 -0.80968598161E+01  0.15056405088E+02 -0.11531832616E+03  0.17169556378E+03  0.12605076675E+03 0.  0.
          5    1    4    4  502    0 -0.51970638260E+02 -0.49776847917E+01  0.21133783301E+02  0.56519477913E+02  0.47000000000E+01 0.  1.
         -5    1    4    4    0  502  0.60067498076E+02 -0.10078720296E+02 -0.35532234836E+02  0.70670465120E+02  0.47000000000E+01 0.  1.
          5    1    5    5  503    0  0.33443399868E+02 -0.40912479351E+02 -0.28370774693E+02  0.60160475547E+02  0.47000000000E+01 0. -1.
         -5    1    5    5    0  503 -0.41540259684E+02  0.55968884438E+02 -0.86947551467E+02  0.11153508823E+03  0.47000000000E+01 0. -1.
<mgrwt>
<rscale>  0 0.26926957E+03</rscale>
<asrwt>0</asrwt>
<pdfrwt beam="1">  1        2 0.32969406E-01 0.26926957E+03</pdfrwt>
<pdfrwt beam="2">  1       -2 0.13012980E-01 0.26926957E+03</pdfrwt>
<totfact> 0.67793817E+03</totfact>
</mgrwt>
</event>
<event>
 9    1  0.7957670E-001  0.2765029E+03  0.7818608E-02  0.1097614E+00
          2   -1    0    0  501    0  0.00000000000E+00  0.00000000000E+00  0.17775167618E+04  0.17775167618E+04  0.00000000000E+00 0.  1.
         -2   -1    0    0    0  501 -0.00000000000E+00 -0.00000000000E+00 -0.10752898499E+02  0.10752898499E+02  0.00000000000E+00 0.  1.
         35    2    1    2    0    0  0.17763568394E-14 -0.71054273576E-14  0.17667638633E+04  0.17882696603E+04  0.27650285583E+03 0.  0.
         25    2    3    3    0    0  0.42841336251E+01 -0.23962827750E+02  0.12532156399E+04  0.12591897078E+04  0.12006960212E+03 0.  0.
         25    2    3    3    0    0 -0.42841336251E+01  0.23962827750E+02  0.51354822349E+03  0.52907995254E+03  0.12490495351E+03 0.  0.
          5    1    4    4  502    0 -0.18007537554E+02  0.39228935775E+02  0.78268603845E+03  0.78388947282E+03  0.47000000000E+01 0. -1.
         -5    1    4    4    0  502  0.22291671179E+02 -0.63191763524E+02  0.47052960140E+03  0.47530023499E+03  0.47000000000E+01 0. -1.
          5    1    5    5  503    0  0.15695752714E+02  0.68241904600E+01  0.32038640931E+01  0.18035547505E+02  0.47000000000E+01 0. -1.
         -5    1    5    5    0  503 -0.19979886339E+02  0.17138637290E+02  0.51034435940E+03  0.51104440503E+03  0.47000000000E+01 0. -1.
<mgrwt>
<rscale>  0 0.27650286E+03</rscale>
<asrwt>0</asrwt>
<pdfrwt beam="1">  1        2 0.27346388E+00 0.27650286E+03</pdfrwt>
<pdfrwt beam="2">  1       -2 0.16542935E-02 0.27650286E+03</pdfrwt>
<totfact> 0.99403709E+03</totfact>
</mgrwt>
</event>
<event>
 9    1  0.7957670E-001  0.2775720E+03  0.7818608E-02  0.1097023E+00
          2   -1    0    0  501    0  0.00000000000E+00  0.00000000000E+00  0.90169590003E+03  0.90169590003E+03  0.00000000000E+00 0. -1.
         -2   -1    0    0    0  501 -0.00000000000E+00 -0.00000000000E+00 -0.21361470119E+02  0.21361470119E+02  0.00000000000E+00 0. -1.
         35    2    1    2    0    0 -0.35527136788E-14  0.00000000000E+00  0.88033442991E+03  0.92305737015E+03  0.27757197283E+03 0.  0.
         25    2    3    3    0    0 -0.14957485434E+02 -0.34123024118E+02  0.54455175364E+03  0.56087467429E+03  0.12905688947E+03 0.  0.
         25    2    3    3    0    0  0.14957485434E+02  0.34123024118E+02  0.33578267627E+03  0.36218269586E+03  0.13053042693E+03 0.  0.
          5    1    4    4  502    0  0.23715659300E+02 -0.87598831240E+01  0.16007838168E+02  0.30290409888E+02  0.47000000000E+01 0. -1.
         -5    1    4    4    0  502 -0.38673144734E+02 -0.25363140994E+02  0.52854391548E+03  0.53058426440E+03  0.47000000000E+01 0. -1.
          5    1    5    5  503    0 -0.46187824836E+02 -0.13092627875E+02  0.67534422398E+02  0.82992290464E+02  0.47000000000E+01 0.  1.
         -5    1    5    5    0  503  0.61145310270E+02  0.47215651993E+02  0.26824825387E+03  0.27919040540E+03  0.47000000000E+01 0.  1.
<mgrwt>
<rscale>  0 0.27757197E+03</rscale>
<asrwt>0</asrwt>
<pdfrwt beam="1">  1        2 0.13872242E+00 0.27757197E+03</pdfrwt>
<pdfrwt beam="2">  1       -2 0.32863807E-02 0.27757197E+03</pdfrwt>
<totfact> 0.11169013E+04</totfact>
</mgrwt>
</event>
<event>
 9    1  0.7957670E-001  0.2766526E+03  0.7818608E-02  0.1097531E+00
          2   -1    0    0  501    0  0.00000000000E+00  0.00000000000E+00  0.10308713211E+04  0.10308713211E+04  0.00000000000E+00 0.  1.
         -2   -1    0    0    0  501 -0.00000000000E+00 -0.00000000000E+00 -0.18561161686E+02  0.18561161686E+02  0.00000000000E+00 0.  1.
         35    2    1    2    0    0  0.00000000000E+00  0.35527136788E-14  0.10123101594E+04  0.10494324828E+04  0.27665262889E+03 0.  0.
         25    2    3    3    0    0 -0.16100912249E+02  0.40705077458E+01  0.29183602238E+03  0.31805156556E+03  0.12535041281E+03 0.  0.
         25    2    3    3    0    0  0.16100912249E+02 -0.40705077458E+01  0.72047413704E+03  0.73138091723E+03  0.12473674491E+03 0.  0.
          5    1    4    4  502    0  0.40522497936E+02 -0.36067995562E+02  0.98022816553E+02  0.11213177831E+03  0.47000000000E+01 0.  1.
         -5    1    4    4    0  502 -0.56623410185E+02  0.40138503308E+02  0.19381320582E+03  0.20591978725E+03  0.47000000000E+01 0.  1.
          5    1    5    5  503    0  0.35384679708E+02 -0.29344715414E+02  0.66969390801E+03  0.67128623426E+03  0.47000000000E+01 0.  1.
         -5    1    5    5    0  503 -0.19283767459E+02  0.25274207668E+02  0.50780229037E+02  0.60094682974E+02  0.47000000000E+01 0.  1.
<mgrwt>
<rscale>  0 0.27665263E+03</rscale>
<asrwt>0</asrwt>
<pdfrwt beam="1">  1        2 0.15859554E+00 0.27665263E+03</pdfrwt>
<pdfrwt beam="2">  1       -2 0.28555642E-02 0.27665263E+03</pdfrwt>
<totfact> 0.11437276E+04</totfact>
</mgrwt>
</event>
<event>
 9    1  0.7957670E-001  0.2757256E+03  0.7818608E-02  0.1098047E+00
         -2   -1    0    0    0  501 -0.00000000000E+00  0.00000000000E+00  0.13781689530E+02  0.13781689530E+02  0.00000000000E+00 0.  1.
          2   -1    0    0  501    0  0.00000000000E+00 -0.00000000000E+00 -0.13790869465E+04  0.13790869465E+04  0.00000000000E+00 0.  1.
         35    2    1    2    0    0  0.00000000000E+00  0.00000000000E+00 -0.13653052570E+04  0.13928686361E+04  0.27572557467E+03 0.  0.
         25    2    3    3    0    0  0.53471287323E+02 -0.71797470159E+01 -0.77693580683E+03  0.78892025217E+03  0.12591738965E+03 0.  0.
         25    2    3    3    0    0 -0.53471287323E+02  0.71797470159E+01 -0.58836945019E+03  0.60394838391E+03  0.12515715391E+03 0.  0.
          5    1    4    4  502    0 -0.12453206106E+02  0.38224946125E+02 -0.11053938388E+03  0.11771692418E+03  0.47000000000E+01 0.  1.
         -5    1    4    4    0  502  0.65924493429E+02 -0.45404693141E+02 -0.66639642295E+03  0.67120332799E+03  0.47000000000E+01 0.  1.
          5    1    5    5  503    0 -0.13572495143E+02  0.59072159515E+02 -0.39726435622E+03  0.40188902868E+03  0.47000000000E+01 0.  1.
         -5    1    5    5    0  503 -0.39898792180E+02 -0.51892412499E+02 -0.19110509397E+03  0.20205935522E+03  0.47000000000E+01 0.  1.
<mgrwt>
<rscale>  0 0.27572557E+03</rscale>
<asrwt>0</asrwt>
<pdfrwt beam="1">  1        2 0.21216723E+00 0.27572557E+03</pdfrwt>
<pdfrwt beam="2">  1       -2 0.21202598E-02 0.27572557E+03</pdfrwt>
<totfact> 0.11249837E+04</totfact>
</mgrwt>
</event>
<event>
 9    1  0.7957670E-001  0.2783466E+03  0.7818608E-02  0.1096595E+00
         -2   -1    0    0    0  501 -0.00000000000E+00  0.00000000000E+00  0.17646594854E+02  0.17646594854E+02  0.00000000000E+00 0. -1.
          2   -1    0    0  501    0  0.00000000000E+00 -0.00000000000E+00 -0.10976170007E+04  0.10976170007E+04  0.00000000000E+00 0. -1.
         35    2    1    2    0    0 -0.71054273576E-14 -0.14210854715E-13 -0.10799704058E+04  0.11152635955E+04  0.27834656467E+03 0.  0.
         25    2    3    3    0    0  0.52284450200E+02 -0.18059949553E+02 -0.43442370850E+03  0.45535991467E+03  0.12477526948E+03 0.  0.
         25    2    3    3    0    0 -0.52284450200E+02  0.18059949553E+02 -0.64554669732E+03  0.65990368085E+03  0.12522980506E+03 0.  0.
          5    1    4    4  502    0  0.18483208747E+02  0.52706460188E+02 -0.14481798717E+03  0.15528663613E+03  0.47000000000E+01 0.  1.
         -5    1    4    4    0  502  0.33801241453E+02 -0.70766409741E+02 -0.28960572132E+03  0.30007327854E+03  0.47000000000E+01 0.  1.
          5    1    5    5  503    0 -0.30196674284E+02  0.67148838991E+02 -0.48323288460E+03  0.48883219664E+03  0.47000000000E+01 0.  1.
         -5    1    5    5    0  503 -0.22087775916E+02 -0.49088889438E+02 -0.16231381272E+03  0.17107148422E+03  0.47000000000E+01 0.  1.
<mgrwt>
<rscale>  0 0.27834656E+03</rscale>
<asrwt>0</asrwt>
<pdfrwt beam="1">  1        2 0.16886417E+00 0.27834656E+03</pdfrwt>
<pdfrwt beam="2">  1       -2 0.27148604E-02 0.27834656E+03</pdfrwt>
<totfact> 0.11251508E+04</totfact>
</mgrwt>
</event>
<event>
 9    1  0.7957670E-001  0.2882819E+03  0.7818608E-02  0.1091250E+00
          2   -1    0    0  501    0  0.00000000000E+00  0.00000000000E+00  0.38907543965E+03  0.38907543965E+03  0.00000000000E+00 0. -1.
         -2   -1    0    0    0  501 -0.00000000000E+00 -0.00000000000E+00 -0.53399971109E+02  0.53399971109E+02  0.00000000000E+00 0. -1.
         35    2    1    2    0    0 -0.71054273576E-14  0.00000000000E+00  0.33567546854E+03  0.44247541075E+03  0.28828192615E+03 0.  0.
         25    2    3    3    0    0 -0.52453141069E+02 -0.25534016970E+02  0.19779861452E+03  0.24081142584E+03  0.12434843335E+03 0.  0.
         25    2    3    3    0    0  0.52453141069E+02  0.25534016970E+02  0.13787685402E+03  0.20166398492E+03  0.13511113170E+03 0.  0.
          5    1    4    4  502    0  0.10445844523E+02 -0.42788082235E+02  0.15838041925E+03  0.16445784521E+03  0.47000000000E+01 0.  1.
         -5    1    4    4    0  502 -0.62898985592E+02  0.17254065265E+02  0.39418195274E+02  0.76353580632E+02  0.47000000000E+01 0.  1.
          5    1    5    5  503    0  0.75076277023E+02 -0.87390754699E+01  0.14116897186E+03  0.16019858747E+03  0.47000000000E+01 0.  1.
         -5    1    5    5    0  503 -0.22623135954E+02  0.34273092440E+02 -0.32921178391E+01  0.41465397449E+02  0.47000000000E+01 0.  1.
<mgrwt>
<rscale>  0 0.28828193E+03</rscale>
<asrwt>0</asrwt>
<pdfrwt beam="1">  1        2 0.59857758E-01 0.28828193E+03</pdfrwt>
<pdfrwt beam="2">  1       -2 0.82153804E-02 0.28828193E+03</pdfrwt>
<totfact> 0.74314795E+03</totfact>
</mgrwt>
</event>
<event>
 9    1  0.7957670E-001  0.2722941E+03  0.7818608E-02  0.1099974E+00
          1   -1    0    0  501    0  0.00000000000E+00  0.00000000000E+00  0.12644257555E+04  0.12644257555E+04  0.00000000000E+00 0.  1.
         -1   -1    0    0    0  501 -0.00000000000E+00 -0.00000000000E+00 -0.14659636787E+02  0.14659636787E+02  0.00000000000E+00 0.  1.
         35    2    1    2    0    0 -0.35527136788E-14  0.00000000000E+00  0.12497661187E+04  0.12790853922E+04  0.27229412274E+03 0.  0.
         25    2    3    3    0    0  0.32714223725E+01  0.69795567910E+01  0.36679772218E+03  0.38715365629E+03  0.12364452340E+03 0.  0.
         25    2    3    3    0    0 -0.32714223725E+01 -0.69795567910E+01  0.88296839650E+03  0.89193173596E+03  0.12589525798E+03 0.  0.
          5    1    4    4  502    0 -0.24244903838E+02 -0.52452128773E+02  0.18427057680E+03  0.19317550738E+03  0.47000000000E+01 0.  1.
         -5    1    4    4    0  502  0.27516326210E+02  0.59431685564E+02  0.18252714537E+03  0.19397814891E+03  0.47000000000E+01 0.  1.
          5    1    5    5  503    0  0.42440380479E+02 -0.29306161328E+02  0.70148969243E+03  0.70339883109E+03  0.47000000000E+01 0.  1.
         -5    1    5    5    0  503 -0.45711802851E+02  0.22326604537E+02  0.18147870406E+03  0.18853290487E+03  0.47000000000E+01 0.  1.
<mgrwt>
<rscale>  0 0.27229412E+03</rscale>
<asrwt>0</asrwt>
<pdfrwt beam="1">  1        1 0.19452695E+00 0.27229412E+03</pdfrwt>
<pdfrwt beam="2">  1       -1 0.22553297E-02 0.27229412E+03</pdfrwt>
<totfact> 0.59328336E+03</totfact>
</mgrwt>
</event>
<event>
 9    1  0.7957670E-001  0.2794241E+03  0.7818608E-02  0.1096004E+00
          2   -1    0    0  501    0  0.00000000000E+00  0.00000000000E+00  0.43579339523E+02  0.43579339523E+02  0.00000000000E+00 0. -1.
         -2   -1    0    0    0  501 -0.00000000000E+00 -0.00000000000E+00 -0.44790631281E+03  0.44790631281E+03  0.00000000000E+00 0. -1.
         35    2    1    2    0    0  0.00000000000E+00 -0.14210854715E-13 -0.40432697329E+03  0.49148565234E+03  0.27942413124E+03 0.  0.
         25    2    3    3    0    0 -0.94075013197E+00  0.58740666219E+02 -0.17460223558E+03  0.22318756419E+03  0.12599760815E+03 0.  0.
         25    2    3    3    0    0  0.94075013197E+00 -0.58740666219E+02 -0.22972473771E+03  0.26829808814E+03  0.12553508716E+03 0.  0.
          5    1    4    4  502    0  0.28443034373E+02  0.90574471371E+02 -0.11174875410E+03  0.14670587961E+03  0.47000000000E+01 0. -1.
         -5    1    4    4    0  502 -0.29383784505E+02 -0.31833805152E+02 -0.62853481481E+02  0.76481684583E+02  0.47000000000E+01 0. -1.
          5    1    5    5  503    0  0.30940806467E+02 -0.76822891939E+02 -0.21419051998E+03  0.22969274930E+03  0.47000000000E+01 0. -1.
         -5    1    5    5    0  503 -0.30000056335E+02  0.18082225720E+02 -0.15534217729E+02  0.38605338848E+02  0.47000000000E+01 0. -1.
<mgrwt>
<rscale>  0 0.27942413E+03</rscale>
<asrwt>0</asrwt>
<pdfrwt beam="1">  1        2 0.67045140E-02 0.27942413E+03</pdfrwt>
<pdfrwt beam="2">  1       -2 0.68908661E-01 0.27942413E+03</pdfrwt>
<totfact> 0.21045726E+03</totfact>
</mgrwt>
</event>
<event>
 9    1  0.7957670E-001  0.2760039E+03  0.7818608E-02  0.1097892E+00
          2   -1    0    0  501    0  0.00000000000E+00  0.00000000000E+00  0.12857030286E+04  0.12857030286E+04  0.00000000000E+00 0. -1.
         -2   -1    0    0    0  501 -0.00000000000E+00 -0.00000000000E+00 -0.14812543771E+02  0.14812543771E+02  0.00000000000E+00 0. -1.
         35    2    1    2    0    0  0.71054273576E-14  0.35527136788E-14  0.12708904848E+04  0.13005155723E+04  0.27600385785E+03 0.  0.
         25    2    3    3    0    0  0.16389129991E+02  0.24973811389E+02  0.38646636648E+03  0.40707025682E+03  0.12432878479E+03 0.  0.
         25    2    3    3    0    0 -0.16389129991E+02 -0.24973811389E+02  0.88442411830E+03  0.89344531550E+03  0.12306996356E+03 0.  0.
          5    1    4    4  502    0 -0.66252145394E+01  0.64941046758E+02  0.31610895796E+03  0.32281294325E+03  0.47000000000E+01 0.  1.
         -5    1    4    4    0  502  0.23014344530E+02 -0.39967235368E+02  0.70357408517E+02  0.84257313572E+02  0.47000000000E+01 0.  1.
          5    1    5    5  503    0 -0.64631086093E+02  0.10607994966E+02  0.51304584613E+03  0.51723093206E+03  0.47000000000E+01 0. -1.
         -5    1    5    5    0  503  0.48241956103E+02 -0.35581806356E+02  0.37137827217E+03  0.37621438345E+03  0.47000000000E+01 0. -1.
<mgrwt>
<rscale>  0 0.27600386E+03</rscale>
<asrwt>0</asrwt>
<pdfrwt beam="1">  1        2 0.19780038E+00 0.27600386E+03</pdfrwt>
<pdfrwt beam="2">  1       -2 0.22788539E-02 0.27600386E+03</pdfrwt>
<totfact> 0.11384879E+04</totfact>
</mgrwt>
</event>
<event>
 9    1  0.7957670E-001  0.2747024E+03  0.7818608E-02  0.1098618E+00
          2   -1    0    0  501    0  0.00000000000E+00  0.00000000000E+00  0.25383799554E+02  0.25383799554E+02  0.00000000000E+00 0. -1.
         -2   -1    0    0    0  501 -0.00000000000E+00 -0.00000000000E+00 -0.74320442799E+03  0.74320442799E+03  0.00000000000E+00 0. -1.
         35    2    1    2    0    0 -0.35527136788E-14  0.00000000000E+00 -0.71782062844E+03  0.76858822755E+03  0.27470240063E+03 0.  0.
         25    2    3    3    0    0 -0.23537398370E+02  0.40214094230E+01 -0.21822627650E+03  0.25295129099E+03  0.12566410388E+03 0.  0.
         25    2    3    3    0    0  0.23537398370E+02 -0.40214094230E+01 -0.49959435194E+03  0.51563693656E+03  0.12536647477E+03 0.  0.
          5    1    4    4  502    0 -0.43392732220E+02 -0.51848823505E+02 -0.12894844780E+03  0.14567436940E+03  0.47000000000E+01 0. -1.
         -5    1    4    4    0  502  0.19855333850E+02  0.55870232928E+02 -0.89277828693E+02  0.10727692159E+03  0.47000000000E+01 0. -1.
          5    1    5    5  503    0  0.24997687651E+02  0.57058178809E+02 -0.31508372681E+03  0.32121700618E+03  0.47000000000E+01 0. -1.
         -5    1    5    5    0  503 -0.14602892816E+01 -0.61079588232E+02 -0.18451062513E+03  0.19441993038E+03  0.47000000000E+01 0. -1.
<mgrwt>
<rscale>  0 0.27470240E+03</rscale>
<asrwt>0</asrwt>
<pdfrwt beam="1">  1        2 0.39051997E-02 0.27470240E+03</pdfrwt>
<pdfrwt beam="2">  1       -2 0.11433915E+00 0.27470240E+03</pdfrwt>
<totfact> 0.13659490E+03</totfact>
</mgrwt>
</event>
<event>
 9    1  0.7957670E-001  0.2754137E+03  0.7818608E-02  0.1098221E+00
          2   -1    0    0  501    0  0.00000000000E+00  0.00000000000E+00  0.11455891771E+04  0.11455891771E+04  0.00000000000E+00 0.  1.
         -2   -1    0    0    0  501 -0.00000000000E+00 -0.00000000000E+00 -0.16553210064E+02  0.16553210064E+02  0.00000000000E+00 0.  1.
         35    2    1    2    0    0  0.00000000000E+00  0.71054273576E-14  0.11290359671E+04  0.11621423872E+04  0.27541371277E+03 0.  0.
         25    2    3    3    0    0  0.31729039309E+02 -0.40620354339E+02  0.68749155808E+03  0.70057975080E+03  0.12454155804E+03 0.  0.
         25    2    3    3    0    0 -0.31729039309E+02  0.40620354339E+02  0.44154440899E+03  0.46156263640E+03  0.12418476994E+03 0.  0.
          5    1    4    4  502    0  0.15871093854E+02 -0.52488396164E+02  0.67380607563E+03  0.67605002840E+03  0.47000000000E+01 0.  1.
         -5    1    4    4    0  502  0.15857945455E+02  0.11868041825E+02  0.13685482447E+02  0.24529722392E+02  0.47000000000E+01 0.  1.
          5    1    5    5  503    0 -0.63565642167E+02 -0.12126391276E+02  0.14818840505E+03  0.16177000223E+03  0.47000000000E+01 0.  1.
         -5    1    5    5    0  503  0.31836602858E+02  0.52746745615E+02  0.29335600395E+03  0.29979263418E+03  0.47000000000E+01 0.  1.
<mgrwt>
<rscale>  0 0.27541371E+03</rscale>
<asrwt>0</asrwt>
<pdfrwt beam="1">  1        2 0.17624443E+00 0.27541371E+03</pdfrwt>
<pdfrwt beam="2">  1       -2 0.25466486E-02 0.27541371E+03</pdfrwt>
<totfact> 0.11595439E+04</totfact>
</mgrwt>
</event>
<event>
 9    1  0.7957670E-001  0.2719572E+03  0.7818608E-02  0.1100165E+00
          2   -1    0    0  501    0  0.00000000000E+00  0.00000000000E+00  0.19780691965E+04  0.19780691965E+04  0.00000000000E+00 0. -1.
         -2   -1    0    0    0  501 -0.00000000000E+00 -0.00000000000E+00 -0.93475876254E+01  0.93475876254E+01  0.00000000000E+00 0. -1.
         35    2    1    2    0    0  0.71054273576E-14  0.00000000000E+00  0.19687216089E+04  0.19874167842E+04  0.27195716680E+03 0.  0.
         25    2    3    3    0    0  0.40410812854E+02  0.35337966559E+02  0.99601408131E+03  0.10052891199E+04  0.12522123941E+03 0.  0.
         25    2    3    3    0    0 -0.40410812854E+02 -0.35337966559E+02  0.97270752761E+03  0.98212766424E+03  0.12463149252E+03 0.  0.
          5    1    4    4  502    0  0.33077016864E+02 -0.26920351735E+02  0.75477726838E+03  0.75599577330E+03  0.47000000000E+01 0.  1.
         -5    1    4    4    0  502  0.73337959898E+01  0.62258318294E+02  0.24123681293E+03  0.24929334663E+03  0.47000000000E+01 0.  1.
          5    1    5    5  503    0 -0.20378143647E+02  0.19939107678E+02  0.51647439761E+02  0.59180949530E+02  0.47000000000E+01 0. -1.
         -5    1    5    5    0  503 -0.20032669207E+02 -0.55277074237E+02  0.92106008785E+03  0.92294671471E+03  0.47000000000E+01 0. -1.
<mgrwt>
<rscale>  0 0.27195717E+03</rscale>
<asrwt>0</asrwt>
<pdfrwt beam="1">  1        2 0.30431800E+00 0.27195717E+03</pdfrwt>
<pdfrwt beam="2">  1       -2 0.14380920E-02 0.27195717E+03</pdfrwt>
<totfact> 0.95727265E+03</totfact>
</mgrwt>
</event>
<event>
 9    1  0.7957670E-001  0.2758316E+03  0.7818608E-02  0.1097988E+00
          2   -1    0    0  501    0  0.00000000000E+00  0.00000000000E+00  0.38015764018E+04  0.38015764018E+04  0.00000000000E+00 0. -1.
         -2   -1    0    0    0  501 -0.00000000000E+00 -0.00000000000E+00 -0.50033904360E+01  0.50033904360E+01  0.00000000000E+00 0. -1.
         35    2    1    2    0    0  0.35527136788E-14  0.71054273576E-14  0.37965730113E+04  0.38065797922E+04  0.27583162263E+03 0.  0.
         25    2    3    3    0    0  0.13528911455E+02  0.79471551459E+01  0.26452461007E+04  0.26483452863E+04  0.12712054595E+03 0.  0.
         25    2    3    3    0    0 -0.13528911455E+02 -0.79471551459E+01  0.11513269106E+04  0.11582345059E+04  0.12532887505E+03 0.  0.
          5    1    4    4  502    0 -0.97737823118E+01 -0.38046702666E+02  0.21568163424E+04  0.21571791542E+04  0.47000000000E+01 0.  1.
         -5    1    4    4    0  502  0.23302693767E+02  0.45993857812E+02  0.48842975833E+03  0.49116613209E+03  0.47000000000E+01 0.  1.
          5    1    5    5  503    0 -0.59644773659E+02  0.26116693462E+02  0.74518255836E+03  0.74803657396E+03  0.47000000000E+01 0. -1.
         -5    1    5    5    0  503  0.46115862204E+02 -0.34063848608E+02  0.40614435224E+03  0.41019793197E+03  0.47000000000E+01 0. -1.
<mgrwt>
<rscale>  0 0.27583162E+03</rscale>
<asrwt>0</asrwt>
<pdfrwt beam="1">  1        2 0.58485560E+00 0.27583162E+03</pdfrwt>
<pdfrwt beam="2">  1       -2 0.76975541E-03 0.27583162E+03</pdfrwt>
<totfact> 0.19568351E+03</totfact>
</mgrwt>
</event>
<event>
 9    1  0.7957670E-001  0.2744135E+03  0.7818608E-02  0.1098780E+00
         -2   -1    0    0    0  501 -0.00000000000E+00  0.00000000000E+00  0.13255359285E+03  0.13255359285E+03  0.00000000000E+00 0. -1.
          2   -1    0    0  501    0  0.00000000000E+00 -0.00000000000E+00 -0.14202322835E+03  0.14202322835E+03  0.00000000000E+00 0. -1.
         35    2    1    2    0    0 -0.71054273576E-14 -0.35527136788E-14 -0.94696355009E+01  0.27457682120E+03  0.27441347770E+03 0.  0.
         25    2    3    3    0    0 -0.50518706791E+02 -0.10659155366E+02  0.93862153665E+01  0.13711555534E+03  0.12667603226E+03 0.  0.
         25    2    3    3    0    0  0.50518706791E+02  0.10659155366E+02 -0.18855850867E+02  0.13746126586E+03  0.12599325050E+03 0.  0.
          5    1    4    4  502    0 -0.85348008841E+02 -0.13971258956E+02  0.35088430848E+02  0.93449273242E+02  0.47000000000E+01 0.  1.
         -5    1    4    4    0  502  0.34829302051E+02  0.33121035898E+01 -0.25702215482E+02  0.43666282097E+02  0.47000000000E+01 0.  1.
          5    1    5    5  503    0  0.34444994451E+01 -0.21521180269E+01  0.51413599585E+02  0.51787492802E+02  0.47000000000E+01 0.  1.
         -5    1    5    5    0  503  0.47074207346E+02  0.12811273393E+02 -0.70269450452E+02  0.85673773058E+02  0.47000000000E+01 0.  1.
<mgrwt>
<rscale>  0 0.27441348E+03</rscale>
<asrwt>0</asrwt>
<pdfrwt beam="1">  1        2 0.21849727E-01 0.27441348E+03</pdfrwt>
<pdfrwt beam="2">  1       -2 0.20392861E-01 0.27441348E+03</pdfrwt>
<totfact> 0.50611946E+03</totfact>
</mgrwt>
</event>
<event>
 9    1  0.7957670E-001  0.2716081E+03  0.7818608E-02  0.1100363E+00
          1   -1    0    0  501    0  0.00000000000E+00  0.00000000000E+00  0.49549400883E+03  0.49549400883E+03  0.00000000000E+00 0.  1.
         -1   -1    0    0    0  501 -0.00000000000E+00 -0.00000000000E+00 -0.37220902163E+02  0.37220902163E+02  0.00000000000E+00 0.  1.
         35    2    1    2    0    0  0.35527136788E-14  0.00000000000E+00  0.45827310667E+03  0.53271491100E+03  0.27160805603E+03 0.  0.
         25    2    3    3    0    0  0.29240108420E+02 -0.40386971112E+02  0.26091622020E+03  0.29351341448E+03  0.12484694285E+03 0.  0.
         25    2    3    3    0    0 -0.29240108420E+02  0.40386971112E+02  0.19735688647E+03  0.23920149652E+03  0.12562453551E+03 0.  0.
          5    1    4    4  502    0  0.49000825118E+01 -0.52731036174E+02  0.26044518597E+03  0.26581639882E+03  0.47000000000E+01 0.  1.
         -5    1    4    4    0  502  0.24340025908E+02  0.12344065062E+02  0.47103423158E+00  0.27697015664E+02  0.47000000000E+01 0.  1.
          5    1    5    5  503    0  0.12119296385E+02 -0.38637812120E+02  0.34264109822E+02  0.53252953836E+02  0.47000000000E+01 0.  1.
         -5    1    5    5    0  503 -0.41359404805E+02  0.79024783232E+02  0.16309277665E+03  0.18594854268E+03  0.47000000000E+01 0.  1.
<mgrwt>
<rscale>  0 0.27160806E+03</rscale>
<asrwt>0</asrwt>
<pdfrwt beam="1">  1        1 0.76229843E-01 0.27160806E+03</pdfrwt>
<pdfrwt beam="2">  1       -1 0.57262930E-02 0.27160806E+03</pdfrwt>
<totfact> 0.65195402E+03</totfact>
</mgrwt>
</event>
<event>
 9    1  0.7957670E-001  0.2818915E+03  0.7818608E-02  0.1094660E+00
          1   -1    0    0  501    0  0.00000000000E+00  0.00000000000E+00  0.33423000326E+03  0.33423000326E+03  0.00000000000E+00 0. -1.
         -1   -1    0    0    0  501 -0.00000000000E+00 -0.00000000000E+00 -0.59437241173E+02  0.59437241173E+02  0.00000000000E+00 0. -1.
         35    2    1    2    0    0  0.14210854715E-13 -0.35527136788E-14  0.27479276208E+03  0.39366724443E+03  0.28189153454E+03 0.  0.
         25    2    3    3    0    0 -0.64944857081E+02 -0.53073706019E+01  0.12230295026E+03  0.18629512384E+03  0.12450646120E+03 0.  0.
         25    2    3    3    0    0  0.64944857081E+02  0.53073706019E+01  0.15248981182E+03  0.20737212059E+03  0.12451526430E+03 0.  0.
          5    1    4    4  502    0 -0.26983140769E+02  0.55718711871E+02  0.29268034674E+02  0.68639439042E+02  0.47000000000E+01 0.  1.
         -5    1    4    4    0  502 -0.37961716312E+02 -0.61026082472E+02  0.93034915587E+02  0.11765568480E+03  0.47000000000E+01 0.  1.
          5    1    5    5  503    0  0.40175534693E+02  0.66957808794E+01 -0.10592957218E+02  0.42346284513E+02  0.47000000000E+01 0.  1.
         -5    1    5    5    0  503  0.24769322388E+02 -0.13884102775E+01  0.16308276904E+03  0.16502583608E+03  0.47000000000E+01 0.  1.
<mgrwt>
<rscale>  0 0.28189153E+03</rscale>
<asrwt>0</asrwt>
<pdfrwt beam="1">  1        1 0.51419999E-01 0.28189153E+03</pdfrwt>
<pdfrwt beam="2">  1       -1 0.91441911E-02 0.28189153E+03</pdfrwt>
<totfact> 0.53206110E+03</totfact>
</mgrwt>
</event>
<event>
 9    1  0.7957670E-001  0.2729365E+03  0.7818608E-02  0.1099611E+00
         -1   -1    0    0    0  501 -0.00000000000E+00  0.00000000000E+00  0.14210509135E+03  0.14210509135E+03  0.00000000000E+00 0. -1.
          1   -1    0    0  501    0  0.00000000000E+00 -0.00000000000E+00 -0.13105503511E+03  0.13105503511E+03  0.00000000000E+00 0. -1.
         35    2    1    2    0    0  0.71054273576E-14  0.00000000000E+00  0.11050056239E+02  0.27316012646E+03  0.27293653282E+03 0.  0.
         25    2    3    3    0    0 -0.28290820601E+02  0.45360338936E+02 -0.58649350467E+01  0.13635104126E+03  0.12529676018E+03 0.  0.
         25    2    3    3    0    0  0.28290820601E+02 -0.45360338936E+02  0.16914991285E+02  0.13680908520E+03  0.12479053644E+03 0.  0.
          5    1    4    4  502    0  0.37594361202E+02  0.30700724174E+02  0.32470368069E+02  0.58585708679E+02  0.47000000000E+01 0. -1.
         -5    1    4    4    0  502 -0.65885181803E+02  0.14659614762E+02 -0.38335303115E+02  0.77765332579E+02  0.47000000000E+01 0. -1.
          5    1    5    5  503    0  0.96182099367E+00 -0.85469062423E+02  0.13172205087E+01  0.85613730213E+02  0.47000000000E+01 0. -1.
         -5    1    5    5    0  503  0.27328999608E+02  0.40108723487E+02  0.15597770777E+02  0.51195354990E+02  0.47000000000E+01 0. -1.
<mgrwt>
<rscale>  0 0.27293653E+03</rscale>
<asrwt>0</asrwt>
<pdfrwt beam="1">  1        1 0.20162313E-01 0.27293653E+03</pdfrwt>
<pdfrwt beam="2">  1       -1 0.21862322E-01 0.27293653E+03</pdfrwt>
<totfact> 0.43706160E+03</totfact>
</mgrwt>
</event>
<event>
 9    1  0.7957670E-001  0.2784605E+03  0.7818608E-02  0.1096533E+00
          2   -1    0    0  501    0  0.00000000000E+00  0.00000000000E+00  0.57267486142E+02  0.57267486142E+02  0.00000000000E+00 0. -1.
         -2   -1    0    0    0  501 -0.00000000000E+00 -0.00000000000E+00 -0.33850028777E+03  0.33850028777E+03  0.00000000000E+00 0. -1.
         35    2    1    2    0    0  0.00000000000E+00  0.00000000000E+00 -0.28123280163E+03  0.39576777392E+03  0.27846048581E+03 0.  0.
         25    2    3    3    0    0  0.43801195536E+02 -0.41806059287E+02 -0.14946593089E+03  0.20439423100E+03  0.12558123206E+03 0.  0.
         25    2    3    3    0    0 -0.43801195536E+02  0.41806059287E+02 -0.13176687075E+03  0.19137354292E+03  0.12488007599E+03 0.  0.
          5    1    4    4  502    0 -0.38390876473E+02 -0.29995250293E-01 -0.79999578503E+02  0.88858780414E+02  0.47000000000E+01 0. -1.
         -5    1    4    4    0  502  0.82192072009E+02 -0.41776064036E+02 -0.69466352383E+02  0.11553545058E+03  0.47000000000E+01 0. -1.
          5    1    5    5  503    0  0.91018524809E+01 -0.38596817825E+02 -0.23087936641E+02  0.46127008175E+02  0.47000000000E+01 0. -1.
         -5    1    5    5    0  503 -0.52903048017E+02  0.80402877112E+02 -0.10867893410E+03  0.14524653475E+03  0.47000000000E+01 0. -1.
<mgrwt>
<rscale>  0 0.27846049E+03</rscale>
<asrwt>0</asrwt>
<pdfrwt beam="1">  1        2 0.88103825E-02 0.27846049E+03</pdfrwt>
<pdfrwt beam="2">  1       -2 0.52076967E-01 0.27846049E+03</pdfrwt>
<totfact> 0.26528080E+03</totfact>
</mgrwt>
</event>
<event>
 9    1  0.7957670E-001  0.2779353E+03  0.7818608E-02  0.1096822E+00
         -1   -1    0    0    0  501 -0.00000000000E+00  0.00000000000E+00  0.86407692693E+02  0.86407692693E+02  0.00000000000E+00 0.  1.
          1   -1    0    0  501    0  0.00000000000E+00 -0.00000000000E+00 -0.22349866124E+03  0.22349866124E+03  0.00000000000E+00 0.  1.
         35    2    1    2    0    0 -0.35527136788E-14 -0.35527136788E-14 -0.13709096855E+03  0.30990635394E+03  0.27793527044E+03 0.  0.
         25    2    3    3    0    0 -0.48812098791E+01 -0.24134851554E+02 -0.58998601142E+01  0.12713165892E+03  0.12458464223E+03 0.  0.
         25    2    3    3    0    0  0.48812098791E+01  0.24134851554E+02 -0.13119110844E+03  0.18277469502E+03  0.12485657747E+03 0.  0.
          5    1    4    4  502    0  0.52172418511E+00  0.48477792133E+02  0.15463435030E+02  0.51103584504E+02  0.47000000000E+01 0.  1.
         -5    1    4    4    0  502 -0.54029340642E+01 -0.72612643687E+02 -0.21363295144E+02  0.76028074415E+02  0.47000000000E+01 0.  1.
          5    1    5    5  503    0  0.54633416543E+02 -0.19039784890E+02 -0.41335540479E+02  0.71260371305E+02  0.47000000000E+01 0. -1.
         -5    1    5    5    0  503 -0.49752206664E+02  0.43174636445E+02 -0.89855567959E+02  0.11151432371E+03  0.47000000000E+01 0. -1.
<mgrwt>
<rscale>  0 0.27793527E+03</rscale>
<asrwt>0</asrwt>
<pdfrwt beam="1">  1        1 0.34384409E-01 0.27793527E+03</pdfrwt>
<pdfrwt beam="2">  1       -1 0.13293491E-01 0.27793527E+03</pdfrwt>
<totfact> 0.49302205E+03</totfact>
</mgrwt>
</event>
<event>
 9    1  0.7957670E-001  0.2736470E+03  0.7818608E-02  0.1099210E+00
         -1   -1    0    0    0  501 -0.00000000000E+00  0.00000000000E+00  0.12171315118E+03  0.12171315118E+03  0.00000000000E+00 0. -1.
          1   -1    0    0  501    0  0.00000000000E+00 -0.00000000000E+00 -0.15380973916E+03  0.15380973916E+03  0.00000000000E+00 0. -1.
         35    2    1    2    0    0  0.35527136788E-14  0.00000000000E+00 -0.32096587980E+02  0.27552289034E+03  0.27364698453E+03 0.  0.
         25    2    3    3    0    0  0.14689822799E+02 -0.17971929624E+02 -0.70230164347E+02  0.14255908843E+03  0.12186893189E+03 0.  0.
         25    2    3    3    0    0 -0.14689822799E+02  0.17971929624E+02  0.38133576367E+02  0.13296380192E+03  0.12524544633E+03 0.  0.
          5    1    4    4  502    0  0.50632371014E+02 -0.50267926708E+02 -0.23739493130E+02  0.75340261375E+02  0.47000000000E+01 0.  1.
         -5    1    4    4    0  502 -0.35942548215E+02  0.32295997084E+02 -0.46490671217E+02  0.67218827051E+02  0.47000000000E+01 0.  1.
          5    1    5    5  503    0  0.17025377588E+02  0.32738537609E+02 -0.35428755342E+02  0.51370828608E+02  0.47000000000E+01 0.  1.
         -5    1    5    5    0  503 -0.31715200387E+02 -0.14766607986E+02  0.73562331709E+02  0.81592973309E+02  0.47000000000E+01 0.  1.
<mgrwt>
<rscale>  0 0.27364698E+03</rscale>
<asrwt>0</asrwt>
<pdfrwt beam="1">  1        1 0.23663037E-01 0.27364698E+03</pdfrwt>
<pdfrwt beam="2">  1       -1 0.18725100E-01 0.27364698E+03</pdfrwt>
<totfact> 0.45807197E+03</totfact>
</mgrwt>
</event>
<event>
 9    1  0.7957670E-001  0.2778378E+03  0.7818608E-02  0.1096876E+00
          2   -1    0    0  501    0  0.00000000000E+00  0.00000000000E+00  0.50410615423E+03  0.50410615423E+03  0.00000000000E+00 0. -1.
         -2   -1    0    0    0  501 -0.00000000000E+00 -0.00000000000E+00 -0.38282539380E+02  0.38282539380E+02  0.00000000000E+00 0. -1.
         35    2    1    2    0    0  0.00000000000E+00 -0.71054273576E-14  0.46582361485E+03  0.54238869361E+03  0.27783782105E+03 0.  0.
         25    2    3    3    0    0 -0.43775853579E+02 -0.38725591872E+02  0.20474433755E+03  0.24741831380E+03  0.12601421120E+03 0.  0.
         25    2    3    3    0    0  0.43775853579E+02  0.38725591872E+02  0.26107927729E+03  0.29497037980E+03  0.12421408578E+03 0.  0.
          5    1    4    4  502    0 -0.86861827968E+01  0.38974379740E+02  0.12224976156E+03  0.12869167125E+03  0.47000000000E+01 0.  1.
         -5    1    4    4    0  502 -0.35089670782E+02 -0.77699971612E+02  0.82494575993E+02  0.11872664256E+03  0.47000000000E+01 0.  1.
          5    1    5    5  503    0  0.22096222935E+02 -0.31293342737E+02  0.18591147819E+03  0.18987544362E+03  0.47000000000E+01 0.  1.
         -5    1    5    5    0  503  0.21679630644E+02  0.70018934609E+02  0.75167799102E+02  0.10509493618E+03  0.47000000000E+01 0.  1.
<mgrwt>
<rscale>  0 0.27783782E+03</rscale>
<asrwt>0</asrwt>
<pdfrwt beam="1">  1        2 0.77554788E-01 0.27783782E+03</pdfrwt>
<pdfrwt beam="2">  1       -2 0.58896218E-02 0.27783782E+03</pdfrwt>
<totfact> 0.93453460E+03</totfact>
</mgrwt>
</event>
<event>
 9    1  0.7957670E-001  0.2826653E+03  0.7818608E-02  0.1094242E+00
          1   -1    0    0  501    0  0.00000000000E+00  0.00000000000E+00  0.53549535447E+02  0.53549535447E+02  0.00000000000E+00 0. -1.
         -1   -1    0    0    0  501 -0.00000000000E+00 -0.00000000000E+00 -0.37301744573E+03  0.37301744573E+03  0.00000000000E+00 0. -1.
         35    2    1    2    0    0 -0.71054273576E-14  0.00000000000E+00 -0.31946791028E+03  0.42656698117E+03  0.28266525030E+03 0.  0.
         25    2    3    3    0    0 -0.36227542151E+02  0.55734859655E+02 -0.16468581975E+03  0.21695292027E+03  0.12461276418E+03 0.  0.
         25    2    3    3    0    0  0.36227542151E+02 -0.55734859655E+02 -0.15478209053E+03  0.20961406090E+03  0.12474674179E+03 0.  0.
          5    1    4    4  502    0 -0.51339884804E+02  0.23903845697E+02 -0.17157703812E+03  0.18074276644E+03  0.47000000000E+01 0. -1.
         -5    1    4    4    0  502  0.15112342653E+02  0.31831013958E+02  0.68912183689E+01  0.36210153834E+02  0.47000000000E+01 0. -1.
          5    1    5    5  503    0 -0.17482999751E+02  0.47500593831E+01 -0.11997726474E+03  0.12142838383E+03  0.47000000000E+01 0.  1.
         -5    1    5    5    0  503  0.53710541902E+02 -0.60484919038E+02 -0.34804825789E+02  0.88185677071E+02  0.47000000000E+01 0.  1.
<mgrwt>
<rscale>  0 0.28266525E+03</rscale>
<asrwt>0</asrwt>
<pdfrwt beam="1">  1        1 0.82383904E-02 0.28266525E+03</pdfrwt>
<pdfrwt beam="2">  1       -1 0.57387297E-01 0.28266525E+03</pdfrwt>
<totfact> 0.26395700E+03</totfact>
</mgrwt>
</event>
<event>
 9    1  0.7957670E-001  0.2721836E+03  0.7818608E-02  0.1100036E+00
         -3   -1    0    0    0  501 -0.00000000000E+00  0.00000000000E+00  0.68224490920E+03  0.68224490920E+03  0.00000000000E+00 0.  1.
          3   -1    0    0  501    0  0.00000000000E+00 -0.00000000000E+00 -0.27147119559E+02  0.27147119559E+02  0.00000000000E+00 0.  1.
         35    2    1    2    0    0  0.35527136788E-14 -0.35527136788E-14  0.65509778964E+03  0.70939202876E+03  0.27218364476E+03 0.  0.
         25    2    3    3    0    0  0.31966462425E+02 -0.10443989844E+02  0.21806619730E+03  0.25368860092E+03  0.12519627864E+03 0.  0.
         25    2    3    3    0    0 -0.31966462425E+02  0.10443989844E+02  0.43703159234E+03  0.45570342784E+03  0.12465179421E+03 0.  0.
          5    1    4    4  502    0  0.26762104929E+02  0.22590468049E+02  0.21704498504E+03  0.21990260353E+03  0.47000000000E+01 0. -1.
         -5    1    4    4    0  502  0.52043574959E+01 -0.33034457893E+02  0.10212122608E+01  0.33785997391E+02  0.47000000000E+01 0. -1.
          5    1    5    5  503    0 -0.36960801712E+02 -0.53219214223E+02  0.22957322779E+03  0.23858822801E+03  0.47000000000E+01 0. -1.
         -5    1    5    5    0  503  0.49943392870E+01  0.63663204067E+02  0.20745836455E+03  0.21711519983E+03  0.47000000000E+01 0. -1.
<mgrwt>
<rscale>  0 0.27218364E+03</rscale>
<asrwt>0</asrwt>
<pdfrwt beam="1">  1        3 0.41764804E-02 0.27218364E+03</pdfrwt>
<pdfrwt beam="2">  1       -3 0.10496074E+00 0.27218364E+03</pdfrwt>
<totfact> 0.62225971E+02</totfact>
</mgrwt>
</event>
<event>
 9    1  0.7957670E-001  0.2749753E+03  0.7818608E-02  0.1098465E+00
         -2   -1    0    0    0  501 -0.00000000000E+00  0.00000000000E+00  0.16351901179E+03  0.16351901179E+03  0.00000000000E+00 0. -1.
          2   -1    0    0  501    0  0.00000000000E+00 -0.00000000000E+00 -0.11560037473E+03  0.11560037473E+03  0.00000000000E+00 0. -1.
         35    2    1    2    0    0  0.00000000000E+00  0.00000000000E+00  0.47918637065E+02  0.27911938652E+03  0.27497533735E+03 0.  0.
         25    2    3    3    0    0  0.22165522154E+02  0.65053988780E+02  0.78659516090E+01  0.13831427091E+03  0.11977325458E+03 0.  0.
         25    2    3    3    0    0 -0.22165522154E+02 -0.65053988780E+02  0.40052685456E+02  0.14080511561E+03  0.11618317925E+03 0.  0.
          5    1    4    4  502    0 -0.31453475130E+00  0.36522834681E+02  0.62498335175E+02  0.72540666422E+02  0.47000000000E+01 0.  1.
         -5    1    4    4    0  502  0.22480056905E+02  0.28531154099E+02 -0.54632383566E+02  0.65773604484E+02  0.47000000000E+01 0.  1.
          5    1    5    5  503    0  0.14093796145E+02  0.27009208675E+01  0.59508318935E+02  0.61394300108E+02  0.47000000000E+01 0. -1.
         -5    1    5    5    0  503 -0.36259318298E+02 -0.67754909648E+02 -0.19455633479E+02  0.79410815503E+02  0.47000000000E+01 0. -1.
<mgrwt>
<rscale>  0 0.27497534E+03</rscale>
<asrwt>0</asrwt>
<pdfrwt beam="1">  1        2 0.17784673E-01 0.27497534E+03</pdfrwt>
<pdfrwt beam="2">  1       -2 0.25156771E-01 0.27497534E+03</pdfrwt>
<totfact> 0.44484742E+03</totfact>
</mgrwt>
</event>
<event>
 9    1  0.7957670E-001  0.2750004E+03  0.7818608E-02  0.1098451E+00
          2   -1    0    0  501    0  0.00000000000E+00  0.00000000000E+00  0.38165162356E+04  0.38165162356E+04  0.00000000000E+00 0.  1.
         -2   -1    0    0    0  501 -0.00000000000E+00 -0.00000000000E+00 -0.49538121175E+01  0.49538121175E+01  0.00000000000E+00 0.  1.
         35    2    1    2    0    0  0.00000000000E+00  0.00000000000E+00  0.38115624235E+04  0.38214700477E+04  0.27500039545E+03 0.  0.
         25    2    3    3    0    0  0.29461781945E+02 -0.12647116878E+02  0.26197043038E+04  0.26228580175E+04  0.12452146134E+03 0.  0.
         25    2    3    3    0    0 -0.29461781945E+02  0.12647116878E+02  0.11918581197E+04  0.11986120303E+04  0.12295151655E+03 0.  0.
          5    1    4    4  502    0 -0.60265793510E+01  0.97692575201E+01  0.25971848921E+02  0.28781677983E+02  0.47000000000E+01 0. -1.
         -5    1    4    4    0  502  0.35488361296E+02 -0.22416374398E+02  0.25937324549E+04  0.25940763395E+04  0.47000000000E+01 0. -1.
          5    1    5    5  503    0  0.40943509032E+02 -0.51672672749E+01  0.71775615941E+03  0.71895692913E+03  0.47000000000E+01 0. -1.
         -5    1    5    5    0  503 -0.70405290977E+02  0.17814384153E+02  0.47410196029E+03  0.47965510112E+03  0.47000000000E+01 0. -1.
<mgrwt>
<rscale>  0 0.27500040E+03</rscale>
<asrwt>0</asrwt>
<pdfrwt beam="1">  1        2 0.58715399E+00 0.27500040E+03</pdfrwt>
<pdfrwt beam="2">  1       -2 0.76212799E-03 0.27500040E+03</pdfrwt>
<totfact> 0.19368588E+03</totfact>
</mgrwt>
</event>
<event>
 9    1  0.7957670E-001  0.2778392E+03  0.7818608E-02  0.1096875E+00
          1   -1    0    0  501    0  0.00000000000E+00  0.00000000000E+00  0.50024169946E+03  0.50024169946E+03  0.00000000000E+00 0. -1.
         -1   -1    0    0    0  501 -0.00000000000E+00 -0.00000000000E+00 -0.38578665709E+02  0.38578665709E+02  0.00000000000E+00 0. -1.
         35    2    1    2    0    0  0.71054273576E-14 -0.17763568394E-14  0.46166303375E+03  0.53882036516E+03  0.27783921463E+03 0.  0.
         25    2    3    3    0    0 -0.67002468491E+01  0.75095539856E+00  0.14314395099E+03  0.19640659209E+03  0.13431270033E+03 0.  0.
         25    2    3    3    0    0  0.67002468491E+01 -0.75095539856E+00  0.31851908276E+03  0.34241377307E+03  0.12548836068E+03 0.  0.
          5    1    4    4  502    0  0.17889009057E+02  0.48556317539E+02  0.13123165719E+03  0.14114379358E+03  0.47000000000E+01 0. -1.
         -5    1    4    4    0  502 -0.24589255906E+02 -0.47805362140E+02  0.11912293797E+02  0.55262798507E+02  0.47000000000E+01 0. -1.
          5    1    5    5  503    0 -0.42136263607E+02  0.12369466819E+02  0.26491709222E+03  0.26857331247E+03  0.47000000000E+01 0.  1.
         -5    1    5    5    0  503  0.48836510456E+02 -0.13120422217E+02  0.53601990542E+02  0.73840460608E+02  0.47000000000E+01 0.  1.
<mgrwt>
<rscale>  0 0.27783921E+03</rscale>
<asrwt>0</asrwt>
<pdfrwt beam="1">  1        1 0.76960257E-01 0.27783921E+03</pdfrwt>
<pdfrwt beam="2">  1       -1 0.59351797E-02 0.27783921E+03</pdfrwt>
<totfact> 0.61035174E+03</totfact>
</mgrwt>
</event>
<event>
 9    1  0.7957670E-001  0.2746644E+03  0.7818608E-02  0.1098639E+00
         -2   -1    0    0    0  501 -0.00000000000E+00  0.00000000000E+00  0.81782519554E+02  0.81782519554E+02  0.00000000000E+00 0. -1.
          2   -1    0    0  501    0  0.00000000000E+00 -0.00000000000E+00 -0.23061331906E+03  0.23061331906E+03  0.00000000000E+00 0. -1.
         35    2    1    2    0    0 -0.71054273576E-14  0.00000000000E+00 -0.14883079951E+03  0.31239583862E+03  0.27466443727E+03 0.  0.
         25    2    3    3    0    0 -0.22542053600E+02 -0.48108076410E+02 -0.59927530061E+02  0.14994444518E+03  0.12676551812E+03 0.  0.
         25    2    3    3    0    0  0.22542053600E+02  0.48108076410E+02 -0.88903269450E+02  0.16245139344E+03  0.12515643298E+03 0.  0.
          5    1    4    4  502    0  0.31601701827E+02 -0.57291852823E+02  0.37751084342E+01  0.65706661778E+02  0.47000000000E+01 0.  1.
         -5    1    4    4    0  502 -0.54143755427E+02  0.91837764135E+01 -0.63702638495E+02  0.84237783400E+02  0.47000000000E+01 0.  1.
          5    1    5    5  503    0  0.67523746743E+02  0.35675933181E+02 -0.86502343299E+02  0.11548581722E+03  0.47000000000E+01 0.  1.
         -5    1    5    5    0  503 -0.44981693144E+02  0.12432143229E+02 -0.24009261506E+01  0.46965576220E+02  0.47000000000E+01 0.  1.
<mgrwt>
<rscale>  0 0.27466444E+03</rscale>
<asrwt>0</asrwt>
<pdfrwt beam="1">  1        2 0.35478972E-01 0.27466444E+03</pdfrwt>
<pdfrwt beam="2">  1       -2 0.12581926E-01 0.27466444E+03</pdfrwt>
<totfact> 0.66167826E+03</totfact>
</mgrwt>
</event>
<event>
 9    1  0.7957670E-001  0.2782076E+03  0.7818608E-02  0.1096672E+00
         -2   -1    0    0    0  501 -0.00000000000E+00  0.00000000000E+00  0.40201529258E+02  0.40201529258E+02  0.00000000000E+00 0.  1.
          2   -1    0    0  501    0  0.00000000000E+00 -0.00000000000E+00 -0.48132174469E+03  0.48132174469E+03  0.00000000000E+00 0.  1.
         35    2    1    2    0    0  0.17763568394E-14  0.71054273576E-14 -0.44112021543E+03  0.52152327395E+03  0.27820762176E+03 0.  0.
         25    2    3    3    0    0  0.64245488591E+01  0.10639917983E+02 -0.33243051919E+03  0.35550007065E+03  0.12536254410E+03 0.  0.
         25    2    3    3    0    0 -0.64245488591E+01 -0.10639917983E+02 -0.10868969624E+03  0.16602320330E+03  0.12488303040E+03 0.  0.
          5    1    4    4  502    0 -0.10793617294E+00 -0.57305228934E+02 -0.14637553305E+03  0.15726343373E+03  0.47000000000E+01 0. -1.
         -5    1    4    4    0  502  0.65324850320E+01  0.67945146916E+02 -0.18605498614E+03  0.19823663692E+03  0.47000000000E+01 0. -1.
          5    1    5    5  503    0 -0.25409038376E+02  0.52111465201E+02 -0.37901574202E+02  0.69425091743E+02  0.47000000000E+01 0.  1.
         -5    1    5    5    0  503  0.18984489517E+02 -0.62751383183E+02 -0.70788122041E+02  0.96598111554E+02  0.47000000000E+01 0.  1.
<mgrwt>
<rscale>  0 0.27820762E+03</rscale>
<asrwt>0</asrwt>
<pdfrwt beam="1">  1        2 0.74049495E-01 0.27820762E+03</pdfrwt>
<pdfrwt beam="2">  1       -2 0.61848510E-02 0.27820762E+03</pdfrwt>
<totfact> 0.91292470E+03</totfact>
</mgrwt>
</event>
<event>
 9    1  0.7957670E-001  0.2767676E+03  0.7818608E-02  0.1097468E+00
         -2   -1    0    0    0  501 -0.00000000000E+00  0.00000000000E+00  0.15723481306E+02  0.15723481306E+02  0.00000000000E+00 0.  1.
          2   -1    0    0  501    0  0.00000000000E+00 -0.00000000000E+00 -0.12179288308E+04  0.12179288308E+04  0.00000000000E+00 0.  1.
         35    2    1    2    0    0  0.14210854715E-13  0.00000000000E+00 -0.12022053495E+04  0.12336523121E+04  0.27676763686E+03 0.  0.
         25    2    3    3    0    0  0.57324849184E+02  0.85688251094E+01 -0.54285464414E+03  0.56009170063E+03  0.12510789485E+03 0.  0.
         25    2    3    3    0    0 -0.57324849184E+02 -0.85688251094E+01 -0.65935070536E+03  0.67356061148E+03  0.12482380215E+03 0.  0.
          5    1    4    4  502    0  0.77769330996E+02 -0.34139578533E+02 -0.26883466304E+03  0.28197117888E+03  0.47000000000E+01 0. -1.
         -5    1    4    4    0  502 -0.20444481812E+02  0.42708403643E+02 -0.27401998110E+03  0.27812052175E+03  0.47000000000E+01 0. -1.
          5    1    5    5  503    0  0.19231612613E+02  0.41474899429E+02 -0.20932250143E+03  0.21430824018E+03  0.47000000000E+01 0.  1.
         -5    1    5    5    0  503 -0.76556461797E+02 -0.50043724539E+02 -0.45002820393E+03  0.45925237130E+03  0.47000000000E+01 0.  1.
<mgrwt>
<rscale>  0 0.27676764E+03</rscale>
<asrwt>0</asrwt>
<pdfrwt beam="1">  1        2 0.18737367E+00 0.27676764E+03</pdfrwt>
<pdfrwt beam="2">  1       -2 0.24189970E-02 0.27676764E+03</pdfrwt>
<totfact> 0.11377520E+04</totfact>
</mgrwt>
</event>
<event>
 9    1  0.7957670E-001  0.2738619E+03  0.7818608E-02  0.1099089E+00
          2   -1    0    0  501    0  0.00000000000E+00  0.00000000000E+00  0.29998625919E+03  0.29998625919E+03  0.00000000000E+00 0.  1.
         -2   -1    0    0    0  501 -0.00000000000E+00 -0.00000000000E+00 -0.62503145564E+02  0.62503145564E+02  0.00000000000E+00 0.  1.
         35    2    1    2    0    0  0.00000000000E+00  0.71054273576E-14  0.23748311362E+03  0.36248940475E+03  0.27386189823E+03 0.  0.
         25    2    3    3    0    0 -0.32233764895E+02  0.19773772683E+02  0.76269817593E+02  0.15367307078E+03  0.12793869596E+03 0.  0.
         25    2    3    3    0    0  0.32233764895E+02 -0.19773772683E+02  0.16121329603E+03  0.20881633397E+03  0.12721838244E+03 0.  0.
          5    1    4    4  502    0 -0.20966328315E+02  0.73452223233E-01  0.11037016890E+03  0.11244223629E+03  0.47000000000E+01 0. -1.
         -5    1    4    4    0  502 -0.11267436580E+02  0.19700320460E+02 -0.34100351312E+02  0.41230834492E+02  0.47000000000E+01 0. -1.
          5    1    5    5  503    0 -0.39057355915E+02 -0.40400931971E+02  0.87591685199E+02  0.10417344034E+03  0.47000000000E+01 0. -1.
         -5    1    5    5    0  503  0.71291120810E+02  0.20627159288E+02  0.73621610832E+02  0.10464289363E+03  0.47000000000E+01 0. -1.
<mgrwt>
<rscale>  0 0.27386190E+03</rscale>
<asrwt>0</asrwt>
<pdfrwt beam="1">  1        2 0.46151731E-01 0.27386190E+03</pdfrwt>
<pdfrwt beam="2">  1       -2 0.96158687E-02 0.27386190E+03</pdfrwt>
<totfact> 0.76649009E+03</totfact>
</mgrwt>
</event>
<event>
 9    1  0.7957670E-001  0.2750244E+03  0.7818608E-02  0.1098438E+00
         -1   -1    0    0    0  501 -0.00000000000E+00  0.00000000000E+00  0.73012700503E+02  0.73012700503E+02  0.00000000000E+00 0.  1.
          1   -1    0    0  501    0  0.00000000000E+00 -0.00000000000E+00 -0.25899063446E+03  0.25899063446E+03  0.00000000000E+00 0.  1.
         35    2    1    2    0    0  0.71054273576E-14  0.00000000000E+00 -0.18597793395E+03  0.33200333496E+03  0.27502440348E+03 0.  0.
         25    2    3    3    0    0  0.39903843456E+02 -0.43812218230E+02 -0.88450418299E+02  0.16415957922E+03  0.12495224593E+03 0.  0.
         25    2    3    3    0    0 -0.39903843456E+02  0.43812218230E+02 -0.97527515655E+02  0.16784375574E+03  0.12307754809E+03 0.  0.
          5    1    4    4  502    0  0.47830469908E+02  0.23382229215E+02 -0.79431858157E+02  0.95739190434E+02  0.47000000000E+01 0. -1.
         -5    1    4    4    0  502 -0.79266264521E+01 -0.67194447445E+02 -0.90185601425E+01  0.68420388785E+02  0.47000000000E+01 0. -1.
          5    1    5    5  503    0 -0.32894245999E+02 -0.36861124045E+02 -0.14343281489E+02  0.51658432124E+02  0.47000000000E+01 0. -1.
         -5    1    5    5    0  503 -0.70095974573E+01  0.80673342275E+02 -0.83184234166E+02  0.11618532362E+03  0.47000000000E+01 0. -1.
<mgrwt>
<rscale>  0 0.27502440E+03</rscale>
<asrwt>0</asrwt>
<pdfrwt beam="1">  1        1 0.39844713E-01 0.27502440E+03</pdfrwt>
<pdfrwt beam="2">  1       -1 0.11232723E-01 0.27502440E+03</pdfrwt>
<totfact> 0.53303076E+03</totfact>
</mgrwt>
</event>
<event>
 9    1  0.7957670E-001  0.2737775E+03  0.7818608E-02  0.1099137E+00
          1   -1    0    0  501    0  0.00000000000E+00  0.00000000000E+00  0.26884262056E+03  0.26884262056E+03  0.00000000000E+00 0.  1.
         -1   -1    0    0    0  501 -0.00000000000E+00 -0.00000000000E+00 -0.69700731416E+02  0.69700731416E+02  0.00000000000E+00 0.  1.
         35    2    1    2    0    0  0.00000000000E+00 -0.71054273576E-14  0.19914188914E+03  0.33854335198E+03  0.27377748110E+03 0.  0.
         25    2    3    3    0    0 -0.11946697072E+02  0.22457555062E+02  0.16537004866E+03  0.20640434697E+03  0.12086536354E+03 0.  0.
         25    2    3    3    0    0  0.11946697072E+02 -0.22457555062E+02  0.33771840483E+02  0.13213900501E+03  0.12519230841E+03 0.  0.
          5    1    4    4  502    0 -0.14374124886E+02 -0.41169970891E+02  0.12086442569E+03  0.12857636395E+03  0.47000000000E+01 0.  1.
         -5    1    4    4    0  502  0.24274278138E+01  0.63627525954E+02  0.44505622975E+02  0.77827983022E+02  0.47000000000E+01 0.  1.
          5    1    5    5  503    0  0.15484744236E+02  0.48361779875E+02  0.33607964847E+02  0.61075562691E+02  0.47000000000E+01 0. -1.
         -5    1    5    5    0  503 -0.35380471644E+01 -0.70819334938E+02  0.16387563519E+00  0.71063442317E+02  0.47000000000E+01 0. -1.
<mgrwt>
<rscale>  0 0.27377748E+03</rscale>
<asrwt>0</asrwt>
<pdfrwt beam="1">  1        1 0.41360403E-01 0.27377748E+03</pdfrwt>
<pdfrwt beam="2">  1       -1 0.10723190E-01 0.27377748E+03</pdfrwt>
<totfact> 0.54660404E+03</totfact>
</mgrwt>
</event>
<event>
 9    1  0.7957670E-001  0.2733555E+03  0.7818608E-02  0.1099374E+00
          2   -1    0    0  501    0  0.00000000000E+00  0.00000000000E+00  0.15735822037E+03  0.15735822037E+03  0.00000000000E+00 0.  1.
         -2   -1    0    0    0  501 -0.00000000000E+00 -0.00000000000E+00 -0.11871518816E+03  0.11871518816E+03  0.00000000000E+00 0.  1.
         35    2    1    2    0    0 -0.17763568394E-14 -0.14210854715E-13  0.38643032214E+02  0.27607340853E+03  0.27335552483E+03 0.  0.
         25    2    3    3    0    0 -0.71085614767E+00 -0.54738024459E+02  0.14000893956E+02  0.13757736463E+03  0.12543823017E+03 0.  0.
         25    2    3    3    0    0  0.71085614767E+00  0.54738024459E+02  0.24642138257E+02  0.13849604390E+03  0.12480850356E+03 0.  0.
          5    1    4    4  502    0 -0.20938076639E+02 -0.91720513420E+02  0.13505465441E+02  0.95160618074E+02  0.47000000000E+01 0. -1.
         -5    1    4    4    0  502  0.20227220492E+02  0.36982488962E+02  0.49542851576E+00  0.42416746552E+02  0.47000000000E+01 0. -1.
          5    1    5    5  503    0  0.96092330399E+01 -0.33053207477E+02  0.35253636992E+02  0.49495058393E+02  0.47000000000E+01 0.  1.
         -5    1    5    5    0  503 -0.88983768922E+01  0.87791231936E+02 -0.10611498734E+02  0.89000985509E+02  0.47000000000E+01 0.  1.
<mgrwt>
<rscale>  0 0.27335552E+03</rscale>
<asrwt>0</asrwt>
<pdfrwt beam="1">  1        2 0.24208957E-01 0.27335552E+03</pdfrwt>
<pdfrwt beam="2">  1       -2 0.18263875E-01 0.27335552E+03</pdfrwt>
<totfact> 0.54390276E+03</totfact>
</mgrwt>
</event>
<event>
 9    1  0.7957670E-001  0.2776677E+03  0.7818608E-02  0.1096970E+00
         -1   -1    0    0    0  501 -0.00000000000E+00  0.00000000000E+00  0.10389875124E+03  0.10389875124E+03  0.00000000000E+00 0.  1.
          1   -1    0    0  501    0  0.00000000000E+00 -0.00000000000E+00 -0.18551558148E+03  0.18551558148E+03  0.00000000000E+00 0.  1.
         35    2    1    2    0    0  0.35527136788E-14 -0.71054273576E-14 -0.81616830244E+02  0.28941433272E+03  0.27766769528E+03 0.  0.
         25    2    3    3    0    0  0.51111151107E+01 -0.42717243515E+02 -0.83068397990E+02  0.15658378679E+03  0.12556765965E+03 0.  0.
         25    2    3    3    0    0 -0.51111151107E+01  0.42717243515E+02  0.14515677466E+01  0.13283054593E+03  0.12566208852E+03 0.  0.
          5    1    4    4  502    0  0.23401846227E+02  0.40466024990E+02 -0.35765397074E+02  0.59045738316E+02  0.47000000000E+01 0. -1.
         -5    1    4    4    0  502 -0.18290731116E+02 -0.83183268505E+02 -0.47303000916E+02  0.97538048472E+02  0.47000000000E+01 0. -1.
          5    1    5    5  503    0  0.38449406008E+02 -0.28272276140E+02  0.99506100144E+01  0.48977372940E+02  0.47000000000E+01 0.  1.
         -5    1    5    5    0  503 -0.43560521118E+02  0.70989519655E+02 -0.84990422678E+01  0.83853172989E+02  0.47000000000E+01 0.  1.
<mgrwt>
<rscale>  0 0.27766770E+03</rscale>
<asrwt>0</asrwt>
<pdfrwt beam="1">  1        1 0.28540859E-01 0.27766770E+03</pdfrwt>
<pdfrwt beam="2">  1       -1 0.15984423E-01 0.27766770E+03</pdfrwt>
<totfact> 0.46561351E+03</totfact>
</mgrwt>
</event>
<event>
 9    1  0.7957670E-001  0.2746669E+03  0.7818608E-02  0.1098638E+00
         -2   -1    0    0    0  501 -0.00000000000E+00  0.00000000000E+00  0.26385819393E+02  0.26385819393E+02  0.00000000000E+00 0.  1.
          2   -1    0    0  501    0  0.00000000000E+00 -0.00000000000E+00 -0.71479611804E+03  0.71479611804E+03  0.00000000000E+00 0.  1.
         35    2    1    2    0    0  0.00000000000E+00  0.35527136788E-14 -0.68841029864E+03  0.74118193743E+03  0.27466693484E+03 0.  0.
         25    2    3    3    0    0 -0.30183544878E+02 -0.11815371021E+02 -0.47928730952E+03  0.49651099852E+03  0.12552369181E+03 0.  0.
         25    2    3    3    0    0  0.30183544878E+02  0.11815371021E+02 -0.20912298912E+03  0.24467093891E+03  0.12280388592E+03 0.  0.
          5    1    4    4  502    0 -0.15774026661E+02 -0.11653284832E+02 -0.48085037615E+03  0.48127309628E+03  0.47000000000E+01 0. -1.
         -5    1    4    4    0  502 -0.14409518218E+02 -0.16208618902E+00  0.15630666256E+01  0.15237902233E+02  0.47000000000E+01 0. -1.
          5    1    5    5  503    0  0.53343524286E+02  0.45811558939E+02 -0.69263179342E+02  0.98811479739E+02  0.47000000000E+01 0. -1.
         -5    1    5    5    0  503 -0.23159979407E+02 -0.33996187918E+02 -0.13985980978E+03  0.14585945917E+03  0.47000000000E+01 0. -1.
<mgrwt>
<rscale>  0 0.27466693E+03</rscale>
<asrwt>0</asrwt>
<pdfrwt beam="1">  1        2 0.10996863E+00 0.27466693E+03</pdfrwt>
<pdfrwt beam="2">  1       -2 0.40593568E-02 0.27466693E+03</pdfrwt>
<totfact> 0.10943384E+04</totfact>
</mgrwt>
</event>
<event>
 9    1  0.7957670E-001  0.2735060E+03  0.7818608E-02  0.1099290E+00
          2   -1    0    0  501    0  0.00000000000E+00  0.00000000000E+00  0.75637452525E+03  0.75637452525E+03  0.00000000000E+00 0. -1.
         -2   -1    0    0    0  501 -0.00000000000E+00 -0.00000000000E+00 -0.24725037575E+02  0.24725037575E+02  0.00000000000E+00 0. -1.
         35    2    1    2    0    0 -0.71054273576E-14  0.00000000000E+00  0.73164948768E+03  0.78109956283E+03  0.27350604057E+03 0.  0.
         25    2    3    3    0    0  0.53593849228E+02  0.83643478282E+01  0.34568093547E+03  0.37181015684E+03  0.12571881559E+03 0.  0.
         25    2    3    3    0    0 -0.53593849228E+02 -0.83643478282E+01  0.38596855220E+03  0.40928940598E+03  0.12491529759E+03 0.  0.
          5    1    4    4  502    0  0.69507703959E+02 -0.43041667227E+02  0.18565901142E+03  0.20291689074E+03  0.47000000000E+01 0.  1.
         -5    1    4    4    0  502 -0.15913854731E+02  0.51406015055E+02  0.16002192406E+03  0.16889326610E+03  0.47000000000E+01 0.  1.
          5    1    5    5  503    0 -0.60131555175E+02 -0.50498202569E+02  0.14920759479E+03  0.16867385314E+03  0.47000000000E+01 0.  1.
         -5    1    5    5    0  503  0.65377059474E+01  0.42133854741E+02  0.23676095741E+03  0.24061555284E+03  0.47000000000E+01 0.  1.
<mgrwt>
<rscale>  0 0.27350604E+03</rscale>
<asrwt>0</asrwt>
<pdfrwt beam="1">  1        2 0.11636529E+00 0.27350604E+03</pdfrwt>
<pdfrwt beam="2">  1       -2 0.38038525E-02 0.27350604E+03</pdfrwt>
<totfact> 0.11252021E+04</totfact>
</mgrwt>
</event>
<event>
 9    1  0.7957670E-001  0.2766184E+03  0.7818608E-02  0.1097550E+00
          1   -1    0    0  501    0  0.00000000000E+00  0.00000000000E+00  0.65587996323E+03  0.65587996323E+03  0.00000000000E+00 0. -1.
         -1   -1    0    0    0  501 -0.00000000000E+00 -0.00000000000E+00 -0.29166070186E+02  0.29166070186E+02  0.00000000000E+00 0. -1.
         35    2    1    2    0    0  0.00000000000E+00  0.00000000000E+00  0.62671389305E+03  0.68504603342E+03  0.27661844509E+03 0.  0.
         25    2    3    3    0    0 -0.47806351052E+02 -0.34786879881E+02  0.33836084399E+03  0.36526613813E+03  0.12424055983E+03 0.  0.
         25    2    3    3    0    0  0.47806351052E+02  0.34786879881E+02  0.28835304906E+03  0.31977989529E+03  0.12496450023E+03 0.  0.
          5    1    4    4  502    0 -0.36503741571E+01  0.37304752622E+02  0.19617747189E+03  0.19978153137E+03  0.47000000000E+01 0. -1.
         -5    1    4    4    0  502 -0.44155976895E+02 -0.72091632504E+02  0.14218337210E+03  0.16548460676E+03  0.47000000000E+01 0. -1.
          5    1    5    5  503    0  0.58188839239E+01  0.57013003933E+02  0.48506332914E+02  0.75228294945E+02  0.47000000000E+01 0.  1.
         -5    1    5    5    0  503  0.41987467128E+02 -0.22226124052E+02  0.23984671614E+03  0.24455160034E+03  0.47000000000E+01 0.  1.
<mgrwt>
<rscale>  0 0.27661845E+03</rscale>
<asrwt>0</asrwt>
<pdfrwt beam="1">  1        1 0.10090460E+00 0.27661845E+03</pdfrwt>
<pdfrwt beam="2">  1       -1 0.44870882E-02 0.27661845E+03</pdfrwt>
<totfact> 0.63991523E+03</totfact>
</mgrwt>
</event>
<event>
 9    1  0.7957670E-001  0.2818384E+03  0.7818608E-02  0.1094689E+00
          2   -1    0    0  501    0  0.00000000000E+00  0.00000000000E+00  0.36475574246E+02  0.36475574246E+02  0.00000000000E+00 0.  1.
         -2   -1    0    0    0  501 -0.00000000000E+00 -0.00000000000E+00 -0.54442505902E+03  0.54442505902E+03  0.00000000000E+00 0.  1.
         35    2    1    2    0    0  0.35527136788E-14  0.00000000000E+00 -0.50794948477E+03  0.58090063327E+03  0.28183836972E+03 0.  0.
         25    2    3    3    0    0 -0.11551851977E+02 -0.63645358442E+02 -0.29067145401E+03  0.32212260057E+03  0.12283687836E+03 0.  0.
         25    2    3    3    0    0  0.11551851977E+02  0.63645358442E+02 -0.21727803076E+03  0.25877803270E+03  0.12478842342E+03 0.  0.
          5    1    4    4  502    0 -0.61668804257E+02 -0.47087611228E+02 -0.22308318983E+03  0.23623819364E+03  0.47000000000E+01 0.  1.
         -5    1    4    4    0  502  0.50116952280E+02 -0.16557747214E+02 -0.67588264185E+02  0.85884406933E+02  0.47000000000E+01 0.  1.
          5    1    5    5  503    0  0.29672091456E+02  0.70976139663E+02 -0.53619273759E+02  0.93889093783E+02  0.47000000000E+01 0.  1.
         -5    1    5    5    0  503 -0.18120239480E+02 -0.73307812213E+01 -0.16365875700E+03  0.16488893891E+03  0.47000000000E+01 0.  1.
<mgrwt>
<rscale>  0 0.28183837E+03</rscale>
<asrwt>0</asrwt>
<pdfrwt beam="1">  1        2 0.56116274E-02 0.28183837E+03</pdfrwt>
<pdfrwt beam="2">  1       -2 0.83757693E-01 0.28183837E+03</pdfrwt>
<totfact> 0.17338044E+03</totfact>
</mgrwt>
</event>
<event>
 9    1  0.7957670E-001  0.2772213E+03  0.7818608E-02  0.1097216E+00
          1   -1    0    0  501    0  0.00000000000E+00  0.00000000000E+00  0.42935583694E+03  0.42935583694E+03  0.00000000000E+00 0. -1.
         -1   -1    0    0    0  501 -0.00000000000E+00 -0.00000000000E+00 -0.44748242739E+02  0.44748242739E+02  0.00000000000E+00 0. -1.
         35    2    1    2    0    0  0.00000000000E+00  0.00000000000E+00  0.38460759420E+03  0.47410407968E+03  0.27722134992E+03 0.  0.
         25    2    3    3    0    0  0.86699068305E+01  0.60824817936E+02  0.18553240893E+03  0.23103615403E+03  0.12320959356E+03 0.  0.
         25    2    3    3    0    0 -0.86699068305E+01 -0.60824817936E+02  0.19907518528E+03  0.24306792565E+03  0.12520487740E+03 0.  0.
          5    1    4    4  502    0  0.56457834464E+02  0.54969014912E+02  0.15468801011E+03  0.17366505160E+03  0.47000000000E+01 0. -1.
         -5    1    4    4    0  502 -0.47787927633E+02  0.58558030246E+01  0.30844398812E+02  0.57371102435E+02  0.47000000000E+01 0. -1.
          5    1    5    5  503    0 -0.64874415098E+02 -0.24421162542E+02  0.76694545165E+02  0.10348539111E+03  0.47000000000E+01 0. -1.
         -5    1    5    5    0  503  0.56204508267E+02 -0.36403655394E+02  0.12238064011E+03  0.13958253454E+03  0.47000000000E+01 0. -1.
<mgrwt>
<rscale>  0 0.27722135E+03</rscale>
<asrwt>0</asrwt>
<pdfrwt beam="1">  1        1 0.66054741E-01 0.27722135E+03</pdfrwt>
<pdfrwt beam="2">  1       -1 0.68843453E-02 0.27722135E+03</pdfrwt>
<totfact> 0.59578350E+03</totfact>
</mgrwt>
</event>
<event>
 9    1  0.7957670E-001  0.2822093E+03  0.7818608E-02  0.1094488E+00
         -2   -1    0    0    0  501 -0.00000000000E+00  0.00000000000E+00  0.89469876151E+03  0.89469876151E+03  0.00000000000E+00 0. -1.
          2   -1    0    0  501    0  0.00000000000E+00 -0.00000000000E+00 -0.22253884456E+02  0.22253884456E+02  0.00000000000E+00 0. -1.
         35    2    1    2    0    0  0.14210854715E-13 -0.35527136788E-14  0.87244487705E+03  0.91695264596E+03  0.28220930432E+03 0.  0.
         25    2    3    3    0    0  0.48328767365E+02 -0.20418673540E+02  0.42333302418E+03  0.44473222842E+03  0.12579075345E+03 0.  0.
         25    2    3    3    0    0 -0.48328767365E+02  0.20418673540E+02  0.44911185287E+03  0.47222041754E+03  0.13615459730E+03 0.  0.
          5    1    4    4  502    0  0.77593135565E+02 -0.33482529685E+02  0.17607777761E+03  0.19536439862E+03  0.47000000000E+01 0.  1.
         -5    1    4    4    0  502 -0.29264368200E+02  0.13063856145E+02  0.24725524657E+03  0.24936782980E+03  0.47000000000E+01 0.  1.
          5    1    5    5  503    0 -0.86367783346E+02 -0.21333081878E+02  0.28477990495E+03  0.29838930719E+03  0.47000000000E+01 0. -1.
         -5    1    5    5    0  503  0.38039015981E+02  0.41751755417E+02  0.16433194792E+03  0.17383111035E+03  0.47000000000E+01 0. -1.
<mgrwt>
<rscale>  0 0.28220930E+03</rscale>
<asrwt>0</asrwt>
<pdfrwt beam="1">  1        2 0.34236752E-02 0.28220930E+03</pdfrwt>
<pdfrwt beam="2">  1       -2 0.13764594E+00 0.28220930E+03</pdfrwt>
<totfact> 0.10350579E+03</totfact>
</mgrwt>
</event>
<event>
 9    1  0.7957670E-001  0.2751408E+03  0.7818608E-02  0.1098373E+00
          2   -1    0    0  501    0  0.00000000000E+00  0.00000000000E+00  0.51207885884E+02  0.51207885884E+02  0.00000000000E+00 0. -1.
         -2   -1    0    0    0  501 -0.00000000000E+00 -0.00000000000E+00 -0.36958403341E+03  0.36958403341E+03  0.00000000000E+00 0. -1.
         35    2    1    2    0    0  0.35527136788E-14  0.14210854715E-13 -0.31837614753E+03  0.42079191930E+03  0.27514081491E+03 0.  0.
         25    2    3    3    0    0  0.10364949645E+02 -0.52783070383E+02 -0.12908495137E+03  0.18747883438E+03  0.12486754570E+03 0.  0.
         25    2    3    3    0    0 -0.10364949645E+02  0.52783070383E+02 -0.18929119616E+03  0.23331308492E+03  0.12534095082E+03 0.  0.
          5    1    4    4  502    0  0.33933347539E+02 -0.74719125347E+02 -0.13125411113E+03  0.15486817445E+03  0.47000000000E+01 0. -1.
         -5    1    4    4    0  502 -0.23568397894E+02  0.21936054964E+02  0.21691597679E+01  0.32610659925E+02  0.47000000000E+01 0. -1.
          5    1    5    5  503    0 -0.48816964523E+02 -0.20729339507E+02 -0.77246485242E+02  0.93818500435E+02  0.47000000000E+01 0. -1.
         -5    1    5    5    0  503  0.38452014878E+02  0.73512409891E+02 -0.11204471092E+03  0.13949458449E+03  0.47000000000E+01 0. -1.
<mgrwt>
<rscale>  0 0.27514081E+03</rscale>
<asrwt>0</asrwt>
<pdfrwt beam="1">  1        2 0.78781362E-02 0.27514081E+03</pdfrwt>
<pdfrwt beam="2">  1       -2 0.56859083E-01 0.27514081E+03</pdfrwt>
<totfact> 0.25562187E+03</totfact>
</mgrwt>
</event>
<event>
 9    1  0.7957670E-001  0.2706076E+03  0.7818608E-02  0.1100932E+00
          1   -1    0    0  501    0  0.00000000000E+00  0.00000000000E+00  0.12331253221E+04  0.12331253221E+04  0.00000000000E+00 0.  1.
         -1   -1    0    0    0  501 -0.00000000000E+00 -0.00000000000E+00 -0.14846114575E+02  0.14846114575E+02  0.00000000000E+00 0.  1.
         35    2    1    2    0    0  0.88817841970E-15  0.71054273576E-14  0.12182792075E+04  0.12479714366E+04  0.27060761125E+03 0.  0.
         25    2    3    3    0    0  0.22087922302E+01 -0.51174782240E+02  0.61584191782E+03  0.63043379612E+03  0.12474680934E+03 0.  0.
         25    2    3    3    0    0 -0.22087922302E+01  0.51174782240E+02  0.60243728966E+03  0.61753764051E+03  0.12569133773E+03 0.  0.
          5    1    4    4  502    0 -0.57968772211E+01  0.38614826387E+02  0.27683193251E+03  0.27961172625E+03  0.47000000000E+01 0.  1.
         -5    1    4    4    0  502  0.80056694514E+01 -0.89789608627E+02  0.33900998532E+03  0.35082206987E+03  0.47000000000E+01 0.  1.
          5    1    5    5  503    0 -0.15550338100E+01 -0.34453823790E+02  0.33220372349E+03  0.33402228669E+03  0.47000000000E+01 0.  1.
         -5    1    5    5    0  503 -0.65375842028E+00  0.85628606030E+02  0.27023356616E+03  0.28351535382E+03  0.47000000000E+01 0.  1.
<mgrwt>
<rscale>  0 0.27060761E+03</rscale>
<asrwt>0</asrwt>
<pdfrwt beam="1">  1        1 0.18971151E+00 0.27060761E+03</pdfrwt>
<pdfrwt beam="2">  1       -1 0.22840186E-02 0.27060761E+03</pdfrwt>
<totfact> 0.61207545E+03</totfact>
</mgrwt>
</event>
<event>
 9    1  0.7957670E-001  0.2755049E+03  0.7818608E-02  0.1098170E+00
         -1   -1    0    0    0  501 -0.00000000000E+00  0.00000000000E+00  0.81175717002E+03  0.81175717002E+03  0.00000000000E+00 0.  1.
          1   -1    0    0  501    0  0.00000000000E+00 -0.00000000000E+00 -0.23376127911E+02  0.23376127911E+02  0.00000000000E+00 0.  1.
         35    2    1    2    0    0  0.00000000000E+00  0.71054273576E-14  0.78838104211E+03  0.83513329794E+03  0.27550491422E+03 0.  0.
         25    2    3    3    0    0 -0.33753477656E+02 -0.41900858167E+02  0.48006516947E+03  0.49902653893E+03  0.12517963272E+03 0.  0.
         25    2    3    3    0    0  0.33753477656E+02  0.41900858167E+02  0.30831587264E+03  0.33610675901E+03  0.12253202422E+03 0.  0.
          5    1    4    4  502    0  0.47635417934E+02 -0.14026359640E+02  0.16270124001E+03  0.17017536634E+03  0.47000000000E+01 0.  1.
         -5    1    4    4    0  502 -0.81388895590E+02 -0.27874498527E+02  0.31736392946E+03  0.32885117259E+03  0.47000000000E+01 0.  1.
          5    1    5    5  503    0  0.47072836261E+02  0.76657624019E+02  0.16528976585E+03  0.18824197175E+03  0.47000000000E+01 0. -1.
         -5    1    5    5    0  503 -0.13319358606E+02 -0.34756765852E+02  0.14302610679E+03  0.14786478726E+03  0.47000000000E+01 0. -1.
<mgrwt>
<rscale>  0 0.27550491E+03</rscale>
<asrwt>0</asrwt>
<pdfrwt beam="1">  1        1 0.35963280E-02 0.27550491E+03</pdfrwt>
<pdfrwt beam="2">  1       -1 0.12488570E+00 0.27550491E+03</pdfrwt>
<totfact> 0.15850097E+03</totfact>
</mgrwt>
</event>
<event>
 9    1  0.7957670E-001  0.2748522E+03  0.7818608E-02  0.1098534E+00
          2   -1    0    0  501    0  0.00000000000E+00  0.00000000000E+00  0.66397321870E+03  0.66397321870E+03  0.00000000000E+00 0. -1.
         -2   -1    0    0    0  501 -0.00000000000E+00 -0.00000000000E+00 -0.28443813991E+02  0.28443813991E+02  0.00000000000E+00 0. -1.
         35    2    1    2    0    0 -0.71054273576E-14 -0.17763568394E-14  0.63552940471E+03  0.69241703269E+03  0.27485218375E+03 0.  0.
         25    2    3    3    0    0 -0.55744917353E+02 -0.80775971285E+01  0.31183635986E+03  0.34094236283E+03  0.12580554861E+03 0.  0.
         25    2    3    3    0    0  0.55744917353E+02  0.80775971285E+01  0.32369304485E+03  0.35147466986E+03  0.12483794647E+03 0.  0.
          5    1    4    4  502    0  0.23539204668E+02  0.15630700089E+02  0.19836380149E+03  0.20042130795E+03  0.47000000000E+01 0.  1.
         -5    1    4    4    0  502 -0.79284122022E+02 -0.23708297218E+02  0.11347255837E+03  0.14052105488E+03  0.47000000000E+01 0.  1.
          5    1    5    5  503    0 -0.40076659555E+02  0.12604507373E+01  0.83722838258E+02  0.92948001717E+02  0.47000000000E+01 0.  1.
         -5    1    5    5    0  503  0.95821576908E+02  0.68171463912E+01  0.23997020659E+03  0.25852666814E+03  0.47000000000E+01 0.  1.
<mgrwt>
<rscale>  0 0.27485218E+03</rscale>
<asrwt>0</asrwt>
<pdfrwt beam="1">  1        2 0.10214971E+00 0.27485218E+03</pdfrwt>
<pdfrwt beam="2">  1       -2 0.43759719E-02 0.27485218E+03</pdfrwt>
<totfact> 0.10682381E+04</totfact>
</mgrwt>
</event>
<event>
 9    1  0.7957670E-001  0.2752022E+03  0.7818608E-02  0.1098339E+00
         -1   -1    0    0    0  501 -0.00000000000E+00  0.00000000000E+00  0.79851050994E+02  0.79851050994E+02  0.00000000000E+00 0. -1.
          1   -1    0    0  501    0  0.00000000000E+00 -0.00000000000E+00 -0.23711720917E+03  0.23711720917E+03  0.00000000000E+00 0. -1.
         35    2    1    2    0    0  0.00000000000E+00 -0.71054273576E-14 -0.15726615817E+03  0.31696826016E+03  0.27520216831E+03 0.  0.
         25    2    3    3    0    0  0.35416807155E+02 -0.35328617296E+02 -0.46805820860E+02  0.14287203794E+03  0.12537612583E+03 0.  0.
         25    2    3    3    0    0 -0.35416807155E+02  0.35328617296E+02 -0.11046033731E+03  0.17409622222E+03  0.12492216394E+03 0.  0.
          5    1    4    4  502    0  0.76307153989E+02 -0.37066466640E+02 -0.64580241763E+01  0.85208572193E+02  0.47000000000E+01 0. -1.
         -5    1    4    4    0  502 -0.40890346834E+02  0.17378493436E+01 -0.40347796684E+02  0.57663465745E+02  0.47000000000E+01 0. -1.
          5    1    5    5  503    0 -0.77604827350E+02 -0.21281721223E+01 -0.59488001719E+02  0.97918081543E+02  0.47000000000E+01 0.  1.
         -5    1    5    5    0  503  0.42188020195E+02  0.37456789418E+02 -0.50972335593E+02  0.76178140679E+02  0.47000000000E+01 0.  1.
<mgrwt>
<rscale>  0 0.27520217E+03</rscale>
<asrwt>0</asrwt>
<pdfrwt beam="1">  1        1 0.36479570E-01 0.27520217E+03</pdfrwt>
<pdfrwt beam="2">  1       -1 0.12284777E-01 0.27520217E+03</pdfrwt>
<totfact> 0.51786273E+03</totfact>
</mgrwt>
</event>
<event>
 9    1  0.7957670E-001  0.2811218E+03  0.7818608E-02  0.1095078E+00
         -2   -1    0    0    0  501 -0.00000000000E+00  0.00000000000E+00  0.54377589395E+02  0.54377589395E+02  0.00000000000E+00 0.  1.
          2   -1    0    0  501    0  0.00000000000E+00 -0.00000000000E+00 -0.36333665986E+03  0.36333665986E+03  0.00000000000E+00 0.  1.
         35    2    1    2    0    0  0.00000000000E+00 -0.71054273576E-14 -0.30895907046E+03  0.41771424925E+03  0.28112183623E+03 0.  0.
         25    2    3    3    0    0  0.33815367338E+02  0.42539310986E+02 -0.21108505459E+03  0.25098372544E+03  0.12443013347E+03 0.  0.
         25    2    3    3    0    0 -0.33815367338E+02 -0.42539310986E+02 -0.97874015873E+02  0.16673052382E+03  0.12355837706E+03 0.  0.
          5    1    4    4  502    0  0.11974704956E+02  0.83876346704E+02 -0.16292516081E+03  0.18369902863E+03  0.47000000000E+01 0. -1.
         -5    1    4    4    0  502  0.21840662382E+02 -0.41337035718E+02 -0.48159893783E+02  0.67284696808E+02  0.47000000000E+01 0. -1.
          5    1    5    5  503    0  0.33325390627E+02  0.22641724058E+02 -0.21850141753E+02  0.46073289695E+02  0.47000000000E+01 0.  1.
         -5    1    5    5    0  503 -0.67140757965E+02 -0.65181035044E+02 -0.76023874120E+02  0.12065723412E+03  0.47000000000E+01 0.  1.
<mgrwt>
<rscale>  0 0.28112184E+03</rscale>
<asrwt>0</asrwt>
<pdfrwt beam="1">  1        2 0.55897950E-01 0.28112184E+03</pdfrwt>
<pdfrwt beam="2">  1       -2 0.83657826E-02 0.28112184E+03</pdfrwt>
<totfact> 0.77727204E+03</totfact>
</mgrwt>
</event>
<event>
 9    1  0.7957670E-001  0.2722191E+03  0.7818608E-02  0.1100016E+00
         -2   -1    0    0    0  501 -0.00000000000E+00  0.00000000000E+00  0.24391811795E+02  0.24391811795E+02  0.00000000000E+00 0.  1.
          2   -1    0    0  501    0  0.00000000000E+00 -0.00000000000E+00 -0.75950956687E+03  0.75950956687E+03  0.00000000000E+00 0.  1.
         35    2    1    2    0    0  0.71054273576E-14  0.71054273576E-14 -0.73511775507E+03  0.78390137866E+03  0.27221913534E+03 0.  0.
         25    2    3    3    0    0 -0.25276388301E+01  0.26774743313E+02 -0.51085815965E+03  0.52653234910E+03  0.12464742087E+03 0.  0.
         25    2    3    3    0    0  0.25276388301E+01 -0.26774743313E+02 -0.22425959542E+03  0.25736902957E+03  0.12338223293E+03 0.  0.
          5    1    4    4  502    0 -0.58937934598E+02  0.17394885900E+02 -0.35787660877E+03  0.36314462586E+03  0.47000000000E+01 0. -1.
         -5    1    4    4    0  502  0.56410295768E+02  0.93798574130E+01 -0.15298155088E+03  0.16338772323E+03  0.47000000000E+01 0. -1.
          5    1    5    5  503    0 -0.57775611790E+02 -0.30621099693E+02 -0.12197398686E+03  0.13847532825E+03  0.47000000000E+01 0. -1.
         -5    1    5    5    0  503  0.60303250620E+02  0.38463563798E+01 -0.10228560857E+03  0.11889370132E+03  0.47000000000E+01 0. -1.
<mgrwt>
<rscale>  0 0.27221914E+03</rscale>
<asrwt>0</asrwt>
<pdfrwt beam="1">  1        2 0.11684761E+00 0.27221914E+03</pdfrwt>
<pdfrwt beam="2">  1       -2 0.37525869E-02 0.27221914E+03</pdfrwt>
<totfact> 0.11422442E+04</totfact>
</mgrwt>
</event>
<event>
 9    1  0.7957670E-001  0.2730395E+03  0.7818608E-02  0.1099552E+00
         -2   -1    0    0    0  501 -0.00000000000E+00  0.00000000000E+00  0.95507134693E+02  0.95507134693E+02  0.00000000000E+00 0.  1.
          2   -1    0    0  501    0  0.00000000000E+00 -0.00000000000E+00 -0.19514404509E+03  0.19514404509E+03  0.00000000000E+00 0.  1.
         35    2    1    2    0    0  0.00000000000E+00 -0.71054273576E-14 -0.99636910394E+02  0.29065117978E+03  0.27303954731E+03 0.  0.
         25    2    3    3    0    0  0.34529243658E+02  0.33838340298E+02 -0.72789018163E+02  0.15448515086E+03  0.12739748322E+03 0.  0.
         25    2    3    3    0    0 -0.34529243658E+02 -0.33838340298E+02 -0.26847892231E+02  0.13616602892E+03  0.12443100969E+03 0.  0.
          5    1    4    4  502    0  0.62111367879E+02  0.64041670751E+02 -0.69489613651E+02  0.11318150917E+03  0.47000000000E+01 0.  1.
         -5    1    4    4    0  502 -0.27582124221E+02 -0.30203330452E+02 -0.32994045117E+01  0.41303641693E+02  0.47000000000E+01 0.  1.
          5    1    5    5  503    0 -0.50848407088E+02 -0.53950940325E+02  0.24701275446E+02  0.78284784435E+02  0.47000000000E+01 0. -1.
         -5    1    5    5    0  503  0.16319163429E+02  0.20112600027E+02 -0.51549167677E+02  0.57881244484E+02  0.47000000000E+01 0. -1.
<mgrwt>
<rscale>  0 0.27303955E+03</rscale>
<asrwt>0</asrwt>
<pdfrwt beam="1">  1        2 0.30022161E-01 0.27303955E+03</pdfrwt>
<pdfrwt beam="2">  1       -2 0.14693405E-01 0.27303955E+03</pdfrwt>
<totfact> 0.61588214E+03</totfact>
</mgrwt>
</event>
<event>
 9    1  0.7957670E-001  0.2778367E+03  0.7818608E-02  0.1096876E+00
         -2   -1    0    0    0  501 -0.00000000000E+00  0.00000000000E+00  0.68223366092E+02  0.68223366092E+02  0.00000000000E+00 0.  1.
          2   -1    0    0  501    0  0.00000000000E+00 -0.00000000000E+00 -0.28286955861E+03  0.28286955861E+03  0.00000000000E+00 0.  1.
         35    2    1    2    0    0  0.00000000000E+00  0.00000000000E+00 -0.21464619252E+03  0.35109292470E+03  0.27783673950E+03 0.  0.
         25    2    3    3    0    0 -0.53718770455E+02 -0.16615936242E+02 -0.12284959623E+03  0.18406956714E+03  0.12501114598E+03 0.  0.
         25    2    3    3    0    0  0.53718770455E+02  0.16615936242E+02 -0.91796596288E+02  0.16702335756E+03  0.12770431177E+03 0.  0.
          5    1    4    4  502    0 -0.56467754510E+02 -0.63196182055E+02 -0.10213609626E+03  0.13280149429E+03  0.47000000000E+01 0. -1.
         -5    1    4    4    0  502  0.27489840550E+01  0.46580245813E+02 -0.20713499968E+02  0.51268072855E+02  0.47000000000E+01 0. -1.
          5    1    5    5  503    0 -0.17740046224E+02  0.51866888449E+02 -0.16868116773E+02  0.57545692462E+02  0.47000000000E+01 0. -1.
         -5    1    5    5    0  503  0.71458816679E+02 -0.35250952208E+02 -0.74928479514E+02  0.10947766510E+03  0.47000000000E+01 0. -1.
<mgrwt>
<rscale>  0 0.27783674E+03</rscale>
<asrwt>0</asrwt>
<pdfrwt beam="1">  1        2 0.43518395E-01 0.27783674E+03</pdfrwt>
<pdfrwt beam="2">  1       -2 0.10495902E-01 0.27783674E+03</pdfrwt>
<totfact> 0.71074032E+03</totfact>
</mgrwt>
</event>
<event>
 9    1  0.7957670E-001  0.2749736E+03  0.7818608E-02  0.1098466E+00
          2   -1    0    0  501    0  0.00000000000E+00  0.00000000000E+00  0.17075800769E+04  0.17075800769E+04  0.00000000000E+00 0. -1.
         -2   -1    0    0    0  501 -0.00000000000E+00 -0.00000000000E+00 -0.11069831405E+02  0.11069831405E+02  0.00000000000E+00 0. -1.
         35    2    1    2    0    0  0.14210854715E-13  0.00000000000E+00  0.16965102455E+04  0.17186499083E+04  0.27497362463E+03 0.  0.
         25    2    3    3    0    0  0.52335981762E+02  0.20617749074E+02  0.87051962258E+03  0.88139228349E+03  0.12603093885E+03 0.  0.
         25    2    3    3    0    0 -0.52335981762E+02 -0.20617749074E+02  0.82599062287E+03  0.83725762477E+03  0.12480254240E+03 0.  0.
          5    1    4    4  502    0  0.87212149922E+02  0.23604355104E+01  0.73553706621E+03  0.74070803730E+03  0.47000000000E+01 0.  1.
         -5    1    4    4    0  502 -0.34876168160E+02  0.18257313563E+02  0.13498255637E+03  0.14068424620E+03  0.47000000000E+01 0.  1.
          5    1    5    5  503    0  0.27065722860E+02 -0.43194327569E+02  0.40519719126E+03  0.40841787068E+03  0.47000000000E+01 0.  1.
         -5    1    5    5    0  503 -0.79401704622E+02  0.22576578495E+02  0.42079343162E+03  0.42883975409E+03  0.47000000000E+01 0.  1.
<mgrwt>
<rscale>  0 0.27497362E+03</rscale>
<asrwt>0</asrwt>
<pdfrwt beam="1">  1        2 0.26270442E+00 0.27497362E+03</pdfrwt>
<pdfrwt beam="2">  1       -2 0.17030523E-02 0.27497362E+03</pdfrwt>
<totfact> 0.10366893E+04</totfact>
</mgrwt>
</event>
<event>
 9    1  0.7957670E-001  0.2695486E+03  0.7818608E-02  0.1101538E+00
          1   -1    0    0  501    0  0.00000000000E+00  0.00000000000E+00  0.27272532300E+03  0.27272532300E+03  0.00000000000E+00 0.  1.
         -1   -1    0    0    0  501 -0.00000000000E+00 -0.00000000000E+00 -0.66602215339E+02  0.66602215339E+02  0.00000000000E+00 0.  1.
         35    2    1    2    0    0  0.00000000000E+00  0.00000000000E+00  0.20612310766E+03  0.33932753834E+03  0.26954859073E+03 0.  0.
         25    2    3    3    0    0 -0.56103781398E+02 -0.66129180309E+00  0.86705751151E+02  0.15757062328E+03  0.11900648068E+03 0.  0.
         25    2    3    3    0    0  0.56103781398E+02  0.66129180309E+00  0.11941735651E+03  0.18175691506E+03  0.12500799791E+03 0.  0.
          5    1    4    4  502    0 -0.91677335689E+02  0.56506993439E+01  0.76783395796E+02  0.11981003360E+03  0.47000000000E+01 0. -1.
         -5    1    4    4    0  502  0.35573554291E+02 -0.63119911469E+01  0.99223553551E+01  0.37760589679E+02  0.47000000000E+01 0. -1.
          5    1    5    5  503    0  0.93655334667E+02 -0.60495159744E+01  0.10448169518E+03  0.14052200177E+03  0.47000000000E+01 0. -1.
         -5    1    5    5    0  503 -0.37551553269E+02  0.67108077775E+01  0.14935661331E+02  0.41234913281E+02  0.47000000000E+01 0. -1.
<mgrwt>
<rscale>  0 0.26954859E+03</rscale>
<asrwt>0</asrwt>
<pdfrwt beam="1">  1        1 0.41957741E-01 0.26954859E+03</pdfrwt>
<pdfrwt beam="2">  1       -1 0.10246495E-01 0.26954859E+03</pdfrwt>
<totfact> 0.57574238E+03</totfact>
</mgrwt>
</event>
<event>
 9    1  0.7957670E-001  0.2657223E+03  0.7818608E-02  0.1103753E+00
          2   -1    0    0  501    0  0.00000000000E+00  0.00000000000E+00  0.19327185293E+03  0.19327185293E+03  0.00000000000E+00 0.  1.
         -2   -1    0    0    0  501 -0.00000000000E+00 -0.00000000000E+00 -0.91332965452E+02  0.91332965452E+02  0.00000000000E+00 0.  1.
         35    2    1    2    0    0  0.17763568394E-14  0.39968028887E-14  0.10193888747E+03  0.28460481838E+03  0.26572234732E+03 0.  0.
         25    2    3    3    0    0  0.37202708891E+01  0.37226437614E+01  0.19281665369E+01  0.12456952939E+03  0.12444336597E+03 0.  0.
         25    2    3    3    0    0 -0.37202708891E+01 -0.37226437614E+01  0.10001072094E+03  0.16003528899E+03  0.12482568216E+03 0.  0.
          5    1    4    4  502    0  0.83314490955E+01  0.71765580983E+01 -0.60514999386E+02  0.61685259024E+02  0.47000000000E+01 0.  1.
         -5    1    4    4    0  502 -0.46111782064E+01 -0.34539143369E+01  0.62443165923E+02  0.62884270364E+02  0.47000000000E+01 0.  1.
          5    1    5    5  503    0 -0.27019746638E+02  0.45847724007E+02  0.89249634292E+02  0.10401763180E+03  0.47000000000E+01 0. -1.
         -5    1    5    5    0  503  0.23299475749E+02 -0.49570367768E+02  0.10761086646E+02  0.56017657187E+02  0.47000000000E+01 0. -1.
<mgrwt>
<rscale>  0 0.26572235E+03</rscale>
<asrwt>0</asrwt>
<pdfrwt beam="1">  1        2 0.29734131E-01 0.26572235E+03</pdfrwt>
<pdfrwt beam="2">  1       -2 0.14051225E-01 0.26572235E+03</pdfrwt>
<totfact> 0.66918948E+03</totfact>
</mgrwt>
</event>
<event>
 9    1  0.7957670E-001  0.2765413E+03  0.7818608E-02  0.1097593E+00
         -1   -1    0    0    0  501 -0.00000000000E+00  0.00000000000E+00  0.31837831599E+02  0.31837831599E+02  0.00000000000E+00 0.  1.
          1   -1    0    0  501    0  0.00000000000E+00 -0.00000000000E+00 -0.60050492694E+03  0.60050492694E+03  0.00000000000E+00 0.  1.
         35    2    1    2    0    0  0.00000000000E+00 -0.14210854715E-13 -0.56866709535E+03  0.63234275854E+03  0.27654131509E+03 0.  0.
         25    2    3    3    0    0  0.16995611986E+02  0.36327202254E+02 -0.18515657447E+03  0.22742466196E+03  0.12581932820E+03 0.  0.
         25    2    3    3    0    0 -0.16995611986E+02 -0.36327202254E+02 -0.38351052087E+03  0.40491809658E+03  0.12357114901E+03 0.  0.
          5    1    4    4  502    0 -0.18972359632E+02 -0.40133304224E+02 -0.87289117009E+02  0.98041381498E+02  0.47000000000E+01 0.  1.
         -5    1    4    4    0  502  0.35967971618E+02  0.76460506478E+02 -0.97867457464E+02  0.12938328046E+03  0.47000000000E+01 0.  1.
          5    1    5    5  503    0 -0.34861980097E+02 -0.71596843251E+02 -0.32132114530E+03  0.33107526944E+03  0.47000000000E+01 0. -1.
         -5    1    5    5    0  503  0.17866368111E+02  0.35269640997E+02 -0.62189375572E+02  0.73842827137E+02  0.47000000000E+01 0. -1.
<mgrwt>
<rscale>  0 0.27654132E+03</rscale>
<asrwt>0</asrwt>
<pdfrwt beam="1">  1        1 0.92385373E-01 0.27654132E+03</pdfrwt>
<pdfrwt beam="2">  1       -1 0.48981280E-02 0.27654132E+03</pdfrwt>
<totfact> 0.63553298E+03</totfact>
</mgrwt>
</event>
<event>
 9    1  0.7957670E-001  0.2751806E+03  0.7818608E-02  0.1098351E+00
          2   -1    0    0  501    0  0.00000000000E+00  0.00000000000E+00  0.23357336354E+04  0.23357336354E+04  0.00000000000E+00 0. -1.
         -2   -1    0    0    0  501 -0.00000000000E+00 -0.00000000000E+00 -0.81049894416E+01  0.81049894416E+01  0.00000000000E+00 0. -1.
         35    2    1    2    0    0  0.00000000000E+00  0.00000000000E+00  0.23276286460E+04  0.23438386248E+04  0.27518064215E+03 0.  0.
         25    2    3    3    0    0 -0.22842662277E+02  0.32915145270E+02  0.15768749530E+04  0.15822797511E+04  0.12437603921E+03 0.  0.
         25    2    3    3    0    0  0.22842662277E+02 -0.32915145270E+02  0.75075369292E+03  0.76155887377E+03  0.12139034877E+03 0.  0.
          5    1    4    4  502    0 -0.30956174321E+02  0.41989931083E+02  0.25419365693E+03  0.25953409076E+03  0.47000000000E+01 0.  1.
         -5    1    4    4    0  502  0.81135120441E+01 -0.90747858129E+01  0.13226812961E+04  0.13227456603E+04  0.47000000000E+01 0.  1.
          5    1    5    5  503    0  0.70221847785E+02 -0.35994752213E+02  0.41895643579E+03  0.42634881867E+03  0.47000000000E+01 0. -1.
         -5    1    5    5    0  503 -0.47379185509E+02  0.30796069434E+01  0.33179725713E+03  0.33521005509E+03  0.47000000000E+01 0. -1.
<mgrwt>
<rscale>  0 0.27518064E+03</rscale>
<asrwt>0</asrwt>
<pdfrwt beam="1">  1        2 0.35934310E+00 0.27518064E+03</pdfrwt>
<pdfrwt beam="2">  1       -2 0.12469233E-02 0.27518064E+03</pdfrwt>
<totfact> 0.76144062E+03</totfact>
</mgrwt>
</event>
<event>
 9    1  0.7957670E-001  0.2767274E+03  0.7818608E-02  0.1097490E+00
         -1   -1    0    0    0  501 -0.00000000000E+00  0.00000000000E+00  0.68131089025E+01  0.68131089025E+01  0.00000000000E+00 0. -1.
          1   -1    0    0  501    0  0.00000000000E+00 -0.00000000000E+00 -0.28099518752E+04  0.28099518752E+04  0.00000000000E+00 0. -1.
         35    2    1    2    0    0 -0.71054273576E-14 -0.35527136788E-14 -0.28031387663E+04  0.28167649841E+04  0.27672736140E+03 0.  0.
         25    2    3    3    0    0 -0.50394223108E+02 -0.71641165331E+01 -0.10827418710E+04  0.10911522418E+04  0.12526912299E+03 0.  0.
         25    2    3    3    0    0  0.50394223108E+02  0.71641165331E+01 -0.17203968953E+04  0.17256127424E+04  0.12402804895E+03 0.  0.
          5    1    4    4  502    0 -0.75831904002E+02  0.10120181043E+02 -0.37636682861E+03  0.38409240477E+03  0.47000000000E+01 0. -1.
         -5    1    4    4    0  502  0.25437680894E+02 -0.17284297576E+02 -0.70637504242E+03  0.70705983700E+03  0.47000000000E+01 0. -1.
          5    1    5    5  503    0  0.51269023890E+02 -0.59974489754E+01 -0.17004591493E+04  0.17012489209E+04  0.47000000000E+01 0.  1.
         -5    1    5    5    0  503 -0.87480078163E+00  0.13161565509E+02 -0.19937745958E+02  0.24363821477E+02  0.47000000000E+01 0.  1.
<mgrwt>
<rscale>  0 0.27672736E+03</rscale>
<asrwt>0</asrwt>
<pdfrwt beam="1">  1        1 0.43229987E+00 0.27672736E+03</pdfrwt>
<pdfrwt beam="2">  1       -1 0.10481716E-02 0.27672736E+03</pdfrwt>
<totfact> 0.17214384E+03</totfact>
</mgrwt>
</event>
<event>
 9    1  0.7957670E-001  0.2758275E+03  0.7818608E-02  0.1097990E+00
         -1   -1    0    0    0  501 -0.00000000000E+00  0.00000000000E+00  0.45501473291E+03  0.45501473291E+03  0.00000000000E+00 0. -1.
          1   -1    0    0  501    0  0.00000000000E+00 -0.00000000000E+00 -0.41801303320E+02  0.41801303320E+02  0.00000000000E+00 0. -1.
         35    2    1    2    0    0 -0.14210854715E-13  0.00000000000E+00  0.41321342959E+03  0.49681603623E+03  0.27582754660E+03 0.  0.
         25    2    3    3    0    0 -0.36942546041E+02  0.36656976722E+02  0.16010228104E+03  0.20985015578E+03  0.12528312670E+03 0.  0.
         25    2    3    3    0    0  0.36942546041E+02 -0.36656976722E+02  0.25311114855E+03  0.28696588045E+03  0.12480255354E+03 0.  0.
          5    1    4    4  502    0 -0.59324901143E+02 -0.20851874108E+02  0.12155491460E+03  0.13693769317E+03  0.47000000000E+01 0.  1.
         -5    1    4    4    0  502  0.22382355102E+02  0.57508850830E+02  0.38547366444E+02  0.72912462607E+02  0.47000000000E+01 0.  1.
          5    1    5    5  503    0 -0.42899702240E+02 -0.33994616341E+02  0.94433682282E+02  0.10925121849E+03  0.47000000000E+01 0. -1.
         -5    1    5    5    0  503  0.79842248281E+02 -0.26623603808E+01  0.15867746627E+03  0.17771466196E+03  0.47000000000E+01 0. -1.
<mgrwt>
<rscale>  0 0.27582755E+03</rscale>
<asrwt>0</asrwt>
<pdfrwt beam="1">  1        1 0.64309701E-02 0.27582755E+03</pdfrwt>
<pdfrwt beam="2">  1       -1 0.70002263E-01 0.27582755E+03</pdfrwt>
<totfact> 0.25111441E+03</totfact>
</mgrwt>
</event>
<event>
 9    1  0.7957670E-001  0.2772396E+03  0.7818608E-02  0.1097206E+00
         -2   -1    0    0    0  501 -0.00000000000E+00  0.00000000000E+00  0.42237939681E+03  0.42237939681E+03  0.00000000000E+00 0. -1.
          2   -1    0    0  501    0  0.00000000000E+00 -0.00000000000E+00 -0.45493326052E+02  0.45493326052E+02  0.00000000000E+00 0. -1.
         35    2    1    2    0    0 -0.71054273576E-14  0.00000000000E+00  0.37688607076E+03  0.46787272286E+03  0.27723956151E+03 0.  0.
         25    2    3    3    0    0 -0.41050213273E+02  0.38943983762E+02  0.17739272214E+03  0.22536257006E+03  0.12695808849E+03 0.  0.
         25    2    3    3    0    0  0.41050213273E+02 -0.38943983762E+02  0.19949334862E+03  0.24251015281E+03  0.12574507620E+03 0.  0.
          5    1    4    4  502    0 -0.52711387281E+01 -0.42403415238E+02  0.27464313470E+02  0.51011891180E+02  0.47000000000E+01 0. -1.
         -5    1    4    4    0  502 -0.35779074545E+02  0.81347399000E+02  0.14992840867E+03  0.17435067888E+03  0.47000000000E+01 0. -1.
          5    1    5    5  503    0 -0.38361358965E+02 -0.86509580920E+01  0.11876425819E+03  0.12519373771E+03  0.47000000000E+01 0.  1.
         -5    1    5    5    0  503  0.79411572238E+02 -0.30293025670E+02  0.80729090430E+02  0.11731641510E+03  0.47000000000E+01 0.  1.
<mgrwt>
<rscale>  0 0.27723956E+03</rscale>
<asrwt>0</asrwt>
<pdfrwt beam="1">  1        2 0.69989735E-02 0.27723956E+03</pdfrwt>
<pdfrwt beam="2">  1       -2 0.64981443E-01 0.27723956E+03</pdfrwt>
<totfact> 0.22544358E+03</totfact>
</mgrwt>
</event>
<event>
 9    1  0.7957670E-001  0.2766989E+03  0.7818608E-02  0.1097506E+00
          2   -1    0    0  501    0  0.00000000000E+00  0.00000000000E+00  0.12472261551E+04  0.12472261551E+04  0.00000000000E+00 0. -1.
         -2   -1    0    0    0  501 -0.00000000000E+00 -0.00000000000E+00 -0.15346516729E+02  0.15346516729E+02  0.00000000000E+00 0. -1.
         35    2    1    2    0    0  0.00000000000E+00  0.00000000000E+00  0.12318796384E+04  0.12625726719E+04  0.27669894871E+03 0.  0.
         25    2    3    3    0    0 -0.58822304134E+02  0.65584198725E+01  0.61837412572E+03  0.63365514066E+03  0.12501680519E+03 0.  0.
         25    2    3    3    0    0  0.58822304134E+02 -0.65584198725E+01  0.61350551267E+03  0.62891753120E+03  0.12508065652E+03 0.  0.
          5    1    4    4  502    0  0.79361656781E+01  0.26593334255E+02  0.29958163040E+02  0.41106808258E+02  0.47000000000E+01 0.  1.
         -5    1    4    4    0  502 -0.66758469812E+02 -0.20034914382E+02  0.58841596268E+03  0.59254833240E+03  0.47000000000E+01 0.  1.
          5    1    5    5  503    0  0.56663681148E+02 -0.55808303294E+02  0.25919799330E+03  0.27116605468E+03  0.47000000000E+01 0. -1.
         -5    1    5    5    0  503  0.21586229860E+01  0.49249883421E+02  0.35430751937E+03  0.35775147652E+03  0.47000000000E+01 0. -1.
<mgrwt>
<rscale>  0 0.27669895E+03</rscale>
<asrwt>0</asrwt>
<pdfrwt beam="1">  1        2 0.19188087E+00 0.27669895E+03</pdfrwt>
<pdfrwt beam="2">  1       -2 0.23610036E-02 0.27669895E+03</pdfrwt>
<totfact> 0.11353290E+04</totfact>
</mgrwt>
</event>
<event>
 9    1  0.7957670E-001  0.2766586E+03  0.7818608E-02  0.1097528E+00
          2   -1    0    0  501    0  0.00000000000E+00  0.00000000000E+00  0.18135619491E+03  0.18135619491E+03  0.00000000000E+00 0. -1.
         -2   -1    0    0    0  501 -0.00000000000E+00 -0.00000000000E+00 -0.10551056123E+03  0.10551056123E+03  0.00000000000E+00 0. -1.
         35    2    1    2    0    0 -0.35527136788E-14 -0.71054273576E-14  0.75845633684E+02  0.28686675614E+03  0.27665859038E+03 0.  0.
         25    2    3    3    0    0 -0.14202213776E+02 -0.32858758525E+02  0.84578727005E+02  0.15654663985E+03  0.12677495218E+03 0.  0.
         25    2    3    3    0    0  0.14202213776E+02  0.32858758525E+02 -0.87330933211E+01  0.13032011629E+03  0.12500265959E+03 0.  0.
          5    1    4    4  502    0  0.24392133891E+02  0.37912664466E+02  0.95484244479E+01  0.46320716014E+02  0.47000000000E+01 0. -1.
         -5    1    4    4    0  502 -0.38594347667E+02 -0.70771422990E+02  0.75030302557E+02  0.11022592384E+03  0.47000000000E+01 0. -1.
          5    1    5    5  503    0 -0.53997476142E+02  0.66460870441E+01 -0.15578108713E+02  0.56786137162E+02  0.47000000000E+01 0.  1.
         -5    1    5    5    0  503  0.68199689918E+02  0.26212671481E+02  0.68450153917E+01  0.73533979130E+02  0.47000000000E+01 0.  1.
<mgrwt>
<rscale>  0 0.27665859E+03</rscale>
<asrwt>0</asrwt>
<pdfrwt beam="1">  1        2 0.27900953E-01 0.27665859E+03</pdfrwt>
<pdfrwt beam="2">  1       -2 0.16232394E-01 0.27665859E+03</pdfrwt>
<totfact> 0.56628794E+03</totfact>
</mgrwt>
</event>
<event>
 9    1  0.7957670E-001  0.2742535E+03  0.7818608E-02  0.1098870E+00
         -2   -1    0    0    0  501 -0.00000000000E+00  0.00000000000E+00  0.50514604912E+02  0.50514604912E+02  0.00000000000E+00 0. -1.
          2   -1    0    0  501    0  0.00000000000E+00 -0.00000000000E+00 -0.37224363051E+03  0.37224363051E+03  0.00000000000E+00 0. -1.
         35    2    1    2    0    0 -0.71054273576E-14  0.00000000000E+00 -0.32172902560E+03  0.42275823542E+03  0.27425345888E+03 0.  0.
         25    2    3    3    0    0  0.25800680872E+02 -0.21718669928E+02 -0.22567995108E+03  0.26128062581E+03  0.12727430749E+03 0.  0.
         25    2    3    3    0    0 -0.25800680872E+02  0.21718669928E+02 -0.96049074518E+02  0.16147760961E+03  0.12534838624E+03 0.  0.
          5    1    4    4  502    0 -0.92589259336E+01  0.79951797788E+01 -0.21296196521E+03  0.21336480318E+03  0.47000000000E+01 0.  1.
         -5    1    4    4    0  502  0.35059606805E+02 -0.29713849707E+02 -0.12717985865E+02  0.47915822629E+02  0.47000000000E+01 0.  1.
          5    1    5    5  503    0  0.47891452389E+02  0.64665817330E+00 -0.16408127670E+02  0.50846101447E+02  0.47000000000E+01 0.  1.
         -5    1    5    5    0  503 -0.73692133260E+02  0.21072011755E+02 -0.79640946848E+02  0.11063150816E+03  0.47000000000E+01 0.  1.
<mgrwt>
<rscale>  0 0.27425346E+03</rscale>
<asrwt>0</asrwt>
<pdfrwt beam="1">  1        2 0.57268253E-01 0.27425346E+03</pdfrwt>
<pdfrwt beam="2">  1       -2 0.77714774E-02 0.27425346E+03</pdfrwt>
<totfact> 0.84882064E+03</totfact>
</mgrwt>
</event>
<event>
 9    1  0.7957670E-001  0.2747259E+03  0.7818608E-02  0.1098605E+00
          1   -1    0    0  501    0  0.00000000000E+00  0.00000000000E+00  0.16783704574E+02  0.16783704574E+02  0.00000000000E+00 0. -1.
         -1   -1    0    0    0  501 -0.00000000000E+00 -0.00000000000E+00 -0.11242203101E+04  0.11242203101E+04  0.00000000000E+00 0. -1.
         35    2    1    2    0    0  0.00000000000E+00 -0.71054273576E-14 -0.11074366055E+04  0.11410040146E+04  0.27472591112E+03 0.  0.
         25    2    3    3    0    0  0.31229569807E+01  0.41451617103E+02 -0.38527146836E+03  0.40673265896E+03  0.12356926040E+03 0.  0.
         25    2    3    3    0    0 -0.31229569807E+01 -0.41451617103E+02 -0.72216513712E+03  0.73427135566E+03  0.12611086017E+03 0.  0.
          5    1    4    4  502    0  0.99584594214E+01  0.27998117408E+02 -0.38926872388E+03  0.39042962859E+03  0.47000000000E+01 0.  1.
         -5    1    4    4    0  502 -0.68355024408E+01  0.13453499695E+02  0.39972555196E+01  0.16303030373E+02  0.47000000000E+01 0.  1.
          5    1    5    5  503    0 -0.11882239547E+02 -0.48418681488E+02 -0.72024228189E+03  0.72198101842E+03  0.47000000000E+01 0. -1.
         -5    1    5    5    0  503  0.87592825664E+01  0.69670643851E+01 -0.19228552253E+01  0.12290337239E+02  0.47000000000E+01 0. -1.
<mgrwt>
<rscale>  0 0.27472591E+03</rscale>
<asrwt>0</asrwt>
<pdfrwt beam="1">  1        1 0.25821080E-02 0.27472591E+03</pdfrwt>
<pdfrwt beam="2">  1       -1 0.17295699E+00 0.27472591E+03</pdfrwt>
<totfact> 0.10799138E+03</totfact>
</mgrwt>
</event>
<event>
 9    1  0.7957670E-001  0.2665595E+03  0.7818608E-02  0.1103265E+00
         -2   -1    0    0    0  501 -0.00000000000E+00  0.00000000000E+00  0.61077250173E+02  0.61077250173E+02  0.00000000000E+00 0.  1.
          2   -1    0    0  501    0  0.00000000000E+00 -0.00000000000E+00 -0.29083645077E+03  0.29083645077E+03  0.00000000000E+00 0.  1.
         35    2    1    2    0    0 -0.17763568394E-14 -0.71054273576E-14 -0.22975920060E+03  0.35191370095E+03  0.26655949177E+03 0.  0.
         25    2    3    3    0    0  0.14470496969E+02  0.29102158837E+02 -0.67696621255E+02  0.14459390078E+03  0.12356469027E+03 0.  0.
         25    2    3    3    0    0 -0.14470496969E+02 -0.29102158837E+02 -0.16206257935E+03  0.20731980017E+03  0.12514347360E+03 0.  0.
          5    1    4    4  502    0 -0.17024584045E+01 -0.48295694925E+02 -0.26335953847E+02  0.55236265062E+02  0.47000000000E+01 0. -1.
         -5    1    4    4    0  502  0.16172955373E+02  0.77397853762E+02 -0.41360667408E+02  0.89357635717E+02  0.47000000000E+01 0. -1.
          5    1    5    5  503    0  0.15506997182E+02 -0.38041176841E+02  0.85739326342E+00  0.41357263210E+02  0.47000000000E+01 0. -1.
         -5    1    5    5    0  503 -0.29977494150E+02  0.89390180040E+01 -0.16291997261E+03  0.16596253696E+03  0.47000000000E+01 0. -1.
<mgrwt>
<rscale>  0 0.26655949E+03</rscale>
<asrwt>0</asrwt>
<pdfrwt beam="1">  1        2 0.44744070E-01 0.26655949E+03</pdfrwt>
<pdfrwt beam="2">  1       -2 0.93964999E-02 0.26655949E+03</pdfrwt>
<totfact> 0.82103207E+03</totfact>
</mgrwt>
</event>
<event>
 9    1  0.7957670E-001  0.2892010E+03  0.7818608E-02  0.1090767E+00
         -1   -1    0    0    0  501 -0.00000000000E+00  0.00000000000E+00  0.22073872357E+02  0.22073872357E+02  0.00000000000E+00 0.  1.
          1   -1    0    0  501    0  0.00000000000E+00 -0.00000000000E+00 -0.94724197894E+03  0.94724197894E+03  0.00000000000E+00 0.  1.
         35    2    1    2    0    0  0.00000000000E+00  0.35527136788E-14 -0.92516810658E+03  0.96931585130E+03  0.28920095805E+03 0.  0.
         25    2    3    3    0    0  0.71020485923E+02  0.79293646558E+01 -0.48232926737E+03  0.50330768137E+03  0.12478107114E+03 0.  0.
         25    2    3    3    0    0 -0.71020485923E+02 -0.79293646558E+01 -0.44283883921E+03  0.46600816993E+03  0.12629565583E+03 0.  0.
          5    1    4    4  502    0 -0.89807446347E+01  0.51291170921E+02 -0.19413482386E+03  0.20105187844E+03  0.47000000000E+01 0.  1.
         -5    1    4    4    0  502  0.80001230557E+02 -0.43361806265E+02 -0.28819444352E+03  0.30225580293E+03  0.47000000000E+01 0.  1.
          5    1    5    5  503    0  0.47463810455E+00  0.19610902042E+02 -0.32341086801E+03  0.32403933759E+03  0.47000000000E+01 0. -1.
         -5    1    5    5    0  503 -0.71495124027E+02 -0.27540266698E+02 -0.11942797120E+03  0.14196883233E+03  0.47000000000E+01 0. -1.
<mgrwt>
<rscale>  0 0.28920096E+03</rscale>
<asrwt>0</asrwt>
<pdfrwt beam="1">  1        1 0.14572956E+00 0.28920096E+03</pdfrwt>
<pdfrwt beam="2">  1       -1 0.33959799E-02 0.28920096E+03</pdfrwt>
<totfact> 0.55079940E+03</totfact>
</mgrwt>
</event>
<event>
 9    1  0.7957670E-001  0.2744298E+03  0.7818608E-02  0.1098771E+00
          2   -1    0    0  501    0  0.00000000000E+00  0.00000000000E+00  0.42106380296E+03  0.42106380296E+03  0.00000000000E+00 0. -1.
         -2   -1    0    0    0  501 -0.00000000000E+00 -0.00000000000E+00 -0.44715137312E+02  0.44715137312E+02  0.00000000000E+00 0. -1.
         35    2    1    2    0    0  0.00000000000E+00  0.71054273576E-14  0.37634866565E+03  0.46577894027E+03  0.27442977802E+03 0.  0.
         25    2    3    3    0    0 -0.34176426172E+02 -0.44337001384E+02  0.22817042199E+03  0.26407738521E+03  0.12058742104E+03 0.  0.
         25    2    3    3    0    0  0.34176426172E+02  0.44337001384E+02  0.14817824366E+03  0.20170155506E+03  0.12487164459E+03 0.  0.
          5    1    4    4  502    0 -0.18486926793E+02 -0.88082148926E+01 -0.96072114869E+01  0.23102805553E+02  0.47000000000E+01 0.  1.
         -5    1    4    4    0  502 -0.15689499378E+02 -0.35528786491E+02  0.23777763348E+03  0.24097457966E+03  0.47000000000E+01 0.  1.
          5    1    5    5  503    0 -0.31340969403E+02  0.14135982564E+02 -0.22791770555E+01  0.34775954541E+02  0.47000000000E+01 0. -1.
         -5    1    5    5    0  503  0.65517395575E+02  0.30201018820E+02  0.15045742071E+03  0.16692560052E+03  0.47000000000E+01 0. -1.
<mgrwt>
<rscale>  0 0.27442978E+03</rscale>
<asrwt>0</asrwt>
<pdfrwt beam="1">  1        2 0.64779044E-01 0.27442978E+03</pdfrwt>
<pdfrwt beam="2">  1       -2 0.68792522E-02 0.27442978E+03</pdfrwt>
<totfact> 0.89729810E+03</totfact>
</mgrwt>
</event>
<event>
 9    1  0.7957670E-001  0.2743396E+03  0.7818608E-02  0.1098821E+00
          1   -1    0    0  501    0  0.00000000000E+00  0.00000000000E+00  0.66626621693E+03  0.66626621693E+03  0.00000000000E+00 0. -1.
         -1   -1    0    0    0  501 -0.00000000000E+00 -0.00000000000E+00 -0.28240291732E+02  0.28240291732E+02  0.00000000000E+00 0. -1.
         35    2    1    2    0    0  0.00000000000E+00  0.00000000000E+00  0.63802592520E+03  0.69450650866E+03  0.27433958764E+03 0.  0.
         25    2    3    3    0    0 -0.47600217426E+01  0.22980632902E+02  0.18437098503E+03  0.22342819047E+03  0.12400293900E+03 0.  0.
         25    2    3    3    0    0  0.47600217426E+01 -0.22980632902E+02  0.45365494017E+03  0.47107831819E+03  0.12474457837E+03 0.  0.
          5    1    4    4  502    0 -0.23148536731E+02 -0.47246448742E+02  0.88761314416E+02  0.10328960552E+03  0.47000000000E+01 0. -1.
         -5    1    4    4    0  502  0.18388514988E+02  0.70227081644E+02  0.95609670616E+02  0.12013858496E+03  0.47000000000E+01 0. -1.
          5    1    5    5  503    0  0.48315344792E+02 -0.34531296441E+02  0.11605173644E+03  0.13044875817E+03  0.47000000000E+01 0.  1.
         -5    1    5    5    0  503 -0.43555323049E+02  0.11550663538E+02  0.33760320373E+03  0.34062956002E+03  0.47000000000E+01 0.  1.
<mgrwt>
<rscale>  0 0.27433959E+03</rscale>
<asrwt>0</asrwt>
<pdfrwt beam="1">  1        1 0.10250248E+00 0.27433959E+03</pdfrwt>
<pdfrwt beam="2">  1       -1 0.43446608E-02 0.27433959E+03</pdfrwt>
<totfact> 0.65638200E+03</totfact>
</mgrwt>
</event>
<event>
 9    1  0.7957670E-001  0.2716194E+03  0.7818608E-02  0.1100356E+00
         -2   -1    0    0    0  501 -0.00000000000E+00  0.00000000000E+00  0.46969492364E+03  0.46969492364E+03  0.00000000000E+00 0.  1.
          2   -1    0    0  501    0  0.00000000000E+00 -0.00000000000E+00 -0.39268625083E+02  0.39268625083E+02  0.00000000000E+00 0.  1.
         35    2    1    2    0    0  0.00000000000E+00  0.00000000000E+00  0.43042629856E+03  0.50896354873E+03  0.27161939445E+03 0.  0.
         25    2    3    3    0    0  0.30052109259E+02  0.43609819363E+02  0.19819366225E+03  0.24044245554E+03  0.12540694182E+03 0.  0.
         25    2    3    3    0    0 -0.30052109259E+02 -0.43609819363E+02  0.23223263631E+03  0.26852109318E+03  0.12396223013E+03 0.  0.
          5    1    4    4  502    0  0.22429994183E+02 -0.17980444564E+02 -0.35243342372E+01  0.29341301225E+02  0.47000000000E+01 0. -1.
         -5    1    4    4    0  502  0.76221150765E+01  0.61590263927E+02  0.20171799649E+03  0.21110115432E+03  0.47000000000E+01 0. -1.
          5    1    5    5  503    0 -0.66036663952E+02  0.13053986559E+02  0.11933511411E+03  0.13709196552E+03  0.47000000000E+01 0.  1.
         -5    1    5    5    0  503  0.35984554693E+02 -0.56663805922E+02  0.11289752220E+03  0.13142912766E+03  0.47000000000E+01 0.  1.
<mgrwt>
<rscale>  0 0.27161939E+03</rscale>
<asrwt>0</asrwt>
<pdfrwt beam="1">  1        2 0.60413273E-02 0.27161939E+03</pdfrwt>
<pdfrwt beam="2">  1       -2 0.72260754E-01 0.27161939E+03</pdfrwt>
<totfact> 0.21740258E+03</totfact>
</mgrwt>
</event>
<event>
 9    1  0.7957670E-001  0.2748173E+03  0.7818608E-02  0.1098554E+00
          2   -1    0    0  501    0  0.00000000000E+00  0.00000000000E+00  0.25858938894E+04  0.25858938894E+04  0.00000000000E+00 0. -1.
         -2   -1    0    0    0  501 -0.00000000000E+00 -0.00000000000E+00 -0.73015900557E+01  0.73015900557E+01  0.00000000000E+00 0. -1.
         35    2    1    2    0    0  0.00000000000E+00  0.71054273576E-14  0.25785922993E+04  0.25931954794E+04  0.27481730009E+03 0.  0.
         25    2    3    3    0    0  0.33422464153E+02  0.35731370870E+02  0.14619516318E+04  0.14683337092E+04  0.12770088494E+03 0.  0.
         25    2    3    3    0    0 -0.33422464153E+02 -0.35731370870E+02  0.11166406675E+04  0.11248617702E+04  0.12662475938E+03 0.  0.
          5    1    4    4  502    0  0.54903814152E+02  0.53515205095E+02  0.49116648403E+03  0.49713671261E+03  0.47000000000E+01 0. -1.
         -5    1    4    4    0  502 -0.21481349999E+02 -0.17783834226E+02  0.97078514775E+03  0.97119699662E+03  0.47000000000E+01 0. -1.
          5    1    5    5  503    0 -0.68657486570E+02 -0.53749900864E+02  0.55692211733E+03  0.56372620754E+03  0.47000000000E+01 0. -1.
         -5    1    5    5    0  503  0.35235022418E+02  0.18018529995E+02  0.55971855021E+03  0.56113556266E+03  0.47000000000E+01 0. -1.
<mgrwt>
<rscale>  0 0.27481730E+03</rscale>
<asrwt>0</asrwt>
<pdfrwt beam="1">  1        2 0.39782910E+00 0.27481730E+03</pdfrwt>
<pdfrwt beam="2">  1       -2 0.11233236E-02 0.27481730E+03</pdfrwt>
<totfact> 0.64737744E+03</totfact>
</mgrwt>
</event>
<event>
 9    1  0.7957670E-001  0.2751738E+03  0.7818608E-02  0.1098354E+00
         -1   -1    0    0    0  501 -0.00000000000E+00  0.00000000000E+00  0.89920095939E+02  0.89920095939E+02  0.00000000000E+00 0.  1.
          1   -1    0    0  501    0  0.00000000000E+00 -0.00000000000E+00 -0.21052201768E+03  0.21052201768E+03  0.00000000000E+00 0.  1.
         35    2    1    2    0    0  0.00000000000E+00  0.17763568394E-14 -0.12060192174E+03  0.30044211362E+03  0.27517383616E+03 0.  0.
         25    2    3    3    0    0  0.44747124563E+02  0.66949020978E+01 -0.22607860554E+02  0.13442950411E+03  0.12455139238E+03 0.  0.
         25    2    3    3    0    0 -0.44747124563E+02 -0.66949020978E+01 -0.97994061188E+02  0.16601260951E+03  0.12613573490E+03 0.  0.
          5    1    4    4  502    0  0.29206929484E+02  0.12589647497E+02  0.50193498196E+02  0.59607224521E+02  0.47000000000E+01 0. -1.
         -5    1    4    4    0  502  0.15540195079E+02 -0.58947453996E+01 -0.72801358750E+02  0.74822279585E+02  0.47000000000E+01 0. -1.
          5    1    5    5  503    0  0.26061460667E+02  0.38803976741E+02 -0.19624794026E+02  0.50913366452E+02  0.47000000000E+01 0. -1.
         -5    1    5    5    0  503 -0.70808585230E+02 -0.45498878839E+02 -0.78369267163E+02  0.11509924306E+03  0.47000000000E+01 0. -1.
<mgrwt>
<rscale>  0 0.27517384E+03</rscale>
<asrwt>0</asrwt>
<pdfrwt beam="1">  1        1 0.32388003E-01 0.27517384E+03</pdfrwt>
<pdfrwt beam="2">  1       -1 0.13833861E-01 0.27517384E+03</pdfrwt>
<totfact> 0.49905501E+03</totfact>
</mgrwt>
</event>
<event>
 9    1  0.7957670E-001  0.2759619E+03  0.7818608E-02  0.1097915E+00
         -2   -1    0    0    0  501 -0.00000000000E+00  0.00000000000E+00  0.72629388264E+01  0.72629388264E+01  0.00000000000E+00 0.  1.
          2   -1    0    0  501    0  0.00000000000E+00 -0.00000000000E+00 -0.26213559559E+04  0.26213559559E+04  0.00000000000E+00 0.  1.
         35    2    1    2    0    0  0.71054273576E-14  0.35527136788E-14 -0.26140930170E+04  0.26286188947E+04  0.27596193904E+03 0.  0.
         25    2    3    3    0    0 -0.53886878984E+02 -0.18724492619E+02 -0.12642450373E+04  0.12718271561E+04  0.12638986580E+03 0.  0.
         25    2    3    3    0    0  0.53886878984E+02  0.18724492619E+02 -0.13498479797E+04  0.13567917386E+04  0.12465893988E+03 0.  0.
          5    1    4    4  502    0 -0.83730711741E+02 -0.18263147036E+02 -0.11631766758E+04  0.11663389060E+04  0.47000000000E+01 0.  1.
         -5    1    4    4    0  502  0.29843832757E+02 -0.46134558284E+00 -0.10106836157E+03  0.10548825007E+03  0.47000000000E+01 0.  1.
          5    1    5    5  503    0  0.92050719020E+02  0.11557417016E+02 -0.76147517695E+03  0.76712022778E+03  0.47000000000E+01 0. -1.
         -5    1    5    5    0  503 -0.38163840036E+02  0.71670756031E+01 -0.58837280277E+03  0.58967151084E+03  0.47000000000E+01 0. -1.
<mgrwt>
<rscale>  0 0.27596194E+03</rscale>
<asrwt>0</asrwt>
<pdfrwt beam="1">  1        2 0.40328554E+00 0.27596194E+03</pdfrwt>
<pdfrwt beam="2">  1       -2 0.11173752E-02 0.27596194E+03</pdfrwt>
<totfact> 0.62344030E+03</totfact>
</mgrwt>
</event>
<event>
 9    1  0.7957670E-001  0.2753919E+03  0.7818608E-02  0.1098233E+00
         -2   -1    0    0    0  501 -0.00000000000E+00  0.00000000000E+00  0.10946940222E+03  0.10946940222E+03  0.00000000000E+00 0.  1.
          2   -1    0    0  501    0  0.00000000000E+00 -0.00000000000E+00 -0.17320069304E+03  0.17320069304E+03  0.00000000000E+00 0.  1.
         35    2    1    2    0    0 -0.71054273576E-14  0.35527136788E-14 -0.63731290820E+02  0.28267009527E+03  0.27539191224E+03 0.  0.
         25    2    3    3    0    0 -0.55826106580E+02  0.23230455958E+01 -0.21079773597E+02  0.13878536310E+03  0.12527996424E+03 0.  0.
         25    2    3    3    0    0  0.55826106580E+02 -0.23230455958E+01 -0.42651517223E+02  0.14388473216E+03  0.12554566305E+03 0.  0.
          5    1    4    4  502    0 -0.53711181880E+02  0.58906489394E+02 -0.18148332075E+02  0.81892108953E+02  0.47000000000E+01 0. -1.
         -5    1    4    4    0  502 -0.21149247004E+01 -0.56583443798E+02 -0.29314415215E+01  0.56893254152E+02  0.47000000000E+01 0. -1.
          5    1    5    5  503    0  0.46446751240E+02  0.26102691023E+02 -0.79725079689E+02  0.96004320272E+02  0.47000000000E+01 0. -1.
         -5    1    5    5    0  503  0.93793553401E+01 -0.28425736619E+02  0.37073562466E+02  0.47880411891E+02  0.47000000000E+01 0. -1.
<mgrwt>
<rscale>  0 0.27539191E+03</rscale>
<asrwt>0</asrwt>
<pdfrwt beam="1">  1        2 0.26646261E-01 0.27539191E+03</pdfrwt>
<pdfrwt beam="2">  1       -2 0.16841446E-01 0.27539191E+03</pdfrwt>
<totfact> 0.56024327E+03</totfact>
</mgrwt>
</event>
<event>
 9    1  0.7957670E-001  0.2766098E+03  0.7818608E-02  0.1097555E+00
          2   -1    0    0  501    0  0.00000000000E+00  0.00000000000E+00  0.12372256360E+04  0.12372256360E+04  0.00000000000E+00 0. -1.
         -2   -1    0    0    0  501 -0.00000000000E+00 -0.00000000000E+00 -0.15460594860E+02  0.15460594860E+02  0.00000000000E+00 0. -1.
         35    2    1    2    0    0  0.71054273576E-14  0.35527136788E-14  0.12217650412E+04  0.12526862309E+04  0.27660979237E+03 0.  0.
         25    2    3    3    0    0 -0.18587336017E+02 -0.23987013729E+02  0.84544835080E+03  0.85509614630E+03  0.12444131013E+03 0.  0.
         25    2    3    3    0    0  0.18587336017E+02  0.23987013729E+02  0.37631669039E+03  0.39759008460E+03  0.12467059806E+03 0.  0.
          5    1    4    4  502    0 -0.45615185768E+02 -0.38633101749E+02  0.19749071855E+03  0.20639267340E+03  0.47000000000E+01 0. -1.
         -5    1    4    4    0  502  0.27027849750E+02  0.14646088020E+02  0.64795763225E+03  0.64870347290E+03  0.47000000000E+01 0. -1.
          5    1    5    5  503    0  0.71898313417E+02  0.10340049064E+02  0.20060877372E+03  0.21340631242E+03  0.47000000000E+01 0. -1.
         -5    1    5    5    0  503 -0.53310977400E+02  0.13646964665E+02  0.17570791667E+03  0.18418377218E+03  0.47000000000E+01 0. -1.
<mgrwt>
<rscale>  0 0.27660979E+03</rscale>
<asrwt>0</asrwt>
<pdfrwt beam="1">  1        2 0.19034233E+00 0.27660979E+03</pdfrwt>
<pdfrwt beam="2">  1       -2 0.23785540E-02 0.27660979E+03</pdfrwt>
<totfact> 0.11375827E+04</totfact>
</mgrwt>
</event>
<event>
 9    1  0.7957670E-001  0.2726459E+03  0.7818608E-02  0.1099775E+00
         -2   -1    0    0    0  501 -0.00000000000E+00  0.00000000000E+00  0.54280006187E+02  0.54280006187E+02  0.00000000000E+00 0. -1.
          2   -1    0    0  501    0  0.00000000000E+00 -0.00000000000E+00 -0.34237188024E+03  0.34237188024E+03  0.00000000000E+00 0. -1.
         35    2    1    2    0    0 -0.35527136788E-14  0.00000000000E+00 -0.28809187405E+03  0.39665188642E+03  0.27264590793E+03 0.  0.
         25    2    3    3    0    0  0.18695710550E+02 -0.45766887888E+02 -0.11485750875E+03  0.17733553054E+03  0.12574380881E+03 0.  0.
         25    2    3    3    0    0 -0.18695710550E+02  0.45766887888E+02 -0.17323436530E+03  0.21931635589E+03  0.12508149750E+03 0.  0.
          5    1    4    4  502    0 -0.47159870325E+02 -0.48367947507E+01 -0.77897358539E+02  0.91310111269E+02  0.47000000000E+01 0.  1.
         -5    1    4    4    0  502  0.65855580876E+02 -0.40930093137E+02 -0.36960150209E+02  0.86025419268E+02  0.47000000000E+01 0.  1.
          5    1    5    5  503    0  0.10347935359E+02  0.81765123214E+02 -0.79118444738E+02  0.11434348883E+03  0.47000000000E+01 0. -1.
         -5    1    5    5    0  503 -0.29043645909E+02 -0.35998235326E+02 -0.94115920564E+02  0.10497286706E+03  0.47000000000E+01 0. -1.
<mgrwt>
<rscale>  0 0.27264591E+03</rscale>
<asrwt>0</asrwt>
<pdfrwt beam="1">  1        2 0.52672597E-01 0.27264591E+03</pdfrwt>
<pdfrwt beam="2">  1       -2 0.83507701E-02 0.27264591E+03</pdfrwt>
<totfact> 0.83016889E+03</totfact>
</mgrwt>
</event>
<event>
 9    1  0.7957670E-001  0.2716252E+03  0.7818608E-02  0.1100353E+00
          1   -1    0    0  501    0  0.00000000000E+00  0.00000000000E+00  0.14524965364E+04  0.14524965364E+04  0.00000000000E+00 0. -1.
         -1   -1    0    0    0  501 -0.00000000000E+00 -0.00000000000E+00 -0.12698871358E+02  0.12698871358E+02  0.00000000000E+00 0. -1.
         35    2    1    2    0    0 -0.17763568394E-14  0.00000000000E+00  0.14397976650E+04  0.14651954077E+04  0.27162523199E+03 0.  0.
         25    2    3    3    0    0  0.14137821221E+02 -0.33286459188E+02  0.51530139445E+03  0.53154134459E+03  0.12527093650E+03 0.  0.
         25    2    3    3    0    0 -0.14137821221E+02  0.33286459188E+02  0.92449627055E+03  0.93365406313E+03  0.12533430886E+03 0.  0.
          5    1    4    4  502    0 -0.13693212089E+02 -0.74945153696E+02  0.24568144913E+03  0.25726590246E+03  0.47000000000E+01 0.  1.
         -5    1    4    4    0  502  0.27831033309E+02  0.41658694507E+02  0.26961994532E+03  0.27427544213E+03  0.47000000000E+01 0.  1.
          5    1    5    5  503    0  0.50149142533E+02  0.35883503971E+02  0.33709734211E+03  0.34272331466E+03  0.47000000000E+01 0.  1.
         -5    1    5    5    0  503 -0.64286963754E+02 -0.25970447829E+01  0.58739892845E+03  0.59093074847E+03  0.47000000000E+01 0.  1.
<mgrwt>
<rscale>  0 0.27162523E+03</rscale>
<asrwt>0</asrwt>
<pdfrwt beam="1">  1        1 0.22346087E+00 0.27162523E+03</pdfrwt>
<pdfrwt beam="2">  1       -1 0.19536737E-02 0.27162523E+03</pdfrwt>
<totfact> 0.54608169E+03</totfact>
</mgrwt>
</event>
<event>
 9    1  0.7957670E-001  0.2704317E+03  0.7818608E-02  0.1101033E+00
         -1   -1    0    0    0  501 -0.00000000000E+00  0.00000000000E+00  0.21458226705E+02  0.21458226705E+02  0.00000000000E+00 0.  1.
          1   -1    0    0  501    0  0.00000000000E+00 -0.00000000000E+00 -0.85204266736E+03  0.85204266736E+03  0.00000000000E+00 0.  1.
         35    2    1    2    0    0  0.71054273576E-14  0.00000000000E+00 -0.83058444065E+03  0.87350089406E+03  0.27043168985E+03 0.  0.
         25    2    3    3    0    0 -0.28148334557E+02  0.22180888562E+02 -0.53997229497E+03  0.55533407841E+03  0.12466570804E+03 0.  0.
         25    2    3    3    0    0  0.28148334557E+02 -0.22180888562E+02 -0.29061214569E+03  0.31816681565E+03  0.12446036640E+03 0.  0.
          5    1    4    4  502    0  0.37867204963E+02  0.37305109316E+02 -0.14370000107E+03  0.15328854067E+03  0.47000000000E+01 0. -1.
         -5    1    4    4    0  502 -0.66015539519E+02 -0.15124220754E+02 -0.39627229390E+03  0.40204553775E+03  0.47000000000E+01 0. -1.
          5    1    5    5  503    0  0.75905554188E+02  0.43590184123E+00 -0.15851463791E+03  0.17581474227E+03  0.47000000000E+01 0.  1.
         -5    1    5    5    0  503 -0.47757219632E+02 -0.22616790404E+02 -0.13209750778E+03  0.14235207338E+03  0.47000000000E+01 0.  1.
<mgrwt>
<rscale>  0 0.27043169E+03</rscale>
<asrwt>0</asrwt>
<pdfrwt beam="1">  1        1 0.13108349E+00 0.27043169E+03</pdfrwt>
<pdfrwt beam="2">  1       -1 0.33012655E-02 0.27043169E+03</pdfrwt>
<totfact> 0.68148775E+03</totfact>
</mgrwt>
</event>
<event>
 9    1  0.7957670E-001  0.2763495E+03  0.7818608E-02  0.1097700E+00
          2   -1    0    0  501    0  0.00000000000E+00  0.00000000000E+00  0.34882287810E+04  0.34882287810E+04  0.00000000000E+00 0. -1.
         -2   -1    0    0    0  501 -0.00000000000E+00 -0.00000000000E+00 -0.54733394636E+01  0.54733394636E+01  0.00000000000E+00 0. -1.
         35    2    1    2    0    0  0.00000000000E+00 -0.35527136788E-14  0.34827554415E+04  0.34937021204E+04  0.27634949064E+03 0.  0.
         25    2    3    3    0    0  0.93329882522E+01 -0.30042262159E+01  0.97853142123E+03  0.98635802521E+03  0.12362152525E+03 0.  0.
         25    2    3    3    0    0 -0.93329882522E+01  0.30042262159E+01  0.25042240203E+04  0.25073440952E+04  0.12466089245E+03 0.  0.
          5    1    4    4  502    0 -0.51153942718E+02  0.19152953382E+02  0.58479278341E+03  0.58735700473E+03  0.47000000000E+01 0.  1.
         -5    1    4    4    0  502  0.60486930970E+02 -0.22157179598E+02  0.39373863782E+03  0.39900102047E+03  0.47000000000E+01 0.  1.
          5    1    5    5  503    0 -0.29934446953E+02  0.44216491841E+02  0.55790624146E+03  0.56047536388E+03  0.47000000000E+01 0.  1.
         -5    1    5    5    0  503  0.20601458701E+02 -0.41212265625E+02  0.19463177788E+04  0.19468687313E+04  0.47000000000E+01 0.  1.
<mgrwt>
<rscale>  0 0.27634949E+03</rscale>
<asrwt>0</asrwt>
<pdfrwt beam="1">  1        2 0.53664881E+00 0.27634949E+03</pdfrwt>
<pdfrwt beam="2">  1       -2 0.84205501E-03 0.27634949E+03</pdfrwt>
<totfact> 0.28248776E+03</totfact>
</mgrwt>
</event>
<event>
 9    1  0.7957670E-001  0.2671404E+03  0.7818608E-02  0.1102927E+00
          1   -1    0    0  501    0  0.00000000000E+00  0.00000000000E+00  0.17688969757E+04  0.17688969757E+04  0.00000000000E+00 0. -1.
         -1   -1    0    0    0  501 -0.00000000000E+00 -0.00000000000E+00 -0.10085945219E+02  0.10085945219E+02  0.00000000000E+00 0. -1.
         35    2    1    2    0    0  0.00000000000E+00  0.00000000000E+00  0.17588110305E+04  0.17789829210E+04  0.26714039750E+03 0.  0.
         25    2    3    3    0    0 -0.27526832150E+02 -0.18807597906E+02  0.69180070847E+03  0.70411465429E+03  0.12679816211E+03 0.  0.
         25    2    3    3    0    0  0.27526832150E+02  0.18807597906E+02  0.10670103221E+04  0.10748682667E+04  0.12537667688E+03 0.  0.
          5    1    4    4  502    0  0.58842204783E+01  0.42906971012E+02  0.45522756576E+03  0.45730718214E+03  0.47000000000E+01 0. -1.
         -5    1    4    4    0  502 -0.33411052628E+02 -0.61714568918E+02  0.23657314271E+03  0.24680747214E+03  0.47000000000E+01 0. -1.
          5    1    5    5  503    0 -0.20627809163E+02  0.51841770774E+02  0.27206217153E+03  0.27776427215E+03  0.47000000000E+01 0. -1.
         -5    1    5    5    0  503  0.48154641313E+02 -0.33034172869E+02  0.79494815053E+03  0.79710399453E+03  0.47000000000E+01 0. -1.
<mgrwt>
<rscale>  0 0.26714040E+03</rscale>
<asrwt>0</asrwt>
<pdfrwt beam="1">  1        1 0.27213775E+00 0.26714040E+03</pdfrwt>
<pdfrwt beam="2">  1       -1 0.15516853E-02 0.26714040E+03</pdfrwt>
<totfact> 0.47351559E+03</totfact>
</mgrwt>
</event>
<event>
 9    1  0.7957670E-001  0.2656633E+03  0.7818608E-02  0.1103788E+00
          1   -1    0    0  501    0  0.00000000000E+00  0.00000000000E+00  0.21552489977E+04  0.21552489977E+04  0.00000000000E+00 0.  1.
         -1   -1    0    0    0  501 -0.00000000000E+00 -0.00000000000E+00 -0.81866376335E+01  0.81866376335E+01  0.00000000000E+00 0.  1.
         35    2    1    2    0    0  0.00000000000E+00  0.14210854715E-13  0.21470623601E+04  0.21634356354E+04  0.26566326471E+03 0.  0.
         25    2    3    3    0    0  0.33368660851E+01 -0.56173906396E+02  0.97450092977E+03  0.98282943220E+03  0.11460797630E+03 0.  0.
         25    2    3    3    0    0 -0.33368660851E+01  0.56173906396E+02  0.11725614303E+04  0.11806062032E+04  0.12555499446E+03 0.  0.
          5    1    4    4  502    0  0.52567973406E+02 -0.59930166228E+00  0.36212049670E+03  0.36594684740E+03  0.47000000000E+01 0.  1.
         -5    1    4    4    0  502 -0.49231107321E+02 -0.55574604734E+02  0.61238043307E+03  0.61688258480E+03  0.47000000000E+01 0.  1.
          5    1    5    5  503    0 -0.73427268162E+01  0.85065473577E+02  0.10814273069E+04  0.10848028210E+04  0.47000000000E+01 0.  1.
         -5    1    5    5    0  503  0.40058607310E+01 -0.28891567181E+02  0.91134123474E+02  0.95803382173E+02  0.47000000000E+01 0.  1.
<mgrwt>
<rscale>  0 0.26566326E+03</rscale>
<asrwt>0</asrwt>
<pdfrwt beam="1">  1        1 0.33157632E+00 0.26566326E+03</pdfrwt>
<pdfrwt beam="2">  1       -1 0.12594844E-02 0.26566326E+03</pdfrwt>
<totfact> 0.35987233E+03</totfact>
</mgrwt>
</event>
<event>
 9    1  0.7957670E-001  0.2619233E+03  0.7818608E-02  0.1105993E+00
         -2   -1    0    0    0  501 -0.00000000000E+00  0.00000000000E+00  0.32314856077E+03  0.32314856077E+03  0.00000000000E+00 0.  1.
          2   -1    0    0  501    0  0.00000000000E+00 -0.00000000000E+00 -0.53074511434E+02  0.53074511434E+02  0.00000000000E+00 0.  1.
         35    2    1    2    0    0  0.00000000000E+00  0.35527136788E-14  0.27007404934E+03  0.37622307221E+03  0.26192328635E+03 0.  0.
         25    2    3    3    0    0  0.67924472569E+01 -0.10805965847E+01  0.18957116317E+03  0.22707995039E+03  0.12482296638E+03 0.  0.
         25    2    3    3    0    0 -0.67924472569E+01  0.10805965847E+01  0.80502886169E+02  0.14914312181E+03  0.12536207989E+03 0.  0.
          5    1    4    4  502    0  0.23720454683E+02  0.38335829353E+02  0.15752954763E+02  0.47984803494E+02  0.47000000000E+01 0. -1.
         -5    1    4    4    0  502 -0.16928007426E+02 -0.39416425938E+02  0.17381820841E+03  0.17909514690E+03  0.47000000000E+01 0. -1.
          5    1    5    5  503    0  0.41337786309E+01  0.17387901688E+02  0.11102404459E+03  0.11255156919E+03  0.47000000000E+01 0.  1.
         -5    1    5    5    0  503 -0.10926225888E+02 -0.16307305104E+02 -0.30521158419E+02  0.36591552620E+02  0.47000000000E+01 0.  1.
<mgrwt>
<rscale>  0 0.26192329E+03</rscale>
<asrwt>0</asrwt>
<pdfrwt beam="1">  1        2 0.81653097E-02 0.26192329E+03</pdfrwt>
<pdfrwt beam="2">  1       -2 0.49715162E-01 0.26192329E+03</pdfrwt>
<totfact> 0.31985071E+03</totfact>
</mgrwt>
</event>
<event>
 9    1  0.7957670E-001  0.2760055E+03  0.7818608E-02  0.1097891E+00
          2   -1    0    0  501    0  0.00000000000E+00  0.00000000000E+00  0.16385965762E+04  0.16385965762E+04  0.00000000000E+00 0. -1.
         -2   -1    0    0    0  501 -0.00000000000E+00 -0.00000000000E+00 -0.11622608013E+02  0.11622608013E+02  0.00000000000E+00 0. -1.
         35    2    1    2    0    0 -0.35527136788E-14  0.35527136788E-14  0.16269739682E+04  0.16502191842E+04  0.27600554847E+03 0.  0.
         25    2    3    3    0    0  0.70254475141E+01 -0.23611903939E+02  0.12678335240E+04  0.12737434814E+04  0.12005720742E+03 0.  0.
         25    2    3    3    0    0 -0.70254475141E+01  0.23611903939E+02  0.35914044423E+03  0.37647570280E+03  0.11020534105E+03 0.  0.
          5    1    4    4  502    0 -0.29243997751E+02  0.35554111601E+02  0.72440101759E+03  0.72587755891E+03  0.47000000000E+01 0.  1.
         -5    1    4    4    0  502  0.36269445266E+02 -0.59166015540E+02  0.54343250640E+03  0.54786592252E+03  0.47000000000E+01 0.  1.
          5    1    5    5  503    0  0.41950406935E+02  0.23808537319E+02  0.84063274695E+02  0.97033021409E+02  0.47000000000E+01 0. -1.
         -5    1    5    5    0  503 -0.48975854449E+02 -0.19663337999E+00  0.27507716953E+03  0.27944268139E+03  0.47000000000E+01 0. -1.
<mgrwt>
<rscale>  0 0.27600555E+03</rscale>
<asrwt>0</asrwt>
<pdfrwt beam="1">  1        2 0.25209160E+00 0.27600555E+03</pdfrwt>
<pdfrwt beam="2">  1       -2 0.17880948E-02 0.27600555E+03</pdfrwt>
<totfact> 0.10495778E+04</totfact>
</mgrwt>
</event>
<event>
 9    1  0.7957670E-001  0.2761867E+03  0.7818608E-02  0.1097790E+00
          1   -1    0    0  501    0  0.00000000000E+00  0.00000000000E+00  0.38527593389E+03  0.38527593389E+03  0.00000000000E+00 0. -1.
         -1   -1    0    0    0  501 -0.00000000000E+00 -0.00000000000E+00 -0.49496405354E+02  0.49496405354E+02  0.00000000000E+00 0. -1.
         35    2    1    2    0    0  0.71054273576E-14 -0.71054273576E-14  0.33577952854E+03  0.43477233924E+03  0.27618670350E+03 0.  0.
         25    2    3    3    0    0  0.15753172800E+02 -0.48993985473E+02  0.21913640801E+03  0.25736755893E+03  0.12477468496E+03 0.  0.
         25    2    3    3    0    0 -0.15753172800E+02  0.48993985473E+02  0.11664312053E+03  0.17740478032E+03  0.12336233399E+03 0.  0.
          5    1    4    4  502    0  0.45347881449E+02 -0.78887836444E+02  0.16673951485E+03  0.19001020210E+03  0.47000000000E+01 0. -1.
         -5    1    4    4    0  502 -0.29594708649E+02  0.29893850971E+02  0.52396893160E+02  0.67357356827E+02  0.47000000000E+01 0. -1.
          5    1    5    5  503    0 -0.49972220427E+02  0.33648726894E+02  0.62851266764E+01  0.60754032404E+02  0.47000000000E+01 0.  1.
         -5    1    5    5    0  503  0.34219047627E+02  0.15345258580E+02  0.11035799385E+03  0.11665074791E+03  0.47000000000E+01 0.  1.
<mgrwt>
<rscale>  0 0.27618670E+03</rscale>
<asrwt>0</asrwt>
<pdfrwt beam="1">  1        1 0.59273219E-01 0.27618670E+03</pdfrwt>
<pdfrwt beam="2">  1       -1 0.76148319E-02 0.27618670E+03</pdfrwt>
<totfact> 0.58739353E+03</totfact>
</mgrwt>
</event>
<event>
 9    1  0.7957670E-001  0.2730039E+03  0.7818608E-02  0.1099573E+00
         -2   -1    0    0    0  501 -0.00000000000E+00  0.00000000000E+00  0.52870715376E+02  0.52870715376E+02  0.00000000000E+00 0.  1.
          2   -1    0    0  501    0  0.00000000000E+00 -0.00000000000E+00 -0.35242164857E+03  0.35242164857E+03  0.00000000000E+00 0.  1.
         35    2    1    2    0    0 -0.35527136788E-14  0.71054273576E-14 -0.29955093319E+03  0.40529236394E+03  0.27300391700E+03 0.  0.
         25    2    3    3    0    0 -0.24828077904E+02  0.38126563746E+02 -0.19699567728E+03  0.23773995632E+03  0.12507166605E+03 0.  0.
         25    2    3    3    0    0  0.24828077904E+02 -0.38126563746E+02 -0.10255525591E+03  0.16755240763E+03  0.12444340268E+03 0.  0.
          5    1    4    4  502    0 -0.25412337063E+02  0.73969798168E+02 -0.18282371500E+03  0.19890680904E+03  0.47000000000E+01 0. -1.
         -5    1    4    4    0  502  0.58425915889E+00 -0.35843234422E+02 -0.14171962278E+02  0.38833147277E+02  0.47000000000E+01 0. -1.
          5    1    5    5  503    0  0.36831282211E+02  0.39265966714E+02 -0.41786256924E+02  0.68312083551E+02  0.47000000000E+01 0.  1.
         -5    1    5    5    0  503 -0.12003204307E+02 -0.77392530460E+02 -0.60768998988E+02  0.99240324076E+02  0.47000000000E+01 0.  1.
<mgrwt>
<rscale>  0 0.27300392E+03</rscale>
<asrwt>0</asrwt>
<pdfrwt beam="1">  1        2 0.54218716E-01 0.27300392E+03</pdfrwt>
<pdfrwt beam="2">  1       -2 0.81339561E-02 0.27300392E+03</pdfrwt>
<totfact> 0.83852688E+03</totfact>
</mgrwt>
</event>
<event>
 9    1  0.7957670E-001  0.2850024E+03  0.7818608E-02  0.1092988E+00
          2   -1    0    0  501    0  0.00000000000E+00  0.00000000000E+00  0.57365336698E+03  0.57365336698E+03  0.00000000000E+00 0. -1.
         -2   -1    0    0    0  501 -0.00000000000E+00 -0.00000000000E+00 -0.35398710476E+02  0.35398710476E+02  0.00000000000E+00 0. -1.
         35    2    1    2    0    0  0.00000000000E+00 -0.71054273576E-14  0.53825465650E+03  0.60905207746E+03  0.28500238210E+03 0.  0.
         25    2    3    3    0    0  0.36350814620E+02  0.57620013765E+02  0.25108444897E+03  0.28875940377E+03  0.12528824783E+03 0.  0.
         25    2    3    3    0    0 -0.36350814620E+02 -0.57620013765E+02  0.28717020754E+03  0.32029267369E+03  0.12441551756E+03 0.  0.
          5    1    4    4  502    0  0.55256166629E+02 -0.20508969863E+02  0.13606047622E+03  0.14835230023E+03  0.47000000000E+01 0.  1.
         -5    1    4    4    0  502 -0.18905352008E+02  0.78128983628E+02  0.11502397275E+03  0.14040710354E+03  0.47000000000E+01 0.  1.
          5    1    5    5  503    0 -0.58605497733E+02 -0.82538105947E+02  0.16576344215E+03  0.19428523374E+03  0.47000000000E+01 0. -1.
         -5    1    5    5    0  503  0.22254683113E+02  0.24918092182E+02  0.12140676539E+03  0.12600743994E+03  0.47000000000E+01 0. -1.
<mgrwt>
<rscale>  0 0.28500238E+03</rscale>
<asrwt>0</asrwt>
<pdfrwt beam="1">  1        2 0.88254357E-01 0.28500238E+03</pdfrwt>
<pdfrwt beam="2">  1       -2 0.54459559E-02 0.28500238E+03</pdfrwt>
<totfact> 0.91060525E+03</totfact>
</mgrwt>
</event>
<event>
 9    1  0.7957670E-001  0.2756996E+03  0.7818608E-02  0.1098061E+00
          2   -1    0    0  501    0  0.00000000000E+00  0.00000000000E+00  0.13930776732E+02  0.13930776732E+02  0.00000000000E+00 0. -1.
         -2   -1    0    0    0  501 -0.00000000000E+00 -0.00000000000E+00 -0.13640705758E+04  0.13640705758E+04  0.00000000000E+00 0. -1.
         35    2    1    2    0    0  0.71054273576E-14  0.71054273576E-14 -0.13501397991E+04  0.13780013526E+04  0.27569956575E+03 0.  0.
         25    2    3    3    0    0  0.37897412378E+02  0.45467401304E+02 -0.65413340328E+03  0.66858059350E+03  0.12492398596E+03 0.  0.
         25    2    3    3    0    0 -0.37897412378E+02 -0.45467401304E+02 -0.69600639582E+03  0.70942075907E+03  0.12389274364E+03 0.  0.
          5    1    4    4  502    0 -0.55415466294E+01  0.48501684061E+02 -0.58290201449E+03  0.58496151206E+03  0.47000000000E+01 0.  1.
         -5    1    4    4    0  502  0.43438959007E+02 -0.30342827572E+01 -0.71231388792E+02  0.83619081439E+02  0.47000000000E+01 0.  1.
          5    1    5    5  503    0 -0.55758467854E+02 -0.61863708519E+02 -0.26752486593E+03  0.28022806615E+03  0.47000000000E+01 0. -1.
         -5    1    5    5    0  503  0.17861055476E+02  0.16396307215E+02 -0.42848152990E+03  0.42919269292E+03  0.47000000000E+01 0. -1.
<mgrwt>
<rscale>  0 0.27569957E+03</rscale>
<asrwt>0</asrwt>
<pdfrwt beam="1">  1        2 0.21431961E-02 0.27569957E+03</pdfrwt>
<pdfrwt beam="2">  1       -2 0.20985704E+00 0.27569957E+03</pdfrwt>
<totfact> 0.62259104E+02</totfact>
</mgrwt>
</event>
<event>
 9    1  0.7957670E-001  0.2737297E+03  0.7818608E-02  0.1099164E+00
          2   -1    0    0  501    0  0.00000000000E+00  0.00000000000E+00  0.37675736016E+03  0.37675736016E+03  0.00000000000E+00 0.  1.
         -2   -1    0    0    0  501 -0.00000000000E+00 -0.00000000000E+00 -0.49718963957E+02  0.49718963957E+02  0.00000000000E+00 0.  1.
         35    2    1    2    0    0  0.00000000000E+00  0.35527136788E-14  0.32703839620E+03  0.42647632412E+03  0.27372968864E+03 0.  0.
         25    2    3    3    0    0  0.50184011426E+02 -0.89736175898E+00  0.13305118374E+03  0.18925333918E+03  0.12487981676E+03 0.  0.
         25    2    3    3    0    0 -0.50184011426E+02  0.89736175898E+00  0.19398721246E+03  0.23722298494E+03  0.12698214727E+03 0.  0.
          5    1    4    4  502    0  0.40129671382E+02 -0.54747120520E+02  0.34230994813E+02  0.76167504465E+02  0.47000000000E+01 0. -1.
         -5    1    4    4    0  502  0.10054340044E+02  0.53849758761E+02  0.98820188931E+02  0.11308583471E+03  0.47000000000E+01 0. -1.
          5    1    5    5  503    0 -0.39401268011E+02 -0.36364942323E+01  0.21173610501E+03  0.21545290013E+03  0.47000000000E+01 0.  1.
         -5    1    5    5    0  503 -0.10782743415E+02  0.45338559913E+01 -0.17748892550E+02  0.21770084806E+02  0.47000000000E+01 0.  1.
<mgrwt>
<rscale>  0 0.27372969E+03</rscale>
<asrwt>0</asrwt>
<pdfrwt beam="1">  1        2 0.57962669E-01 0.27372969E+03</pdfrwt>
<pdfrwt beam="2">  1       -2 0.76490716E-02 0.27372969E+03</pdfrwt>
<totfact> 0.85875004E+03</totfact>
</mgrwt>
</event>
<event>
 9    1  0.7957670E-001  0.2718888E+03  0.7818608E-02  0.1100203E+00
          1   -1    0    0  501    0  0.00000000000E+00  0.00000000000E+00  0.12796099193E+04  0.12796099193E+04  0.00000000000E+00 0.  1.
         -1   -1    0    0    0  501 -0.00000000000E+00 -0.00000000000E+00 -0.14442589233E+02  0.14442589233E+02  0.00000000000E+00 0.  1.
         35    2    1    2    0    0 -0.71054273576E-14 -0.35527136788E-14  0.12651673301E+04  0.12940525086E+04  0.27188880406E+03 0.  0.
         25    2    3    3    0    0  0.39380436213E+02  0.73477507810E+01  0.79730746821E+03  0.80778289025E+03  0.12332554776E+03 0.  0.
         25    2    3    3    0    0 -0.39380436213E+02 -0.73477507810E+01  0.46785986190E+03  0.48626961832E+03  0.12633480567E+03 0.  0.
          5    1    4    4  502    0 -0.28457469635E+02 -0.24009189912E+01  0.53648112528E+02  0.60957378289E+02  0.47000000000E+01 0.  1.
         -5    1    4    4    0  502  0.67837905848E+02  0.97486697722E+01  0.74365935568E+03  0.74682551196E+03  0.47000000000E+01 0.  1.
          5    1    5    5  503    0 -0.24378273723E+02  0.32089554024E+02  0.42355649963E+02  0.58652628168E+02  0.47000000000E+01 0.  1.
         -5    1    5    5    0  503 -0.15002162490E+02 -0.39437304805E+02  0.42550421194E+03  0.42761699016E+03  0.47000000000E+01 0.  1.
<mgrwt>
<rscale>  0 0.27188880E+03</rscale>
<asrwt>0</asrwt>
<pdfrwt beam="1">  1        1 0.19686297E+00 0.27188880E+03</pdfrwt>
<pdfrwt beam="2">  1       -1 0.22219378E-02 0.27188880E+03</pdfrwt>
<totfact> 0.59197775E+03</totfact>
</mgrwt>
</event>
<event>
 9    1  0.7957670E-001  0.2842692E+03  0.7818608E-02  0.1093380E+00
          2   -1    0    0  501    0  0.00000000000E+00  0.00000000000E+00  0.15147406862E+04  0.15147406862E+04  0.00000000000E+00 0. -1.
         -2   -1    0    0    0  501 -0.00000000000E+00 -0.00000000000E+00 -0.13337094294E+02  0.13337094294E+02  0.00000000000E+00 0. -1.
         35    2    1    2    0    0  0.00000000000E+00  0.17763568394E-14  0.15014035919E+04  0.15280777805E+04  0.28426916374E+03 0.  0.
         25    2    3    3    0    0 -0.57134727982E+01  0.81274831042E+01  0.11065967494E+04  0.11138391413E+04  0.12642217806E+03 0.  0.
         25    2    3    3    0    0  0.57134727982E+01 -0.81274831042E+01  0.39480684250E+03  0.41423863921E+03  0.12499002991E+03 0.  0.
          5    1    4    4  502    0  0.35147654279E+02 -0.50828337762E+01  0.98410681464E+02  0.10472795724E+03  0.47000000000E+01 0. -1.
         -5    1    4    4    0  502 -0.40861127077E+02  0.13210316880E+02  0.10081860680E+04  0.10091111841E+04  0.47000000000E+01 0. -1.
          5    1    5    5  503    0 -0.16244477024E+02  0.55386047828E+02  0.19109235561E+03  0.19967442425E+03  0.47000000000E+01 0.  1.
         -5    1    5    5    0  503  0.21957949823E+02 -0.63513530932E+02  0.20371448688E+03  0.21456421495E+03  0.47000000000E+01 0.  1.
<mgrwt>
<rscale>  0 0.28426916E+03</rscale>
<asrwt>0</asrwt>
<pdfrwt beam="1">  1        2 0.23303689E+00 0.28426916E+03</pdfrwt>
<pdfrwt beam="2">  1       -2 0.20518619E-02 0.28426916E+03</pdfrwt>
<totfact> 0.99814893E+03</totfact>
</mgrwt>
</event>
<event>
 9    1  0.7957670E-001  0.2832731E+03  0.7818608E-02  0.1093915E+00
          2   -1    0    0  501    0  0.00000000000E+00  0.00000000000E+00  0.43897778432E+03  0.43897778432E+03  0.00000000000E+00 0. -1.
         -2   -1    0    0    0  501 -0.00000000000E+00 -0.00000000000E+00 -0.45699141839E+02  0.45699141839E+02  0.00000000000E+00 0. -1.
         35    2    1    2    0    0  0.10658141036E-13 -0.71054273576E-14  0.39327864248E+03  0.48467692615E+03  0.28327306988E+03 0.  0.
         25    2    3    3    0    0  0.28114833800E+02 -0.41743492000E+02  0.12312286224E+03  0.18261178176E+03  0.12511938550E+03 0.  0.
         25    2    3    3    0    0 -0.28114833800E+02  0.41743492000E+02  0.27015578023E+03  0.30206514439E+03  0.12540431755E+03 0.  0.
          5    1    4    4  502    0  0.70712975174E+02 -0.31632160983E+02  0.37200126639E+02  0.86063104106E+02  0.47000000000E+01 0.  1.
         -5    1    4    4    0  502 -0.42598141374E+02 -0.10111331017E+02  0.85922735603E+02  0.96548677655E+02  0.47000000000E+01 0.  1.
          5    1    5    5  503    0 -0.89890047078E+01 -0.41894037994E+02  0.51660306688E+02  0.67281423232E+02  0.47000000000E+01 0.  1.
         -5    1    5    5    0  503 -0.19125829092E+02  0.83637529994E+02  0.21849547355E+03  0.23478372116E+03  0.47000000000E+01 0.  1.
<mgrwt>
<rscale>  0 0.28327307E+03</rscale>
<asrwt>0</asrwt>
<pdfrwt beam="1">  1        2 0.67535041E-01 0.28327307E+03</pdfrwt>
<pdfrwt beam="2">  1       -2 0.70306375E-02 0.28327307E+03</pdfrwt>
<totfact> 0.82982503E+03</totfact>
</mgrwt>
</event>
<event>
 9    1  0.7957670E-001  0.2709532E+03  0.7818608E-02  0.1100735E+00
          4   -1    0    0  501    0  0.00000000000E+00  0.00000000000E+00  0.46194813544E+02  0.46194813544E+02  0.00000000000E+00 0. -1.
         -4   -1    0    0    0  501 -0.00000000000E+00 -0.00000000000E+00 -0.39731541812E+03  0.39731541812E+03  0.00000000000E+00 0. -1.
         35    2    1    2    0    0  0.00000000000E+00 -0.71054273576E-14 -0.35112060458E+03  0.44351023167E+03  0.27095321853E+03 0.  0.
         25    2    3    3    0    0 -0.33039520362E+02 -0.39342854058E+02 -0.16259986754E+03  0.21137376861E+03  0.12490269438E+03 0.  0.
         25    2    3    3    0    0  0.33039520362E+02  0.39342854058E+02 -0.18852073704E+03  0.23213646306E+03  0.12533075885E+03 0.  0.
          5    1    4    4  502    0  0.81142795498E+01 -0.58815433369E+02 -0.15357904766E+03  0.16472313321E+03  0.47000000000E+01 0. -1.
         -5    1    4    4    0  502 -0.41153799912E+02  0.19472579311E+02 -0.90208198832E+01  0.46650635404E+02  0.47000000000E+01 0. -1.
          5    1    5    5  503    0  0.40969984753E+02 -0.38857954064E+02 -0.81945540066E+02  0.99627515182E+02  0.47000000000E+01 0.  1.
         -5    1    5    5    0  503 -0.79304643907E+01  0.78200808122E+02 -0.10657519697E+03  0.13250894787E+03  0.47000000000E+01 0.  1.
<mgrwt>
<rscale>  0 0.27095322E+03</rscale>
<asrwt>0</asrwt>
<pdfrwt beam="1">  1        4 0.71068944E-02 0.27095322E+03</pdfrwt>
<pdfrwt beam="2">  1       -4 0.61125449E-01 0.27095322E+03</pdfrwt>
<totfact> 0.64114463E+02</totfact>
</mgrwt>
</event>
<event>
 9    1  0.7957670E-001  0.2738442E+03  0.7818608E-02  0.1099099E+00
         -2   -1    0    0    0  501 -0.00000000000E+00  0.00000000000E+00  0.16024966911E+02  0.16024966911E+02  0.00000000000E+00 0.  1.
          2   -1    0    0  501    0  0.00000000000E+00 -0.00000000000E+00 -0.11699031535E+04  0.11699031535E+04  0.00000000000E+00 0.  1.
         35    2    1    2    0    0  0.71054273576E-14  0.00000000000E+00 -0.11538781866E+04  0.11859281204E+04  0.27384418434E+03 0.  0.
         25    2    3    3    0    0 -0.92815874952E+01 -0.17021538335E+02 -0.79866460771E+03  0.80888072904E+03  0.12667674440E+03 0.  0.
         25    2    3    3    0    0  0.92815874952E+01  0.17021538335E+02 -0.35521357887E+03  0.37704739136E+03  0.12494866180E+03 0.  0.
          5    1    4    4  502    0 -0.51863513526E+02 -0.38595183981E+02 -0.25518651573E+03  0.26329006831E+03  0.47000000000E+01 0.  1.
         -5    1    4    4    0  502  0.42581926031E+02  0.21573645646E+02 -0.54347809198E+03  0.54559066073E+03  0.47000000000E+01 0.  1.
          5    1    5    5  503    0  0.44920887779E+02  0.56883939422E+02 -0.21272326967E+03  0.22478200146E+03  0.47000000000E+01 0. -1.
         -5    1    5    5    0  503 -0.35639300284E+02 -0.39862401087E+02 -0.14249030921E+03  0.15226538990E+03  0.47000000000E+01 0. -1.
<mgrwt>
<rscale>  0 0.27384418E+03</rscale>
<asrwt>0</asrwt>
<pdfrwt beam="1">  1        2 0.17998512E+00 0.27384418E+03</pdfrwt>
<pdfrwt beam="2">  1       -2 0.24653793E-02 0.27384418E+03</pdfrwt>
<totfact> 0.11777812E+04</totfact>
</mgrwt>
</event>
<event>
 9    1  0.7957670E-001  0.2761212E+03  0.7818608E-02  0.1097827E+00
          2   -1    0    0  501    0  0.00000000000E+00  0.00000000000E+00  0.24919273535E+04  0.24919273535E+04  0.00000000000E+00 0.  1.
         -2   -1    0    0    0  501 -0.00000000000E+00 -0.00000000000E+00 -0.76489916824E+01  0.76489916824E+01  0.00000000000E+00 0.  1.
         35    2    1    2    0    0  0.00000000000E+00 -0.14210854715E-13  0.24842783619E+04  0.24995763452E+04  0.27612121686E+03 0.  0.
         25    2    3    3    0    0 -0.46586026186E+02 -0.29174243471E+02  0.12337011621E+04  0.12412386631E+04  0.12503386358E+03 0.  0.
         25    2    3    3    0    0  0.46586026186E+02  0.29174243471E+02  0.12505771998E+04  0.12583376821E+04  0.12825363708E+03 0.  0.
          5    1    4    4  502    0 -0.73253749865E+02 -0.47192307404E+02  0.56053890609E+03  0.56729109017E+03  0.47000000000E+01 0. -1.
         -5    1    4    4    0  502  0.26667723679E+02  0.18018063933E+02  0.67316225600E+03  0.67394757290E+03  0.47000000000E+01 0. -1.
          5    1    5    5  503    0  0.50940173075E+02  0.69729412347E+02  0.57002488636E+03  0.57654796266E+03  0.47000000000E+01 0. -1.
         -5    1    5    5    0  503 -0.43541468892E+01 -0.40555168876E+02  0.68055231340E+03  0.68178971948E+03  0.47000000000E+01 0. -1.
<mgrwt>
<rscale>  0 0.27612122E+03</rscale>
<asrwt>0</asrwt>
<pdfrwt beam="1">  1        2 0.38337279E+00 0.27612122E+03</pdfrwt>
<pdfrwt beam="2">  1       -2 0.11767699E-02 0.27612122E+03</pdfrwt>
<totfact> 0.68156950E+03</totfact>
</mgrwt>
</event>
<event>
 9    1  0.7957670E-001  0.2758506E+03  0.7818608E-02  0.1097977E+00
          2   -1    0    0  501    0  0.00000000000E+00  0.00000000000E+00  0.60888690781E+03  0.60888690781E+03  0.00000000000E+00 0. -1.
         -2   -1    0    0    0  501 -0.00000000000E+00 -0.00000000000E+00 -0.31242895477E+02  0.31242895477E+02  0.00000000000E+00 0. -1.
         35    2    1    2    0    0 -0.71054273576E-14 -0.71054273576E-14  0.57764401234E+03  0.64012980329E+03  0.27585061187E+03 0.  0.
         25    2    3    3    0    0 -0.26428225169E+02 -0.37433418191E+02  0.33837864590E+03  0.36343196526E+03  0.12443059705E+03 0.  0.
         25    2    3    3    0    0  0.26428225169E+02  0.37433418191E+02  0.23926536643E+03  0.27669783803E+03  0.13120238609E+03 0.  0.
          5    1    4    4  502    0 -0.53667737428E+02 -0.32381848632E+02  0.32721225051E+03  0.33319477344E+03  0.47000000000E+01 0. -1.
         -5    1    4    4    0  502  0.27239512259E+02 -0.50515695590E+01  0.11166395395E+02  0.30237191821E+02  0.47000000000E+01 0. -1.
          5    1    5    5  503    0 -0.43264629032E+01  0.69159884867E+02  0.21527104243E+03  0.22619796565E+03  0.47000000000E+01 0. -1.
         -5    1    5    5    0  503  0.30754688072E+02 -0.31726466676E+02  0.23994324001E+02  0.50499872380E+02  0.47000000000E+01 0. -1.
<mgrwt>
<rscale>  0 0.27585061E+03</rscale>
<asrwt>0</asrwt>
<pdfrwt beam="1">  1        2 0.93674900E-01 0.27585061E+03</pdfrwt>
<pdfrwt beam="2">  1       -2 0.48065997E-02 0.27585061E+03</pdfrwt>
<totfact> 0.10265945E+04</totfact>
</mgrwt>
</event>
<event>
 9    1  0.7957670E-001  0.2765042E+03  0.7818608E-02  0.1097614E+00
         -2   -1    0    0    0  501 -0.00000000000E+00  0.00000000000E+00  0.57778082916E+03  0.57778082916E+03  0.00000000000E+00 0. -1.
          2   -1    0    0  501    0  0.00000000000E+00 -0.00000000000E+00 -0.33081124657E+02  0.33081124657E+02  0.00000000000E+00 0. -1.
         35    2    1    2    0    0  0.71054273576E-14  0.71054273576E-14  0.54469970450E+03  0.61086195382E+03  0.27650417454E+03 0.  0.
         25    2    3    3    0    0  0.45631456556E+02 -0.11932437130E+02  0.19216853332E+03  0.23386189735E+03  0.12465163035E+03 0.  0.
         25    2    3    3    0    0 -0.45631456556E+02  0.11932437130E+02  0.35253117118E+03  0.37700005647E+03  0.12500481206E+03 0.  0.
          5    1    4    4  502    0  0.27678448694E+02  0.56083255091E+02  0.87067758854E+02  0.10730476530E+03  0.47000000000E+01 0.  1.
         -5    1    4    4    0  502  0.17953007862E+02 -0.68015692221E+02  0.10510077446E+03  0.12655713205E+03  0.47000000000E+01 0.  1.
          5    1    5    5  503    0 -0.69123259369E+02 -0.28550996843E+02  0.13463511713E+03  0.15408403282E+03  0.47000000000E+01 0. -1.
         -5    1    5    5    0  503  0.23491802813E+02  0.40483433973E+02  0.21789605406E+03  0.22291602365E+03  0.47000000000E+01 0. -1.
<mgrwt>
<rscale>  0 0.27650417E+03</rscale>
<asrwt>0</asrwt>
<pdfrwt beam="1">  1        2 0.50894042E-02 0.27650417E+03</pdfrwt>
<pdfrwt beam="2">  1       -2 0.88889351E-01 0.27650417E+03</pdfrwt>
<totfact> 0.17247160E+03</totfact>
</mgrwt>
</event>
<event>
 9    1  0.7957670E-001  0.2749348E+03  0.7818608E-02  0.1098488E+00
          2   -1    0    0  501    0  0.00000000000E+00  0.00000000000E+00  0.18747345562E+04  0.18747345562E+04  0.00000000000E+00 0. -1.
         -2   -1    0    0    0  501 -0.00000000000E+00 -0.00000000000E+00 -0.10079980840E+02  0.10079980840E+02  0.00000000000E+00 0. -1.
         35    2    1    2    0    0 -0.17763568394E-14  0.71054273576E-14  0.18646545754E+04  0.18848145371E+04  0.27493481705E+03 0.  0.
         25    2    3    3    0    0 -0.15273443776E+02  0.22001716878E+01  0.13198104197E+04  0.13257628150E+04  0.12453665661E+03 0.  0.
         25    2    3    3    0    0  0.15273443776E+02 -0.22001716878E+01  0.54484415568E+03  0.55905172206E+03  0.12428014774E+03 0.  0.
          5    1    4    4  502    0 -0.31368615984E+02  0.40815503226E+02  0.25849046991E+03  0.26360824799E+03  0.47000000000E+01 0.  1.
         -5    1    4    4    0  502  0.16095172208E+02 -0.38615331538E+02  0.10613199498E+04  0.10621545670E+04  0.47000000000E+01 0.  1.
          5    1    5    5  503    0  0.17922456729E+02 -0.55002591610E+02  0.41082934358E+03  0.41490883226E+03  0.47000000000E+01 0.  1.
         -5    1    5    5    0  503 -0.26490129528E+01  0.52802419922E+02  0.13401481209E+03  0.14414288980E+03  0.47000000000E+01 0.  1.
<mgrwt>
<rscale>  0 0.27493482E+03</rscale>
<asrwt>0</asrwt>
<pdfrwt beam="1">  1        2 0.28842042E+00 0.27493482E+03</pdfrwt>
<pdfrwt beam="2">  1       -2 0.15507678E-02 0.27493482E+03</pdfrwt>
<totfact> 0.97148929E+03</totfact>
</mgrwt>
</event>
<event>
 9    1  0.7957670E-001  0.2743686E+03  0.7818608E-02  0.1098805E+00
          2   -1    0    0  501    0  0.00000000000E+00  0.00000000000E+00  0.85427286619E+03  0.85427286619E+03  0.00000000000E+00 0. -1.
         -2   -1    0    0    0  501 -0.00000000000E+00 -0.00000000000E+00 -0.22029879840E+02  0.22029879840E+02  0.00000000000E+00 0. -1.
         35    2    1    2    0    0  0.00000000000E+00  0.71054273576E-14  0.83224298635E+03  0.87630274603E+03  0.27436857395E+03 0.  0.
         25    2    3    3    0    0  0.13147643611E+02 -0.32493944349E+02  0.55740308226E+03  0.57233418808E+03  0.12505802566E+03 0.  0.
         25    2    3    3    0    0 -0.13147643611E+02  0.32493944349E+02  0.27483990409E+03  0.30396855795E+03  0.12502477511E+03 0.  0.
          5    1    4    4  502    0 -0.55590127345E+02 -0.22010556450E+02  0.27421921947E+03  0.28070090342E+03  0.47000000000E+01 0. -1.
         -5    1    4    4    0  502  0.68737770956E+02 -0.10483387900E+02  0.28318386279E+03  0.29163328466E+03  0.47000000000E+01 0. -1.
          5    1    5    5  503    0 -0.43373453144E+02  0.41842789597E+02  0.54723566076E+02  0.81540383633E+02  0.47000000000E+01 0. -1.
         -5    1    5    5    0  503  0.30225809534E+02 -0.93488452479E+01  0.22011633802E+03  0.22242817432E+03  0.47000000000E+01 0. -1.
<mgrwt>
<rscale>  0 0.27436857E+03</rscale>
<asrwt>0</asrwt>
<pdfrwt beam="1">  1        2 0.13142657E+00 0.27436857E+03</pdfrwt>
<pdfrwt beam="2">  1       -2 0.33892129E-02 0.27436857E+03</pdfrwt>
<totfact> 0.11452940E+04</totfact>
</mgrwt>
</event>
<event>
 9    1  0.7957670E-001  0.2775300E+03  0.7818608E-02  0.1097046E+00
         -2   -1    0    0    0  501 -0.00000000000E+00  0.00000000000E+00  0.14573018286E+02  0.14573018286E+02  0.00000000000E+00 0.  1.
          2   -1    0    0  501    0  0.00000000000E+00 -0.00000000000E+00 -0.13213276394E+04  0.13213276394E+04  0.00000000000E+00 0.  1.
         35    2    1    2    0    0  0.35527136788E-14 -0.71054273576E-14 -0.13067546211E+04  0.13359006576E+04  0.27753004774E+03 0.  0.
         25    2    3    3    0    0  0.83409755421E+01 -0.37622526731E+02 -0.87338377880E+03  0.88309726734E+03  0.12480597788E+03 0.  0.
         25    2    3    3    0    0 -0.83409755421E+01  0.37622526731E+02 -0.43337084227E+03  0.45280339030E+03  0.12544160774E+03 0.  0.
          5    1    4    4  502    0  0.49972245678E+02 -0.63804498045E+02 -0.55283276200E+03  0.55876148046E+03  0.47000000000E+01 0.  1.
         -5    1    4    4    0  502 -0.41631270136E+02  0.26181971315E+02 -0.32055101680E+03  0.32433578688E+03  0.47000000000E+01 0.  1.
          5    1    5    5  503    0 -0.35432230909E+01  0.17087065805E+02 -0.43064752270E+03  0.43102656653E+03  0.47000000000E+01 0. -1.
         -5    1    5    5    0  503 -0.47977524512E+01  0.20535460926E+02 -0.27233195642E+01  0.21776823769E+02  0.47000000000E+01 0. -1.
<mgrwt>
<rscale>  0 0.27753005E+03</rscale>
<asrwt>0</asrwt>
<pdfrwt beam="1">  1        2 0.20328115E+00 0.27753005E+03</pdfrwt>
<pdfrwt beam="2">  1       -2 0.22420031E-02 0.27753005E+03</pdfrwt>
<totfact> 0.11146000E+04</totfact>
</mgrwt>
</event>
<event>
 9    1  0.7957670E-001  0.3035914E+03  0.7818608E-02  0.1083459E+00
         -2   -1    0    0    0  501 -0.00000000000E+00  0.00000000000E+00  0.34150009950E+02  0.34150009950E+02  0.00000000000E+00 0. -1.
          2   -1    0    0  501    0  0.00000000000E+00 -0.00000000000E+00 -0.67472723530E+03  0.67472723530E+03  0.00000000000E+00 0. -1.
         35    2    1    2    0    0  0.00000000000E+00  0.00000000000E+00 -0.64057722535E+03  0.70887724525E+03  0.30359144783E+03 0.  0.
         25    2    3    3    0    0 -0.75040256843E+02  0.23090818910E+02 -0.23050462416E+03  0.27363233433E+03  0.12481204497E+03 0.  0.
         25    2    3    3    0    0  0.75040256843E+02 -0.23090818910E+02 -0.41007260120E+03  0.43524491092E+03  0.12294050661E+03 0.  0.
          5    1    4    4  502    0 -0.20784601280E+02 -0.38769495021E+02 -0.21954716327E+02  0.49387984000E+02  0.47000000000E+01 0.  1.
         -5    1    4    4    0  502 -0.54255655563E+02  0.61860313931E+02 -0.20854990783E+03  0.22424435033E+03  0.47000000000E+01 0.  1.
          5    1    5    5  503    0  0.71616062335E+02 -0.66452545884E+02 -0.22999887858E+03  0.24993274173E+03  0.47000000000E+01 0.  1.
         -5    1    5    5    0  503  0.34241945086E+01  0.43361726975E+02 -0.18007372261E+03  0.18531216919E+03  0.47000000000E+01 0.  1.
<mgrwt>
<rscale>  0 0.30359145E+03</rscale>
<asrwt>0</asrwt>
<pdfrwt beam="1">  1        2 0.10380418E+00 0.30359145E+03</pdfrwt>
<pdfrwt beam="2">  1       -2 0.52538480E-02 0.30359145E+03</pdfrwt>
<totfact> 0.79634765E+03</totfact>
</mgrwt>
</event>
<event>
 9    1  0.7957670E-001  0.2764365E+03  0.7818608E-02  0.1097651E+00
          1   -1    0    0  501    0  0.00000000000E+00  0.00000000000E+00  0.64714150297E+02  0.64714150297E+02  0.00000000000E+00 0.  1.
         -1   -1    0    0    0  501 -0.00000000000E+00 -0.00000000000E+00 -0.29521027843E+03  0.29521027843E+03  0.00000000000E+00 0.  1.
         35    2    1    2    0    0 -0.35527136788E-14  0.14210854715E-13 -0.23049612814E+03  0.35992442873E+03  0.27643648332E+03 0.  0.
         25    2    3    3    0    0  0.11730479886E+02  0.45924361818E+02 -0.60990424521E+02  0.14716978329E+03  0.12526955761E+03 0.  0.
         25    2    3    3    0    0 -0.11730479886E+02 -0.45924361818E+02 -0.16950570362E+03  0.21275464544E+03  0.11952281971E+03 0.  0.
          5    1    4    4  502    0  0.68324850709E+02  0.29317910558E+02 -0.29324085729E+02  0.80061333412E+02  0.47000000000E+01 0.  1.
         -5    1    4    4    0  502 -0.56594370823E+02  0.16606451260E+02 -0.31666338791E+02  0.67108449876E+02  0.47000000000E+01 0.  1.
          5    1    5    5  503    0  0.14916496087E+02  0.64991568486E+01 -0.14950580234E+03  0.15046200792E+03  0.47000000000E+01 0. -1.
         -5    1    5    5    0  503 -0.26646975973E+02 -0.52423518666E+02 -0.19999901276E+02  0.62292637518E+02  0.47000000000E+01 0. -1.
<mgrwt>
<rscale>  0 0.27643648E+03</rscale>
<asrwt>0</asrwt>
<pdfrwt beam="1">  1        1 0.99560233E-02 0.27643648E+03</pdfrwt>
<pdfrwt beam="2">  1       -1 0.45416965E-01 0.27643648E+03</pdfrwt>
<totfact> 0.31544205E+03</totfact>
</mgrwt>
</event>
<event>
 9    1  0.7957670E-001  0.2772951E+03  0.7818608E-02  0.1097176E+00
         -2   -1    0    0    0  501 -0.00000000000E+00  0.00000000000E+00  0.38232634371E+02  0.38232634371E+02  0.00000000000E+00 0.  1.
          2   -1    0    0  501    0  0.00000000000E+00 -0.00000000000E+00 -0.50279424501E+03  0.50279424501E+03  0.00000000000E+00 0.  1.
         35    2    1    2    0    0 -0.71054273576E-14  0.71054273576E-14 -0.46456161064E+03  0.54102687938E+03  0.27729513904E+03 0.  0.
         25    2    3    3    0    0  0.34924309629E+02 -0.27549083035E+02 -0.15476492793E+03  0.20385707482E+03  0.12500745842E+03 0.  0.
         25    2    3    3    0    0 -0.34924309629E+02  0.27549083035E+02 -0.30979668271E+03  0.33716980456E+03  0.12542261801E+03 0.  0.
          5    1    4    4  502    0  0.17032458106E+02  0.37860908022E+02 -0.85970720304E+01  0.42656214470E+02  0.47000000000E+01 0. -1.
         -5    1    4    4    0  502  0.17891851523E+02 -0.65409991057E+02 -0.14616785590E+03  0.16120086035E+03  0.47000000000E+01 0. -1.
          5    1    5    5  503    0 -0.50419633002E+02  0.57285425726E+02 -0.28532842866E+03  0.29539492479E+03  0.47000000000E+01 0. -1.
         -5    1    5    5    0  503  0.15495323373E+02 -0.29736342692E+02 -0.24468254057E+02  0.41774879769E+02  0.47000000000E+01 0. -1.
<mgrwt>
<rscale>  0 0.27729514E+03</rscale>
<asrwt>0</asrwt>
<pdfrwt beam="1">  1        2 0.77352961E-01 0.27729514E+03</pdfrwt>
<pdfrwt beam="2">  1       -2 0.58819437E-02 0.27729514E+03</pdfrwt>
<totfact> 0.93907368E+03</totfact>
</mgrwt>
</event>
<event>
 9    1  0.7957670E-001  0.2768934E+03  0.7818608E-02  0.1097398E+00
         -2   -1    0    0    0  501 -0.00000000000E+00  0.00000000000E+00  0.21633299589E+03  0.21633299589E+03  0.00000000000E+00 0.  1.
          2   -1    0    0  501    0  0.00000000000E+00 -0.00000000000E+00 -0.88601769403E+02  0.88601769403E+02  0.00000000000E+00 0.  1.
         35    2    1    2    0    0  0.00000000000E+00  0.00000000000E+00  0.12773122649E+03  0.30493476529E+03  0.27689338176E+03 0.  0.
         25    2    3    3    0    0  0.33765632757E+02 -0.39451820507E+02  0.96605086379E+02  0.16586404833E+03  0.12442578397E+03 0.  0.
         25    2    3    3    0    0 -0.33765632757E+02  0.39451820507E+02  0.31126140107E+02  0.13907071697E+03  0.12520089306E+03 0.  0.
          5    1    4    4  502    0 -0.30349140896E+02  0.27681218240E+02  0.36689979356E+02  0.55277163291E+02  0.47000000000E+01 0. -1.
         -5    1    4    4    0  502  0.64114773653E+02 -0.67133038746E+02  0.59915107023E+02  0.11058688503E+03  0.47000000000E+01 0. -1.
          5    1    5    5  503    0 -0.13797071764E+02  0.76424308696E+02  0.50298341412E+02  0.92644737021E+02  0.47000000000E+01 0. -1.
         -5    1    5    5    0  503 -0.19968560993E+02 -0.36972488190E+02 -0.19172201304E+02  0.46425979946E+02  0.47000000000E+01 0. -1.
<mgrwt>
<rscale>  0 0.27689338E+03</rscale>
<asrwt>0</asrwt>
<pdfrwt beam="1">  1        2 0.13631041E-01 0.27689338E+03</pdfrwt>
<pdfrwt beam="2">  1       -2 0.33281999E-01 0.27689338E+03</pdfrwt>
<totfact> 0.36738470E+03</totfact>
</mgrwt>
</event>
<event>
 9    1  0.7957670E-001  0.2743847E+03  0.7818608E-02  0.1098796E+00
          2   -1    0    0  501    0  0.00000000000E+00  0.00000000000E+00  0.16691773447E+04  0.16691773447E+04  0.00000000000E+00 0.  1.
         -2   -1    0    0    0  501 -0.00000000000E+00 -0.00000000000E+00 -0.11276057384E+02  0.11276057384E+02  0.00000000000E+00 0.  1.
         35    2    1    2    0    0  0.00000000000E+00  0.00000000000E+00  0.16579012873E+04  0.16804534021E+04  0.27438468997E+03 0.  0.
         25    2    3    3    0    0  0.42676055427E+02  0.28941642332E+00  0.10840247823E+04  0.10919488874E+04  0.12418258558E+03 0.  0.
         25    2    3    3    0    0 -0.42676055427E+02 -0.28941642332E+00  0.57387650504E+03  0.58850451472E+03  0.12321522365E+03 0.  0.
          5    1    4    4  502    0  0.95129165153E+01 -0.14323838852E+02  0.10019231675E+04  0.10020817289E+04  0.47000000000E+01 0.  1.
         -5    1    4    4    0  502  0.33163138911E+02  0.14613255275E+02  0.82101614842E+02  0.89867158472E+02  0.47000000000E+01 0.  1.
          5    1    5    5  503    0  0.26624664747E+02  0.41276213152E+02  0.22903673432E+03  0.23429151545E+03  0.47000000000E+01 0. -1.
         -5    1    5    5    0  503 -0.69300720174E+02 -0.41565629576E+02  0.34483977072E+03  0.35421299927E+03  0.47000000000E+01 0. -1.
<mgrwt>
<rscale>  0 0.27438469E+03</rscale>
<asrwt>0</asrwt>
<pdfrwt beam="1">  1        2 0.25679632E+00 0.27438469E+03</pdfrwt>
<pdfrwt beam="2">  1       -2 0.17347794E-02 0.27438469E+03</pdfrwt>
<totfact> 0.10570931E+04</totfact>
</mgrwt>
</event>
<event>
 9    1  0.7957670E-001  0.2746059E+03  0.7818608E-02  0.1098672E+00
          2   -1    0    0  501    0  0.00000000000E+00  0.00000000000E+00  0.22333562134E+04  0.22333562134E+04  0.00000000000E+00 0.  1.
         -2   -1    0    0    0  501 -0.00000000000E+00 -0.00000000000E+00 -0.84411495074E+01  0.84411495074E+01  0.00000000000E+00 0.  1.
         35    2    1    2    0    0  0.71054273576E-14  0.00000000000E+00  0.22249150639E+04  0.22417973629E+04  0.27460585355E+03 0.  0.
         25    2    3    3    0    0  0.36746719734E+02  0.35620280461E+02  0.91547685184E+03  0.92542839765E+03  0.12530254240E+03 0.  0.
         25    2    3    3    0    0 -0.36746719734E+02 -0.35620280461E+02  0.13094382121E+04  0.13163689653E+04  0.12481865132E+03 0.  0.
          5    1    4    4  502    0 -0.44654349702E+02  0.68848755181E+01  0.22330531496E+03  0.22787884094E+03  0.47000000000E+01 0.  1.
         -5    1    4    4    0  502  0.81401069436E+02  0.28735404943E+02  0.69217153688E+03  0.69754955671E+03  0.47000000000E+01 0.  1.
          5    1    5    5  503    0  0.16856359141E+02 -0.42537090719E+02  0.10645588118E+04  0.10655520141E+04  0.47000000000E+01 0.  1.
         -5    1    5    5    0  503 -0.53603078876E+02  0.69168102580E+01  0.24487940025E+03  0.25081695118E+03  0.47000000000E+01 0.  1.
<mgrwt>
<rscale>  0 0.27460585E+03</rscale>
<asrwt>0</asrwt>
<pdfrwt beam="1">  1        2 0.34359279E+00 0.27460585E+03</pdfrwt>
<pdfrwt beam="2">  1       -2 0.12986402E-02 0.27460585E+03</pdfrwt>
<totfact> 0.81421038E+03</totfact>
</mgrwt>
</event>
<event>
 9    1  0.7957670E-001  0.2753195E+03  0.7818608E-02  0.1098273E+00
         -2   -1    0    0    0  501 -0.00000000000E+00  0.00000000000E+00  0.26588784523E+02  0.26588784523E+02  0.00000000000E+00 0.  1.
          2   -1    0    0  501    0  0.00000000000E+00 -0.00000000000E+00 -0.71271414430E+03  0.71271414430E+03  0.00000000000E+00 0.  1.
         35    2    1    2    0    0  0.00000000000E+00 -0.71054273576E-14 -0.68612535977E+03  0.73930292882E+03  0.27531947123E+03 0.  0.
         25    2    3    3    0    0  0.18503099949E+02  0.46921690285E+02 -0.26716181785E+03  0.29921925262E+03  0.12495084834E+03 0.  0.
         25    2    3    3    0    0 -0.18503099949E+02 -0.46921690285E+02 -0.41896354193E+03  0.44008367620E+03  0.12489668876E+03 0.  0.
          5    1    4    4  502    0 -0.28880495779E+02  0.26474899987E+02 -0.23486808448E+03  0.23815984227E+03  0.47000000000E+01 0. -1.
         -5    1    4    4    0  502  0.47383595728E+02  0.20446790298E+02 -0.32293733370E+02  0.61059410353E+02  0.47000000000E+01 0. -1.
          5    1    5    5  503    0  0.18506113708E+02  0.36061966024E+01 -0.33094108970E+01  0.19710989295E+02  0.47000000000E+01 0. -1.
         -5    1    5    5    0  503 -0.37009213657E+02 -0.50527886888E+02 -0.41565413103E+03  0.42037268690E+03  0.47000000000E+01 0. -1.
<mgrwt>
<rscale>  0 0.27531947E+03</rscale>
<asrwt>0</asrwt>
<pdfrwt beam="1">  1        2 0.10964830E+00 0.27531947E+03</pdfrwt>
<pdfrwt beam="2">  1       -2 0.40905833E-02 0.27531947E+03</pdfrwt>
<totfact> 0.10857418E+04</totfact>
</mgrwt>
</event>
<event>
 9    1  0.7957670E-001  0.2773195E+03  0.7818608E-02  0.1097162E+00
          1   -1    0    0  501    0  0.00000000000E+00  0.00000000000E+00  0.83381106994E+03  0.83381106994E+03  0.00000000000E+00 0. -1.
         -1   -1    0    0    0  501 -0.00000000000E+00 -0.00000000000E+00 -0.23058617695E+02  0.23058617695E+02  0.00000000000E+00 0. -1.
         35    2    1    2    0    0  0.00000000000E+00  0.00000000000E+00  0.81075245224E+03  0.85686968763E+03  0.27731953189E+03 0.  0.
         25    2    3    3    0    0  0.31380059703E+02 -0.24905368367E+02  0.26547775806E+03  0.29624854107E+03  0.12521889851E+03 0.  0.
         25    2    3    3    0    0 -0.31380059703E+02  0.24905368367E+02  0.54527469419E+03  0.56062114656E+03  0.12396206005E+03 0.  0.
          5    1    4    4  502    0  0.20033923051E+02 -0.51041952812E+02  0.26134445847E+03  0.26707612209E+03  0.47000000000E+01 0.  1.
         -5    1    4    4    0  502  0.11346136652E+02  0.26136584446E+02  0.41332995858E+01  0.29172418976E+02  0.47000000000E+01 0.  1.
          5    1    5    5  503    0 -0.42949132156E+02 -0.29828736417E+01  0.57979000859E+02  0.72368363452E+02  0.47000000000E+01 0.  1.
         -5    1    5    5    0  503  0.11569072453E+02  0.27888242008E+02  0.48729569333E+03  0.48825278311E+03  0.47000000000E+01 0.  1.
<mgrwt>
<rscale>  0 0.27731953E+03</rscale>
<asrwt>0</asrwt>
<pdfrwt beam="1">  1        1 0.12827860E+00 0.27731953E+03</pdfrwt>
<pdfrwt beam="2">  1       -1 0.35474803E-02 0.27731953E+03</pdfrwt>
<totfact> 0.63428990E+03</totfact>
</mgrwt>
</event>
<event>
 9    1  0.7957670E-001  0.2726260E+03  0.7818608E-02  0.1099786E+00
         -2   -1    0    0    0  501 -0.00000000000E+00  0.00000000000E+00  0.56356170015E+03  0.56356170015E+03  0.00000000000E+00 0. -1.
          2   -1    0    0  501    0  0.00000000000E+00 -0.00000000000E+00 -0.32971061312E+02  0.32971061312E+02  0.00000000000E+00 0. -1.
         35    2    1    2    0    0  0.00000000000E+00  0.00000000000E+00  0.53059063884E+03  0.59653276146E+03  0.27262595158E+03 0.  0.
         25    2    3    3    0    0  0.20655529271E+02 -0.34349353341E+02  0.30038729372E+03  0.32778663256E+03  0.12492005961E+03 0.  0.
         25    2    3    3    0    0 -0.20655529271E+02  0.34349353341E+02  0.23020334512E+03  0.26874612890E+03  0.13275681802E+03 0.  0.
          5    1    4    4  502    0 -0.41102771228E+02 -0.46806690364E+02  0.10226725432E+03  0.11983732879E+03  0.47000000000E+01 0. -1.
         -5    1    4    4    0  502  0.61758300499E+02  0.12457337023E+02  0.19812003940E+03  0.20794930377E+03  0.47000000000E+01 0. -1.
          5    1    5    5  503    0  0.25195369106E+02  0.64084671054E+02  0.18570220689E+03  0.19811373332E+03  0.47000000000E+01 0.  1.
         -5    1    5    5    0  503 -0.45850898376E+02 -0.29735317712E+02  0.44501138232E+02  0.70632395579E+02  0.47000000000E+01 0.  1.
<mgrwt>
<rscale>  0 0.27262595E+03</rscale>
<asrwt>0</asrwt>
<pdfrwt beam="1">  1        2 0.50724714E-02 0.27262595E+03</pdfrwt>
<pdfrwt beam="2">  1       -2 0.86701793E-01 0.27262595E+03</pdfrwt>
<totfact> 0.18315229E+03</totfact>
</mgrwt>
</event>
<event>
 9    1  0.7957670E-001  0.2670662E+03  0.7818608E-02  0.1102971E+00
          1   -1    0    0  501    0  0.00000000000E+00  0.00000000000E+00  0.67979609092E+02  0.67979609092E+02  0.00000000000E+00 0.  1.
         -1   -1    0    0    0  501 -0.00000000000E+00 -0.00000000000E+00 -0.26230058976E+03  0.26230058976E+03  0.00000000000E+00 0.  1.
         35    2    1    2    0    0 -0.35527136788E-14  0.71054273576E-14 -0.19432098067E+03  0.33028019886E+03  0.26706622068E+03 0.  0.
         25    2    3    3    0    0  0.13234349516E+02 -0.18970583663E+02 -0.14677474911E+03  0.19430963737E+03  0.12521332656E+03 0.  0.
         25    2    3    3    0    0 -0.13234349516E+02  0.18970583663E+02 -0.47546231558E+02  0.13597056148E+03  0.12526898420E+03 0.  0.
          5    1    4    4  502    0 -0.13831656893E+02 -0.51265676205E+02 -0.14264971782E+02  0.55182095911E+02  0.47000000000E+01 0. -1.
         -5    1    4    4    0  502  0.27066006410E+02  0.32295092541E+02 -0.13250977733E+03  0.13912754146E+03  0.47000000000E+01 0. -1.
          5    1    5    5  503    0  0.41977760357E+02 -0.25155285778E+02 -0.42447950766E+02  0.64952592646E+02  0.47000000000E+01 0. -1.
         -5    1    5    5    0  503 -0.55212109873E+02  0.44125869441E+02 -0.50982807914E+01  0.71017968836E+02  0.47000000000E+01 0. -1.
<mgrwt>
<rscale>  0 0.26706622E+03</rscale>
<asrwt>0</asrwt>
<pdfrwt beam="1">  1        1 0.10458401E-01 0.26706622E+03</pdfrwt>
<pdfrwt beam="2">  1       -1 0.40353937E-01 0.26706622E+03</pdfrwt>
<totfact> 0.36475067E+03</totfact>
</mgrwt>
</event>
<event>
 9    1  0.7957670E-001  0.2804391E+03  0.7818608E-02  0.1095449E+00
          2   -1    0    0  501    0  0.00000000000E+00  0.00000000000E+00  0.75365108923E+03  0.75365108923E+03  0.00000000000E+00 0. -1.
         -2   -1    0    0    0  501 -0.00000000000E+00 -0.00000000000E+00 -0.26088360661E+02  0.26088360661E+02  0.00000000000E+00 0. -1.
         35    2    1    2    0    0 -0.21316282073E-13  0.00000000000E+00  0.72756272857E+03  0.77973944989E+03  0.28043909448E+03 0.  0.
         25    2    3    3    0    0  0.63067599036E+02  0.10810264676E+02  0.42976387803E+03  0.45023809799E+03  0.11799563613E+03 0.  0.
         25    2    3    3    0    0 -0.63067599036E+02 -0.10810264676E+02  0.29779885054E+03  0.32950135190E+03  0.12566861842E+03 0.  0.
          5    1    4    4  502    0 -0.20225124500E+02  0.35625532771E+02  0.20714619881E+03  0.21121049199E+03  0.47000000000E+01 0. -1.
         -5    1    4    4    0  502  0.83292723536E+02 -0.24815268095E+02  0.22261767922E+03  0.23902760599E+03  0.47000000000E+01 0. -1.
          5    1    5    5  503    0  0.22774041263E+02 -0.30133169111E+02  0.17039847259E+03  0.17459780725E+03  0.47000000000E+01 0.  1.
         -5    1    5    5    0  503 -0.85841640299E+02  0.19322904435E+02  0.12740037795E+03  0.15490354465E+03  0.47000000000E+01 0.  1.
<mgrwt>
<rscale>  0 0.28043909E+03</rscale>
<asrwt>0</asrwt>
<pdfrwt beam="1">  1        2 0.11594630E+00 0.28043909E+03</pdfrwt>
<pdfrwt beam="2">  1       -2 0.40135945E-02 0.28043909E+03</pdfrwt>
<totfact> 0.10435904E+04</totfact>
</mgrwt>
</event>
<event>
 9    1  0.7957670E-001  0.2956944E+03  0.7818608E-02  0.1087413E+00
         -2   -1    0    0    0  501 -0.00000000000E+00  0.00000000000E+00  0.13224157221E+03  0.13224157221E+03  0.00000000000E+00 0.  1.
          2   -1    0    0  501    0  0.00000000000E+00 -0.00000000000E+00 -0.16529447717E+03  0.16529447717E+03  0.00000000000E+00 0.  1.
         35    2    1    2    0    0  0.71054273576E-14  0.00000000000E+00 -0.33052904957E+02  0.29753604938E+03  0.29569444729E+03 0.  0.
         25    2    3    3    0    0 -0.59607430911E+02 -0.13811454461E+02  0.34421389054E+02  0.14326215833E+03  0.12488159148E+03 0.  0.
         25    2    3    3    0    0  0.59607430911E+02  0.13811454461E+02 -0.67474294011E+02  0.15427389105E+03  0.12451446106E+03 0.  0.
          5    1    4    4  502    0 -0.10280115284E+02 -0.59614033149E+02  0.44216381281E+02  0.75077906817E+02  0.47000000000E+01 0. -1.
         -5    1    4    4    0  502 -0.49327315627E+02  0.45802578688E+02 -0.97949922267E+01  0.68184251511E+02  0.47000000000E+01 0. -1.
          5    1    5    5  503    0  0.10009724174E+02  0.49519315174E+02 -0.77029338894E+02  0.92238637261E+02  0.47000000000E+01 0. -1.
         -5    1    5    5    0  503  0.49597706737E+02 -0.35707860712E+02  0.95550448832E+01  0.62035253792E+02  0.47000000000E+01 0. -1.
<mgrwt>
<rscale>  0 0.29569445E+03</rscale>
<asrwt>0</asrwt>
<pdfrwt beam="1">  1        2 0.25429919E-01 0.29569445E+03</pdfrwt>
<pdfrwt beam="2">  1       -2 0.20344857E-01 0.29569445E+03</pdfrwt>
<totfact> 0.42937709E+03</totfact>
</mgrwt>
</event>
<event>
 9    1  0.7957670E-001  0.2751004E+03  0.7818608E-02  0.1098395E+00
         -1   -1    0    0    0  501 -0.00000000000E+00  0.00000000000E+00  0.49842719971E+03  0.49842719971E+03  0.00000000000E+00 0.  1.
          1   -1    0    0  501    0  0.00000000000E+00 -0.00000000000E+00 -0.37959531363E+02  0.37959531363E+02  0.00000000000E+00 0.  1.
         35    2    1    2    0    0  0.00000000000E+00  0.00000000000E+00  0.46046766834E+03  0.53638673107E+03  0.27510043925E+03 0.  0.
         25    2    3    3    0    0  0.40539855644E+02  0.24491578514E+02  0.17296743299E+03  0.21872541946E+03  0.12521884415E+03 0.  0.
         25    2    3    3    0    0 -0.40539855644E+02 -0.24491578514E+02  0.28750023536E+03  0.31766131161E+03  0.12652670172E+03 0.  0.
          5    1    4    4  502    0  0.74463759973E+02 -0.34551035970E+01  0.55025842464E+02  0.92772423861E+02  0.47000000000E+01 0. -1.
         -5    1    4    4    0  502 -0.33923904329E+02  0.27946682111E+02  0.11794159052E+03  0.12595299560E+03  0.47000000000E+01 0. -1.
          5    1    5    5  503    0 -0.75964724764E+01  0.51352846232E+02  0.10374749762E+03  0.11610535936E+03  0.47000000000E+01 0. -1.
         -5    1    5    5    0  503 -0.32943383167E+02 -0.75844424746E+02  0.18375273774E+03  0.20155595225E+03  0.47000000000E+01 0. -1.
<mgrwt>
<rscale>  0 0.27510044E+03</rscale>
<asrwt>0</asrwt>
<pdfrwt beam="1">  1        1 0.58399282E-02 0.27510044E+03</pdfrwt>
<pdfrwt beam="2">  1       -1 0.76681103E-01 0.27510044E+03</pdfrwt>
<totfact> 0.23843605E+03</totfact>
</mgrwt>
</event>
<event>
 9    1  0.7957670E-001  0.2776314E+03  0.7818608E-02  0.1096990E+00
         -2   -1    0    0    0  501 -0.00000000000E+00  0.00000000000E+00  0.65717329886E+03  0.65717329886E+03  0.00000000000E+00 0. -1.
          2   -1    0    0  501    0  0.00000000000E+00 -0.00000000000E+00 -0.29322257420E+02  0.29322257420E+02  0.00000000000E+00 0. -1.
         35    2    1    2    0    0  0.00000000000E+00  0.35527136788E-14  0.62785104144E+03  0.68649555628E+03  0.27763144374E+03 0.  0.
         25    2    3    3    0    0  0.47313174685E+02 -0.32558426223E+01  0.40933329680E+03  0.43067418033E+03  0.12520928369E+03 0.  0.
         25    2    3    3    0    0 -0.47313174685E+02  0.32558426223E+01  0.21851774464E+03  0.25582137595E+03  0.12427966311E+03 0.  0.
          5    1    4    4  502    0  0.35144442209E+01 -0.47387278037E+02  0.64513435664E+02  0.80261938795E+02  0.47000000000E+01 0.  1.
         -5    1    4    4    0  502  0.43798730464E+02  0.44131435415E+02  0.34481986114E+03  0.35041224154E+03  0.47000000000E+01 0.  1.
          5    1    5    5  503    0 -0.85280385469E+02  0.22827694789E+02  0.12729581280E+03  0.15498439196E+03  0.47000000000E+01 0. -1.
         -5    1    5    5    0  503  0.37967210783E+02 -0.19571852167E+02  0.91221931838E+02  0.10083698399E+03  0.47000000000E+01 0. -1.
<mgrwt>
<rscale>  0 0.27763144E+03</rscale>
<asrwt>0</asrwt>
<pdfrwt beam="1">  1        2 0.45111170E-02 0.27763144E+03</pdfrwt>
<pdfrwt beam="2">  1       -2 0.10110357E+00 0.27763144E+03</pdfrwt>
<totfact> 0.15068001E+03</totfact>
</mgrwt>
</event>
<event>
 9    1  0.7957670E-001  0.2662517E+03  0.7818608E-02  0.1103444E+00
          2   -1    0    0  501    0  0.00000000000E+00  0.00000000000E+00  0.13682403182E+04  0.13682403182E+04  0.00000000000E+00 0.  1.
         -2   -1    0    0    0  501 -0.00000000000E+00 -0.00000000000E+00 -0.12952762864E+02  0.12952762864E+02  0.00000000000E+00 0.  1.
         35    2    1    2    0    0 -0.71054273576E-14  0.00000000000E+00  0.13552875553E+04  0.13811930810E+04  0.26625170334E+03 0.  0.
         25    2    3    3    0    0 -0.38347273677E+02 -0.23964410997E+02  0.70472914797E+03  0.71715602759E+03  0.12499915806E+03 0.  0.
         25    2    3    3    0    0  0.38347273677E+02  0.23964410997E+02  0.65055840733E+03  0.66403705344E+03  0.12519648797E+03 0.  0.
          5    1    4    4  502    0 -0.76714984723E+02 -0.21711907192E+02  0.29562093592E+03  0.30621956755E+03  0.47000000000E+01 0. -1.
         -5    1    4    4    0  502  0.38367711046E+02 -0.22525038053E+01  0.40910821205E+03  0.41093646005E+03  0.47000000000E+01 0. -1.
          5    1    5    5  503    0  0.52616087699E+02  0.34539145209E+02  0.63947298059E+03  0.64258010251E+03  0.47000000000E+01 0.  1.
         -5    1    5    5    0  503 -0.14268814022E+02 -0.10574734212E+02  0.11085426742E+02  0.21456950932E+02  0.47000000000E+01 0.  1.
<mgrwt>
<rscale>  0 0.26625170E+03</rscale>
<asrwt>0</asrwt>
<pdfrwt beam="1">  1        2 0.21049840E+00 0.26625170E+03</pdfrwt>
<pdfrwt beam="2">  1       -2 0.19927338E-02 0.26625170E+03</pdfrwt>
<totfact> 0.12483316E+04</totfact>
</mgrwt>
</event>
<event>
 9    1  0.7957670E-001  0.2753005E+03  0.7818608E-02  0.1098284E+00
         -2   -1    0    0    0  501 -0.00000000000E+00  0.00000000000E+00  0.13237677915E+02  0.13237677915E+02  0.00000000000E+00 0.  1.
          2   -1    0    0  501    0  0.00000000000E+00 -0.00000000000E+00 -0.14313384285E+04  0.14313384285E+04  0.00000000000E+00 0.  1.
         35    2    1    2    0    0  0.00000000000E+00  0.00000000000E+00 -0.14181007506E+04  0.14445761064E+04  0.27530054198E+03 0.  0.
         25    2    3    3    0    0  0.50698993987E+02 -0.66674499819E+01 -0.57088787886E+03  0.58680816903E+03  0.12576173558E+03 0.  0.
         25    2    3    3    0    0 -0.50698993987E+02  0.66674499819E+01 -0.84721287171E+03  0.85776793737E+03  0.12402153642E+03 0.  0.
          5    1    4    4  502    0  0.25978684755E+02  0.38206192045E+02 -0.48101491154E+03  0.48325152901E+03  0.47000000000E+01 0.  1.
         -5    1    4    4    0  502  0.24720309233E+02 -0.44873642027E+02 -0.89872967317E+02  0.10355664002E+03  0.47000000000E+01 0.  1.
          5    1    5    5  503    0 -0.41392015140E+02  0.63661762895E+02 -0.49949423950E+03  0.50525508831E+03  0.47000000000E+01 0.  1.
         -5    1    5    5    0  503 -0.93069788479E+01 -0.56994312913E+02 -0.34771863221E+03  0.35251284906E+03  0.47000000000E+01 0.  1.
<mgrwt>
<rscale>  0 0.27530054E+03</rscale>
<asrwt>0</asrwt>
<pdfrwt beam="1">  1        2 0.22020584E+00 0.27530054E+03</pdfrwt>
<pdfrwt beam="2">  1       -2 0.20365665E-02 0.27530054E+03</pdfrwt>
<totfact> 0.11182454E+04</totfact>
</mgrwt>
</event>
<event>
 9    1  0.7957670E-001  0.2810791E+03  0.7818608E-02  0.1095101E+00
          2   -1    0    0  501    0  0.00000000000E+00  0.00000000000E+00  0.20719962330E+03  0.20719962330E+03  0.00000000000E+00 0. -1.
         -2   -1    0    0    0  501 -0.00000000000E+00 -0.00000000000E+00 -0.95325300293E+02  0.95325300293E+02  0.00000000000E+00 0. -1.
         35    2    1    2    0    0  0.71054273576E-14  0.71054273576E-14  0.11187432301E+03  0.30252492360E+03  0.28107910852E+03 0.  0.
         25    2    3    3    0    0 -0.62774117997E+02  0.79756072342E+01  0.63684229628E+02  0.15425085933E+03  0.12543303513E+03 0.  0.
         25    2    3    3    0    0  0.62774117997E+02 -0.79756072342E+01  0.48190093384E+02  0.14827406426E+03  0.12513477867E+03 0.  0.
          5    1    4    4  502    0 -0.55614981460E+02 -0.42028820432E+02 -0.36270710273E+01  0.69962086546E+02  0.47000000000E+01 0.  1.
         -5    1    4    4    0  502 -0.71591365374E+01  0.50004427666E+02  0.67311300656E+02  0.84288772788E+02  0.47000000000E+01 0.  1.
          5    1    5    5  503    0  0.79819779276E+01  0.53779149381E+02  0.34213974925E+02  0.64409587485E+02  0.47000000000E+01 0. -1.
         -5    1    5    5    0  503  0.54792140070E+02 -0.61754756616E+02  0.13976118459E+02  0.83864476778E+02  0.47000000000E+01 0. -1.
<mgrwt>
<rscale>  0 0.28107911E+03</rscale>
<asrwt>0</asrwt>
<pdfrwt beam="1">  1        2 0.31876865E-01 0.28107911E+03</pdfrwt>
<pdfrwt beam="2">  1       -2 0.14665431E-01 0.28107911E+03</pdfrwt>
<totfact> 0.57917061E+03</totfact>
</mgrwt>
</event>
<event>
 9    1  0.7957670E-001  0.2796813E+03  0.7818608E-02  0.1095863E+00
          2   -1    0    0  501    0  0.00000000000E+00  0.00000000000E+00  0.45198571496E+03  0.45198571496E+03  0.00000000000E+00 0.  1.
         -2   -1    0    0    0  501 -0.00000000000E+00 -0.00000000000E+00 -0.43265538403E+02  0.43265538403E+02  0.00000000000E+00 0.  1.
         35    2    1    2    0    0  0.88817841970E-14  0.00000000000E+00  0.40872017655E+03  0.49525125336E+03  0.27968128509E+03 0.  0.
         25    2    3    3    0    0 -0.80794746598E+01  0.60517576317E+02  0.17833658863E+03  0.22666195207E+03  0.12587313740E+03 0.  0.
         25    2    3    3    0    0  0.80794746598E+01 -0.60517576317E+02  0.23038358792E+03  0.26858930129E+03  0.12383844406E+03 0.  0.
          5    1    4    4  502    0 -0.47953060520E+02  0.81422131414E+02  0.11870928752E+03  0.15179935586E+03  0.47000000000E+01 0.  1.
         -5    1    4    4    0  502  0.39873585860E+02 -0.20904555097E+02  0.59627301108E+02  0.74862596205E+02  0.47000000000E+01 0.  1.
          5    1    5    5  503    0 -0.97214919613E-01  0.24904906514E+02  0.30185042461E+01  0.25523816076E+02  0.47000000000E+01 0. -1.
         -5    1    5    5    0  503  0.81766895794E+01 -0.85422482831E+02  0.22736508368E+03  0.24306548521E+03  0.47000000000E+01 0. -1.
<mgrwt>
<rscale>  0 0.27968129E+03</rscale>
<asrwt>0</asrwt>
<pdfrwt beam="1">  1        2 0.69536260E-01 0.27968129E+03</pdfrwt>
<pdfrwt beam="2">  1       -2 0.66562370E-02 0.27968129E+03</pdfrwt>
<totfact> 0.87418628E+03</totfact>
</mgrwt>
</event>
<event>
 9    1  0.7957670E-001  0.2755046E+03  0.7818608E-02  0.1098170E+00
         -2   -1    0    0    0  501 -0.00000000000E+00  0.00000000000E+00  0.18238010310E+03  0.18238010310E+03  0.00000000000E+00 0. -1.
          2   -1    0    0  501    0  0.00000000000E+00 -0.00000000000E+00 -0.10404477456E+03  0.10404477456E+03  0.00000000000E+00 0. -1.
         35    2    1    2    0    0  0.00000000000E+00  0.00000000000E+00  0.78335328537E+02  0.28642487766E+03  0.27550460403E+03 0.  0.
         25    2    3    3    0    0  0.53898210232E+02  0.45531304444E+02  0.33908377004E+02  0.13612292963E+03  0.11136227902E+03 0.  0.
         25    2    3    3    0    0 -0.53898210232E+02 -0.45531304444E+02  0.44426951533E+02  0.15030194803E+03  0.12505520704E+03 0.  0.
          5    1    4    4  502    0  0.75419103044E+02  0.62370081165E+02  0.82191577855E+01  0.98324527373E+02  0.47000000000E+01 0.  1.
         -5    1    4    4    0  502 -0.21520892813E+02 -0.16838776721E+02  0.25689219218E+02  0.37798402254E+02  0.47000000000E+01 0.  1.
          5    1    5    5  503    0 -0.32695725644E+02 -0.88934933289E+02  0.32945940260E+02  0.10042886943E+03  0.47000000000E+01 0. -1.
         -5    1    5    5    0  503 -0.21202484588E+02  0.43403628845E+02  0.11481011273E+02  0.49873078604E+02  0.47000000000E+01 0. -1.
<mgrwt>
<rscale>  0 0.27550460E+03</rscale>
<asrwt>0</asrwt>
<pdfrwt beam="1">  1        2 0.16006888E-01 0.27550460E+03</pdfrwt>
<pdfrwt beam="2">  1       -2 0.28058477E-01 0.27550460E+03</pdfrwt>
<totfact> 0.41425771E+03</totfact>
</mgrwt>
</event>
<event>
 9    1  0.7957670E-001  0.2797405E+03  0.7818608E-02  0.1095831E+00
          2   -1    0    0  501    0  0.00000000000E+00  0.00000000000E+00  0.61119737277E+03  0.61119737277E+03  0.00000000000E+00 0.  1.
         -2   -1    0    0    0  501 -0.00000000000E+00 -0.00000000000E+00 -0.32008782626E+02  0.32008782626E+02  0.00000000000E+00 0.  1.
         35    2    1    2    0    0 -0.35527136788E-14  0.00000000000E+00  0.57918859014E+03  0.64320615539E+03  0.27974047863E+03 0.  0.
         25    2    3    3    0    0  0.45209483989E+01 -0.62239707942E+02  0.30317364495E+03  0.33387660842E+03  0.12516033894E+03 0.  0.
         25    2    3    3    0    0 -0.45209483989E+01  0.62239707942E+02  0.27601494520E+03  0.30932954697E+03  0.12492517136E+03 0.  0.
          5    1    4    4  502    0 -0.20785197686E+02 -0.31326543647E+02  0.11718187025E+02  0.39658324308E+02  0.47000000000E+01 0.  1.
         -5    1    4    4    0  502  0.25306146085E+02 -0.30913164294E+02  0.29145545792E+03  0.29421828412E+03  0.47000000000E+01 0.  1.
          5    1    5    5  503    0  0.43399344090E+02  0.17637584531E+02  0.21370253604E+03  0.21882744655E+03  0.47000000000E+01 0.  1.
         -5    1    5    5    0  503 -0.47920292488E+02  0.44602123411E+02  0.62312409155E+02  0.90502100416E+02  0.47000000000E+01 0.  1.
<mgrwt>
<rscale>  0 0.27974048E+03</rscale>
<asrwt>0</asrwt>
<pdfrwt beam="1">  1        2 0.94030356E-01 0.27974048E+03</pdfrwt>
<pdfrwt beam="2">  1       -2 0.49244286E-02 0.27974048E+03</pdfrwt>
<totfact> 0.98568479E+03</totfact>
</mgrwt>
</event>
<event>
 9    1  0.7957670E-001  0.2765237E+03  0.7818608E-02  0.1097603E+00
         -1   -1    0    0    0  501 -0.00000000000E+00  0.00000000000E+00  0.19455393571E+02  0.19455393571E+02  0.00000000000E+00 0. -1.
          1   -1    0    0  501    0  0.00000000000E+00 -0.00000000000E+00 -0.98257245708E+03  0.98257245708E+03  0.00000000000E+00 0. -1.
         35    2    1    2    0    0  0.00000000000E+00  0.00000000000E+00 -0.96311706351E+03  0.10020278507E+04  0.27652366166E+03 0.  0.
         25    2    3    3    0    0  0.85793037344E+01  0.46615060303E+02 -0.36643352538E+03  0.39025807365E+03  0.12562351385E+03 0.  0.
         25    2    3    3    0    0 -0.85793037344E+01 -0.46615060303E+02 -0.59668353813E+03  0.61176977700E+03  0.12642961311E+03 0.  0.
          5    1    4    4  502    0 -0.30664452731E+02  0.12262745062E+02 -0.17987120566E+02  0.37898681824E+02  0.47000000000E+01 0.  1.
         -5    1    4    4    0  502  0.39243756466E+02  0.34352315241E+02 -0.34844640481E+03  0.35235939183E+03  0.47000000000E+01 0.  1.
          5    1    5    5  503    0 -0.20017988912E+02  0.88892322400E+01 -0.49306047139E+03  0.49356910031E+03  0.47000000000E+01 0. -1.
         -5    1    5    5    0  503  0.11438685178E+02 -0.55504292543E+02 -0.10362306674E+03  0.11820067669E+03  0.47000000000E+01 0. -1.
<mgrwt>
<rscale>  0 0.27652366E+03</rscale>
<asrwt>0</asrwt>
<pdfrwt beam="1">  1        1 0.15116498E+00 0.27652366E+03</pdfrwt>
<pdfrwt beam="2">  1       -1 0.29931377E-02 0.27652366E+03</pdfrwt>
<totfact> 0.62349988E+03</totfact>
</mgrwt>
</event>
<event>
 9    1  0.7957670E-001  0.2721590E+03  0.7818608E-02  0.1100050E+00
         -2   -1    0    0    0  501 -0.00000000000E+00  0.00000000000E+00  0.15059445618E+02  0.15059445618E+02  0.00000000000E+00 0. -1.
          2   -1    0    0  501    0  0.00000000000E+00 -0.00000000000E+00 -0.12296352173E+04  0.12296352173E+04  0.00000000000E+00 0. -1.
         35    2    1    2    0    0 -0.71054273576E-14  0.14210854715E-13 -0.12145757717E+04  0.12446946629E+04  0.27215895859E+03 0.  0.
         25    2    3    3    0    0 -0.48157971326E+02  0.26899534040E+02 -0.65320010586E+03  0.66709293790E+03  0.12369249923E+03 0.  0.
         25    2    3    3    0    0  0.48157971326E+02 -0.26899534040E+02 -0.56137566583E+03  0.57760172503E+03  0.12425111442E+03 0.  0.
          5    1    4    4  502    0 -0.27777159315E+02 -0.39032050046E+02 -0.11798848307E+03  0.12743015204E+03  0.47000000000E+01 0. -1.
         -5    1    4    4    0  502 -0.20380812011E+02  0.65931584086E+02 -0.53521162279E+03  0.53966278587E+03  0.47000000000E+01 0. -1.
          5    1    5    5  503    0  0.43998452862E+02  0.43247724244E+02 -0.32979008566E+03  0.33554406582E+03  0.47000000000E+01 0.  1.
         -5    1    5    5    0  503  0.41595184640E+01 -0.70147258284E+02 -0.23158558016E+03  0.24205765920E+03  0.47000000000E+01 0.  1.
<mgrwt>
<rscale>  0 0.27215896E+03</rscale>
<asrwt>0</asrwt>
<pdfrwt beam="1">  1        2 0.18917468E+00 0.27215896E+03</pdfrwt>
<pdfrwt beam="2">  1       -2 0.23168374E-02 0.27215896E+03</pdfrwt>
<totfact> 0.11937997E+04</totfact>
</mgrwt>
</event>
<event>
 9    1  0.7957670E-001  0.2746696E+03  0.7818608E-02  0.1098636E+00
          2   -1    0    0  501    0  0.00000000000E+00  0.00000000000E+00  0.22720825560E+04  0.22720825560E+04  0.00000000000E+00 0.  1.
         -2   -1    0    0    0  501 -0.00000000000E+00 -0.00000000000E+00 -0.83011254520E+01  0.83011254520E+01  0.00000000000E+00 0.  1.
         35    2    1    2    0    0 -0.35527136788E-14  0.35527136788E-14  0.22637814306E+04  0.22803836815E+04  0.27466956391E+03 0.  0.
         25    2    3    3    0    0 -0.53441717085E+01  0.23414123095E+02  0.15399226239E+04  0.15449794527E+04  0.12256851260E+03 0.  0.
         25    2    3    3    0    0  0.53441717085E+01 -0.23414123095E+02  0.72385880666E+03  0.73540422878E+03  0.12755793350E+03 0.  0.
          5    1    4    4  502    0 -0.32170217431E+02 -0.20643114689E+02  0.12413658505E+04  0.12419630936E+04  0.47000000000E+01 0.  1.
         -5    1    4    4    0  502  0.26826045722E+02  0.44057237784E+02  0.29855677348E+03  0.30301635916E+03  0.47000000000E+01 0.  1.
          5    1    5    5  503    0 -0.52654251336E+02 -0.26722775975E+02  0.52046022332E+03  0.52382011321E+03  0.47000000000E+01 0.  1.
         -5    1    5    5    0  503  0.57998423044E+02  0.33086528798E+01  0.20339858333E+03  0.21158411557E+03  0.47000000000E+01 0.  1.
<mgrwt>
<rscale>  0 0.27466956E+03</rscale>
<asrwt>0</asrwt>
<pdfrwt beam="1">  1        2 0.34955067E+00 0.27466956E+03</pdfrwt>
<pdfrwt beam="2">  1       -2 0.12770980E-02 0.27466956E+03</pdfrwt>
<totfact> 0.79551432E+03</totfact>
</mgrwt>
</event>
<event>
 9    1  0.7957670E-001  0.2802175E+03  0.7818608E-02  0.1095570E+00
          2   -1    0    0  501    0  0.00000000000E+00  0.00000000000E+00  0.13174210507E+03  0.13174210507E+03  0.00000000000E+00 0. -1.
         -2   -1    0    0    0  501 -0.00000000000E+00 -0.00000000000E+00 -0.14900677772E+03  0.14900677772E+03  0.00000000000E+00 0. -1.
         35    2    1    2    0    0 -0.71054273576E-14 -0.71054273576E-14 -0.17264672652E+02  0.28074888280E+03  0.28021753384E+03 0.  0.
         25    2    3    3    0    0  0.52059323507E+01  0.41737275975E+02 -0.55156090567E+02  0.14371129636E+03  0.12586357867E+03 0.  0.
         25    2    3    3    0    0 -0.52059323507E+01 -0.41737275975E+02  0.37891417916E+02  0.13703758644E+03  0.12479759055E+03 0.  0.
          5    1    4    4  502    0  0.24115665558E+02 -0.35765620789E+02 -0.46060883298E+02  0.63280644165E+02  0.47000000000E+01 0. -1.
         -5    1    4    4    0  502 -0.18909733208E+02  0.77502896765E+02 -0.90952072694E+01  0.80430652193E+02  0.47000000000E+01 0. -1.
          5    1    5    5  503    0  0.36946875972E+02 -0.57066041029E+02 -0.12640667200E+02  0.69307150786E+02  0.47000000000E+01 0. -1.
         -5    1    5    5    0  503 -0.42152808323E+02  0.15328765054E+02  0.50532085116E+02  0.67730435653E+02  0.47000000000E+01 0. -1.
<mgrwt>
<rscale>  0 0.28021753E+03</rscale>
<asrwt>0</asrwt>
<pdfrwt beam="1">  1        2 0.20268016E-01 0.28021753E+03</pdfrwt>
<pdfrwt beam="2">  1       -2 0.22924119E-01 0.28021753E+03</pdfrwt>
<totfact> 0.45068307E+03</totfact>
</mgrwt>
</event>
<event>
 9    1  0.7957670E-001  0.2759844E+03  0.7818608E-02  0.1097903E+00
         -2   -1    0    0    0  501 -0.00000000000E+00  0.00000000000E+00  0.82839161603E+01  0.82839161603E+01  0.00000000000E+00 0.  1.
          2   -1    0    0  501    0  0.00000000000E+00 -0.00000000000E+00 -0.22986533262E+04  0.22986533262E+04  0.00000000000E+00 0.  1.
         35    2    1    2    0    0 -0.35527136788E-14  0.00000000000E+00 -0.22903694100E+04  0.23069372423E+04  0.27598443025E+03 0.  0.
         25    2    3    3    0    0 -0.24128114235E+02 -0.34848961397E+02 -0.14781408221E+04  0.14840097236E+04  0.12485172741E+03 0.  0.
         25    2    3    3    0    0  0.24128114235E+02  0.34848961397E+02 -0.81222858792E+03  0.82292751872E+03  0.12529088564E+03 0.  0.
          5    1    4    4  502    0 -0.56715734007E+02  0.23505039965E+02 -0.54516839154E+03  0.54863451088E+03  0.47000000000E+01 0.  1.
         -5    1    4    4    0  502  0.32587619772E+02 -0.58354001362E+02 -0.93297243056E+03  0.93537521275E+03  0.47000000000E+01 0.  1.
          5    1    5    5  503    0  0.10116933365E+02 -0.35532533847E+02 -0.94022258153E+02  0.10112956210E+03  0.47000000000E+01 0.  1.
         -5    1    5    5    0  503  0.14011180869E+02  0.70381495244E+02 -0.71820632976E+03  0.72179795662E+03  0.47000000000E+01 0.  1.
<mgrwt>
<rscale>  0 0.27598443E+03</rscale>
<asrwt>0</asrwt>
<pdfrwt beam="1">  1        2 0.35363943E+00 0.27598443E+03</pdfrwt>
<pdfrwt beam="2">  1       -2 0.12744470E-02 0.27598443E+03</pdfrwt>
<totfact> 0.77219844E+03</totfact>
</mgrwt>
</event>
<event>
 9    1  0.7957670E-001  0.2766865E+03  0.7818608E-02  0.1097513E+00
          2   -1    0    0  501    0  0.00000000000E+00  0.00000000000E+00  0.58422954095E+03  0.58422954095E+03  0.00000000000E+00 0.  1.
         -2   -1    0    0    0  501 -0.00000000000E+00 -0.00000000000E+00 -0.32759145049E+02  0.32759145049E+02  0.00000000000E+00 0.  1.
         35    2    1    2    0    0  0.00000000000E+00  0.35527136788E-14  0.55147039590E+03  0.61698868600E+03  0.27668653942E+03 0.  0.
         25    2    3    3    0    0 -0.55287060499E+02  0.93381835788E+01  0.31898837151E+03  0.34745558462E+03  0.12580914671E+03 0.  0.
         25    2    3    3    0    0  0.55287060499E+02 -0.93381835788E+01  0.23248202440E+03  0.26953310138E+03  0.12432353092E+03 0.  0.
          5    1    4    4  502    0 -0.44636230394E+02  0.40502334586E+02  0.56114166395E+02  0.82484676401E+02  0.47000000000E+01 0. -1.
         -5    1    4    4    0  502 -0.10650830104E+02 -0.31164151007E+02  0.26287420511E+03  0.26497090822E+03  0.47000000000E+01 0. -1.
          5    1    5    5  503    0  0.19870785227E+02 -0.65363822426E+02  0.13759195309E+03  0.15369096572E+03  0.47000000000E+01 0. -1.
         -5    1    5    5    0  503  0.35416275271E+02  0.56025638848E+02  0.94890071302E+02  0.11584213566E+03  0.47000000000E+01 0. -1.
<mgrwt>
<rscale>  0 0.27668654E+03</rscale>
<asrwt>0</asrwt>
<pdfrwt beam="1">  1        2 0.89881460E-01 0.27668654E+03</pdfrwt>
<pdfrwt beam="2">  1       -2 0.50398689E-02 0.27668654E+03</pdfrwt>
<totfact> 0.10023489E+04</totfact>
</mgrwt>
</event>
<event>
 9    1  0.7957670E-001  0.2712473E+03  0.7818608E-02  0.1100568E+00
          2   -1    0    0  501    0  0.00000000000E+00  0.00000000000E+00  0.14714141816E+04  0.14714141816E+04  0.00000000000E+00 0.  1.
         -2   -1    0    0    0  501 -0.00000000000E+00 -0.00000000000E+00 -0.12500741529E+02  0.12500741529E+02  0.00000000000E+00 0.  1.
         35    2    1    2    0    0  0.00000000000E+00  0.00000000000E+00  0.14589134401E+04  0.14839149231E+04  0.27124725522E+03 0.  0.
         25    2    3    3    0    0 -0.43752927941E+02  0.56151333348E+01  0.57729143174E+03  0.59221063310E+03  0.12450778435E+03 0.  0.
         25    2    3    3    0    0  0.43752927941E+02 -0.56151333348E+01  0.88162200831E+03  0.89170429002E+03  0.12622728259E+03 0.  0.
          5    1    4    4  502    0  0.10789586129E+02  0.56271030083E+02  0.24658402910E+03  0.25319679579E+03  0.47000000000E+01 0.  1.
         -5    1    4    4    0  502 -0.54542514070E+02 -0.50655896748E+02  0.33070740265E+03  0.33901383730E+03  0.47000000000E+01 0.  1.
          5    1    5    5  503    0  0.44872989869E+02  0.33745885029E+02  0.78823498045E+03  0.79024606572E+03  0.47000000000E+01 0. -1.
         -5    1    5    5    0  503 -0.11200619273E+01 -0.39361018364E+02  0.93387027864E+02  0.10145822430E+03  0.47000000000E+01 0. -1.
<mgrwt>
<rscale>  0 0.27124726E+03</rscale>
<asrwt>0</asrwt>
<pdfrwt beam="1">  1        2 0.22637128E+00 0.27124726E+03</pdfrwt>
<pdfrwt beam="2">  1       -2 0.19231922E-02 0.27124726E+03</pdfrwt>
<totfact> 0.11571490E+04</totfact>
</mgrwt>
</event>
<event>
 9    1  0.7957670E-001  0.2554670E+03  0.7818608E-02  0.1109898E+00
         -1   -1    0    0    0  501 -0.00000000000E+00  0.00000000000E+00  0.12920798700E+02  0.12920798700E+02  0.00000000000E+00 0.  1.
          1   -1    0    0  501    0  0.00000000000E+00 -0.00000000000E+00 -0.12627587750E+04  0.12627587750E+04  0.00000000000E+00 0.  1.
         35    2    1    2    0    0  0.35527136788E-14 -0.35527136788E-14 -0.12498379763E+04  0.12756795737E+04  0.25546703848E+03 0.  0.
         25    2    3    3    0    0 -0.11095355529E+02 -0.24939618627E+02 -0.59955803217E+03  0.61294222016E+03  0.12443166730E+03 0.  0.
         25    2    3    3    0    0  0.11095355529E+02  0.24939618627E+02 -0.65027994409E+03  0.66273735349E+03  0.12494679885E+03 0.  0.
          5    1    4    4  502    0 -0.13293502175E+02  0.69347132573E+01 -0.36132141416E+01  0.16123050718E+02  0.47000000000E+01 0. -1.
         -5    1    4    4    0  502  0.21981466459E+01 -0.31874331885E+02 -0.59594481802E+03  0.59681916944E+03  0.47000000000E+01 0. -1.
          5    1    5    5  503    0  0.44946278776E+02 -0.19436080595E+02 -0.49904374467E+03  0.50146253928E+03  0.47000000000E+01 0. -1.
         -5    1    5    5    0  503 -0.33850923247E+02  0.44375699223E+02 -0.15123619941E+03  0.16127481421E+03  0.47000000000E+01 0. -1.
<mgrwt>
<rscale>  0 0.25546704E+03</rscale>
<asrwt>0</asrwt>
<pdfrwt beam="1">  1        1 0.19427061E+00 0.25546704E+03</pdfrwt>
<pdfrwt beam="2">  1       -1 0.19878149E-02 0.25546704E+03</pdfrwt>
<totfact> 0.71467670E+03</totfact>
</mgrwt>
</event>
<event>
 9    1  0.7957670E-001  0.2693409E+03  0.7818608E-02  0.1101657E+00
          3   -1    0    0  501    0  0.00000000000E+00  0.00000000000E+00  0.30028385804E+03  0.30028385804E+03  0.00000000000E+00 0.  1.
         -3   -1    0    0    0  501 -0.00000000000E+00 -0.00000000000E+00 -0.60396640842E+02  0.60396640842E+02  0.00000000000E+00 0.  1.
         35    2    1    2    0    0 -0.35527136788E-14  0.00000000000E+00  0.23988721720E+03  0.36068049888E+03  0.26934094620E+03 0.  0.
         25    2    3    3    0    0  0.13249041270E+02 -0.48362401383E+02  0.13287908104E+03  0.18872337943E+03  0.12427873834E+03 0.  0.
         25    2    3    3    0    0 -0.13249041270E+02  0.48362401383E+02  0.10700813616E+03  0.17195711945E+03  0.12491617495E+03 0.  0.
          5    1    4    4  502    0  0.17893027532E+02  0.24582596377E+02 -0.63403108844E+01  0.31412641102E+02  0.47000000000E+01 0.  1.
         -5    1    4    4    0  502 -0.46439862625E+01 -0.72944997760E+02  0.13921939192E+03  0.15731073833E+03  0.47000000000E+01 0.  1.
          5    1    5    5  503    0  0.34279955524E+02  0.70092308551E+02  0.83752695586E+02  0.11456286958E+03  0.47000000000E+01 0. -1.
         -5    1    5    5    0  503 -0.47528996793E+02 -0.21729907168E+02  0.23255440573E+02  0.57394249868E+02  0.47000000000E+01 0. -1.
<mgrwt>
<rscale>  0 0.26934095E+03</rscale>
<asrwt>0</asrwt>
<pdfrwt beam="1">  1        3 0.46197516E-01 0.26934095E+03</pdfrwt>
<pdfrwt beam="2">  1       -3 0.92917911E-02 0.26934095E+03</pdfrwt>
<totfact> 0.99009974E+02</totfact>
</mgrwt>
</event>
<event>
 9    1  0.7957670E-001  0.2741009E+03  0.7818608E-02  0.1098955E+00
         -1   -1    0    0    0  501 -0.00000000000E+00  0.00000000000E+00  0.11184185561E+03  0.11184185561E+03  0.00000000000E+00 0.  1.
          1   -1    0    0  501    0  0.00000000000E+00 -0.00000000000E+00 -0.16794089112E+03  0.16794089112E+03  0.00000000000E+00 0.  1.
         35    2    1    2    0    0  0.00000000000E+00  0.00000000000E+00 -0.56099035502E+02  0.27978274673E+03  0.27410086389E+03 0.  0.
         25    2    3    3    0    0 -0.45712524324E+02  0.34561556779E+02 -0.32343592204E+02  0.14027359312E+03  0.12388073653E+03 0.  0.
         25    2    3    3    0    0  0.45712524324E+02 -0.34561556779E+02 -0.23755443297E+02  0.13950915361E+03  0.12495737980E+03 0.  0.
          5    1    4    4  502    0  0.17642761527E+02  0.56413333954E+02 -0.41634520999E+02  0.72451739944E+02  0.47000000000E+01 0.  1.
         -5    1    4    4    0  502 -0.63355285851E+02 -0.21851777175E+02  0.92909287944E+01  0.67821853180E+02  0.47000000000E+01 0.  1.
          5    1    5    5  503    0 -0.14811130791E+02 -0.62051042069E+01 -0.60722503715E+02  0.62985596536E+02  0.47000000000E+01 0. -1.
         -5    1    5    5    0  503  0.60523655115E+02 -0.28356452572E+02  0.36967060418E+02  0.76523557071E+02  0.47000000000E+01 0. -1.
<mgrwt>
<rscale>  0 0.27410086E+03</rscale>
<asrwt>0</asrwt>
<pdfrwt beam="1">  1        1 0.25837060E-01 0.27410086E+03</pdfrwt>
<pdfrwt beam="2">  1       -1 0.17206439E-01 0.27410086E+03</pdfrwt>
<totfact> 0.46932071E+03</totfact>
</mgrwt>
</event>
<event>
 9    1  0.7957670E-001  0.2761788E+03  0.7818608E-02  0.1097794E+00
         -2   -1    0    0    0  501 -0.00000000000E+00  0.00000000000E+00  0.87570409358E+01  0.87570409358E+01  0.00000000000E+00 0. -1.
          2   -1    0    0  501    0  0.00000000000E+00 -0.00000000000E+00 -0.21775263791E+04  0.21775263791E+04  0.00000000000E+00 0. -1.
         35    2    1    2    0    0 -0.35527136788E-14 -0.71054273576E-14 -0.21687693382E+04  0.21862834200E+04  0.27617883801E+03 0.  0.
         25    2    3    3    0    0 -0.31628189225E+01 -0.14626704187E+02 -0.64570246212E+03  0.65803458456E+03  0.12591227500E+03 0.  0.
         25    2    3    3    0    0  0.31628189225E+01  0.14626704187E+02 -0.15230668761E+04  0.15282488355E+04  0.12485131285E+03 0.  0.
          5    1    4    4  502    0 -0.34573748948E+02 -0.61013462482E+02 -0.33630526714E+03  0.34357140368E+03  0.47000000000E+01 0. -1.
         -5    1    4    4    0  502  0.31410930025E+02  0.46386758295E+02 -0.30939719498E+03  0.31446318088E+03  0.47000000000E+01 0. -1.
          5    1    5    5  503    0 -0.16788261659E+02  0.66668609742E+02 -0.93041713090E+03  0.93296552815E+03  0.47000000000E+01 0.  1.
         -5    1    5    5    0  503  0.19951080581E+02 -0.52041905555E+02 -0.59264974516E+03  0.59528330733E+03  0.47000000000E+01 0.  1.
<mgrwt>
<rscale>  0 0.27617884E+03</rscale>
<asrwt>0</asrwt>
<pdfrwt beam="1">  1        2 0.33500382E+00 0.27617884E+03</pdfrwt>
<pdfrwt beam="2">  1       -2 0.13472380E-02 0.27617884E+03</pdfrwt>
<totfact> 0.82636407E+03</totfact>
</mgrwt>
</event>
<event>
 9    1  0.7957670E-001  0.2719403E+03  0.7818608E-02  0.1100174E+00
          2   -1    0    0  501    0  0.00000000000E+00  0.00000000000E+00  0.21215559294E+04  0.21215559294E+04  0.00000000000E+00 0. -1.
         -2   -1    0    0    0  501 -0.00000000000E+00 -0.00000000000E+00 -0.87143006792E+01  0.87143006792E+01  0.00000000000E+00 0. -1.
         35    2    1    2    0    0 -0.35527136788E-14 -0.35527136788E-14  0.21128416287E+04  0.21302702301E+04  0.27194026018E+03 0.  0.
         25    2    3    3    0    0 -0.11150051958E+02 -0.27742662493E+02  0.13972870412E+04  0.14031487015E+04  0.12458420474E+03 0.  0.
         25    2    3    3    0    0  0.11150051958E+02  0.27742662493E+02  0.71555458755E+03  0.72712152859E+03  0.12567167780E+03 0.  0.
          5    1    4    4  502    0 -0.25930490651E+02 -0.67928455452E+02  0.55517874609E+03  0.55993945701E+03  0.47000000000E+01 0.  1.
         -5    1    4    4    0  502  0.14780438693E+02  0.40185792959E+02  0.84210829506E+03  0.84320924446E+03  0.47000000000E+01 0.  1.
          5    1    5    5  503    0 -0.31027470616E+02 -0.13775902476E+02  0.55305577271E+03  0.55411664580E+03  0.47000000000E+01 0. -1.
         -5    1    5    5    0  503  0.42177522573E+02  0.41518564969E+02  0.16249881484E+03  0.17300488279E+03  0.47000000000E+01 0. -1.
<mgrwt>
<rscale>  0 0.27194026E+03</rscale>
<asrwt>0</asrwt>
<pdfrwt beam="1">  1        2 0.32639281E+00 0.27194026E+03</pdfrwt>
<pdfrwt beam="2">  1       -2 0.13406633E-02 0.27194026E+03</pdfrwt>
<totfact> 0.89105023E+03</totfact>
</mgrwt>
</event>
<event>
 9    1  0.7957670E-001  0.2856342E+03  0.7818608E-02  0.1092651E+00
         -2   -1    0    0    0  501 -0.00000000000E+00  0.00000000000E+00  0.75077022528E+02  0.75077022528E+02  0.00000000000E+00 0. -1.
          2   -1    0    0  501    0  0.00000000000E+00 -0.00000000000E+00 -0.27167729048E+03  0.27167729048E+03  0.00000000000E+00 0. -1.
         35    2    1    2    0    0  0.00000000000E+00  0.00000000000E+00 -0.19660026795E+03  0.34675431300E+03  0.28563418603E+03 0.  0.
         25    2    3    3    0    0 -0.20089823058E+02 -0.62744473459E+02 -0.12503020413E+03  0.18849545033E+03  0.12472975952E+03 0.  0.
         25    2    3    3    0    0  0.20089823058E+02  0.62744473459E+02 -0.71570063814E+02  0.15825886267E+03  0.12483238218E+03 0.  0.
          5    1    4    4  502    0  0.36605573846E+01 -0.85200220549E+02 -0.34468649206E+02  0.92101330284E+02  0.47000000000E+01 0. -1.
         -5    1    4    4    0  502 -0.23750380443E+02  0.22455747090E+02 -0.90561554929E+02  0.96394120047E+02  0.47000000000E+01 0. -1.
          5    1    5    5  503    0 -0.26716210710E+02  0.53345707985E+02  0.12804141165E+02  0.61200951840E+02  0.47000000000E+01 0.  1.
         -5    1    5    5    0  503  0.46806033768E+02  0.93987654737E+01 -0.84374204978E+02  0.97057910833E+02  0.47000000000E+01 0.  1.
<mgrwt>
<rscale>  0 0.28563419E+03</rscale>
<asrwt>0</asrwt>
<pdfrwt beam="1">  1        2 0.41796506E-01 0.28563419E+03</pdfrwt>
<pdfrwt beam="2">  1       -2 0.11550311E-01 0.28563419E+03</pdfrwt>
<totfact> 0.63731259E+03</totfact>
</mgrwt>
</event>
<event>
 9    1  0.7957670E-001  0.2721572E+03  0.7818608E-02  0.1100051E+00
          1   -1    0    0  501    0  0.00000000000E+00  0.00000000000E+00  0.78908340682E+03  0.78908340682E+03  0.00000000000E+00 0.  1.
         -1   -1    0    0    0  501 -0.00000000000E+00 -0.00000000000E+00 -0.23466952322E+02  0.23466952322E+02  0.00000000000E+00 0.  1.
         35    2    1    2    0    0  0.00000000000E+00  0.00000000000E+00  0.76561645450E+03  0.81255035914E+03  0.27215718022E+03 0.  0.
         25    2    3    3    0    0 -0.30292082768E+02 -0.26126671176E+02  0.41862943755E+03  0.43867830360E+03  0.12485125088E+03 0.  0.
         25    2    3    3    0    0  0.30292082768E+02  0.26126671176E+02  0.34698701695E+03  0.37387205554E+03  0.13334208171E+03 0.  0.
          5    1    4    4  502    0 -0.30909612079E+01 -0.64979892072E+02  0.34399736546E+03  0.35012600283E+03  0.47000000000E+01 0.  1.
         -5    1    4    4    0  502 -0.27201121560E+02  0.38853220896E+02  0.74632072093E+02  0.88552300777E+02  0.47000000000E+01 0.  1.
          5    1    5    5  503    0  0.11343010961E+02  0.72453626879E+02  0.11480806553E+03  0.13631277950E+03  0.47000000000E+01 0.  1.
         -5    1    5    5    0  503  0.18949071807E+02 -0.46326955703E+02  0.23217895142E+03  0.23755927603E+03  0.47000000000E+01 0.  1.
<mgrwt>
<rscale>  0 0.27215718E+03</rscale>
<asrwt>0</asrwt>
<pdfrwt beam="1">  1        1 0.12139743E+00 0.27215718E+03</pdfrwt>
<pdfrwt beam="2">  1       -1 0.36103010E-02 0.27215718E+03</pdfrwt>
<totfact> 0.67279947E+03</totfact>
</mgrwt>
</event>
<event>
 9    1  0.7957670E-001  0.2739855E+03  0.7818608E-02  0.1099020E+00
         -2   -1    0    0    0  501 -0.00000000000E+00  0.00000000000E+00  0.20681643266E+02  0.20681643266E+02  0.00000000000E+00 0. -1.
          2   -1    0    0  501    0  0.00000000000E+00 -0.00000000000E+00 -0.90742355033E+03  0.90742355033E+03  0.00000000000E+00 0. -1.
         35    2    1    2    0    0 -0.71054273576E-14  0.00000000000E+00 -0.88674190706E+03  0.92810519359E+03  0.27398547523E+03 0.  0.
         25    2    3    3    0    0  0.32728539441E+02  0.42906789064E+02 -0.50856595117E+03  0.52605739708E+03  0.12322706074E+03 0.  0.
         25    2    3    3    0    0 -0.32728539441E+02 -0.42906789064E+02 -0.37817595589E+03  0.40204779651E+03  0.12535241210E+03 0.  0.
          5    1    4    4  502    0 -0.26778800418E+02 -0.76033274045E+01 -0.30192315564E+02  0.41334981052E+02  0.47000000000E+01 0.  1.
         -5    1    4    4    0  502  0.59507339859E+02  0.50510116469E+02 -0.47837363560E+03  0.48472241603E+03  0.47000000000E+01 0.  1.
          5    1    5    5  503    0 -0.94601595147E+01 -0.39934333089E+02 -0.25464739793E+02  0.48526163562E+02  0.47000000000E+01 0.  1.
         -5    1    5    5    0  503 -0.23268379926E+02 -0.29724559750E+01 -0.35271121610E+03  0.35352163295E+03  0.47000000000E+01 0.  1.
<mgrwt>
<rscale>  0 0.27398548E+03</rscale>
<asrwt>0</asrwt>
<pdfrwt beam="1">  1        2 0.13960361E+00 0.27398548E+03</pdfrwt>
<pdfrwt beam="2">  1       -2 0.31817916E-02 0.27398548E+03</pdfrwt>
<totfact> 0.11617097E+04</totfact>
</mgrwt>
</event>
<event>
 9    1  0.7957670E-001  0.2864272E+03  0.7818608E-02  0.1092229E+00
          2   -1    0    0  501    0  0.00000000000E+00  0.00000000000E+00  0.60132413131E+03  0.60132413131E+03  0.00000000000E+00 0.  1.
         -2   -1    0    0    0  501 -0.00000000000E+00 -0.00000000000E+00 -0.34108279207E+02  0.34108279207E+02  0.00000000000E+00 0.  1.
         35    2    1    2    0    0 -0.71054273576E-14  0.00000000000E+00  0.56721585211E+03  0.63543241052E+03  0.28642717304E+03 0.  0.
         25    2    3    3    0    0 -0.48071849185E+02 -0.11933509103E+01  0.16693049215E+03  0.21363551674E+03  0.12434636316E+03 0.  0.
         25    2    3    3    0    0  0.48071849185E+02  0.11933509103E+01  0.40028535996E+03  0.42179689378E+03  0.12398356117E+03 0.  0.
          5    1    4    4  502    0 -0.40078228364E+02 -0.24193123692E+02  0.22553419185E+01  0.47103589990E+02  0.47000000000E+01 0. -1.
         -5    1    4    4    0  502 -0.79936208206E+01  0.22999772782E+02  0.16467515023E+03  0.16653192675E+03  0.47000000000E+01 0. -1.
          5    1    5    5  503    0 -0.91505106957E+01  0.47160869150E+02  0.82251208781E+02  0.95368919313E+02  0.47000000000E+01 0. -1.
         -5    1    5    5    0  503  0.57222359880E+02 -0.45967518240E+02  0.31803415117E+03  0.32642797447E+03  0.47000000000E+01 0. -1.
<mgrwt>
<rscale>  0 0.28642717E+03</rscale>
<asrwt>0</asrwt>
<pdfrwt beam="1">  1        2 0.92511397E-01 0.28642717E+03</pdfrwt>
<pdfrwt beam="2">  1       -2 0.52474280E-02 0.28642717E+03</pdfrwt>
<totfact> 0.91272400E+03</totfact>
</mgrwt>
</event>
<event>
 9    1  0.7957670E-001  0.2767066E+03  0.7818608E-02  0.1097501E+00
         -2   -1    0    0    0  501 -0.00000000000E+00  0.00000000000E+00  0.12585199661E+03  0.12585199661E+03  0.00000000000E+00 0.  1.
          2   -1    0    0  501    0  0.00000000000E+00 -0.00000000000E+00 -0.15209634946E+03  0.15209634946E+03  0.00000000000E+00 0.  1.
         35    2    1    2    0    0 -0.35527136788E-14  0.71054273576E-14 -0.26244352847E+02  0.27794834607E+03  0.27670655400E+03 0.  0.
         25    2    3    3    0    0  0.23255966505E+02  0.50418411334E+02 -0.35771896597E+02  0.14063957480E+03  0.12416523360E+03 0.  0.
         25    2    3    3    0    0 -0.23255966505E+02 -0.50418411334E+02  0.95275437504E+01  0.13730877127E+03  0.12522007985E+03 0.  0.
          5    1    4    4  502    0  0.28620060300E+02  0.37285353440E+02  0.40925145343E+02  0.62500103632E+02  0.47000000000E+01 0.  1.
         -5    1    4    4    0  502 -0.53640937943E+01  0.13133057894E+02 -0.76697041940E+02  0.78139471167E+02  0.47000000000E+01 0.  1.
          5    1    5    5  503    0 -0.17313556501E+02 -0.29171106654E+02 -0.57312594771E+02  0.66764782794E+02  0.47000000000E+01 0.  1.
         -5    1    5    5    0  503 -0.59424100041E+01 -0.21247304680E+02  0.66840138521E+02  0.70543988478E+02  0.47000000000E+01 0.  1.
<mgrwt>
<rscale>  0 0.27670655E+03</rscale>
<asrwt>0</asrwt>
<pdfrwt beam="1">  1        2 0.23399438E-01 0.27670655E+03</pdfrwt>
<pdfrwt beam="2">  1       -2 0.19361846E-01 0.27670655E+03</pdfrwt>
<totfact> 0.51201067E+03</totfact>
</mgrwt>
</event>
<event>
 9    1  0.7957670E-001  0.2780266E+03  0.7818608E-02  0.1096772E+00
          2   -1    0    0  501    0  0.00000000000E+00  0.00000000000E+00  0.50691048529E+03  0.50691048529E+03  0.00000000000E+00 0. -1.
         -2   -1    0    0    0  501 -0.00000000000E+00 -0.00000000000E+00 -0.38122503465E+02  0.38122503465E+02  0.00000000000E+00 0. -1.
         35    2    1    2    0    0  0.00000000000E+00 -0.35527136788E-14  0.46878798183E+03  0.54503298876E+03  0.27802659392E+03 0.  0.
         25    2    3    3    0    0  0.48486007517E+02  0.29053398175E+02  0.24869321502E+03  0.28536018774E+03  0.12801222081E+03 0.  0.
         25    2    3    3    0    0 -0.48486007517E+02 -0.29053398175E+02  0.22009476681E+03  0.25967280102E+03  0.12567125505E+03 0.  0.
          5    1    4    4  502    0  0.89579879747E+02  0.32147624670E+02  0.19895268755E+03  0.22059530029E+03  0.47000000000E+01 0.  1.
         -5    1    4    4    0  502 -0.41093872230E+02 -0.30942264950E+01  0.49740527474E+02  0.64764887446E+02  0.47000000000E+01 0.  1.
          5    1    5    5  503    0  0.21841654488E+02 -0.80692783007E+01 -0.37576626789E+01  0.24049556168E+02  0.47000000000E+01 0. -1.
         -5    1    5    5    0  503 -0.70327662005E+02 -0.20984119875E+02  0.22385242949E+03  0.23562324486E+03  0.47000000000E+01 0. -1.
<mgrwt>
<rscale>  0 0.27802659E+03</rscale>
<asrwt>0</asrwt>
<pdfrwt beam="1">  1        2 0.77986224E-01 0.27802659E+03</pdfrwt>
<pdfrwt beam="2">  1       -2 0.58650009E-02 0.27802659E+03</pdfrwt>
<totfact> 0.93474569E+03</totfact>
</mgrwt>
</event>
<event>
 9    1  0.7957670E-001  0.3152134E+03  0.7818608E-02  0.1077874E+00
          2   -1    0    0  501    0  0.00000000000E+00  0.00000000000E+00  0.14545824835E+04  0.14545824835E+04  0.00000000000E+00 0.  1.
         -2   -1    0    0    0  501 -0.00000000000E+00 -0.00000000000E+00 -0.17076971964E+02  0.17076971964E+02  0.00000000000E+00 0.  1.
         35    2    1    2    0    0 -0.71054273576E-14 -0.14210854715E-13  0.14375055115E+04  0.14716594554E+04  0.31521335181E+03 0.  0.
         25    2    3    3    0    0  0.53197174133E+02  0.40132862544E+02  0.38515564463E+03  0.40999321686E+03  0.12372946816E+03 0.  0.
         25    2    3    3    0    0 -0.53197174133E+02 -0.40132862544E+02  0.10523498669E+04  0.10616662386E+04  0.12350859815E+03 0.  0.
          5    1    4    4  502    0  0.45143030556E+02  0.56886577520E+02  0.97324709182E+02  0.12152433883E+03  0.47000000000E+01 0.  1.
         -5    1    4    4    0  502  0.80541435771E+01 -0.16753714976E+02  0.28783093544E+03  0.28846887803E+03  0.47000000000E+01 0.  1.
          5    1    5    5  503    0  0.36653834574E+01 -0.95173481549E+01  0.83009990507E+03  0.83017585929E+03  0.47000000000E+01 0.  1.
         -5    1    5    5    0  503 -0.56862557590E+02 -0.30615514389E+02  0.22224996182E+03  0.23149037929E+03  0.47000000000E+01 0.  1.
<mgrwt>
<rscale>  0 0.31521335E+03</rscale>
<asrwt>0</asrwt>
<pdfrwt beam="1">  1        2 0.22378182E+00 0.31521335E+03</pdfrwt>
<pdfrwt beam="2">  1       -2 0.26272276E-02 0.31521335E+03</pdfrwt>
<totfact> 0.74695086E+03</totfact>
</mgrwt>
</event>
<event>
 9    1  0.7957670E-001  0.2696165E+03  0.7818608E-02  0.1101499E+00
          2   -1    0    0  501    0  0.00000000000E+00  0.00000000000E+00  0.90786818756E+03  0.90786818756E+03  0.00000000000E+00 0. -1.
         -2   -1    0    0    0  501 -0.00000000000E+00 -0.00000000000E+00 -0.20017519258E+02  0.20017519258E+02  0.00000000000E+00 0. -1.
         35    2    1    2    0    0  0.00000000000E+00  0.35527136788E-14  0.88785066831E+03  0.92788570682E+03  0.26961653457E+03 0.  0.
         25    2    3    3    0    0 -0.34816902318E+01 -0.21433349658E+02  0.28663368636E+03  0.31343876093E+03  0.12495389571E+03 0.  0.
         25    2    3    3    0    0  0.34816902318E+01  0.21433349658E+02  0.60121698195E+03  0.61444694589E+03  0.12494670580E+03 0.  0.
          5    1    4    4  502    0 -0.29591869823E+02 -0.28192108217E+02  0.20618165868E+02  0.46018175638E+02  0.47000000000E+01 0. -1.
         -5    1    4    4    0  502  0.26110179591E+02  0.67587585586E+01  0.26601552049E+03  0.26742058529E+03  0.47000000000E+01 0. -1.
          5    1    5    5  503    0 -0.51427778773E+02  0.10359137938E+02  0.45085576366E+03  0.45392195121E+03  0.47000000000E+01 0. -1.
         -5    1    5    5    0  503  0.54909469005E+02  0.11074211720E+02  0.15036121829E+03  0.16052499468E+03  0.47000000000E+01 0. -1.
<mgrwt>
<rscale>  0 0.26961653E+03</rscale>
<asrwt>0</asrwt>
<pdfrwt beam="1">  1        2 0.13967200E+00 0.26961653E+03</pdfrwt>
<pdfrwt beam="2">  1       -2 0.30796190E-02 0.26961653E+03</pdfrwt>
<totfact> 0.12181325E+04</totfact>
</mgrwt>
</event>
<event>
 9    1  0.7957670E-001  0.2797745E+03  0.7818608E-02  0.1095812E+00
          1   -1    0    0  501    0  0.00000000000E+00  0.00000000000E+00  0.11118953508E+03  0.11118953508E+03  0.00000000000E+00 0.  1.
         -1   -1    0    0    0  501 -0.00000000000E+00 -0.00000000000E+00 -0.17599175087E+03  0.17599175087E+03  0.00000000000E+00 0.  1.
         35    2    1    2    0    0  0.00000000000E+00  0.00000000000E+00 -0.64802215791E+02  0.28718128595E+03  0.27977448745E+03 0.  0.
         25    2    3    3    0    0 -0.14064503330E+02  0.39480901215E+02 -0.76559694070E+02  0.15977246883E+03  0.13382564487E+03 0.  0.
         25    2    3    3    0    0  0.14064503330E+02 -0.39480901215E+02  0.11757478279E+02  0.12740881712E+03  0.11974229232E+03 0.  0.
          5    1    4    4  502    0  0.12086406785E+02 -0.45856482908E+02 -0.10945500642E+02  0.48895728218E+02  0.47000000000E+01 0.  1.
         -5    1    4    4    0  502 -0.26150910115E+02  0.85337384123E+02 -0.65614193428E+02  0.11087674061E+03  0.47000000000E+01 0.  1.
          5    1    5    5  503    0  0.54321424211E+01  0.38197656872E+02  0.27411971539E+02  0.47561279897E+02  0.47000000000E+01 0.  1.
         -5    1    5    5    0  503  0.86323609093E+01 -0.77678558087E+02 -0.15654493259E+02  0.79847537223E+02  0.47000000000E+01 0.  1.
<mgrwt>
<rscale>  0 0.27977449E+03</rscale>
<asrwt>0</asrwt>
<pdfrwt beam="1">  1        1 0.17106082E-01 0.27977449E+03</pdfrwt>
<pdfrwt beam="2">  1       -1 0.27075654E-01 0.27977449E+03</pdfrwt>
<totfact> 0.37951110E+03</totfact>
</mgrwt>
</event>
<event>
 9    1  0.7957670E-001  0.2751615E+03  0.7818608E-02  0.1098361E+00
          1   -1    0    0  501    0  0.00000000000E+00  0.00000000000E+00  0.89089136336E+02  0.89089136336E+02  0.00000000000E+00 0. -1.
         -1   -1    0    0    0  501 -0.00000000000E+00 -0.00000000000E+00 -0.21246650248E+03  0.21246650248E+03  0.00000000000E+00 0. -1.
         35    2    1    2    0    0  0.00000000000E+00  0.00000000000E+00 -0.12337736614E+03  0.30155563882E+03  0.27516145956E+03 0.  0.
         25    2    3    3    0    0 -0.31667717836E+02  0.30550291035E+02 -0.10228403869E+03  0.16769567415E+03  0.12539397881E+03 0.  0.
         25    2    3    3    0    0  0.31667717836E+02 -0.30550291035E+02 -0.21093327451E+02  0.13385996467E+03  0.12464909563E+03 0.  0.
          5    1    4    4  502    0 -0.25578895497E+01  0.76800036696E+02 -0.69986247069E+02  0.10404303540E+03  0.47000000000E+01 0. -1.
         -5    1    4    4    0  502 -0.29109828287E+02 -0.46249745661E+02 -0.32297791623E+02  0.63652638754E+02  0.47000000000E+01 0. -1.
          5    1    5    5  503    0 -0.31494179435E+02 -0.19545428095E+02 -0.50785264428E+02  0.63048712760E+02  0.47000000000E+01 0.  1.
         -5    1    5    5    0  503  0.63161897271E+02 -0.11004862941E+02  0.29691936977E+02  0.70811251907E+02  0.47000000000E+01 0.  1.
<mgrwt>
<rscale>  0 0.27516146E+03</rscale>
<asrwt>0</asrwt>
<pdfrwt beam="1">  1        1 0.13706021E-01 0.27516146E+03</pdfrwt>
<pdfrwt beam="2">  1       -1 0.32687154E-01 0.27516146E+03</pdfrwt>
<totfact> 0.36822448E+03</totfact>
</mgrwt>
</event>
<event>
 9    1  0.7957670E-001  0.2756687E+03  0.7818608E-02  0.1098078E+00
          3   -1    0    0  501    0  0.00000000000E+00  0.00000000000E+00  0.39729891684E+02  0.39729891684E+02  0.00000000000E+00 0.  1.
         -3   -1    0    0    0  501 -0.00000000000E+00 -0.00000000000E+00 -0.47818670216E+03  0.47818670216E+03  0.00000000000E+00 0.  1.
         35    2    1    2    0    0 -0.53290705182E-14  0.00000000000E+00 -0.43845681047E+03  0.51791659384E+03  0.27566868434E+03 0.  0.
         25    2    3    3    0    0  0.61697818965E+01 -0.40713128584E+02 -0.15819206165E+03  0.20853413196E+03  0.12948409468E+03 0.  0.
         25    2    3    3    0    0 -0.61697818965E+01  0.40713128584E+02 -0.28026474883E+03  0.30938246189E+03  0.12439273789E+03 0.  0.
          5    1    4    4  502    0  0.74737777492E+01  0.44746464662E+02 -0.82507058943E+02  0.94274112188E+02  0.47000000000E+01 0. -1.
         -5    1    4    4    0  502 -0.13039958527E+01 -0.85459593246E+02 -0.75685002705E+02  0.11426001977E+03  0.47000000000E+01 0. -1.
          5    1    5    5  503    0 -0.42288023529E+02  0.29641625306E+02 -0.38362937521E+02  0.64503549204E+02  0.47000000000E+01 0. -1.
         -5    1    5    5    0  503  0.36118241632E+02  0.11071503278E+02 -0.24190181131E+03  0.24487891268E+03  0.47000000000E+01 0. -1.
<mgrwt>
<rscale>  0 0.27566868E+03</rscale>
<asrwt>0</asrwt>
<pdfrwt beam="1">  1        3 0.61122909E-02 0.27566868E+03</pdfrwt>
<pdfrwt beam="2">  1       -3 0.73567187E-01 0.27566868E+03</pdfrwt>
<totfact> 0.75085152E+02</totfact>
</mgrwt>
</event>
<event>
 9    1  0.7957670E-001  0.2735135E+03  0.7818608E-02  0.1099285E+00
          1   -1    0    0  501    0  0.00000000000E+00  0.00000000000E+00  0.99331344871E+02  0.99331344871E+02  0.00000000000E+00 0. -1.
         -1   -1    0    0    0  501 -0.00000000000E+00 -0.00000000000E+00 -0.18828301025E+03  0.18828301025E+03  0.00000000000E+00 0. -1.
         35    2    1    2    0    0  0.35527136788E-14 -0.35527136788E-14 -0.88951665382E+02  0.28761435512E+03  0.27351347042E+03 0.  0.
         25    2    3    3    0    0 -0.27980253936E+02 -0.10018811718E+02  0.11134614039E+02  0.12470299066E+03  0.12059678707E+03 0.  0.
         25    2    3    3    0    0  0.27980253936E+02  0.10018811718E+02 -0.10008627942E+03  0.16291136447E+03  0.12505829899E+03 0.  0.
          5    1    4    4  502    0 -0.69900367575E+02  0.17664461088E+02 -0.29743247280E+01  0.72312040354E+02  0.47000000000E+01 0. -1.
         -5    1    4    4    0  502  0.41920113639E+02 -0.27683272806E+02  0.14108938767E+02  0.52390950305E+02  0.47000000000E+01 0. -1.
          5    1    5    5  503    0 -0.22566159251E+02  0.39403230249E+02 -0.93293955402E+02  0.10386384459E+03  0.47000000000E+01 0. -1.
         -5    1    5    5    0  503  0.50546413187E+02 -0.29384418530E+02 -0.67923240184E+01  0.59047519880E+02  0.47000000000E+01 0. -1.
<mgrwt>
<rscale>  0 0.27351347E+03</rscale>
<asrwt>0</asrwt>
<pdfrwt beam="1">  1        1 0.15281745E-01 0.27351347E+03</pdfrwt>
<pdfrwt beam="2">  1       -1 0.28966617E-01 0.27351347E+03</pdfrwt>
<totfact> 0.39216144E+03</totfact>
</mgrwt>
</event>
<event>
 9    1  0.7957670E-001  0.2747706E+03  0.7818608E-02  0.1098580E+00
          2   -1    0    0  501    0  0.00000000000E+00  0.00000000000E+00  0.76959576580E+02  0.76959576580E+02  0.00000000000E+00 0.  1.
         -2   -1    0    0    0  501 -0.00000000000E+00 -0.00000000000E+00 -0.24525496521E+03  0.24525496521E+03  0.00000000000E+00 0.  1.
         35    2    1    2    0    0 -0.35527136788E-14 -0.71054273576E-14 -0.16829538863E+03  0.32221454179E+03  0.27477058268E+03 0.  0.
         25    2    3    3    0    0  0.31598179593E+02 -0.39623922547E+02 -0.53593466257E+02  0.14639128978E+03  0.12645018745E+03 0.  0.
         25    2    3    3    0    0 -0.31598179593E+02  0.39623922547E+02 -0.11470192238E+03  0.17582325202E+03  0.12324278787E+03 0.  0.
          5    1    4    4  502    0  0.38555294444E+02 -0.75351436299E+02 -0.42284393134E+01  0.84878262123E+02  0.47000000000E+01 0.  1.
         -5    1    4    4    0  502 -0.69571148515E+01  0.35727513751E+02 -0.49365026943E+02  0.61513027653E+02  0.47000000000E+01 0.  1.
          5    1    5    5  503    0 -0.64770759117E+01  0.74994617196E+02 -0.10791913699E+03  0.13166159367E+03  0.47000000000E+01 0.  1.
         -5    1    5    5    0  503 -0.25121103681E+02 -0.35370694648E+02 -0.67827853898E+01  0.44161658344E+02  0.47000000000E+01 0.  1.
<mgrwt>
<rscale>  0 0.27477058E+03</rscale>
<asrwt>0</asrwt>
<pdfrwt beam="1">  1        2 0.11839935E-01 0.27477058E+03</pdfrwt>
<pdfrwt beam="2">  1       -2 0.37731533E-01 0.27477058E+03</pdfrwt>
<totfact> 0.34448623E+03</totfact>
</mgrwt>
</event>
<event>
 9    1  0.7957670E-001  0.2768440E+03  0.7818608E-02  0.1097425E+00
          1   -1    0    0  501    0  0.00000000000E+00  0.00000000000E+00  0.43292154891E+04  0.43292154891E+04  0.00000000000E+00 0.  1.
         -1   -1    0    0    0  501 -0.00000000000E+00 -0.00000000000E+00 -0.44258958151E+01  0.44258958151E+01  0.00000000000E+00 0.  1.
         35    2    1    2    0    0  0.35527136788E-14  0.71054273576E-14  0.43247895933E+04  0.43336413849E+04  0.27684404791E+03 0.  0.
         25    2    3    3    0    0  0.96332848574E+01  0.11715012536E+02  0.12458491452E+04  0.12521271858E+04  0.12430750199E+03 0.  0.
         25    2    3    3    0    0 -0.96332848574E+01 -0.11715012536E+02  0.30789404480E+04  0.30815141991E+04  0.12500173995E+03 0.  0.
          5    1    4    4  502    0 -0.48669111914E+02 -0.82668872405E+01  0.85347074787E+03  0.85491018905E+03  0.47000000000E+01 0.  1.
         -5    1    4    4    0  502  0.58302396772E+02  0.19981899777E+02  0.39237839736E+03  0.39721699674E+03  0.47000000000E+01 0.  1.
          5    1    5    5  503    0 -0.16507090983E+02  0.55475397256E+02  0.14953544982E+04  0.14964815966E+04  0.47000000000E+01 0. -1.
         -5    1    5    5    0  503  0.68738061253E+01 -0.67190409792E+02  0.15835859498E+04  0.15850326024E+04  0.47000000000E+01 0. -1.
<mgrwt>
<rscale>  0 0.27684405E+03</rscale>
<asrwt>0</asrwt>
<pdfrwt beam="1">  1        1 0.66602977E+00 0.27684405E+03</pdfrwt>
<pdfrwt beam="2">  1       -1 0.68091051E-03 0.27684405E+03</pdfrwt>
<totfact> 0.21043950E+02</totfact>
</mgrwt>
</event>
<event>
 9    1  0.7957670E-001  0.2530736E+03  0.7818608E-02  0.1111378E+00
          2   -1    0    0  501    0  0.00000000000E+00  0.00000000000E+00  0.16795839660E+04  0.16795839660E+04  0.00000000000E+00 0.  1.
         -2   -1    0    0    0  501 -0.00000000000E+00 -0.00000000000E+00 -0.95330513909E+01  0.95330513909E+01  0.00000000000E+00 0.  1.
         35    2    1    2    0    0 -0.17763568394E-14  0.17763568394E-14  0.16700509146E+04  0.16891170174E+04  0.25307358822E+03 0.  0.
         25    2    3    3    0    0  0.12508564144E+02  0.14145223030E+02  0.82278161527E+03  0.83248782648E+03  0.12533891377E+03 0.  0.
         25    2    3    3    0    0 -0.12508564144E+02 -0.14145223030E+02  0.84726929934E+03  0.85662919091E+03  0.12486694359E+03 0.  0.
          5    1    4    4  502    0  0.27709680100E+02  0.29432762416E+02  0.79904051406E+03  0.80007621323E+03  0.47000000000E+01 0.  1.
         -5    1    4    4    0  502 -0.15201115957E+02 -0.15287539386E+02  0.23741101215E+02  0.32411613254E+02  0.47000000000E+01 0.  1.
          5    1    5    5  503    0 -0.42680176973E+02 -0.43650320693E+02  0.23355234996E+03  0.24144510385E+03  0.47000000000E+01 0.  1.
         -5    1    5    5    0  503  0.30171612830E+02  0.29505097663E+02  0.61371694938E+03  0.61518408705E+03  0.47000000000E+01 0.  1.
<mgrwt>
<rscale>  0 0.25307359E+03</rscale>
<asrwt>0</asrwt>
<pdfrwt beam="1">  1        2 0.25839730E+00 0.25307359E+03</pdfrwt>
<pdfrwt beam="2">  1       -2 0.14666246E-02 0.25307359E+03</pdfrwt>
<totfact> 0.13321940E+04</totfact>
</mgrwt>
</event>
<event>
 9    1  0.7957670E-001  0.2786350E+03  0.7818608E-02  0.1096437E+00
          2   -1    0    0  501    0  0.00000000000E+00  0.00000000000E+00  0.33145371182E+03  0.33145371182E+03  0.00000000000E+00 0. -1.
         -2   -1    0    0    0  501 -0.00000000000E+00 -0.00000000000E+00 -0.58558297313E+02  0.58558297313E+02  0.00000000000E+00 0. -1.
         35    2    1    2    0    0  0.00000000000E+00  0.00000000000E+00  0.27289541451E+03  0.39001200914E+03  0.27863499423E+03 0.  0.
         25    2    3    3    0    0  0.34303500631E+02 -0.63872039472E+01  0.63457700727E+02  0.14362594584E+03  0.12403227809E+03 0.  0.
         25    2    3    3    0    0 -0.34303500631E+02  0.63872039472E+01  0.20943771378E+03  0.24638606329E+03  0.12499763878E+03 0.  0.
          5    1    4    4  502    0  0.19055546652E+01  0.50834921286E+02 -0.14536939892E+01  0.51107960114E+02  0.47000000000E+01 0. -1.
         -5    1    4    4    0  502  0.32397945966E+02 -0.57222125234E+02  0.64911394716E+02  0.92517985727E+02  0.47000000000E+01 0. -1.
          5    1    5    5  503    0 -0.34406032476E+02 -0.54781577399E+02  0.78800962763E+02  0.10206114846E+03  0.47000000000E+01 0.  1.
         -5    1    5    5    0  503  0.10253184462E+00  0.61168781346E+02  0.13063675102E+03  0.14432491483E+03  0.47000000000E+01 0.  1.
<mgrwt>
<rscale>  0 0.27863499E+03</rscale>
<asrwt>0</asrwt>
<pdfrwt beam="1">  1        2 0.50992878E-01 0.27863499E+03</pdfrwt>
<pdfrwt beam="2">  1       -2 0.90089690E-02 0.27863499E+03</pdfrwt>
<totfact> 0.76369491E+03</totfact>
</mgrwt>
</event>
<event>
 9    1  0.7957670E-001  0.2738192E+03  0.7818608E-02  0.1099113E+00
          2   -1    0    0  501    0  0.00000000000E+00  0.00000000000E+00  0.22245211024E+04  0.22245211024E+04  0.00000000000E+00 0.  1.
         -2   -1    0    0    0  501 -0.00000000000E+00 -0.00000000000E+00 -0.84261887206E+01  0.84261887206E+01  0.00000000000E+00 0.  1.
         35    2    1    2    0    0 -0.71054273576E-14 -0.71054273576E-14  0.22160949137E+04  0.22329472912E+04  0.27381917115E+03 0.  0.
         25    2    3    3    0    0  0.21126870963E+02  0.36670298610E+02  0.13808270971E+04  0.13870974113E+04  0.12475856991E+03 0.  0.
         25    2    3    3    0    0 -0.21126870963E+02 -0.36670298610E+02  0.83526781659E+03  0.84584987987E+03  0.12648572397E+03 0.  0.
          5    1    4    4  502    0  0.67411339251E+02 -0.36537724502E+01  0.58744581991E+03  0.59133097335E+03  0.47000000000E+01 0. -1.
         -5    1    4    4    0  502 -0.46284468287E+02  0.40324071060E+02  0.79338127723E+03  0.79576643795E+03  0.47000000000E+01 0. -1.
          5    1    5    5  503    0  0.15346709952E+02 -0.73750984953E+01  0.12262987026E+02  0.21503126167E+02  0.47000000000E+01 0.  1.
         -5    1    5    5    0  503 -0.36473580915E+02 -0.29295200115E+02  0.82300482956E+03  0.82434675370E+03  0.47000000000E+01 0.  1.
<mgrwt>
<rscale>  0 0.27381917E+03</rscale>
<asrwt>0</asrwt>
<pdfrwt beam="1">  1        2 0.34223355E+00 0.27381917E+03</pdfrwt>
<pdfrwt beam="2">  1       -2 0.12963385E-02 0.27381917E+03</pdfrwt>
<totfact> 0.82521319E+03</totfact>
</mgrwt>
</event>
<event>
 9    1  0.7957670E-001  0.2862477E+03  0.7818608E-02  0.1092325E+00
         -2   -1    0    0    0  501 -0.00000000000E+00  0.00000000000E+00  0.10186865120E+03  0.10186865120E+03  0.00000000000E+00 0. -1.
          2   -1    0    0  501    0  0.00000000000E+00 -0.00000000000E+00 -0.20108677349E+03  0.20108677349E+03  0.00000000000E+00 0. -1.
         35    2    1    2    0    0  0.17763568394E-14  0.00000000000E+00 -0.99218122288E+02  0.30295542469E+03  0.28624771363E+03 0.  0.
         25    2    3    3    0    0 -0.14758159556E+02  0.11554574957E+01  0.31912525527E+02  0.12085445481E+03  0.11562115553E+03 0.  0.
         25    2    3    3    0    0  0.14758159556E+02 -0.11554574957E+01 -0.13113064781E+03  0.18210096988E+03  0.12548457308E+03 0.  0.
          5    1    4    4  502    0 -0.61274417278E+02 -0.15273756164E+02  0.28127101794E+01  0.63386458954E+02  0.47000000000E+01 0.  1.
         -5    1    4    4    0  502  0.46516257722E+02  0.16429213660E+02  0.29099815347E+02  0.57467995851E+02  0.47000000000E+01 0.  1.
          5    1    5    5  503    0 -0.15332976209E+01 -0.24666441001E+02 -0.14694326411E+03  0.14908117648E+03  0.47000000000E+01 0. -1.
         -5    1    5    5    0  503  0.16291457177E+02  0.23510983506E+02  0.15812616295E+02  0.33019793404E+02  0.47000000000E+01 0. -1.
<mgrwt>
<rscale>  0 0.28624771E+03</rscale>
<asrwt>0</asrwt>
<pdfrwt beam="1">  1        2 0.30936426E-01 0.28624771E+03</pdfrwt>
<pdfrwt beam="2">  1       -2 0.15672100E-01 0.28624771E+03</pdfrwt>
<totfact> 0.53650027E+03</totfact>
</mgrwt>
</event>
<event>
 9    1  0.7957670E-001  0.2757416E+03  0.7818608E-02  0.1098038E+00
         -4   -1    0    0    0  501 -0.00000000000E+00  0.00000000000E+00  0.10325596159E+04  0.10325596159E+04  0.00000000000E+00 0.  1.
          4   -1    0    0  501    0  0.00000000000E+00 -0.00000000000E+00 -0.18408966333E+02  0.18408966333E+02  0.00000000000E+00 0.  1.
         35    2    1    2    0    0  0.00000000000E+00  0.00000000000E+00  0.10141506495E+04  0.10509685822E+04  0.27574158341E+03 0.  0.
         25    2    3    3    0    0 -0.10643089590E+02 -0.58538020614E+02  0.38691498576E+03  0.41115746010E+03  0.12572698825E+03 0.  0.
         25    2    3    3    0    0  0.10643089590E+02  0.58538020614E+02  0.62723566378E+03  0.63981112211E+03  0.11132708046E+03 0.  0.
          5    1    4    4  502    0  0.18765924187E+02  0.76859061650E+01  0.37234921988E+01  0.21146807284E+02  0.47000000000E+01 0. -1.
         -5    1    4    4    0  502 -0.29409013777E+02 -0.66223926779E+02  0.38319149356E+03  0.39001065281E+03  0.47000000000E+01 0. -1.
          5    1    5    5  503    0  0.28193161166E+02  0.28451051300E+02  0.57751925069E+03  0.57892563562E+03  0.47000000000E+01 0. -1.
         -5    1    5    5    0  503 -0.17550071576E+02  0.30086969315E+02  0.49716413088E+02  0.60885486491E+02  0.47000000000E+01 0. -1.
<mgrwt>
<rscale>  0 0.27574158E+03</rscale>
<asrwt>0</asrwt>
<pdfrwt beam="1">  1        4 0.28321495E-02 0.27574158E+03</pdfrwt>
<pdfrwt beam="2">  1       -4 0.15885528E+00 0.27574158E+03</pdfrwt>
<totfact> 0.30099836E+02</totfact>
</mgrwt>
</event>
<event>
 9    1  0.7957670E-001  0.2789029E+03  0.7818608E-02  0.1096290E+00
         -1   -1    0    0    0  501 -0.00000000000E+00  0.00000000000E+00  0.41886230914E+02  0.41886230914E+02  0.00000000000E+00 0.  1.
          1   -1    0    0  501    0  0.00000000000E+00 -0.00000000000E+00 -0.46427429216E+03  0.46427429216E+03  0.00000000000E+00 0.  1.
         35    2    1    2    0    0  0.71054273576E-14  0.17763568394E-14 -0.42238806125E+03  0.50616052307E+03  0.27890285197E+03 0.  0.
         25    2    3    3    0    0  0.52974476137E+02  0.55897832875E+01 -0.26579482007E+03  0.29884125396E+03  0.12578421161E+03 0.  0.
         25    2    3    3    0    0 -0.52974476137E+02 -0.55897832875E+01 -0.15659324117E+03  0.20731926912E+03  0.12498918100E+03 0.  0.
          5    1    4    4  502    0  0.75239598677E+01 -0.12916372211E+02 -0.24473002883E+03  0.24523115556E+03  0.47000000000E+01 0. -1.
         -5    1    4    4    0  502  0.45450516270E+02  0.18506155499E+02 -0.21064791239E+02  0.53610098400E+02  0.47000000000E+01 0. -1.
          5    1    5    5  503    0  0.71786625576E+01 -0.17689468861E+02 -0.14293916209E+03  0.14428494227E+03  0.47000000000E+01 0.  1.
         -5    1    5    5    0  503 -0.60153138695E+02  0.12099685573E+02 -0.13654079079E+02  0.63034326849E+02  0.47000000000E+01 0.  1.
<mgrwt>
<rscale>  0 0.27890285E+03</rscale>
<asrwt>0</asrwt>
<pdfrwt beam="1">  1        1 0.71426822E-01 0.27890285E+03</pdfrwt>
<pdfrwt beam="2">  1       -1 0.64440349E-02 0.27890285E+03</pdfrwt>
<totfact> 0.59488357E+03</totfact>
</mgrwt>
</event>
<event>
 9    1  0.7957670E-001  0.2757556E+03  0.7818608E-02  0.1098030E+00
         -2   -1    0    0    0  501 -0.00000000000E+00  0.00000000000E+00  0.10665219791E+02  0.10665219791E+02  0.00000000000E+00 0.  1.
          2   -1    0    0  501    0  0.00000000000E+00 -0.00000000000E+00 -0.17824565732E+04  0.17824565732E+04  0.00000000000E+00 0.  1.
         35    2    1    2    0    0 -0.71054273576E-14  0.71054273576E-14 -0.17717913534E+04  0.17931217930E+04  0.27575562458E+03 0.  0.
         25    2    3    3    0    0 -0.38448256999E+02 -0.36655698625E+02 -0.10623347989E+04  0.10709239570E+04  0.12450296383E+03 0.  0.
         25    2    3    3    0    0  0.38448256999E+02  0.36655698625E+02 -0.70945655458E+03  0.72219783606E+03  0.12417408295E+03 0.  0.
          5    1    4    4  502    0 -0.32299725720E+02 -0.32443021187E+02 -0.11960977704E+03  0.12815775696E+03  0.47000000000E+01 0.  1.
         -5    1    4    4    0  502 -0.61485312789E+01 -0.42126774374E+01 -0.94272502183E+03  0.94276620001E+03  0.47000000000E+01 0.  1.
          5    1    5    5  503    0 -0.37054605717E+02  0.20913833208E+01 -0.94385712533E+02  0.10152916044E+03  0.47000000000E+01 0.  1.
         -5    1    5    5    0  503  0.75502862716E+02  0.34564315304E+02 -0.61507084204E+03  0.62066867563E+03  0.47000000000E+01 0.  1.
<mgrwt>
<rscale>  0 0.27575562E+03</rscale>
<asrwt>0</asrwt>
<pdfrwt beam="1">  1        2 0.27422389E+00 0.27575562E+03</pdfrwt>
<pdfrwt beam="2">  1       -2 0.16408042E-02 0.27575562E+03</pdfrwt>
<totfact> 0.10000039E+04</totfact>
</mgrwt>
</event>
<event>
 9    1  0.7957670E-001  0.2768846E+03  0.7818608E-02  0.1097403E+00
          4   -1    0    0  501    0  0.00000000000E+00  0.00000000000E+00  0.52519667669E+03  0.52519667669E+03  0.00000000000E+00 0. -1.
         -4   -1    0    0    0  501 -0.00000000000E+00 -0.00000000000E+00 -0.36493506842E+02  0.36493506842E+02  0.00000000000E+00 0. -1.
         35    2    1    2    0    0  0.35527136788E-14  0.00000000000E+00  0.48870316985E+03  0.56169018353E+03  0.27688458616E+03 0.  0.
         25    2    3    3    0    0  0.17283016770E+02 -0.32746802657E+02  0.34184239435E+03  0.36564868421E+03  0.12438521590E+03 0.  0.
         25    2    3    3    0    0 -0.17283016770E+02  0.32746802657E+02  0.14686077550E+03  0.19604149932E+03  0.12447138757E+03 0.  0.
          5    1    4    4  502    0  0.11211559443E+02 -0.75327572082E+02  0.14226786946E+03  0.16143784829E+03  0.47000000000E+01 0.  1.
         -5    1    4    4    0  502  0.60714573267E+01  0.42580769426E+02  0.19957452489E+03  0.20421083592E+03  0.47000000000E+01 0.  1.
          5    1    5    5  503    0 -0.14292405133E+02  0.52812656446E+02  0.78413230500E+01  0.55470946202E+02  0.47000000000E+01 0. -1.
         -5    1    5    5    0  503 -0.29906116365E+01 -0.20065853789E+02  0.13901945245E+03  0.14057055312E+03  0.47000000000E+01 0. -1.
<mgrwt>
<rscale>  0 0.27688459E+03</rscale>
<asrwt>0</asrwt>
<pdfrwt beam="1">  1        4 0.80799483E-01 0.27688459E+03</pdfrwt>
<pdfrwt beam="2">  1       -4 0.56143860E-02 0.27688459E+03</pdfrwt>
<totfact> 0.51532965E+02</totfact>
</mgrwt>
</event>
<event>
 9    1  0.7957670E-001  0.2772239E+03  0.7818608E-02  0.1097215E+00
          2   -1    0    0  501    0  0.00000000000E+00  0.00000000000E+00  0.45990688592E+03  0.45990688592E+03  0.00000000000E+00 0. -1.
         -2   -1    0    0    0  501 -0.00000000000E+00 -0.00000000000E+00 -0.41776432361E+02  0.41776432361E+02  0.00000000000E+00 0. -1.
         35    2    1    2    0    0  0.00000000000E+00 -0.71054273576E-14  0.41813045356E+03  0.50168331828E+03  0.27722387279E+03 0.  0.
         25    2    3    3    0    0  0.54537199497E+02  0.17634096276E+02  0.24279151878E+03  0.27876642628E+03  0.12440953079E+03 0.  0.
         25    2    3    3    0    0 -0.54537199497E+02 -0.17634096276E+02  0.17533893478E+03  0.22291689200E+03  0.12515163286E+03 0.  0.
          5    1    4    4  502    0  0.20080382365E+02 -0.50464619877E+02  0.14306206914E+03  0.15309717581E+03  0.47000000000E+01 0.  1.
         -5    1    4    4    0  502  0.34456817133E+02  0.68098716153E+02  0.99729449638E+02  0.12566925047E+03  0.47000000000E+01 0.  1.
          5    1    5    5  503    0 -0.32869687988E+02 -0.23305787514E+02  0.19095162406E+03  0.19521318821E+03  0.47000000000E+01 0. -1.
         -5    1    5    5    0  503 -0.21667511509E+02  0.56716912386E+01 -0.15612689285E+02  0.27703703782E+02  0.47000000000E+01 0. -1.
<mgrwt>
<rscale>  0 0.27722387E+03</rscale>
<asrwt>0</asrwt>
<pdfrwt beam="1">  1        2 0.70754902E-01 0.27722387E+03</pdfrwt>
<pdfrwt beam="2">  1       -2 0.64271438E-02 0.27722387E+03</pdfrwt>
<totfact> 0.90489362E+03</totfact>
</mgrwt>
</event>
<event>
 9    1  0.7957670E-001  0.2772886E+03  0.7818608E-02  0.1097179E+00
         -1   -1    0    0    0  501 -0.00000000000E+00  0.00000000000E+00  0.10227222487E+04  0.10227222487E+04  0.00000000000E+00 0. -1.
          1   -1    0    0  501    0  0.00000000000E+00 -0.00000000000E+00 -0.18795173490E+02  0.18795173490E+02  0.00000000000E+00 0. -1.
         35    2    1    2    0    0  0.00000000000E+00  0.00000000000E+00  0.10039270752E+04  0.10415174221E+04  0.27728860125E+03 0.  0.
         25    2    3    3    0    0  0.26606957203E+02  0.17790577494E+02  0.31398801140E+03  0.33969281089E+03  0.12561170188E+03 0.  0.
         25    2    3    3    0    0 -0.26606957203E+02 -0.17790577494E+02  0.68993906376E+03  0.70182461125E+03  0.12456901073E+03 0.  0.
          5    1    4    4  502    0  0.48876611811E+02 -0.22062135409E+02  0.27269194948E+03  0.27795440329E+03  0.47000000000E+01 0. -1.
         -5    1    4    4    0  502 -0.22269654607E+02  0.39852712904E+02  0.41296061920E+02  0.61738407594E+02  0.47000000000E+01 0. -1.
          5    1    5    5  503    0 -0.70790840058E+02 -0.32185805057E+02  0.51031262809E+03  0.51622508412E+03  0.47000000000E+01 0. -1.
         -5    1    5    5    0  503  0.44183882854E+02  0.14395227563E+02  0.17962643567E+03  0.18559952713E+03  0.47000000000E+01 0. -1.
<mgrwt>
<rscale>  0 0.27728860E+03</rscale>
<asrwt>0</asrwt>
<pdfrwt beam="1">  1        1 0.28915660E-02 0.27728860E+03</pdfrwt>
<pdfrwt beam="2">  1       -1 0.15734184E+00 0.27728860E+03</pdfrwt>
<totfact> 0.11951668E+03</totfact>
</mgrwt>
</event>
<event>
 9    1  0.7957670E-001  0.2753357E+03  0.7818608E-02  0.1098264E+00
          2   -1    0    0  501    0  0.00000000000E+00  0.00000000000E+00  0.74744463126E+02  0.74744463126E+02  0.00000000000E+00 0.  1.
         -2   -1    0    0    0  501 -0.00000000000E+00 -0.00000000000E+00 -0.25356307651E+03  0.25356307651E+03  0.00000000000E+00 0.  1.
         35    2    1    2    0    0  0.35527136788E-14  0.00000000000E+00 -0.17881861339E+03  0.32830753964E+03  0.27533569345E+03 0.  0.
         25    2    3    3    0    0  0.29504058130E+02  0.16251653622E+02 -0.31303126190E+02  0.13321989934E+03  0.12503219657E+03 0.  0.
         25    2    3    3    0    0 -0.29504058130E+02 -0.16251653622E+02 -0.14751548720E+03  0.19508764030E+03  0.12314123089E+03 0.  0.
          5    1    4    4  502    0 -0.33595915366E+02  0.19102042995E+02  0.26802758514E+02  0.47265753351E+02  0.47000000000E+01 0.  1.
         -5    1    4    4    0  502  0.63099973497E+02 -0.28503893728E+01 -0.58105884704E+02  0.85954145985E+02  0.47000000000E+01 0.  1.
          5    1    5    5  503    0 -0.60514997495E+02 -0.45744846493E+02 -0.12552716512E+03  0.14674404617E+03  0.47000000000E+01 0.  1.
         -5    1    5    5    0  503  0.31010939365E+02  0.29493192871E+02 -0.21988322075E+02  0.48343594133E+02  0.47000000000E+01 0.  1.
<mgrwt>
<rscale>  0 0.27533569E+03</rscale>
<asrwt>0</asrwt>
<pdfrwt beam="1">  1        2 0.11499148E-01 0.27533569E+03</pdfrwt>
<pdfrwt beam="2">  1       -2 0.39009704E-01 0.27533569E+03</pdfrwt>
<totfact> 0.33517340E+03</totfact>
</mgrwt>
</event>
<event>
 9    1  0.7957670E-001  0.2749374E+03  0.7818608E-02  0.1098487E+00
         -1   -1    0    0    0  501 -0.00000000000E+00  0.00000000000E+00  0.55594325576E+02  0.55594325576E+02  0.00000000000E+00 0. -1.
          1   -1    0    0  501    0  0.00000000000E+00 -0.00000000000E+00 -0.33992048136E+03  0.33992048136E+03  0.00000000000E+00 0. -1.
         35    2    1    2    0    0 -0.14210854715E-13 -0.17763568394E-14 -0.28432615579E+03  0.39551480694E+03  0.27493744678E+03 0.  0.
         25    2    3    3    0    0 -0.56197572270E+02 -0.10835621400E+02 -0.13177305996E+03  0.19062185856E+03  0.12528757244E+03 0.  0.
         25    2    3    3    0    0  0.56197572270E+02  0.10835621400E+02 -0.15255309583E+03  0.20489294838E+03  0.12423001018E+03 0.  0.
          5    1    4    4  502    0 -0.22162425944E+02  0.38823756303E+02  0.78490579144E+00  0.44957349280E+02  0.47000000000E+01 0.  1.
         -5    1    4    4    0  502 -0.34035146326E+02 -0.49659377702E+02 -0.13255796575E+03  0.14566450928E+03  0.47000000000E+01 0.  1.
          5    1    5    5  503    0  0.81873749012E+02  0.12951164335E+02 -0.45483669440E+02  0.94667299638E+02  0.47000000000E+01 0.  1.
         -5    1    5    5    0  503 -0.25676176742E+02 -0.21155429358E+01 -0.10706942639E+03  0.11022564875E+03  0.47000000000E+01 0.  1.
<mgrwt>
<rscale>  0 0.27493745E+03</rscale>
<asrwt>0</asrwt>
<pdfrwt beam="1">  1        1 0.52295458E-01 0.27493745E+03</pdfrwt>
<pdfrwt beam="2">  1       -1 0.85529732E-02 0.27493745E+03</pdfrwt>
<totfact> 0.57665976E+03</totfact>
</mgrwt>
</event>
<event>
 9    1  0.7957670E-001  0.2779488E+03  0.7818608E-02  0.1096815E+00
          1   -1    0    0  501    0  0.00000000000E+00  0.00000000000E+00  0.29478220222E+03  0.29478220222E+03  0.00000000000E+00 0.  1.
         -1   -1    0    0    0  501 -0.00000000000E+00 -0.00000000000E+00 -0.65519165230E+02  0.65519165230E+02  0.00000000000E+00 0.  1.
         35    2    1    2    0    0  0.71054273576E-14  0.00000000000E+00  0.22926303700E+03  0.36030136745E+03  0.27794879970E+03 0.  0.
         25    2    3    3    0    0 -0.35655939500E+02  0.39693857264E+02  0.78715443585E+02  0.15664414138E+03  0.12447617300E+03 0.  0.
         25    2    3    3    0    0  0.35655939500E+02 -0.39693857264E+02  0.15054759341E+03  0.20365722608E+03  0.12635165027E+03 0.  0.
          5    1    4    4  502    0 -0.79367526396E+02  0.38998985773E+02  0.67272102683E+02  0.11121039042E+03  0.47000000000E+01 0. -1.
         -5    1    4    4    0  502  0.43711586896E+02  0.69487149041E+00  0.11443340902E+02  0.45433750961E+02  0.47000000000E+01 0. -1.
          5    1    5    5  503    0  0.74180299685E+01  0.42533226533E+02  0.82199458696E+02  0.92967432673E+02  0.47000000000E+01 0.  1.
         -5    1    5    5    0  503  0.28237909531E+02 -0.82227083797E+02  0.68348134715E+02  0.11068979340E+03  0.47000000000E+01 0.  1.
<mgrwt>
<rscale>  0 0.27794880E+03</rscale>
<asrwt>0</asrwt>
<pdfrwt beam="1">  1        1 0.45351107E-01 0.27794880E+03</pdfrwt>
<pdfrwt beam="2">  1       -1 0.10079872E-01 0.27794880E+03</pdfrwt>
<totfact> 0.53613504E+03</totfact>
</mgrwt>
</event>
<event>
 9    1  0.7957670E-001  0.2763372E+03  0.7818608E-02  0.1097706E+00
          2   -1    0    0  501    0  0.00000000000E+00  0.00000000000E+00  0.13181486181E+04  0.13181486181E+04  0.00000000000E+00 0.  1.
         -2   -1    0    0    0  501 -0.00000000000E+00 -0.00000000000E+00 -0.14482856360E+02  0.14482856360E+02  0.00000000000E+00 0.  1.
         35    2    1    2    0    0 -0.71054273576E-14 -0.71054273576E-14  0.13036657617E+04  0.13326314745E+04  0.27633716433E+03 0.  0.
         25    2    3    3    0    0 -0.27684073320E+02 -0.36974563496E+02  0.47252551401E+03  0.49101628219E+03  0.12523219124E+03 0.  0.
         25    2    3    3    0    0  0.27684073320E+02  0.36974563496E+02  0.83114024774E+03  0.84161519228E+03  0.12405036962E+03 0.  0.
          5    1    4    4  502    0 -0.32563401847E+02 -0.79867131190E+02  0.36437766222E+03  0.37447603997E+03  0.47000000000E+01 0.  1.
         -5    1    4    4    0  502  0.48793285271E+01  0.42892567694E+02  0.10814785179E+03  0.11654024223E+03  0.47000000000E+01 0.  1.
          5    1    5    5  503    0 -0.78651503519E+01  0.61432785637E+02  0.71391713514E+03  0.71661399204E+03  0.47000000000E+01 0.  1.
         -5    1    5    5    0  503  0.35549223672E+02 -0.24458222141E+02  0.11722311259E+03  0.12500120023E+03  0.47000000000E+01 0.  1.
<mgrwt>
<rscale>  0 0.27633716E+03</rscale>
<asrwt>0</asrwt>
<pdfrwt beam="1">  1        2 0.20279200E+00 0.27633716E+03</pdfrwt>
<pdfrwt beam="2">  1       -2 0.22281328E-02 0.27633716E+03</pdfrwt>
<totfact> 0.11292872E+04</totfact>
</mgrwt>
</event>
<event>
 9    1  0.7957670E-001  0.2763338E+03  0.7818608E-02  0.1097708E+00
          2   -1    0    0  501    0  0.00000000000E+00  0.00000000000E+00  0.14367032796E+03  0.14367032796E+03  0.00000000000E+00 0. -1.
         -2   -1    0    0    0  501 -0.00000000000E+00 -0.00000000000E+00 -0.13287430318E+03  0.13287430318E+03  0.00000000000E+00 0. -1.
         35    2    1    2    0    0  0.00000000000E+00  0.17763568394E-14  0.10796024789E+02  0.27654463114E+03  0.27633381780E+03 0.  0.
         25    2    3    3    0    0  0.39499321524E+02  0.53719584151E+01  0.48984885133E+02  0.14029735095E+03  0.12527878262E+03 0.  0.
         25    2    3    3    0    0 -0.39499321524E+02 -0.53719584151E+01 -0.38188860343E+02  0.13624728019E+03  0.12456274710E+03 0.  0.
          5    1    4    4  502    0  0.68048806721E+02  0.44290406779E+02  0.41240472446E+02  0.91187426745E+02  0.47000000000E+01 0.  1.
         -5    1    4    4    0  502 -0.28549485197E+02 -0.38918448364E+02  0.77444126868E+01  0.49109924210E+02  0.47000000000E+01 0.  1.
          5    1    5    5  503    0 -0.57612417915E+02 -0.48227555263E+01  0.30162670959E+02  0.65378332712E+02  0.47000000000E+01 0. -1.
         -5    1    5    5    0  503  0.18113096391E+02 -0.54920288887E+00 -0.68351531302E+02  0.70868947473E+02  0.47000000000E+01 0. -1.
<mgrwt>
<rscale>  0 0.27633382E+03</rscale>
<asrwt>0</asrwt>
<pdfrwt beam="1">  1        2 0.22103127E-01 0.27633382E+03</pdfrwt>
<pdfrwt beam="2">  1       -2 0.20442201E-01 0.27633382E+03</pdfrwt>
<totfact> 0.49760496E+03</totfact>
</mgrwt>
</event>
<event>
 9    1  0.7957670E-001  0.2765470E+03  0.7818608E-02  0.1097590E+00
          1   -1    0    0  501    0  0.00000000000E+00  0.00000000000E+00  0.25966920422E+03  0.25966920422E+03  0.00000000000E+00 0.  1.
         -1   -1    0    0    0  501 -0.00000000000E+00 -0.00000000000E+00 -0.73630446559E+02  0.73630446559E+02  0.00000000000E+00 0.  1.
         35    2    1    2    0    0 -0.17763568394E-14  0.00000000000E+00  0.18603875766E+03  0.33329965078E+03  0.27654699032E+03 0.  0.
         25    2    3    3    0    0 -0.95216185181E+01  0.88493498492E+00  0.40564843046E+02  0.14127113827E+03  0.13498364229E+03 0.  0.
         25    2    3    3    0    0  0.95216185181E+01 -0.88493498492E+00  0.14547391462E+03  0.19202851251E+03  0.12498338072E+03 0.  0.
          5    1    4    4  502    0  0.17131728690E+02 -0.11525067686E+02 -0.45508283603E+02  0.50193796326E+02  0.47000000000E+01 0.  1.
         -5    1    4    4    0  502 -0.26653347209E+02  0.12410002671E+02  0.86073126649E+02  0.91077341940E+02  0.47000000000E+01 0.  1.
          5    1    5    5  503    0 -0.11622353902E+02 -0.55972718253E+02  0.10707676901E+03  0.12147241975E+03  0.47000000000E+01 0.  1.
         -5    1    5    5    0  503  0.21143972420E+02  0.55087783268E+02  0.38397145608E+02  0.70556092763E+02  0.47000000000E+01 0.  1.
<mgrwt>
<rscale>  0 0.27654699E+03</rscale>
<asrwt>0</asrwt>
<pdfrwt beam="1">  1        1 0.39949108E-01 0.27654699E+03</pdfrwt>
<pdfrwt beam="2">  1       -1 0.11327761E-01 0.27654699E+03</pdfrwt>
<totfact> 0.52445714E+03</totfact>
</mgrwt>
</event>
<event>
 9    1  0.7957670E-001  0.2729392E+03  0.7818608E-02  0.1099609E+00
         -1   -1    0    0    0  501 -0.00000000000E+00  0.00000000000E+00  0.15908272939E+02  0.15908272939E+02  0.00000000000E+00 0.  1.
          1   -1    0    0  501    0  0.00000000000E+00 -0.00000000000E+00 -0.11707082153E+04  0.11707082153E+04  0.00000000000E+00 0.  1.
         35    2    1    2    0    0 -0.71054273576E-14  0.00000000000E+00 -0.11547999424E+04  0.11866164882E+04  0.27293915674E+03 0.  0.
         25    2    3    3    0    0 -0.39841223202E+02 -0.98986322921E+01 -0.58393759090E+03  0.60077298349E+03  0.13512868547E+03 0.  0.
         25    2    3    3    0    0  0.39841223202E+02  0.98986322921E+01 -0.57086235145E+03  0.58584350474E+03  0.12507390517E+03 0.  0.
          5    1    4    4  502    0  0.75991841965E+01 -0.17301624770E+02 -0.52152373122E+03  0.52188713918E+03  0.47000000000E+01 0. -1.
         -5    1    4    4    0  502 -0.47440407398E+02  0.74029924784E+01 -0.62413859685E+02  0.78885844310E+02  0.47000000000E+01 0. -1.
          5    1    5    5  503    0  0.20357139570E+02 -0.48911049415E+02 -0.40938528213E+03  0.41282575394E+03  0.47000000000E+01 0. -1.
         -5    1    5    5    0  503  0.19484083632E+02  0.58809681707E+02 -0.16147706932E+03  0.17301775080E+03  0.47000000000E+01 0. -1.
<mgrwt>
<rscale>  0 0.27293916E+03</rscale>
<asrwt>0</asrwt>
<pdfrwt beam="1">  1        1 0.18010894E+00 0.27293916E+03</pdfrwt>
<pdfrwt beam="2">  1       -1 0.24474268E-02 0.27293916E+03</pdfrwt>
<totfact> 0.61162632E+03</totfact>
</mgrwt>
</event>
<event>
 9    1  0.7957670E-001  0.2769648E+03  0.7818608E-02  0.1097358E+00
          2   -1    0    0  501    0  0.00000000000E+00  0.00000000000E+00  0.10778529390E+03  0.10778529390E+03  0.00000000000E+00 0.  1.
         -2   -1    0    0    0  501 -0.00000000000E+00 -0.00000000000E+00 -0.17792203375E+03  0.17792203375E+03  0.00000000000E+00 0.  1.
         35    2    1    2    0    0 -0.71054273576E-14  0.00000000000E+00 -0.70136739852E+02  0.28570732764E+03  0.27696482591E+03 0.  0.
         25    2    3    3    0    0 -0.23981377321E+02 -0.38011227443E+02 -0.74508826137E+02  0.15198863713E+03  0.12461549171E+03 0.  0.
         25    2    3    3    0    0  0.23981377321E+02  0.38011227443E+02  0.43720862849E+01  0.13371869052E+03  0.12586347041E+03 0.  0.
          5    1    4    4  502    0  0.34552428831E+02 -0.26999655668E+02  0.13046742119E+02  0.45990860225E+02  0.47000000000E+01 0.  1.
         -5    1    4    4    0  502 -0.58533806152E+02 -0.11011571775E+02 -0.87555568255E+02  0.10599777690E+03  0.47000000000E+01 0.  1.
          5    1    5    5  503    0  0.46604367172E+02  0.18851708065E+02 -0.50349201104E+02  0.71305581747E+02  0.47000000000E+01 0.  1.
         -5    1    5    5    0  503 -0.22622989852E+02  0.19159519379E+02  0.54721287389E+02  0.62413108768E+02  0.47000000000E+01 0.  1.
<mgrwt>
<rscale>  0 0.27696483E+03</rscale>
<asrwt>0</asrwt>
<pdfrwt beam="1">  1        2 0.16582353E-01 0.27696483E+03</pdfrwt>
<pdfrwt beam="2">  1       -2 0.27372620E-01 0.27696483E+03</pdfrwt>
<totfact> 0.41554000E+03</totfact>
</mgrwt>
</event>
<event>
 9    1  0.7957670E-001  0.2757182E+03  0.7818608E-02  0.1098051E+00
         -2   -1    0    0    0  501 -0.00000000000E+00  0.00000000000E+00  0.24689229540E+02  0.24689229540E+02  0.00000000000E+00 0.  1.
          2   -1    0    0  501    0  0.00000000000E+00 -0.00000000000E+00 -0.76977411772E+03  0.76977411772E+03  0.00000000000E+00 0.  1.
         35    2    1    2    0    0  0.71054273576E-14  0.00000000000E+00 -0.74508488818E+03  0.79446334726E+03  0.27571818864E+03 0.  0.
         25    2    3    3    0    0  0.57224962727E+02 -0.73843261195E+01 -0.37741822390E+03  0.40188622759E+03  0.12545437243E+03 0.  0.
         25    2    3    3    0    0 -0.57224962727E+02  0.73843261195E+01 -0.36766666428E+03  0.39257711967E+03  0.12493516013E+03 0.  0.
          5    1    4    4  502    0  0.38373041061E+02  0.11383539556E+02 -0.37219758853E+03  0.37437308952E+03  0.47000000000E+01 0. -1.
         -5    1    4    4    0  502  0.18851921666E+02 -0.18767865676E+02 -0.52206353743E+01  0.27513138066E+02  0.47000000000E+01 0. -1.
          5    1    5    5  503    0 -0.36620834118E+01 -0.30787597485E+02 -0.16814915450E+02  0.35582557460E+02  0.47000000000E+01 0.  1.
         -5    1    5    5    0  503 -0.53562879315E+02  0.38171923604E+02 -0.35085174883E+03  0.35699456221E+03  0.47000000000E+01 0.  1.
<mgrwt>
<rscale>  0 0.27571819E+03</rscale>
<asrwt>0</asrwt>
<pdfrwt beam="1">  1        2 0.11842677E+00 0.27571819E+03</pdfrwt>
<pdfrwt beam="2">  1       -2 0.37983435E-02 0.27571819E+03</pdfrwt>
<totfact> 0.11034889E+04</totfact>
</mgrwt>
</event>
<event>
 9    1  0.7957670E-001  0.2678325E+03  0.7818608E-02  0.1102527E+00
         -1   -1    0    0    0  501 -0.00000000000E+00  0.00000000000E+00  0.97759578001E+01  0.97759578001E+01  0.00000000000E+00 0. -1.
          1   -1    0    0  501    0  0.00000000000E+00 -0.00000000000E+00 -0.18344562050E+04  0.18344562050E+04  0.00000000000E+00 0. -1.
         35    2    1    2    0    0  0.00000000000E+00  0.00000000000E+00 -0.18246802472E+04  0.18442321628E+04  0.26783253310E+03 0.  0.
         25    2    3    3    0    0  0.26812442035E+02 -0.28919738243E+01 -0.64220224745E+03  0.65486978724E+03  0.12531337142E+03 0.  0.
         25    2    3    3    0    0 -0.26812442035E+02  0.28919738243E+01 -0.11824779997E+04  0.11893623756E+04  0.12490544397E+03 0.  0.
          5    1    4    4  502    0  0.12968924410E+02  0.56493964385E+02 -0.19444328159E+03  0.20295329701E+03  0.47000000000E+01 0.  1.
         -5    1    4    4    0  502  0.13843517625E+02 -0.59385938209E+02 -0.44775896586E+03  0.45191649023E+03  0.47000000000E+01 0.  1.
          5    1    5    5  503    0 -0.48320052908E+02  0.40002322541E+02 -0.33936319491E+03  0.34514414580E+03  0.47000000000E+01 0.  1.
         -5    1    5    5    0  503  0.21507610872E+02 -0.37110348717E+02 -0.84311480484E+03  0.84421822975E+03  0.47000000000E+01 0.  1.
<mgrwt>
<rscale>  0 0.26783253E+03</rscale>
<asrwt>0</asrwt>
<pdfrwt beam="1">  1        1 0.28222428E+00 0.26783253E+03</pdfrwt>
<pdfrwt beam="2">  1       -1 0.15039922E-02 0.26783253E+03</pdfrwt>
<totfact> 0.44923990E+03</totfact>
</mgrwt>
</event>
<event>
 9    1  0.7957670E-001  0.2768571E+03  0.7818608E-02  0.1097418E+00
         -2   -1    0    0    0  501 -0.00000000000E+00  0.00000000000E+00  0.41147670269E+03  0.41147670269E+03  0.00000000000E+00 0. -1.
          2   -1    0    0  501    0  0.00000000000E+00 -0.00000000000E+00 -0.46569984724E+02  0.46569984724E+02  0.00000000000E+00 0. -1.
         35    2    1    2    0    0 -0.35527136788E-14  0.00000000000E+00  0.36490671797E+03  0.45804668741E+03  0.27685710219E+03 0.  0.
         25    2    3    3    0    0 -0.27286089362E+02 -0.50759039175E+02  0.15587181188E+03  0.20756961081E+03  0.12437086019E+03 0.  0.
         25    2    3    3    0    0  0.27286089362E+02  0.50759039175E+02  0.20903490609E+03  0.25047707660E+03  0.12538805050E+03 0.  0.
          5    1    4    4  502    0  0.23866877930E+02  0.21719213300E+02  0.57226492787E+01  0.33108772301E+02  0.47000000000E+01 0.  1.
         -5    1    4    4    0  502 -0.51152967293E+02 -0.72478252475E+02  0.15014916260E+03  0.17446083851E+03  0.47000000000E+01 0.  1.
          5    1    5    5  503    0  0.46065560602E+02  0.38495649024E+02  0.25295098354E+02  0.65313726491E+02  0.47000000000E+01 0.  1.
         -5    1    5    5    0  503 -0.18779471240E+02  0.12263390151E+02  0.18373980774E+03  0.18516335011E+03  0.47000000000E+01 0.  1.
<mgrwt>
<rscale>  0 0.27685710E+03</rscale>
<asrwt>0</asrwt>
<pdfrwt beam="1">  1        2 0.71646133E-02 0.27685710E+03</pdfrwt>
<pdfrwt beam="2">  1       -2 0.63304106E-01 0.27685710E+03</pdfrwt>
<totfact> 0.23111099E+03</totfact>
</mgrwt>
</event>
<event>
 9    1  0.7957670E-001  0.2656496E+03  0.7818608E-02  0.1103796E+00
          1   -1    0    0  501    0  0.00000000000E+00  0.00000000000E+00  0.77640888006E+02  0.77640888006E+02  0.00000000000E+00 0.  1.
         -1   -1    0    0    0  501 -0.00000000000E+00 -0.00000000000E+00 -0.22723119808E+03  0.22723119808E+03  0.00000000000E+00 0.  1.
         35    2    1    2    0    0  0.00000000000E+00  0.00000000000E+00 -0.14959031007E+03  0.30487208608E+03  0.26564963393E+03 0.  0.
         25    2    3    3    0    0  0.35281562354E+02 -0.16574218897E+02 -0.40722819904E+02  0.13718841875E+03  0.12507126290E+03 0.  0.
         25    2    3    3    0    0 -0.35281562354E+02  0.16574218897E+02 -0.10886749017E+03  0.16768366734E+03  0.12143388531E+03 0.  0.
          5    1    4    4  502    0  0.49280964245E+02 -0.48925564406E+01  0.33918472149E+02  0.60208830734E+02  0.47000000000E+01 0. -1.
         -5    1    4    4    0  502 -0.13999401891E+02 -0.11681662456E+02 -0.74641292053E+02  0.76979588012E+02  0.47000000000E+01 0. -1.
          5    1    5    5  503    0 -0.74207534877E+02 -0.15311164915E+02 -0.54485753121E+02  0.93445049611E+02  0.47000000000E+01 0.  1.
         -5    1    5    5    0  503  0.38925972523E+02  0.31885383812E+02 -0.54381737045E+02  0.74238617725E+02  0.47000000000E+01 0.  1.
<mgrwt>
<rscale>  0 0.26564963E+03</rscale>
<asrwt>0</asrwt>
<pdfrwt beam="1">  1        1 0.11944752E-01 0.26564963E+03</pdfrwt>
<pdfrwt beam="2">  1       -1 0.34958646E-01 0.26564963E+03</pdfrwt>
<totfact> 0.39295282E+03</totfact>
</mgrwt>
</event>
<event>
 9    1  0.7957670E-001  0.2758869E+03  0.7818608E-02  0.1097957E+00
          1   -1    0    0  501    0  0.00000000000E+00  0.00000000000E+00  0.60216535858E+03  0.60216535858E+03  0.00000000000E+00 0. -1.
         -1   -1    0    0    0  501 -0.00000000000E+00 -0.00000000000E+00 -0.31599954751E+02  0.31599954751E+02  0.00000000000E+00 0. -1.
         35    2    1    2    0    0  0.35527136788E-14  0.00000000000E+00  0.57056540383E+03  0.63376531333E+03  0.27588691947E+03 0.  0.
         25    2    3    3    0    0 -0.22678384567E+02  0.32431967586E+02  0.18509368571E+03  0.22672283994E+03  0.12480958302E+03 0.  0.
         25    2    3    3    0    0  0.22678384567E+02 -0.32431967586E+02  0.38547171812E+03  0.40704247339E+03  0.12461536032E+03 0.  0.
          5    1    4    4  502    0  0.49331941411E+02  0.75543306583E+00  0.50523486858E+02  0.70773751115E+02  0.47000000000E+01 0.  1.
         -5    1    4    4    0  502 -0.72010325978E+02  0.31676534520E+02  0.13457019885E+03  0.15594908883E+03  0.47000000000E+01 0.  1.
          5    1    5    5  503    0  0.49921613863E+02  0.26349733682E+02  0.25596677557E+03  0.26215940988E+03  0.47000000000E+01 0.  1.
         -5    1    5    5    0  503 -0.27243229296E+02 -0.58781701268E+02  0.12950494255E+03  0.14488306351E+03  0.47000000000E+01 0.  1.
<mgrwt>
<rscale>  0 0.27588692E+03</rscale>
<asrwt>0</asrwt>
<pdfrwt beam="1">  1        1 0.92640816E-01 0.27588692E+03</pdfrwt>
<pdfrwt beam="2">  1       -1 0.48615319E-02 0.27588692E+03</pdfrwt>
<totfact> 0.64020317E+03</totfact>
</mgrwt>
</event>
<event>
 9    1  0.7957670E-001  0.2747889E+03  0.7818608E-02  0.1098570E+00
          2   -1    0    0  501    0  0.00000000000E+00  0.00000000000E+00  0.10077700644E+03  0.10077700644E+03  0.00000000000E+00 0.  1.
         -2   -1    0    0    0  501 -0.00000000000E+00 -0.00000000000E+00 -0.18731686734E+03  0.18731686734E+03  0.00000000000E+00 0.  1.
         35    2    1    2    0    0 -0.35527136788E-14  0.00000000000E+00 -0.86539860899E+02  0.28809387379E+03  0.27478888731E+03 0.  0.
         25    2    3    3    0    0 -0.80156370216E+01 -0.57339782958E+02 -0.54067898143E+02  0.14735965990E+03  0.12425550535E+03 0.  0.
         25    2    3    3    0    0  0.80156370216E+01  0.57339782958E+02 -0.32471962757E+02  0.14073421389E+03  0.12409508229E+03 0.  0.
          5    1    4    4  502    0 -0.19044475382E+02 -0.39133616736E+02 -0.92973503896E+02  0.10276329319E+03  0.47000000000E+01 0. -1.
         -5    1    4    4    0  502  0.11028838360E+02 -0.18206166221E+02  0.38905605753E+02  0.44596366703E+02  0.47000000000E+01 0. -1.
          5    1    5    5  503    0  0.44223960471E+02  0.39209072002E+02 -0.65441268042E+02  0.88304923815E+02  0.47000000000E+01 0.  1.
         -5    1    5    5    0  503 -0.36208323450E+02  0.18130710956E+02  0.32969305285E+02  0.52429290075E+02  0.47000000000E+01 0.  1.
<mgrwt>
<rscale>  0 0.27478889E+03</rscale>
<asrwt>0</asrwt>
<pdfrwt beam="1">  1        2 0.15504155E-01 0.27478889E+03</pdfrwt>
<pdfrwt beam="2">  1       -2 0.28817980E-01 0.27478889E+03</pdfrwt>
<totfact> 0.40990324E+03</totfact>
</mgrwt>
</event>
<event>
 9    1  0.7957670E-001  0.2763990E+03  0.7818608E-02  0.1097672E+00
         -1   -1    0    0    0  501 -0.00000000000E+00  0.00000000000E+00  0.19036518284E+03  0.19036518284E+03  0.00000000000E+00 0.  1.
          1   -1    0    0  501    0  0.00000000000E+00 -0.00000000000E+00 -0.10032875486E+03  0.10032875486E+03  0.00000000000E+00 0.  1.
         35    2    1    2    0    0  0.71054273576E-14  0.71054273576E-14  0.90036427976E+02  0.29069393770E+03  0.27639899973E+03 0.  0.
         25    2    3    3    0    0  0.68691809826E+01 -0.49728950085E+02  0.22259152036E+02  0.14088336707E+03  0.12974012156E+03 0.  0.
         25    2    3    3    0    0 -0.68691809826E+01  0.49728950085E+02  0.67777275939E+02  0.14981057063E+03  0.12381152537E+03 0.  0.
          5    1    4    4  502    0  0.63860027811E+02 -0.32163733383E+02  0.34957698733E+02  0.79729164036E+02  0.47000000000E+01 0.  1.
         -5    1    4    4    0  502 -0.56990846828E+02 -0.17565216701E+02 -0.12698546697E+02  0.61154203029E+02  0.47000000000E+01 0.  1.
          5    1    5    5  503    0 -0.40335234681E+02  0.76723239685E+02  0.60842085454E+02  0.10600583016E+03  0.47000000000E+01 0. -1.
         -5    1    5    5    0  503  0.33466053698E+02 -0.26994289601E+02  0.69351904857E+01  0.43804740477E+02  0.47000000000E+01 0. -1.
<mgrwt>
<rscale>  0 0.27639900E+03</rscale>
<asrwt>0</asrwt>
<pdfrwt beam="1">  1        1 0.15435193E-01 0.27639900E+03</pdfrwt>
<pdfrwt beam="2">  1       -1 0.29286951E-01 0.27639900E+03</pdfrwt>
<totfact> 0.38003118E+03</totfact>
</mgrwt>
</event>
<event>
 9    1  0.7957670E-001  0.2750567E+03  0.7818608E-02  0.1098420E+00
          2   -1    0    0  501    0  0.00000000000E+00  0.00000000000E+00  0.69772401240E+02  0.69772401240E+02  0.00000000000E+00 0.  1.
         -2   -1    0    0    0  501 -0.00000000000E+00 -0.00000000000E+00 -0.27108198634E+03  0.27108198634E+03  0.00000000000E+00 0.  1.
         35    2    1    2    0    0  0.35527136788E-14 -0.71054273576E-14 -0.20130958510E+03  0.34085438758E+03  0.27505665685E+03 0.  0.
         25    2    3    3    0    0 -0.14039612769E+02  0.43633848842E+02 -0.14217608910E+03  0.19466984397E+03  0.12482501492E+03 0.  0.
         25    2    3    3    0    0  0.14039612769E+02 -0.43633848842E+02 -0.59133496005E+02  0.14618454361E+03  0.12558712892E+03 0.  0.
          5    1    4    4  502    0  0.29062278978E+02 -0.11947131904E+02 -0.11468900875E+03  0.11900843982E+03  0.47000000000E+01 0. -1.
         -5    1    4    4    0  502 -0.43101891746E+02  0.55580980746E+02 -0.27487080349E+02  0.75661404156E+02  0.47000000000E+01 0. -1.
          5    1    5    5  503    0 -0.24829029641E+02 -0.62289294504E+02  0.64818266664E+01  0.67531777702E+02  0.47000000000E+01 0.  1.
         -5    1    5    5    0  503  0.38868642409E+02  0.18655445662E+02 -0.65615322672E+02  0.78652765908E+02  0.47000000000E+01 0.  1.
<mgrwt>
<rscale>  0 0.27505666E+03</rscale>
<asrwt>0</asrwt>
<pdfrwt beam="1">  1        2 0.10734216E-01 0.27505666E+03</pdfrwt>
<pdfrwt beam="2">  1       -2 0.41704921E-01 0.27505666E+03</pdfrwt>
<totfact> 0.32096730E+03</totfact>
</mgrwt>
</event>
<event>
 9    1  0.7957670E-001  0.2766622E+03  0.7818608E-02  0.1097526E+00
          1   -1    0    0  501    0  0.00000000000E+00  0.00000000000E+00  0.34459697190E+03  0.34459697190E+03  0.00000000000E+00 0. -1.
         -1   -1    0    0    0  501 -0.00000000000E+00 -0.00000000000E+00 -0.55530074867E+02  0.55530074867E+02  0.00000000000E+00 0. -1.
         35    2    1    2    0    0 -0.71054273576E-14  0.00000000000E+00  0.28906689704E+03  0.40012704677E+03  0.27666221751E+03 0.  0.
         25    2    3    3    0    0 -0.18843726052E+02  0.53967090695E+02  0.12237420164E+03  0.18409918751E+03  0.12509809242E+03 0.  0.
         25    2    3    3    0    0  0.18843726052E+02 -0.53967090695E+02  0.16669269540E+03  0.21602785926E+03  0.12495618587E+03 0.  0.
          5    1    4    4  502    0 -0.30163125879E+02  0.36929372548E+02  0.14531252317E+03  0.15300788251E+03  0.47000000000E+01 0. -1.
         -5    1    4    4    0  502  0.11319399827E+02  0.17037718147E+02 -0.22938321534E+02  0.31091305005E+02  0.47000000000E+01 0. -1.
          5    1    5    5  503    0  0.61199057843E+02 -0.68810527438E+02  0.11526098275E+03  0.14760554702E+03  0.47000000000E+01 0. -1.
         -5    1    5    5    0  503 -0.42355331791E+02  0.14843436743E+02  0.51431712646E+02  0.68422312232E+02  0.47000000000E+01 0. -1.
<mgrwt>
<rscale>  0 0.27666222E+03</rscale>
<asrwt>0</asrwt>
<pdfrwt beam="1">  1        1 0.53014918E-01 0.27666222E+03</pdfrwt>
<pdfrwt beam="2">  1       -1 0.85430886E-02 0.27666222E+03</pdfrwt>
<totfact> 0.56788793E+03</totfact>
</mgrwt>
</event>
<event>
 9    1  0.7957670E-001  0.2772260E+03  0.7818608E-02  0.1097214E+00
         -1   -1    0    0    0  501 -0.00000000000E+00  0.00000000000E+00  0.63257721143E+01  0.63257721143E+01  0.00000000000E+00 0. -1.
          1   -1    0    0  501    0  0.00000000000E+00 -0.00000000000E+00 -0.30373462636E+04  0.30373462636E+04  0.00000000000E+00 0. -1.
         35    2    1    2    0    0  0.00000000000E+00  0.35527136788E-14 -0.30310204915E+04  0.30436720357E+04  0.27722597495E+03 0.  0.
         25    2    3    3    0    0 -0.28000480800E+02  0.33355796759E+01 -0.90951109025E+03  0.91826846268E+03  0.12333447713E+03 0.  0.
         25    2    3    3    0    0  0.28000480800E+02 -0.33355796759E+01 -0.21215094013E+04  0.21254035731E+04  0.12547133425E+03 0.  0.
          5    1    4    4  502    0  0.10132072122E+02 -0.35292641878E+02 -0.95306673740E+02  0.10224324680E+03  0.47000000000E+01 0. -1.
         -5    1    4    4    0  502 -0.38132552922E+02  0.38628221554E+02 -0.81420441651E+03  0.81602521589E+03  0.47000000000E+01 0. -1.
          5    1    5    5  503    0  0.68433150085E+02  0.22338361661E+02 -0.87624604212E+03  0.87921062025E+03  0.47000000000E+01 0.  1.
         -5    1    5    5    0  503 -0.40432669285E+02 -0.25673941337E+02 -0.12452633591E+04  0.12461929528E+04  0.47000000000E+01 0.  1.
<mgrwt>
<rscale>  0 0.27722597E+03</rscale>
<asrwt>0</asrwt>
<pdfrwt beam="1">  1        1 0.46728448E+00 0.27722597E+03</pdfrwt>
<pdfrwt beam="2">  1       -1 0.97319479E-03 0.27722597E+03</pdfrwt>
<totfact> 0.13327482E+03</totfact>
</mgrwt>
</event>
<event>
 9    1  0.7957670E-001  0.2766358E+03  0.7818608E-02  0.1097541E+00
         -1   -1    0    0    0  501 -0.00000000000E+00  0.00000000000E+00  0.23961896381E+02  0.23961896381E+02  0.00000000000E+00 0. -1.
          1   -1    0    0  501    0  0.00000000000E+00 -0.00000000000E+00 -0.79842748931E+03  0.79842748931E+03  0.00000000000E+00 0. -1.
         35    2    1    2    0    0  0.71054273576E-14  0.71054273576E-14 -0.77446559292E+03  0.82238938569E+03  0.27663576606E+03 0.  0.
         25    2    3    3    0    0 -0.22410328670E+02  0.25617588044E+02 -0.29112025773E+03  0.32175995725E+03  0.13274028019E+03 0.  0.
         25    2    3    3    0    0  0.22410328670E+02 -0.25617588044E+02 -0.48334533520E+03  0.50062942843E+03  0.12589133373E+03 0.  0.
          5    1    4    4  502    0 -0.12039624108E+02  0.66333345801E+02 -0.26161901210E+03  0.27020670385E+03  0.47000000000E+01 0. -1.
         -5    1    4    4    0  502 -0.10370704562E+02 -0.40715757758E+02 -0.29501245632E+02  0.51553253406E+02  0.47000000000E+01 0. -1.
          5    1    5    5  503    0  0.42109882686E+02  0.10505333171E+02 -0.43408304054E+03  0.43627259864E+03  0.47000000000E+01 0.  1.
         -5    1    5    5    0  503 -0.19699554015E+02 -0.36122921215E+02 -0.49262294660E+02  0.64356829791E+02  0.47000000000E+01 0.  1.
<mgrwt>
<rscale>  0 0.27663577E+03</rscale>
<asrwt>0</asrwt>
<pdfrwt beam="1">  1        1 0.12283498E+00 0.27663577E+03</pdfrwt>
<pdfrwt beam="2">  1       -1 0.36864463E-02 0.27663577E+03</pdfrwt>
<totfact> 0.64088009E+03</totfact>
</mgrwt>
</event>
<event>
 9    1  0.7957670E-001  0.2736514E+03  0.7818608E-02  0.1099208E+00
          2   -1    0    0  501    0  0.00000000000E+00  0.00000000000E+00  0.17730329135E+04  0.17730329135E+04  0.00000000000E+00 0. -1.
         -2   -1    0    0    0  501 -0.00000000000E+00 -0.00000000000E+00 -0.10558900536E+02  0.10558900536E+02  0.00000000000E+00 0. -1.
         35    2    1    2    0    0  0.14210854715E-13 -0.71054273576E-14  0.17624740130E+04  0.17835918141E+04  0.27365144385E+03 0.  0.
         25    2    3    3    0    0 -0.45705285729E+02  0.26011775640E+02  0.92500644361E+03  0.93513867963E+03  0.12681420981E+03 0.  0.
         25    2    3    3    0    0  0.45705285729E+02 -0.26011775640E+02  0.83746756937E+03  0.84845313442E+03  0.12551974324E+03 0.  0.
          5    1    4    4  502    0 -0.96783652906E+01 -0.15864380020E+02  0.17546895468E+02  0.25987167000E+02  0.47000000000E+01 0.  1.
         -5    1    4    4    0  502 -0.36026920438E+02  0.41876155660E+02  0.90745954814E+03  0.90915151263E+03  0.47000000000E+01 0.  1.
          5    1    5    5  503    0 -0.26117209404E+02  0.29486098762E+02  0.15660481918E+03  0.16155091469E+03  0.47000000000E+01 0. -1.
         -5    1    5    5    0  503  0.71822495132E+02 -0.55497874403E+02  0.68086275020E+03  0.68690221973E+03  0.47000000000E+01 0. -1.
<mgrwt>
<rscale>  0 0.27365144E+03</rscale>
<asrwt>0</asrwt>
<pdfrwt beam="1">  1        2 0.27277406E+00 0.27365144E+03</pdfrwt>
<pdfrwt beam="2">  1       -2 0.16244476E-02 0.27365144E+03</pdfrwt>
<totfact> 0.10263057E+04</totfact>
</mgrwt>
</event>
<event>
 9    1  0.7957670E-001  0.2747127E+03  0.7818608E-02  0.1098612E+00
         -2   -1    0    0    0  501 -0.00000000000E+00  0.00000000000E+00  0.72096967230E+01  0.72096967230E+01  0.00000000000E+00 0.  1.
          2   -1    0    0  501    0  0.00000000000E+00 -0.00000000000E+00 -0.26168607437E+04  0.26168607437E+04  0.00000000000E+00 0.  1.
         35    2    1    2    0    0  0.35527136788E-14  0.00000000000E+00 -0.26096510470E+04  0.26240704404E+04  0.27471273963E+03 0.  0.
         25    2    3    3    0    0  0.22240507544E+02 -0.43042877810E+02 -0.99105271085E+03  0.99991214920E+03  0.12365880850E+03 0.  0.
         25    2    3    3    0    0 -0.22240507544E+02  0.43042877810E+02 -0.16185983361E+04  0.16241582912E+04  0.12522879759E+03 0.  0.
          5    1    4    4  502    0 -0.19744323182E+02 -0.33022702170E+02 -0.92264549915E+02  0.10007584288E+03  0.47000000000E+01 0.  1.
         -5    1    4    4    0  502  0.41984830726E+02 -0.10020175640E+02 -0.89878816094E+03  0.89983630632E+03  0.47000000000E+01 0.  1.
          5    1    5    5  503    0 -0.29271573462E+01 -0.40244643908E+02 -0.29374117057E+03  0.29653695369E+03  0.47000000000E+01 0. -1.
         -5    1    5    5    0  503 -0.19313350197E+02  0.83287521717E+02 -0.13248571656E+04  0.13276213375E+04  0.47000000000E+01 0. -1.
<mgrwt>
<rscale>  0 0.27471274E+03</rscale>
<asrwt>0</asrwt>
<pdfrwt beam="1">  1        2 0.40259427E+00 0.27471274E+03</pdfrwt>
<pdfrwt beam="2">  1       -2 0.11091833E-02 0.27471274E+03</pdfrwt>
<totfact> 0.63381829E+03</totfact>
</mgrwt>
</event>
<event>
 9    1  0.7957670E-001  0.2743523E+03  0.7818608E-02  0.1098814E+00
         -1   -1    0    0    0  501 -0.00000000000E+00  0.00000000000E+00  0.14136509508E+02  0.14136509508E+02  0.00000000000E+00 0.  1.
          1   -1    0    0  501    0  0.00000000000E+00 -0.00000000000E+00 -0.13311133285E+04  0.13311133285E+04  0.00000000000E+00 0.  1.
         35    2    1    2    0    0  0.71054273576E-14  0.35527136788E-14 -0.13169768190E+04  0.13452498380E+04  0.27435230070E+03 0.  0.
         25    2    3    3    0    0 -0.45221444069E+02  0.15857309045E+01 -0.49564453783E+03  0.51323630975E+03  0.12530166885E+03 0.  0.
         25    2    3    3    0    0  0.45221444069E+02 -0.15857309045E+01 -0.82133228118E+03  0.83201352828E+03  0.12494919601E+03 0.  0.
          5    1    4    4  502    0 -0.79323293312E+01  0.20264745318E+02 -0.45249361767E+03  0.45304099790E+03  0.47000000000E+01 0. -1.
         -5    1    4    4    0  502 -0.37289114737E+02 -0.18679014414E+02 -0.43150920167E+02  0.60195311850E+02  0.47000000000E+01 0. -1.
          5    1    5    5  503    0 -0.18893309397E+02 -0.45376531295E+02 -0.20862813890E+03  0.21439164413E+03  0.47000000000E+01 0.  1.
         -5    1    5    5    0  503  0.64114753466E+02  0.43790800390E+02 -0.61270414229E+03  0.61762188416E+03  0.47000000000E+01 0.  1.
<mgrwt>
<rscale>  0 0.27435230E+03</rscale>
<asrwt>0</asrwt>
<pdfrwt beam="1">  1        1 0.20478667E+00 0.27435230E+03</pdfrwt>
<pdfrwt beam="2">  1       -1 0.21748475E-02 0.27435230E+03</pdfrwt>
<totfact> 0.56339839E+03</totfact>
</mgrwt>
</event>
<event>
 9    1  0.7957670E-001  0.2749665E+03  0.7818608E-02  0.1098470E+00
          2   -1    0    0  501    0  0.00000000000E+00  0.00000000000E+00  0.15989612838E+04  0.15989612838E+04  0.00000000000E+00 0. -1.
         -2   -1    0    0    0  501 -0.00000000000E+00 -0.00000000000E+00 -0.11821201738E+02  0.11821201738E+02  0.00000000000E+00 0. -1.
         35    2    1    2    0    0  0.00000000000E+00  0.00000000000E+00  0.15871400821E+04  0.16107824856E+04  0.27496649910E+03 0.  0.
         25    2    3    3    0    0 -0.13308988683E+02  0.19366398448E+01  0.46922048807E+03  0.48581045490E+03  0.12515211509E+03 0.  0.
         25    2    3    3    0    0  0.13308988683E+02 -0.19366398448E+01  0.11179195940E+04  0.11249720307E+04  0.12504787616E+03 0.  0.
          5    1    4    4  502    0  0.30083644367E+00 -0.46255334106E+02  0.38437716747E+03  0.38717895514E+03  0.47000000000E+01 0. -1.
         -5    1    4    4    0  502 -0.13609825126E+02  0.48191973951E+02  0.84843320602E+02  0.98631499756E+02  0.47000000000E+01 0. -1.
          5    1    5    5  503    0  0.16418374836E+02 -0.57486562064E+02  0.79518653800E+03  0.79744466145E+03  0.47000000000E+01 0. -1.
         -5    1    5    5    0  503 -0.31093861532E+01  0.55549922220E+02  0.32273305601E+03  0.32752736921E+03  0.47000000000E+01 0. -1.
<mgrwt>
<rscale>  0 0.27496650E+03</rscale>
<asrwt>0</asrwt>
<pdfrwt beam="1">  1        2 0.24599387E+00 0.27496650E+03</pdfrwt>
<pdfrwt beam="2">  1       -2 0.18186477E-02 0.27496650E+03</pdfrwt>
<totfact> 0.10743844E+04</totfact>
</mgrwt>
</event>
<event>
 9    1  0.7957670E-001  0.2788676E+03  0.7818608E-02  0.1096309E+00
          2   -1    0    0  501    0  0.00000000000E+00  0.00000000000E+00  0.14951053389E+04  0.14951053389E+04  0.00000000000E+00 0. -1.
         -2   -1    0    0    0  501 -0.00000000000E+00 -0.00000000000E+00 -0.13003618274E+02  0.13003618274E+02  0.00000000000E+00 0. -1.
         35    2    1    2    0    0  0.00000000000E+00  0.00000000000E+00  0.14821017206E+04  0.15081089571E+04  0.27886756073E+03 0.  0.
         25    2    3    3    0    0  0.20714885548E+02 -0.12591212703E+02  0.44139395371E+03  0.45958840753E+03  0.12571888021E+03 0.  0.
         25    2    3    3    0    0 -0.20714885548E+02  0.12591212703E+02  0.10407077669E+04  0.10485205496E+04  0.12543939489E+03 0.  0.
          5    1    4    4  502    0  0.19651476600E+02  0.55251014033E+02  0.17381515017E+03  0.18350109404E+03  0.47000000000E+01 0.  1.
         -5    1    4    4    0  502  0.10634089484E+01 -0.67842226736E+02  0.26757880354E+03  0.27608731349E+03  0.47000000000E+01 0.  1.
          5    1    5    5  503    0  0.50906113861E+02  0.19754095281E+02  0.39140975704E+03  0.39522821839E+03  0.47000000000E+01 0. -1.
         -5    1    5    5    0  503 -0.71620999409E+02 -0.71628825778E+01  0.64929800985E+03  0.65329233123E+03  0.47000000000E+01 0. -1.
<mgrwt>
<rscale>  0 0.27886756E+03</rscale>
<asrwt>0</asrwt>
<pdfrwt beam="1">  1        2 0.23001607E+00 0.27886756E+03</pdfrwt>
<pdfrwt beam="2">  1       -2 0.20005578E-02 0.27886756E+03</pdfrwt>
<totfact> 0.10610828E+04</totfact>
</mgrwt>
</event>
<event>
 9    1  0.7957670E-001  0.2731880E+03  0.7818608E-02  0.1099469E+00
          2   -1    0    0  501    0  0.00000000000E+00  0.00000000000E+00  0.46304383604E+03  0.46304383604E+03  0.00000000000E+00 0.  1.
         -2   -1    0    0    0  501 -0.00000000000E+00 -0.00000000000E+00 -0.40294069795E+02  0.40294069795E+02  0.00000000000E+00 0.  1.
         35    2    1    2    0    0  0.00000000000E+00  0.35527136788E-14  0.42274976624E+03  0.50333790583E+03  0.27318799862E+03 0.  0.
         25    2    3    3    0    0 -0.19011447425E+02  0.10957458246E+02  0.11671439622E+03  0.17239020384E+03  0.12495851740E+03 0.  0.
         25    2    3    3    0    0  0.19011447425E+02 -0.10957458246E+02  0.30603537002E+03  0.33094770199E+03  0.12404528498E+03 0.  0.
          5    1    4    4  502    0  0.45865815027E+02  0.34429082139E+02  0.57539618133E+02  0.81375256312E+02  0.47000000000E+01 0.  1.
         -5    1    4    4    0  502 -0.64877262452E+02 -0.23471623892E+02  0.59174778090E+02  0.91014947528E+02  0.47000000000E+01 0.  1.
          5    1    5    5  503    0 -0.36526364461E+02 -0.43258280901E+02  0.99240523077E+02  0.11435132526E+03  0.47000000000E+01 0. -1.
         -5    1    5    5    0  503  0.55537811886E+02  0.32300822655E+02  0.20679484694E+03  0.21659637673E+03  0.47000000000E+01 0. -1.
<mgrwt>
<rscale>  0 0.27318800E+03</rscale>
<asrwt>0</asrwt>
<pdfrwt beam="1">  1        2 0.71237510E-01 0.27318800E+03</pdfrwt>
<pdfrwt beam="2">  1       -2 0.61990880E-02 0.27318800E+03</pdfrwt>
<totfact> 0.94893542E+03</totfact>
</mgrwt>
</event>
<event>
 9    1  0.7957670E-001  0.2725806E+03  0.7818608E-02  0.1099812E+00
         -1   -1    0    0    0  501 -0.00000000000E+00  0.00000000000E+00  0.46989607256E+03  0.46989607256E+03  0.00000000000E+00 0.  1.
          1   -1    0    0  501    0  0.00000000000E+00 -0.00000000000E+00 -0.39530108411E+02  0.39530108411E+02  0.00000000000E+00 0.  1.
         35    2    1    2    0    0  0.00000000000E+00  0.00000000000E+00  0.43036596415E+03  0.50942618097E+03  0.27258057664E+03 0.  0.
         25    2    3    3    0    0 -0.25266857509E+02 -0.38240084348E+02  0.26364602761E+03  0.29537733442E+03  0.12505128417E+03 0.  0.
         25    2    3    3    0    0  0.25266857509E+02  0.38240084348E+02  0.16671993654E+03  0.21404884656E+03  0.12617707134E+03 0.  0.
          5    1    4    4  502    0 -0.10714844918E+02 -0.45904394966E+02  0.27217274496E+03  0.27626457333E+03  0.47000000000E+01 0. -1.
         -5    1    4    4    0  502 -0.14552012590E+02  0.76643106179E+01 -0.85267173481E+01  0.19112761088E+02  0.47000000000E+01 0. -1.
          5    1    5    5  503    0  0.48281879488E+02  0.10765051652E+02  0.17060393600E+03  0.17769304770E+03  0.47000000000E+01 0. -1.
         -5    1    5    5    0  503 -0.23015021979E+02  0.27475032696E+02 -0.38839994578E+01  0.36355798852E+02  0.47000000000E+01 0. -1.
<mgrwt>
<rscale>  0 0.27258058E+03</rscale>
<asrwt>0</asrwt>
<pdfrwt beam="1">  1        1 0.60815555E-02 0.27258058E+03</pdfrwt>
<pdfrwt beam="2">  1       -1 0.72291699E-01 0.27258058E+03</pdfrwt>
<totfact> 0.25412362E+03</totfact>
</mgrwt>
</event>
<event>
 9    1  0.7957670E-001  0.2808481E+03  0.7818608E-02  0.1095227E+00
         -1   -1    0    0    0  501 -0.00000000000E+00  0.00000000000E+00  0.38488945327E+02  0.38488945327E+02  0.00000000000E+00 0. -1.
          1   -1    0    0  501    0  0.00000000000E+00 -0.00000000000E+00 -0.51232675031E+03  0.51232675031E+03  0.00000000000E+00 0. -1.
         35    2    1    2    0    0  0.17763568394E-14  0.00000000000E+00 -0.47383780499E+03  0.55081569564E+03  0.28084811755E+03 0.  0.
         25    2    3    3    0    0 -0.71373457879E+01  0.83227812356E+01 -0.37573825974E+03  0.39603286778E+03  0.12466989267E+03 0.  0.
         25    2    3    3    0    0  0.71373457879E+01 -0.83227812356E+01 -0.98099545248E+02  0.15478282786E+03  0.11922245020E+03 0.  0.
          5    1    4    4  502    0  0.11290422327E+02 -0.53095968801E+02 -0.11171953395E+03  0.12429802816E+03  0.47000000000E+01 0. -1.
         -5    1    4    4    0  502 -0.18427768115E+02  0.61418750036E+02 -0.26401872579E+03  0.27173483962E+03  0.47000000000E+01 0. -1.
          5    1    5    5  503    0 -0.35733877531E+02 -0.16420069922E+02 -0.10326365216E+03  0.11059837502E+03  0.47000000000E+01 0. -1.
         -5    1    5    5    0  503  0.42871223319E+02  0.80972886860E+01  0.51641069100E+01  0.44184452844E+02  0.47000000000E+01 0. -1.
<mgrwt>
<rscale>  0 0.28084812E+03</rscale>
<asrwt>0</asrwt>
<pdfrwt beam="1">  1        1 0.78819493E-01 0.28084812E+03</pdfrwt>
<pdfrwt beam="2">  1       -1 0.59213768E-02 0.28084812E+03</pdfrwt>
<totfact> 0.59350770E+03</totfact>
</mgrwt>
</event>
<event>
 9    1  0.7957670E-001  0.2740722E+03  0.7818608E-02  0.1098971E+00
          2   -1    0    0  501    0  0.00000000000E+00  0.00000000000E+00  0.16053263679E+03  0.16053263679E+03  0.00000000000E+00 0.  1.
         -2   -1    0    0    0  501 -0.00000000000E+00 -0.00000000000E+00 -0.11697867477E+03  0.11697867477E+03  0.00000000000E+00 0.  1.
         35    2    1    2    0    0  0.71054273576E-14 -0.71054273576E-14  0.43553962028E+02  0.27751131156E+03  0.27407221756E+03 0.  0.
         25    2    3    3    0    0 -0.16280410062E+02  0.43313180188E+02 -0.11978474947E+02  0.13380653332E+03  0.12497848282E+03 0.  0.
         25    2    3    3    0    0  0.16280410062E+02 -0.43313180188E+02  0.55532436975E+02  0.14370477824E+03  0.12420196618E+03 0.  0.
          5    1    4    4  502    0 -0.12502918281E+01 -0.11542379612E+02 -0.58717733827E+02  0.60038754339E+02  0.47000000000E+01 0. -1.
         -5    1    4    4    0  502 -0.15030118234E+02  0.54855559800E+02  0.46739258880E+02  0.73767778981E+02  0.47000000000E+01 0. -1.
          5    1    5    5  503    0  0.68427845713E+02 -0.26939245749E+02  0.14267559115E+02  0.75058285842E+02  0.47000000000E+01 0.  1.
         -5    1    5    5    0  503 -0.52147435651E+02 -0.16373934439E+02  0.41264877860E+02  0.68646492400E+02  0.47000000000E+01 0.  1.
<mgrwt>
<rscale>  0 0.27407222E+03</rscale>
<asrwt>0</asrwt>
<pdfrwt beam="1">  1        2 0.24697329E-01 0.27407222E+03</pdfrwt>
<pdfrwt beam="2">  1       -2 0.17996719E-01 0.27407222E+03</pdfrwt>
<totfact> 0.54532190E+03</totfact>
</mgrwt>
</event>
<event>
 9    1  0.7957670E-001  0.2731372E+03  0.7818608E-02  0.1099497E+00
          2   -1    0    0  501    0  0.00000000000E+00  0.00000000000E+00  0.16888240714E+04  0.16888240714E+04  0.00000000000E+00 0.  1.
         -2   -1    0    0    0  501 -0.00000000000E+00 -0.00000000000E+00 -0.11043769385E+02  0.11043769385E+02  0.00000000000E+00 0.  1.
         35    2    1    2    0    0  0.00000000000E+00  0.00000000000E+00  0.16777803021E+04  0.16998678408E+04  0.27313720785E+03 0.  0.
         25    2    3    3    0    0  0.17642846165E+02  0.84392931241E+01  0.11345626297E+04  0.11423141159E+04  0.13140276608E+03 0.  0.
         25    2    3    3    0    0 -0.17642846165E+02 -0.84392931241E+01  0.54321767236E+03  0.55755372495E+03  0.12408958439E+03 0.  0.
          5    1    4    4  502    0  0.52534655168E+02 -0.19861555891E+02  0.23675688545E+03  0.24337272692E+03  0.47000000000E+01 0.  1.
         -5    1    4    4    0  502 -0.34891809003E+02  0.28300849015E+02  0.89780574425E+03  0.89894138897E+03  0.47000000000E+01 0.  1.
          5    1    5    5  503    0 -0.18580920839E+02 -0.48983801962E+02  0.47608068987E+03  0.47897763699E+03  0.47000000000E+01 0.  1.
         -5    1    5    5    0  503  0.93807467444E+00  0.40544508837E+02  0.67136982492E+02  0.78576087960E+02  0.47000000000E+01 0.  1.
<mgrwt>
<rscale>  0 0.27313721E+03</rscale>
<asrwt>0</asrwt>
<pdfrwt beam="1">  1        2 0.25981888E+00 0.27313721E+03</pdfrwt>
<pdfrwt beam="2">  1       -2 0.16990428E-02 0.27313721E+03</pdfrwt>
<totfact> 0.10640891E+04</totfact>
</mgrwt>
</event>
<event>
 9    1  0.7957670E-001  0.2750766E+03  0.7818608E-02  0.1098409E+00
         -2   -1    0    0    0  501 -0.00000000000E+00  0.00000000000E+00  0.93087178686E+01  0.93087178686E+01  0.00000000000E+00 0. -1.
          2   -1    0    0  501    0  0.00000000000E+00 -0.00000000000E+00 -0.20321582771E+04  0.20321582771E+04  0.00000000000E+00 0. -1.
         35    2    1    2    0    0  0.00000000000E+00  0.17763568394E-14 -0.20228495593E+04  0.20414669950E+04  0.27507662981E+03 0.  0.
         25    2    3    3    0    0  0.35227209420E+02 -0.50453503877E+01 -0.13369433557E+04  0.13431718565E+04  0.12420421819E+03 0.  0.
         25    2    3    3    0    0 -0.35227209420E+02  0.50453503877E+01 -0.68590620355E+03  0.69829513852E+03  0.12602526955E+03 0.  0.
          5    1    4    4  502    0  0.78861735530E+02 -0.98867589873E+01 -0.65898585102E+03  0.66377809784E+03  0.47000000000E+01 0. -1.
         -5    1    4    4    0  502 -0.43634526110E+02  0.48414085996E+01 -0.67795750471E+03  0.67939375865E+03  0.47000000000E+01 0. -1.
          5    1    5    5  503    0 -0.55522329522E+02  0.51434198017E+02 -0.49305352353E+03  0.49885075209E+03  0.47000000000E+01 0. -1.
         -5    1    5    5    0  503  0.20295120102E+02 -0.46388847629E+02 -0.19285268002E+03  0.19944438642E+03  0.47000000000E+01 0. -1.
<mgrwt>
<rscale>  0 0.27507663E+03</rscale>
<asrwt>0</asrwt>
<pdfrwt beam="1">  1        2 0.31263961E+00 0.27507663E+03</pdfrwt>
<pdfrwt beam="2">  1       -2 0.14321110E-02 0.27507663E+03</pdfrwt>
<totfact> 0.90213191E+03</totfact>
</mgrwt>
</event>
<event>
 9    1  0.7957670E-001  0.2759621E+03  0.7818608E-02  0.1097915E+00
         -3   -1    0    0    0  501 -0.00000000000E+00  0.00000000000E+00  0.28067662793E+03  0.28067662793E+03  0.00000000000E+00 0. -1.
          3   -1    0    0  501    0  0.00000000000E+00 -0.00000000000E+00 -0.67831689459E+02  0.67831689459E+02  0.00000000000E+00 0. -1.
         35    2    1    2    0    0  0.00000000000E+00  0.71054273576E-14  0.21284493847E+03  0.34850831739E+03  0.27596209786E+03 0.  0.
         25    2    3    3    0    0  0.73193938753E+01  0.52219123539E+02  0.13606206902E+03  0.19236920839E+03  0.12534997136E+03 0.  0.
         25    2    3    3    0    0 -0.73193938753E+01 -0.52219123539E+02  0.76782869442E+02  0.15613910899E+03  0.12531321529E+03 0.  0.
          5    1    4    4  502    0  0.29839815836E+02  0.88156024827E+02  0.89356820056E+02  0.12910705098E+03  0.47000000000E+01 0.  1.
         -5    1    4    4    0  502 -0.22520421961E+02 -0.35936901287E+02  0.46705248969E+02  0.63262157414E+02  0.47000000000E+01 0.  1.
          5    1    5    5  503    0  0.40726219059E+02 -0.47459049158E+02  0.86324546836E+02  0.10670053258E+03  0.47000000000E+01 0.  1.
         -5    1    5    5    0  503 -0.48045612935E+02 -0.47600743818E+01 -0.95416773938E+01  0.49438576414E+02  0.47000000000E+01 0.  1.
<mgrwt>
<rscale>  0 0.27596210E+03</rscale>
<asrwt>0</asrwt>
<pdfrwt beam="1">  1        3 0.10435645E-01 0.27596210E+03</pdfrwt>
<pdfrwt beam="2">  1       -3 0.43181019E-01 0.27596210E+03</pdfrwt>
<totfact> 0.93456750E+02</totfact>
</mgrwt>
</event>
<event>
 9    1  0.7957670E-001  0.2653298E+03  0.7818608E-02  0.1103983E+00
         -2   -1    0    0    0  501 -0.00000000000E+00  0.00000000000E+00  0.61707306209E+02  0.61707306209E+02  0.00000000000E+00 0. -1.
          2   -1    0    0  501    0  0.00000000000E+00 -0.00000000000E+00 -0.28521706316E+03  0.28521706316E+03  0.00000000000E+00 0. -1.
         35    2    1    2    0    0  0.00000000000E+00  0.00000000000E+00 -0.22350975695E+03  0.34692436937E+03  0.26532980724E+03 0.  0.
         25    2    3    3    0    0  0.12490190980E+02 -0.35179882053E+01 -0.16916353706E+03  0.21049491293E+03  0.12459303748E+03 0.  0.
         25    2    3    3    0    0 -0.12490190980E+02  0.35179882053E+01 -0.54346219892E+02  0.13642945643E+03  0.12446326307E+03 0.  0.
          5    1    4    4  502    0 -0.24392188071E+02  0.35341394676E+02 -0.12670177605E+02  0.45017956607E+02  0.47000000000E+01 0.  1.
         -5    1    4    4    0  502  0.36882379051E+02 -0.38859382881E+02 -0.15649335945E+03  0.16547695633E+03  0.47000000000E+01 0.  1.
          5    1    5    5  503    0  0.49933887097E+01 -0.15354649663E+02  0.37411724330E+02  0.41017390390E+02  0.47000000000E+01 0.  1.
         -5    1    5    5    0  503 -0.17483579689E+02  0.18872637868E+02 -0.91757944221E+02  0.95412066043E+02  0.47000000000E+01 0.  1.
<mgrwt>
<rscale>  0 0.26532981E+03</rscale>
<asrwt>0</asrwt>
<pdfrwt beam="1">  1        2 0.43879547E-01 0.26532981E+03</pdfrwt>
<pdfrwt beam="2">  1       -2 0.94934319E-02 0.26532981E+03</pdfrwt>
<totfact> 0.82477519E+03</totfact>
</mgrwt>
</event>
<event>
 9    1  0.7957670E-001  0.2625565E+03  0.7818608E-02  0.1105617E+00
          2   -1    0    0  501    0  0.00000000000E+00  0.00000000000E+00  0.87744758507E+02  0.87744758507E+02  0.00000000000E+00 0.  1.
         -2   -1    0    0    0  501 -0.00000000000E+00 -0.00000000000E+00 -0.19641029374E+03  0.19641029374E+03  0.00000000000E+00 0.  1.
         35    2    1    2    0    0  0.00000000000E+00  0.35527136788E-14 -0.10866553523E+03  0.28415505224E+03  0.26255646091E+03 0.  0.
         25    2    3    3    0    0  0.32512383430E+02  0.18412853012E+02 -0.65312384240E+02  0.14607210112E+03  0.12520089040E+03 0.  0.
         25    2    3    3    0    0 -0.32512383430E+02 -0.18412853012E+02 -0.43353150988E+02  0.13808295112E+03  0.12566350886E+03 0.  0.
          5    1    4    4  502    0 -0.37476528966E+02  0.41738034769E+02 -0.22305064387E+02  0.60548820526E+02  0.47000000000E+01 0.  1.
         -5    1    4    4    0  502  0.69988912396E+02 -0.23325181757E+02 -0.43007319853E+02  0.85523280592E+02  0.47000000000E+01 0.  1.
          5    1    5    5  503    0 -0.43496776284E+02 -0.47445255888E+02 -0.71215106948E+02  0.96107769254E+02  0.47000000000E+01 0. -1.
         -5    1    5    5    0  503  0.10984392854E+02  0.29032402876E+02  0.27861955960E+02  0.41975181870E+02  0.47000000000E+01 0. -1.
<mgrwt>
<rscale>  0 0.26255646E+03</rscale>
<asrwt>0</asrwt>
<pdfrwt beam="1">  1        2 0.13499194E-01 0.26255646E+03</pdfrwt>
<pdfrwt beam="2">  1       -2 0.30216968E-01 0.26255646E+03</pdfrwt>
<totfact> 0.44288984E+03</totfact>
</mgrwt>
</event>
<event>
 9    1  0.7957670E-001  0.2731649E+03  0.7818608E-02  0.1099482E+00
          1   -1    0    0  501    0  0.00000000000E+00  0.00000000000E+00  0.53614559951E+03  0.53614559951E+03  0.00000000000E+00 0. -1.
         -1   -1    0    0    0  501 -0.00000000000E+00 -0.00000000000E+00 -0.34794204923E+02  0.34794204923E+02  0.00000000000E+00 0. -1.
         35    2    1    2    0    0  0.71054273576E-14 -0.35527136788E-14  0.50135139458E+03  0.57093980443E+03  0.27316485761E+03 0.  0.
         25    2    3    3    0    0  0.25584903111E+02 -0.23399185596E+02  0.33814790211E+03  0.36257582853E+03  0.12615513694E+03 0.  0.
         25    2    3    3    0    0 -0.25584903111E+02  0.23399185596E+02  0.16320349247E+03  0.20836397590E+03  0.12481208814E+03 0.  0.
          5    1    4    4  502    0 -0.50926211839E+02 -0.10744570248E+02  0.11582685775E+03  0.12707035775E+03  0.47000000000E+01 0.  1.
         -5    1    4    4    0  502  0.76511114949E+02 -0.12654615348E+02  0.22232104436E+03  0.23550547078E+03  0.47000000000E+01 0.  1.
          5    1    5    5  503    0 -0.20850349484E+02  0.35305054647E+02  0.18116463955E+03  0.18580608327E+03  0.47000000000E+01 0. -1.
         -5    1    5    5    0  503 -0.47345536269E+01 -0.11905869051E+02 -0.17961147075E+02  0.22557892636E+02  0.47000000000E+01 0. -1.
<mgrwt>
<rscale>  0 0.27316486E+03</rscale>
<asrwt>0</asrwt>
<pdfrwt beam="1">  1        1 0.82483933E-01 0.27316486E+03</pdfrwt>
<pdfrwt beam="2">  1       -1 0.53529550E-02 0.27316486E+03</pdfrwt>
<totfact> 0.64942947E+03</totfact>
</mgrwt>
</event>
<event>
 9    1  0.7957670E-001  0.2772814E+03  0.7818608E-02  0.1097183E+00
          2   -1    0    0  501    0  0.00000000000E+00  0.00000000000E+00  0.54831289445E+03  0.54831289445E+03  0.00000000000E+00 0.  1.
         -2   -1    0    0    0  501 -0.00000000000E+00 -0.00000000000E+00 -0.35055255406E+02  0.35055255406E+02  0.00000000000E+00 0.  1.
         35    2    1    2    0    0  0.00000000000E+00  0.88817841970E-15  0.51325763904E+03  0.58336814986E+03  0.27728143506E+03 0.  0.
         25    2    3    3    0    0  0.44471447128E+02 -0.20301679272E+01  0.16717778420E+03  0.21200259617E+03  0.12253512991E+03 0.  0.
         25    2    3    3    0    0 -0.44471447128E+02  0.20301679272E+01  0.34607985484E+03  0.37136555368E+03  0.12711914625E+03 0.  0.
          5    1    4    4  502    0 -0.33246392363E+02  0.48656144033E+01  0.11012027649E+03  0.11522830426E+03  0.47000000000E+01 0.  1.
         -5    1    4    4    0  502  0.77717839491E+02 -0.68957823305E+01  0.57057507716E+02  0.96774291916E+02  0.47000000000E+01 0.  1.
          5    1    5    5  503    0 -0.53878228807E+02  0.56802472878E+02  0.18652661011E+03  0.20234537490E+03  0.47000000000E+01 0. -1.
         -5    1    5    5    0  503  0.94067816793E+01 -0.54772304951E+02  0.15955324473E+03  0.16902017878E+03  0.47000000000E+01 0. -1.
<mgrwt>
<rscale>  0 0.27728144E+03</rscale>
<asrwt>0</asrwt>
<pdfrwt beam="1">  1        2 0.84355824E-01 0.27728144E+03</pdfrwt>
<pdfrwt beam="2">  1       -2 0.53931166E-02 0.27728144E+03</pdfrwt>
<totfact> 0.97235295E+03</totfact>
</mgrwt>
</event>
<event>
 9    1  0.7957670E-001  0.2806434E+03  0.7818608E-02  0.1095338E+00
         -2   -1    0    0    0  501 -0.00000000000E+00  0.00000000000E+00  0.60497311467E+01  0.60497311467E+01  0.00000000000E+00 0. -1.
          2   -1    0    0  501    0  0.00000000000E+00 -0.00000000000E+00 -0.32547198803E+04  0.32547198803E+04  0.00000000000E+00 0. -1.
         35    2    1    2    0    0  0.00000000000E+00  0.00000000000E+00 -0.32486701492E+04  0.32607696115E+04  0.28064340529E+03 0.  0.
         25    2    3    3    0    0  0.51366938558E+02  0.25694783349E+02 -0.15343881622E+04  0.15408751951E+04  0.12903701109E+03 0.  0.
         25    2    3    3    0    0 -0.51366938558E+02 -0.25694783349E+02 -0.17142819869E+04  0.17198944164E+04  0.12639338751E+03 0.  0.
          5    1    4    4  502    0  0.39271753779E+02  0.72058613286E+02 -0.12258855095E+04  0.12286383059E+04  0.47000000000E+01 0.  1.
         -5    1    4    4    0  502  0.12095184779E+02 -0.46363829937E+02 -0.30850265278E+03  0.31223688923E+03  0.47000000000E+01 0.  1.
          5    1    5    5  503    0  0.88784721279E+01  0.22252488881E+02 -0.11614411360E+04  0.11616977245E+04  0.47000000000E+01 0.  1.
         -5    1    5    5    0  503 -0.60245410686E+02 -0.47947272230E+02 -0.55284085090E+03  0.55819669190E+03  0.47000000000E+01 0.  1.
<mgrwt>
<rscale>  0 0.28064341E+03</rscale>
<asrwt>0</asrwt>
<pdfrwt beam="1">  1        2 0.50072478E+00 0.28064341E+03</pdfrwt>
<pdfrwt beam="2">  1       -2 0.93073039E-03 0.28064341E+03</pdfrwt>
<totfact> 0.34489018E+03</totfact>
</mgrwt>
</event>
<event>
 9    1  0.7957670E-001  0.2689134E+03  0.7818608E-02  0.1101903E+00
         -2   -1    0    0    0  501 -0.00000000000E+00  0.00000000000E+00  0.19879667870E+02  0.19879667870E+02  0.00000000000E+00 0. -1.
          2   -1    0    0  501    0  0.00000000000E+00 -0.00000000000E+00 -0.90940160928E+03  0.90940160928E+03  0.00000000000E+00 0. -1.
         35    2    1    2    0    0  0.00000000000E+00 -0.17763568394E-14 -0.88952194141E+03  0.92928127715E+03  0.26891338347E+03 0.  0.
         25    2    3    3    0    0  0.14316076792E+02  0.96786487960E+01 -0.61470662967E+03  0.62721905735E+03  0.12345395517E+03 0.  0.
         25    2    3    3    0    0 -0.14316076792E+02 -0.96786487960E+01 -0.27481531174E+03  0.30206221980E+03  0.12417529048E+03 0.  0.
          5    1    4    4  502    0 -0.35711287041E+02  0.48302160109E+02 -0.25954869628E+03  0.26645076549E+03  0.47000000000E+01 0.  1.
         -5    1    4    4    0  502  0.50027363832E+02 -0.38623511313E+02 -0.35515793340E+03  0.36076829186E+03  0.47000000000E+01 0.  1.
          5    1    5    5  503    0  0.25522698867E+02 -0.16508936260E+02 -0.74888168600E+01  0.31656366056E+02  0.47000000000E+01 0. -1.
         -5    1    5    5    0  503 -0.39838775659E+02  0.68302874641E+01 -0.26732649488E+03  0.27040585374E+03  0.47000000000E+01 0. -1.
<mgrwt>
<rscale>  0 0.26891338E+03</rscale>
<asrwt>0</asrwt>
<pdfrwt beam="1">  1        2 0.13990793E+00 0.26891338E+03</pdfrwt>
<pdfrwt beam="2">  1       -2 0.30584106E-02 0.26891338E+03</pdfrwt>
<totfact> 0.12278295E+04</totfact>
</mgrwt>
</event>
<event>
 9    1  0.7957670E-001  0.2746058E+03  0.7818608E-02  0.1098672E+00
         -2   -1    0    0    0  501 -0.00000000000E+00  0.00000000000E+00  0.28765952431E+03  0.28765952431E+03  0.00000000000E+00 0. -1.
          2   -1    0    0  501    0  0.00000000000E+00 -0.00000000000E+00 -0.65536099013E+02  0.65536099013E+02  0.00000000000E+00 0. -1.
         35    2    1    2    0    0 -0.71054273576E-14  0.00000000000E+00  0.22212342530E+03  0.35319562333E+03  0.27460577610E+03 0.  0.
         25    2    3    3    0    0 -0.79889974215E+01  0.41604385156E+02  0.63860157149E+02  0.14657236919E+03  0.12494234988E+03 0.  0.
         25    2    3    3    0    0  0.79889974215E+01 -0.41604385156E+02  0.15826326815E+03  0.20662325414E+03  0.12590138268E+03 0.  0.
          5    1    4    4  502    0 -0.58795446446E+02  0.42158568468E+02  0.11403748396E+02  0.73391994765E+02  0.47000000000E+01 0. -1.
         -5    1    4    4    0  502  0.50806449025E+02 -0.55418331244E+00  0.52456408752E+02  0.73180374424E+02  0.47000000000E+01 0. -1.
          5    1    5    5  503    0 -0.27752166766E+02 -0.35011889807E+02  0.77768683829E+00  0.44930056587E+02  0.47000000000E+01 0. -1.
         -5    1    5    5    0  503  0.35741164188E+02 -0.65924953487E+01  0.15748558132E+03  0.16169319755E+03  0.47000000000E+01 0. -1.
<mgrwt>
<rscale>  0 0.27460578E+03</rscale>
<asrwt>0</asrwt>
<pdfrwt beam="1">  1        2 0.10082477E-01 0.27460578E+03</pdfrwt>
<pdfrwt beam="2">  1       -2 0.44255311E-01 0.27460578E+03</pdfrwt>
<totfact> 0.30915721E+03</totfact>
</mgrwt>
</event>
<event>
 9    1  0.7957670E-001  0.2786545E+03  0.7818608E-02  0.1096426E+00
          2   -1    0    0  501    0  0.00000000000E+00  0.00000000000E+00  0.74594489881E+03  0.74594489881E+03  0.00000000000E+00 0.  1.
         -2   -1    0    0    0  501 -0.00000000000E+00 -0.00000000000E+00 -0.26023473305E+02  0.26023473305E+02  0.00000000000E+00 0.  1.
         35    2    1    2    0    0 -0.71054273576E-14  0.00000000000E+00  0.71992142551E+03  0.77196837212E+03  0.27865446102E+03 0.  0.
         25    2    3    3    0    0 -0.30829775467E+01  0.11503852866E+02  0.19289315868E+03  0.23025676029E+03  0.12517412518E+03 0.  0.
         25    2    3    3    0    0  0.30829775467E+01 -0.11503852866E+02  0.52702826683E+03  0.54171161183E+03  0.12470297898E+03 0.  0.
          5    1    4    4  502    0  0.36558767672E+02  0.33154250462E+02  0.17425169922E+03  0.18116702928E+03  0.47000000000E+01 0.  1.
         -5    1    4    4    0  502 -0.39641745219E+02 -0.21650397597E+02  0.18641459459E+02  0.49089731012E+02  0.47000000000E+01 0.  1.
          5    1    5    5  503    0 -0.24805619159E+02  0.49008429688E+02  0.17771716402E+03  0.18607155965E+03  0.47000000000E+01 0. -1.
         -5    1    5    5    0  503  0.27888596706E+02 -0.60512282554E+02  0.34931110281E+03  0.35564005218E+03  0.47000000000E+01 0. -1.
<mgrwt>
<rscale>  0 0.27865446E+03</rscale>
<asrwt>0</asrwt>
<pdfrwt beam="1">  1        2 0.11476074E+00 0.27865446E+03</pdfrwt>
<pdfrwt beam="2">  1       -2 0.40036119E-02 0.27865446E+03</pdfrwt>
<totfact> 0.10607406E+04</totfact>
</mgrwt>
</event>
<event>
 9    1  0.7957670E-001  0.2776744E+03  0.7818608E-02  0.1096966E+00
          1   -1    0    0  501    0  0.00000000000E+00  0.00000000000E+00  0.43167951149E+02  0.43167951149E+02  0.00000000000E+00 0.  1.
         -1   -1    0    0    0  501 -0.00000000000E+00 -0.00000000000E+00 -0.44652965869E+03  0.44652965869E+03  0.00000000000E+00 0.  1.
         35    2    1    2    0    0  0.71054273576E-14 -0.71054273576E-14 -0.40336170754E+03  0.48969760984E+03  0.27767441721E+03 0.  0.
         25    2    3    3    0    0 -0.33048220503E+02  0.37009565579E+02 -0.17928585230E+03  0.22862581823E+03  0.13290769391E+03 0.  0.
         25    2    3    3    0    0  0.33048220503E+02 -0.37009565579E+02 -0.22407585524E+03  0.26107179161E+03  0.12444516323E+03 0.  0.
          5    1    4    4  502    0 -0.89806394693E+01 -0.43299528954E+02 -0.11367155711E+03  0.12206069797E+03  0.47000000000E+01 0.  1.
         -5    1    4    4    0  502 -0.24067581034E+02  0.80309094534E+02 -0.65614295194E+02  0.10656512026E+03  0.47000000000E+01 0.  1.
          5    1    5    5  503    0  0.64368830988E+02 -0.10165223251E+02 -0.20541163137E+03  0.21555209688E+03  0.47000000000E+01 0. -1.
         -5    1    5    5    0  503 -0.31320610485E+02 -0.26844342328E+02 -0.18664223868E+02  0.45519694735E+02  0.47000000000E+01 0. -1.
<mgrwt>
<rscale>  0 0.27767442E+03</rscale>
<asrwt>0</asrwt>
<pdfrwt beam="1">  1        1 0.66412227E-02 0.27767442E+03</pdfrwt>
<pdfrwt beam="2">  1       -1 0.68696876E-01 0.27767442E+03</pdfrwt>
<totfact> 0.24949853E+03</totfact>
</mgrwt>
</event>
<event>
 9    1  0.7957670E-001  0.2741259E+03  0.7818608E-02  0.1098941E+00
         -1   -1    0    0    0  501 -0.00000000000E+00  0.00000000000E+00  0.29781278725E+02  0.29781278725E+02  0.00000000000E+00 0. -1.
          1   -1    0    0  501    0  0.00000000000E+00 -0.00000000000E+00 -0.63080739770E+03  0.63080739770E+03  0.00000000000E+00 0. -1.
         35    2    1    2    0    0  0.00000000000E+00 -0.71054273576E-14 -0.60102611897E+03  0.66058867642E+03  0.27412589029E+03 0.  0.
         25    2    3    3    0    0  0.24757184991E+02  0.35955062654E+02 -0.21975161960E+03  0.25678581852E+03  0.12546910989E+03 0.  0.
         25    2    3    3    0    0 -0.24757184991E+02 -0.35955062654E+02 -0.38127449937E+03  0.40380285790E+03  0.12562173155E+03 0.  0.
          5    1    4    4  502    0 -0.16739054623E+02 -0.50973140226E+01 -0.19043868145E+03  0.19129861461E+03  0.47000000000E+01 0.  1.
         -5    1    4    4    0  502  0.41496239615E+02  0.41052376676E+02 -0.29312938152E+02  0.65487203911E+02  0.47000000000E+01 0.  1.
          5    1    5    5  503    0 -0.29841568603E+02  0.32196812496E+02 -0.26655837088E+03  0.27018994992E+03  0.47000000000E+01 0. -1.
         -5    1    5    5    0  503  0.50843836115E+01 -0.68151875149E+02 -0.11471612849E+03  0.13361290798E+03  0.47000000000E+01 0. -1.
<mgrwt>
<rscale>  0 0.27412589E+03</rscale>
<asrwt>0</asrwt>
<pdfrwt beam="1">  1        1 0.97047293E-01 0.27412589E+03</pdfrwt>
<pdfrwt beam="2">  1       -1 0.45817352E-02 0.27412589E+03</pdfrwt>
<totfact> 0.65536453E+03</totfact>
</mgrwt>
</event>
<event>
 9    1  0.7957670E-001  0.2729974E+03  0.7818608E-02  0.1099576E+00
          1   -1    0    0  501    0  0.00000000000E+00  0.00000000000E+00  0.10404705144E+04  0.10404705144E+04  0.00000000000E+00 0. -1.
         -1   -1    0    0    0  501 -0.00000000000E+00 -0.00000000000E+00 -0.17907178381E+02  0.17907178381E+02  0.00000000000E+00 0. -1.
         35    2    1    2    0    0 -0.71054273576E-14  0.71054273576E-14  0.10225633360E+04  0.10583776928E+04  0.27299737069E+03 0.  0.
         25    2    3    3    0    0  0.47229332875E+02 -0.13333902728E+02  0.62316412356E+03  0.63743421178E+03  0.12482165921E+03 0.  0.
         25    2    3    3    0    0 -0.47229332875E+02  0.13333902728E+02  0.39939921244E+03  0.42094348098E+03  0.12355274355E+03 0.  0.
          5    1    4    4  502    0  0.22595661591E+02  0.45466489186E+02  0.12224429006E+03  0.13245196116E+03  0.47000000000E+01 0. -1.
         -5    1    4    4    0  502  0.24633671284E+02 -0.58800391914E+02  0.50091983350E+03  0.50498225063E+03  0.47000000000E+01 0. -1.
          5    1    5    5  503    0 -0.45187922834E+02  0.53367625024E+02  0.12261715487E+03  0.14123423253E+03  0.47000000000E+01 0. -1.
         -5    1    5    5    0  503 -0.20414100415E+01 -0.40033722295E+02  0.27678205757E+03  0.27970924845E+03  0.47000000000E+01 0. -1.
<mgrwt>
<rscale>  0 0.27299737E+03</rscale>
<asrwt>0</asrwt>
<pdfrwt beam="1">  1        1 0.16007234E+00 0.27299737E+03</pdfrwt>
<pdfrwt beam="2">  1       -1 0.27549513E-02 0.27299737E+03</pdfrwt>
<totfact> 0.63776153E+03</totfact>
</mgrwt>
</event>
<event>
 9    1  0.7957670E-001  0.2760916E+03  0.7818608E-02  0.1097843E+00
         -2   -1    0    0    0  501 -0.00000000000E+00  0.00000000000E+00  0.21192944950E+02  0.21192944950E+02  0.00000000000E+00 0.  1.
          2   -1    0    0  501    0  0.00000000000E+00 -0.00000000000E+00 -0.89919741109E+03  0.89919741109E+03  0.00000000000E+00 0.  1.
         35    2    1    2    0    0  0.00000000000E+00 -0.35527136788E-14 -0.87800446614E+03  0.92039035604E+03  0.27609158793E+03 0.  0.
         25    2    3    3    0    0 -0.30147567558E+02  0.23407386523E+02 -0.59146430606E+03  0.60566177380E+03  0.12465703883E+03 0.  0.
         25    2    3    3    0    0  0.30147567558E+02 -0.23407386523E+02 -0.28654016008E+03  0.31472858224E+03  0.12446700593E+03 0.  0.
          5    1    4    4  502    0  0.28021841631E+02  0.16012991045E+02 -0.46547150261E+03  0.46661274011E+03  0.47000000000E+01 0.  1.
         -5    1    4    4    0  502 -0.58169409190E+02  0.73943954775E+01 -0.12599280345E+03  0.13904903369E+03  0.47000000000E+01 0.  1.
          5    1    5    5  503    0  0.78823178411E+02 -0.16708771967E+02 -0.18422590083E+03  0.20113067656E+03  0.47000000000E+01 0.  1.
         -5    1    5    5    0  503 -0.48675610853E+02 -0.66986145556E+01 -0.10231425925E+03  0.11359790568E+03  0.47000000000E+01 0.  1.
<mgrwt>
<rscale>  0 0.27609159E+03</rscale>
<asrwt>0</asrwt>
<pdfrwt beam="1">  1        2 0.13833804E+00 0.27609159E+03</pdfrwt>
<pdfrwt beam="2">  1       -2 0.32604536E-02 0.27609159E+03</pdfrwt>
<totfact> 0.11341964E+04</totfact>
</mgrwt>
</event>
<event>
 9    1  0.7957670E-001  0.2771330E+03  0.7818608E-02  0.1097265E+00
         -2   -1    0    0    0  501 -0.00000000000E+00  0.00000000000E+00  0.27501515892E+02  0.27501515892E+02  0.00000000000E+00 0.  1.
          2   -1    0    0  501    0  0.00000000000E+00 -0.00000000000E+00 -0.69816765214E+03  0.69816765214E+03  0.00000000000E+00 0.  1.
         35    2    1    2    0    0  0.71054273576E-14  0.71054273576E-14 -0.67066613625E+03  0.72566916803E+03  0.27713295567E+03 0.  0.
         25    2    3    3    0    0 -0.38875259952E+02 -0.65048380596E+01 -0.45368068946E+03  0.47219421983E+03  0.12485036843E+03 0.  0.
         25    2    3    3    0    0  0.38875259952E+02  0.65048380596E+01 -0.21698544679E+03  0.25347494820E+03  0.12495305716E+03 0.  0.
          5    1    4    4  502    0 -0.17720236157E+02 -0.64560161290E+02 -0.19617642110E+03  0.20733861046E+03  0.47000000000E+01 0. -1.
         -5    1    4    4    0  502 -0.21155023795E+02  0.58055323231E+02 -0.25750426836E+03  0.26485560937E+03  0.47000000000E+01 0. -1.
          5    1    5    5  503    0  0.30422511956E+02  0.21351480676E+02 -0.22901456787E+03  0.23205856429E+03  0.47000000000E+01 0. -1.
         -5    1    5    5    0  503  0.84527479956E+01 -0.14846642617E+02  0.12029121088E+02  0.21416383911E+02  0.47000000000E+01 0. -1.
<mgrwt>
<rscale>  0 0.27713296E+03</rscale>
<asrwt>0</asrwt>
<pdfrwt beam="1">  1        2 0.10741041E+00 0.27713296E+03</pdfrwt>
<pdfrwt beam="2">  1       -2 0.42310024E-02 0.27713296E+03</pdfrwt>
<totfact> 0.10583748E+04</totfact>
</mgrwt>
</event>
<event>
 9    1  0.7957670E-001  0.2731903E+03  0.7818608E-02  0.1099467E+00
          2   -1    0    0  501    0  0.00000000000E+00  0.00000000000E+00  0.11890371594E+03  0.11890371594E+03  0.00000000000E+00 0. -1.
         -2   -1    0    0    0  501 -0.00000000000E+00 -0.00000000000E+00 -0.15691887537E+03  0.15691887537E+03  0.00000000000E+00 0. -1.
         35    2    1    2    0    0 -0.71054273576E-14  0.00000000000E+00 -0.38015159434E+02  0.27582259131E+03  0.27319031742E+03 0.  0.
         25    2    3    3    0    0  0.38794670783E+02  0.33099760504E+02  0.16187461912E+01  0.13533577445E+03  0.12534963455E+03 0.  0.
         25    2    3    3    0    0 -0.38794670783E+02 -0.33099760504E+02 -0.39633905625E+02  0.14048681686E+03  0.12476008420E+03 0.  0.
          5    1    4    4  502    0 -0.38827089410E+02  0.30405312206E+02 -0.21733144259E+02  0.54096630596E+02  0.47000000000E+01 0. -1.
         -5    1    4    4    0  502  0.77621760194E+02  0.26944482985E+01  0.23351890450E+02  0.81239143858E+02  0.47000000000E+01 0. -1.
          5    1    5    5  503    0  0.43307878919E+02 -0.28973036849E+02 -0.18324979567E+02  0.55433781369E+02  0.47000000000E+01 0. -1.
         -5    1    5    5    0  503 -0.82102549702E+02 -0.41267236552E+01 -0.21308926059E+02  0.85053035487E+02  0.47000000000E+01 0. -1.
<mgrwt>
<rscale>  0 0.27319032E+03</rscale>
<asrwt>0</asrwt>
<pdfrwt beam="1">  1        2 0.18292879E-01 0.27319032E+03</pdfrwt>
<pdfrwt beam="2">  1       -2 0.24141365E-01 0.27319032E+03</pdfrwt>
<totfact> 0.46283681E+03</totfact>
</mgrwt>
</event>
<event>
 9    1  0.7957670E-001  0.2755742E+03  0.7818608E-02  0.1098131E+00
          1   -1    0    0  501    0  0.00000000000E+00  0.00000000000E+00  0.17142217628E+03  0.17142217628E+03  0.00000000000E+00 0. -1.
         -1   -1    0    0    0  501 -0.00000000000E+00 -0.00000000000E+00 -0.11075162440E+03  0.11075162440E+03  0.00000000000E+00 0. -1.
         35    2    1    2    0    0  0.17763568394E-14  0.00000000000E+00  0.60670551880E+02  0.28217380069E+03  0.27557419678E+03 0.  0.
         25    2    3    3    0    0 -0.30622425087E+00 -0.19130291729E+02 -0.24890055747E+02  0.12949275811E+03  0.12562960516E+03 0.  0.
         25    2    3    3    0    0  0.30622425087E+00  0.19130291729E+02  0.85560607627E+02  0.15268104258E+03  0.12499928540E+03 0.  0.
          5    1    4    4  502    0  0.41483387034E+02  0.34311504987E+02 -0.29067657587E+02  0.61360976947E+02  0.47000000000E+01 0. -1.
         -5    1    4    4    0  502 -0.41789611285E+02 -0.53441796717E+02  0.41776018402E+01  0.68131781166E+02  0.47000000000E+01 0. -1.
          5    1    5    5  503    0  0.98197386679E+01  0.64757604932E+02  0.82905401146E+02  0.10576091056E+03  0.47000000000E+01 0.  1.
         -5    1    5    5    0  503 -0.95135144170E+01 -0.45627313203E+02  0.26552064816E+01  0.46920132013E+02  0.47000000000E+01 0.  1.
<mgrwt>
<rscale>  0 0.27557420E+03</rscale>
<asrwt>0</asrwt>
<pdfrwt beam="1">  1        1 0.26372643E-01 0.27557420E+03</pdfrwt>
<pdfrwt beam="2">  1       -1 0.17038711E-01 0.27557420E+03</pdfrwt>
<totfact> 0.46456497E+03</totfact>
</mgrwt>
</event>
<event>
 9    1  0.7957670E-001  0.2737025E+03  0.7818608E-02  0.1099179E+00
          2   -1    0    0  501    0  0.00000000000E+00  0.00000000000E+00  0.91372898276E+03  0.91372898276E+03  0.00000000000E+00 0.  1.
         -2   -1    0    0    0  501 -0.00000000000E+00 -0.00000000000E+00 -0.20496521114E+02  0.20496521114E+02  0.00000000000E+00 0.  1.
         35    2    1    2    0    0 -0.35527136788E-14  0.00000000000E+00  0.89323246164E+03  0.93422550387E+03  0.27370250556E+03 0.  0.
         25    2    3    3    0    0 -0.10365456296E+02 -0.43463885906E+01  0.64176798508E+03  0.65357947743E+03  0.12318138199E+03 0.  0.
         25    2    3    3    0    0  0.10365456296E+02  0.43463885906E+01  0.25146447657E+03  0.28064602644E+03  0.12410268089E+03 0.  0.
          5    1    4    4  502    0 -0.48016545539E+02  0.36330895908E+02  0.44569409174E+03  0.44976753557E+03  0.47000000000E+01 0. -1.
         -5    1    4    4    0  502  0.37651089243E+02 -0.40677284498E+02  0.19607389334E+03  0.20381194186E+03  0.47000000000E+01 0. -1.
          5    1    5    5  503    0  0.39379490569E+02 -0.44203646169E+02  0.17904750667E+03  0.18863935500E+03  0.47000000000E+01 0. -1.
         -5    1    5    5    0  503 -0.29014034273E+02  0.48550034759E+02  0.72416969896E+02  0.92006671437E+02  0.47000000000E+01 0. -1.
<mgrwt>
<rscale>  0 0.27370251E+03</rscale>
<asrwt>0</asrwt>
<pdfrwt beam="1">  1        2 0.14057366E+00 0.27370251E+03</pdfrwt>
<pdfrwt beam="2">  1       -2 0.31533116E-02 0.27370251E+03</pdfrwt>
<totfact> 0.11664254E+04</totfact>
</mgrwt>
</event>
<event>
 9    1  0.7957670E-001  0.2734114E+03  0.7818608E-02  0.1099343E+00
          4   -1    0    0  501    0  0.00000000000E+00  0.00000000000E+00  0.61186588832E+03  0.61186588832E+03  0.00000000000E+00 0.  1.
         -4   -1    0    0    0  501 -0.00000000000E+00 -0.00000000000E+00 -0.30543384127E+02  0.30543384127E+02  0.00000000000E+00 0.  1.
         35    2    1    2    0    0 -0.53290705182E-14  0.00000000000E+00  0.58132250420E+03  0.64240927245E+03  0.27341144717E+03 0.  0.
         25    2    3    3    0    0 -0.10321776879E+02  0.18223049266E+02  0.41225351231E+03  0.43114547514E+03  0.12447828613E+03 0.  0.
         25    2    3    3    0    0  0.10321776879E+02 -0.18223049266E+02  0.16906899189E+03  0.21126379731E+03  0.12493778225E+03 0.  0.
          5    1    4    4  502    0 -0.34929046482E+01 -0.23170392313E+02  0.37215475829E+03  0.37292133431E+03  0.47000000000E+01 0. -1.
         -5    1    4    4    0  502 -0.68288722308E+01  0.41393441579E+02  0.40098754018E+02  0.58224140831E+02  0.47000000000E+01 0. -1.
          5    1    5    5  503    0 -0.27803747974E+02  0.27135005232E+02  0.13948260514E+03  0.14486836800E+03  0.47000000000E+01 0. -1.
         -5    1    5    5    0  503  0.38125524853E+02 -0.45358054497E+02  0.29586386751E+02  0.66395429316E+02  0.47000000000E+01 0. -1.
<mgrwt>
<rscale>  0 0.27341145E+03</rscale>
<asrwt>0</asrwt>
<pdfrwt beam="1">  1        4 0.94133204E-01 0.27341145E+03</pdfrwt>
<pdfrwt beam="2">  1       -4 0.46989826E-02 0.27341145E+03</pdfrwt>
<totfact> 0.48542098E+02</totfact>
</mgrwt>
</event>
<event>
 9    1  0.7957670E-001  0.2589765E+03  0.7818608E-02  0.1107760E+00
          2   -1    0    0  501    0  0.00000000000E+00  0.00000000000E+00  0.12280290381E+04  0.12280290381E+04  0.00000000000E+00 0. -1.
         -2   -1    0    0    0  501 -0.00000000000E+00 -0.00000000000E+00 -0.13653755501E+02  0.13653755501E+02  0.00000000000E+00 0. -1.
         35    2    1    2    0    0  0.00000000000E+00  0.00000000000E+00  0.12143752826E+04  0.12416827936E+04  0.25897651040E+03 0.  0.
         25    2    3    3    0    0  0.81031985413E+01 -0.88876541678E+01  0.44466535413E+03  0.46197417482E+03  0.12469245691E+03 0.  0.
         25    2    3    3    0    0 -0.81031985413E+01  0.88876541678E+01  0.76970992848E+03  0.77970861880E+03  0.12388504350E+03 0.  0.
          5    1    4    4  502    0  0.45911988221E+02 -0.32973673603E+02  0.37316947009E+03  0.37745558311E+03  0.47000000000E+01 0. -1.
         -5    1    4    4    0  502 -0.37808789680E+02  0.24086019435E+02  0.71495884045E+02  0.84518591710E+02  0.47000000000E+01 0. -1.
          5    1    5    5  503    0 -0.59205566843E+02  0.55068795484E+00  0.23166513826E+03  0.23915774854E+03  0.47000000000E+01 0.  1.
         -5    1    5    5    0  503  0.51102368302E+02  0.83369662129E+01  0.53804479022E+03  0.54055087026E+03  0.47000000000E+01 0.  1.
<mgrwt>
<rscale>  0 0.25897651E+03</rscale>
<asrwt>0</asrwt>
<pdfrwt beam="1">  1        2 0.18892746E+00 0.25897651E+03</pdfrwt>
<pdfrwt beam="2">  1       -2 0.21005787E-02 0.25897651E+03</pdfrwt>
<totfact> 0.13800813E+04</totfact>
</mgrwt>
</event>
<event>
 9    1  0.7957670E-001  0.2773321E+03  0.7818608E-02  0.1097155E+00
         -4   -1    0    0    0  501 -0.00000000000E+00  0.00000000000E+00  0.34263975136E+03  0.34263975136E+03  0.00000000000E+00 0. -1.
          4   -1    0    0  501    0  0.00000000000E+00 -0.00000000000E+00 -0.56118045902E+02  0.56118045902E+02  0.00000000000E+00 0. -1.
         35    2    1    2    0    0 -0.71054273576E-14 -0.71054273576E-14  0.28652170546E+03  0.39875779726E+03  0.27733209908E+03 0.  0.
         25    2    3    3    0    0 -0.20929449047E+02 -0.55216766271E+02  0.13943168168E+03  0.19685430733E+03  0.12579145975E+03 0.  0.
         25    2    3    3    0    0  0.20929449047E+02  0.55216766271E+02  0.14709002378E+03  0.20190348993E+03  0.12507042430E+03 0.  0.
          5    1    4    4  502    0  0.14275003435E+02  0.32966944289E+02  0.71028979705E+02  0.79735820663E+02  0.47000000000E+01 0.  1.
         -5    1    4    4    0  502 -0.35204452482E+02 -0.88183710560E+02  0.68402701971E+02  0.11711848667E+03  0.47000000000E+01 0.  1.
          5    1    5    5  503    0 -0.33427013258E+02  0.65260261594E+02  0.46271501655E+02  0.86829769228E+02  0.47000000000E+01 0.  1.
         -5    1    5    5    0  503  0.54356462304E+02 -0.10043495323E+02  0.10081852213E+03  0.11507372070E+03  0.47000000000E+01 0.  1.
<mgrwt>
<rscale>  0 0.27733210E+03</rscale>
<asrwt>0</asrwt>
<pdfrwt beam="1">  1        4 0.86335457E-02 0.27733210E+03</pdfrwt>
<pdfrwt beam="2">  1       -4 0.52713807E-01 0.27733210E+03</pdfrwt>
<totfact> 0.63449410E+02</totfact>
</mgrwt>
</event>
<event>
 9    1  0.7957670E-001  0.2735757E+03  0.7818608E-02  0.1099250E+00
          1   -1    0    0  501    0  0.00000000000E+00  0.00000000000E+00  0.73223821455E+02  0.73223821455E+02  0.00000000000E+00 0.  1.
         -1   -1    0    0    0  501 -0.00000000000E+00 -0.00000000000E+00 -0.25553047043E+03  0.25553047043E+03  0.00000000000E+00 0.  1.
         35    2    1    2    0    0  0.00000000000E+00 -0.71054273576E-14 -0.18230664898E+03  0.32875429189E+03  0.27357571196E+03 0.  0.
         25    2    3    3    0    0 -0.78239323753E+01 -0.45643308374E+02 -0.10359137525E+03  0.17407646399E+03  0.13201104791E+03 0.  0.
         25    2    3    3    0    0  0.78239323753E+01  0.45643308374E+02 -0.78715273726E+02  0.15467782790E+03  0.12483833790E+03 0.  0.
          5    1    4    4  502    0  0.10567817270E+02  0.45422773741E+02 -0.35180232998E+02  0.58605852353E+02  0.47000000000E+01 0. -1.
         -5    1    4    4    0  502 -0.18391749645E+02 -0.91066082116E+02 -0.68411142254E+02  0.11547061164E+03  0.47000000000E+01 0. -1.
          5    1    5    5  503    0  0.20401107244E+02  0.76587398378E+02 -0.89139433821E+02  0.11937237297E+03  0.47000000000E+01 0. -1.
         -5    1    5    5    0  503 -0.12577174869E+02 -0.30944090004E+02  0.10424160096E+02  0.35305454926E+02  0.47000000000E+01 0. -1.
<mgrwt>
<rscale>  0 0.27357571E+03</rscale>
<asrwt>0</asrwt>
<pdfrwt beam="1">  1        1 0.11265203E-01 0.27357571E+03</pdfrwt>
<pdfrwt beam="2">  1       -1 0.39312381E-01 0.27357571E+03</pdfrwt>
<totfact> 0.34616213E+03</totfact>
</mgrwt>
</event>
<event>
 9    1  0.7957670E-001  0.2759353E+03  0.7818608E-02  0.1097930E+00
         -2   -1    0    0    0  501 -0.00000000000E+00  0.00000000000E+00  0.18179108703E+02  0.18179108703E+02  0.00000000000E+00 0.  1.
          2   -1    0    0  501    0  0.00000000000E+00 -0.00000000000E+00 -0.10470848493E+04  0.10470848493E+04  0.00000000000E+00 0.  1.
         35    2    1    2    0    0 -0.35527136788E-14 -0.17763568394E-14 -0.10289057406E+04  0.10652639580E+04  0.27593527717E+03 0.  0.
         25    2    3    3    0    0  0.25925128574E+02 -0.58095266336E+01 -0.72663454266E+03  0.73772788160E+03  0.12465474649E+03 0.  0.
         25    2    3    3    0    0 -0.25925128574E+02  0.58095266336E+01 -0.30227119797E+03  0.32753607642E+03  0.12331318400E+03 0.  0.
          5    1    4    4  502    0  0.52131677859E+02  0.11502544478E+02 -0.67489210421E+03  0.67701658967E+03  0.47000000000E+01 0. -1.
         -5    1    4    4    0  502 -0.26206549285E+02 -0.17312071112E+02 -0.51742438448E+02  0.60711291932E+02  0.47000000000E+01 0. -1.
          5    1    5    5  503    0  0.11025117727E+02 -0.86453876860E+00  0.83409013543E+01  0.14627415479E+02  0.47000000000E+01 0. -1.
         -5    1    5    5    0  503 -0.36950246301E+02  0.66740654022E+01 -0.31061209932E+03  0.31290866095E+03  0.47000000000E+01 0. -1.
<mgrwt>
<rscale>  0 0.27593528E+03</rscale>
<asrwt>0</asrwt>
<pdfrwt beam="1">  1        2 0.16108998E+00 0.27593528E+03</pdfrwt>
<pdfrwt beam="2">  1       -2 0.27967859E-02 0.27593528E+03</pdfrwt>
<totfact> 0.11533062E+04</totfact>
</mgrwt>
</event>
<event>
 9    1  0.7957670E-001  0.2712035E+03  0.7818608E-02  0.1100593E+00
         -2   -1    0    0    0  501 -0.00000000000E+00  0.00000000000E+00  0.84820153355E+03  0.84820153355E+03  0.00000000000E+00 0.  1.
          2   -1    0    0  501    0  0.00000000000E+00 -0.00000000000E+00 -0.21678619126E+02  0.21678619126E+02  0.00000000000E+00 0.  1.
         35    2    1    2    0    0  0.00000000000E+00  0.00000000000E+00  0.82652291442E+03  0.86988015268E+03  0.27120352496E+03 0.  0.
         25    2    3    3    0    0  0.15534644536E+01 -0.24490149617E+02  0.26239089709E+03  0.29157983494E+03  0.12477033537E+03 0.  0.
         25    2    3    3    0    0 -0.15534644536E+01  0.24490149617E+02  0.56413201733E+03  0.57830031774E+03  0.12483646836E+03 0.  0.
          5    1    4    4  502    0  0.60712075616E+02  0.17018574837E+01  0.14853600257E+03  0.16054247570E+03  0.47000000000E+01 0. -1.
         -5    1    4    4    0  502 -0.59158611162E+02 -0.26192007100E+02  0.11385489452E+03  0.13103735924E+03  0.47000000000E+01 0. -1.
          5    1    5    5  503    0  0.59268332137E+02  0.22325500794E+02  0.34640155628E+03  0.35217508625E+03  0.47000000000E+01 0.  1.
         -5    1    5    5    0  503 -0.60821796590E+02  0.21646488229E+01  0.21773046105E+03  0.22612523149E+03  0.47000000000E+01 0.  1.
<mgrwt>
<rscale>  0 0.27120352E+03</rscale>
<asrwt>0</asrwt>
<pdfrwt beam="1">  1        2 0.33351728E-02 0.27120352E+03</pdfrwt>
<pdfrwt beam="2">  1       -2 0.13049252E+00 0.27120352E+03</pdfrwt>
<totfact> 0.12240585E+03</totfact>
</mgrwt>
</event>
<event>
 9    1  0.7957670E-001  0.2737289E+03  0.7818608E-02  0.1099164E+00
         -4   -1    0    0    0  501 -0.00000000000E+00  0.00000000000E+00  0.16695225668E+03  0.16695225668E+03  0.00000000000E+00 0. -1.
          4   -1    0    0  501    0  0.00000000000E+00 -0.00000000000E+00 -0.11219901685E+03  0.11219901685E+03  0.00000000000E+00 0. -1.
         35    2    1    2    0    0  0.00000000000E+00  0.00000000000E+00  0.54753239828E+02  0.27915127352E+03  0.27372891012E+03 0.  0.
         25    2    3    3    0    0 -0.17888747618E+02 -0.22449664092E+02 -0.25155186141E+02  0.12863962665E+03  0.12284695945E+03 0.  0.
         25    2    3    3    0    0  0.17888747618E+02  0.22449664092E+02  0.79908425969E+02  0.15051164687E+03  0.12427551888E+03 0.  0.
          5    1    4    4  502    0  0.36077565358E+02  0.32600888506E+02 -0.76500265147E+01  0.49447159263E+02  0.47000000000E+01 0. -1.
         -5    1    4    4    0  502 -0.53966312975E+02 -0.55050552598E+02 -0.17505159626E+02  0.79192467388E+02  0.47000000000E+01 0. -1.
          5    1    5    5  503    0 -0.44951866379E+02 -0.74456934661E+01  0.18665962500E+01  0.45844114384E+02  0.47000000000E+01 0. -1.
         -5    1    5    5    0  503  0.62840613997E+02  0.29895357558E+02  0.78041829719E+02  0.10466753249E+03  0.47000000000E+01 0. -1.
<mgrwt>
<rscale>  0 0.27372891E+03</rscale>
<asrwt>0</asrwt>
<pdfrwt beam="1">  1        4 0.17261387E-01 0.27372891E+03</pdfrwt>
<pdfrwt beam="2">  1       -4 0.25684963E-01 0.27372891E+03</pdfrwt>
<totfact> 0.78493168E+02</totfact>
</mgrwt>
</event>
<event>
 9    1  0.7957670E-001  0.2558967E+03  0.7818608E-02  0.1109634E+00
          1   -1    0    0  501    0  0.00000000000E+00  0.00000000000E+00  0.75316827797E+03  0.75316827797E+03  0.00000000000E+00 0. -1.
         -1   -1    0    0    0  501 -0.00000000000E+00 -0.00000000000E+00 -0.21735881781E+02  0.21735881781E+02  0.00000000000E+00 0. -1.
         35    2    1    2    0    0 -0.17763568394E-14 -0.71054273576E-14  0.73143239619E+03  0.77490415975E+03  0.25589667173E+03 0.  0.
         25    2    3    3    0    0 -0.15145479229E+02  0.30312789984E+02  0.40365992900E+03  0.42262425336E+03  0.12050589392E+03 0.  0.
         25    2    3    3    0    0  0.15145479229E+02 -0.30312789984E+02  0.32777246719E+03  0.35227990639E+03  0.12457163169E+03 0.  0.
          5    1    4    4  502    0 -0.12826495066E+02  0.36041917964E+02  0.29894476291E+02  0.48778156371E+02  0.47000000000E+01 0. -1.
         -5    1    4    4    0  502 -0.23189841630E+01 -0.57291279802E+01  0.37376545271E+03  0.37384609699E+03  0.47000000000E+01 0. -1.
          5    1    5    5  503    0 -0.45306314889E+02 -0.30097299212E+02  0.23637791066E+03  0.24260073420E+03  0.47000000000E+01 0.  1.
         -5    1    5    5    0  503  0.60451794118E+02 -0.21549077182E+00  0.91394556529E+02  0.10967917219E+03  0.47000000000E+01 0.  1.
<mgrwt>
<rscale>  0 0.25589667E+03</rscale>
<asrwt>0</asrwt>
<pdfrwt beam="1">  1        1 0.11587202E+00 0.25589667E+03</pdfrwt>
<pdfrwt beam="2">  1       -1 0.33439824E-02 0.25589667E+03</pdfrwt>
<totfact> 0.80717601E+03</totfact>
</mgrwt>
</event>
<event>
 9    1  0.7957670E-001  0.2752679E+03  0.7818608E-02  0.1098302E+00
          1   -1    0    0  501    0  0.00000000000E+00  0.00000000000E+00  0.16052201478E+04  0.16052201478E+04  0.00000000000E+00 0.  1.
         -1   -1    0    0    0  501 -0.00000000000E+00 -0.00000000000E+00 -0.11800937010E+02  0.11800937010E+02  0.00000000000E+00 0.  1.
         35    2    1    2    0    0  0.00000000000E+00 -0.35527136788E-14  0.15934192108E+04  0.16170210848E+04  0.27526788299E+03 0.  0.
         25    2    3    3    0    0  0.23978276628E+02  0.27076416124E+01  0.11001129756E+04  0.11076200092E+04  0.12645646140E+03 0.  0.
         25    2    3    3    0    0 -0.23978276628E+02 -0.27076416124E+01  0.49330623518E+03  0.50940107560E+03  0.12472419605E+03 0.  0.
          5    1    4    4  502    0  0.39687996021E+02  0.57786257455E+02  0.67319174084E+03  0.67684828323E+03  0.47000000000E+01 0.  1.
         -5    1    4    4    0  502 -0.15709719393E+02 -0.55078615843E+02  0.42692123475E+03  0.43077172596E+03  0.47000000000E+01 0.  1.
          5    1    5    5  503    0 -0.23508021395E+02  0.29300690674E+02  0.46462209225E+03  0.46616192053E+03  0.47000000000E+01 0.  1.
         -5    1    5    5    0  503 -0.47025523242E+00 -0.32008332286E+02  0.28684142937E+02  0.43239155076E+02  0.47000000000E+01 0.  1.
<mgrwt>
<rscale>  0 0.27526788E+03</rscale>
<asrwt>0</asrwt>
<pdfrwt beam="1">  1        1 0.24695677E+00 0.27526788E+03</pdfrwt>
<pdfrwt beam="2">  1       -1 0.18155300E-02 0.27526788E+03</pdfrwt>
<totfact> 0.48179609E+03</totfact>
</mgrwt>
</event>
<event>
 9    1  0.7957670E-001  0.2762556E+03  0.7818608E-02  0.1097752E+00
          1   -1    0    0  501    0  0.00000000000E+00  0.00000000000E+00  0.26967667401E+03  0.26967667401E+03  0.00000000000E+00 0. -1.
         -1   -1    0    0    0  501 -0.00000000000E+00 -0.00000000000E+00 -0.70748757669E+02  0.70748757669E+02  0.00000000000E+00 0. -1.
         35    2    1    2    0    0  0.71054273576E-14 -0.35527136788E-14  0.19892791634E+03  0.34042543168E+03  0.27625560381E+03 0.  0.
         25    2    3    3    0    0  0.54080281915E+02  0.83032339412E+01  0.75026550804E+02  0.15663512357E+03  0.12614260987E+03 0.  0.
         25    2    3    3    0    0 -0.54080281915E+02 -0.83032339412E+01  0.12390136553E+03  0.18379030811E+03  0.12423247719E+03 0.  0.
          5    1    4    4  502    0 -0.24103669671E+02  0.33361766333E+02 -0.51966764438E+01  0.41750326831E+02  0.47000000000E+01 0. -1.
         -5    1    4    4    0  502  0.78183951585E+02 -0.25058532392E+02  0.80223227248E+02  0.11488479674E+03  0.47000000000E+01 0. -1.
          5    1    5    5  503    0 -0.16612306943E+02  0.40590020434E+01  0.13985385946E+03  0.14097388498E+03  0.47000000000E+01 0. -1.
         -5    1    5    5    0  503 -0.37467974972E+02 -0.12362235985E+02 -0.15952493929E+02  0.42816423129E+02  0.47000000000E+01 0. -1.
<mgrwt>
<rscale>  0 0.27625560E+03</rscale>
<asrwt>0</asrwt>
<pdfrwt beam="1">  1        1 0.41488719E-01 0.27625560E+03</pdfrwt>
<pdfrwt beam="2">  1       -1 0.10884424E-01 0.27625560E+03</pdfrwt>
<totfact> 0.53217209E+03</totfact>
</mgrwt>
</event>
<event>
 9    1  0.7957670E-001  0.2757736E+03  0.7818608E-02  0.1098020E+00
          2   -1    0    0  501    0  0.00000000000E+00  0.00000000000E+00  0.66329057369E+03  0.66329057369E+03  0.00000000000E+00 0.  1.
         -2   -1    0    0    0  501 -0.00000000000E+00 -0.00000000000E+00 -0.28664305337E+02  0.28664305337E+02  0.00000000000E+00 0.  1.
         35    2    1    2    0    0  0.71054273576E-14  0.35527136788E-14  0.63462626836E+03  0.69195487903E+03  0.27577355589E+03 0.  0.
         25    2    3    3    0    0 -0.32655554062E+02  0.13963408556E+02  0.49634056239E+03  0.50984386103E+03  0.11102002866E+03 0.  0.
         25    2    3    3    0    0  0.32655554062E+02 -0.13963408556E+02  0.13828570596E+03  0.18211101800E+03  0.11304921235E+03 0.  0.
          5    1    4    4  502    0  0.37911232559E+02  0.15352366261E+02  0.11874851631E+03  0.12568316048E+03  0.47000000000E+01 0.  1.
         -5    1    4    4    0  502 -0.70566786621E+02 -0.13889577050E+01  0.37759204608E+03  0.38416070055E+03  0.47000000000E+01 0.  1.
          5    1    5    5  503    0  0.58647798763E+00 -0.57934785952E+02  0.43096807333E+02  0.72361648558E+02  0.47000000000E+01 0. -1.
         -5    1    5    5    0  503  0.32069076074E+02  0.43971377396E+02  0.95188898630E+02  0.10974936944E+03  0.47000000000E+01 0. -1.
<mgrwt>
<rscale>  0 0.27577356E+03</rscale>
<asrwt>0</asrwt>
<pdfrwt beam="1">  1        2 0.10204469E+00 0.27577356E+03</pdfrwt>
<pdfrwt beam="2">  1       -2 0.44098936E-02 0.27577356E+03</pdfrwt>
<totfact> 0.10572781E+04</totfact>
</mgrwt>
</event>
<event>
 9    1  0.7957670E-001  0.2923654E+03  0.7818608E-02  0.1089121E+00
         -1   -1    0    0    0  501 -0.00000000000E+00  0.00000000000E+00  0.22779953010E+02  0.22779953010E+02  0.00000000000E+00 0.  1.
          1   -1    0    0  501    0  0.00000000000E+00 -0.00000000000E+00 -0.93807836392E+03  0.93807836392E+03  0.00000000000E+00 0.  1.
         35    2    1    2    0    0  0.00000000000E+00  0.14210854715E-13 -0.91529841091E+03  0.96085831693E+03  0.29236539501E+03 0.  0.
         25    2    3    3    0    0 -0.34726964247E+02  0.50151390411E+02 -0.31477103983E+03  0.34445857932E+03  0.12589591474E+03 0.  0.
         25    2    3    3    0    0  0.34726964247E+02 -0.50151390411E+02 -0.60052737109E+03  0.61639973761E+03  0.12487749636E+03 0.  0.
          5    1    4    4  502    0 -0.18420346252E+01 -0.31014484105E+02 -0.20796904903E+02  0.37681461880E+02  0.47000000000E+01 0.  1.
         -5    1    4    4    0  502 -0.32884929622E+02  0.81165874516E+02 -0.29397413492E+03  0.30677711744E+03  0.47000000000E+01 0.  1.
          5    1    5    5  503    0 -0.30596823228E+01 -0.86282573818E+02 -0.37918818950E+03  0.38892135099E+03  0.47000000000E+01 0. -1.
         -5    1    5    5    0  503  0.37786646570E+02  0.36131183407E+02 -0.22133918159E+03  0.22747838662E+03  0.47000000000E+01 0. -1.
<mgrwt>
<rscale>  0 0.29236540E+03</rscale>
<asrwt>0</asrwt>
<pdfrwt beam="1">  1        1 0.14431980E+00 0.29236540E+03</pdfrwt>
<pdfrwt beam="2">  1       -1 0.35046069E-02 0.29236540E+03</pdfrwt>
<totfact> 0.53437967E+03</totfact>
</mgrwt>
</event>
<event>
 9    1  0.7957670E-001  0.2627615E+03  0.7818608E-02  0.1105495E+00
          3   -1    0    0  501    0  0.00000000000E+00  0.00000000000E+00  0.10642052166E+03  0.10642052166E+03  0.00000000000E+00 0. -1.
         -3   -1    0    0    0  501 -0.00000000000E+00 -0.00000000000E+00 -0.16219528198E+03  0.16219528198E+03  0.00000000000E+00 0. -1.
         35    2    1    2    0    0  0.00000000000E+00  0.00000000000E+00 -0.55774760315E+02  0.26861580364E+03  0.26276153843E+03 0.  0.
         25    2    3    3    0    0  0.12926656102E+02  0.11898794210E+02 -0.51786762886E+02  0.13592677790E+03  0.12444091127E+03 0.  0.
         25    2    3    3    0    0 -0.12926656102E+02 -0.11898794210E+02 -0.39879974288E+01  0.13268902575E+03  0.13146023615E+03 0.  0.
          5    1    4    4  502    0 -0.26831891966E+02 -0.28658650181E+01  0.31865473740E+02  0.42019781359E+02  0.47000000000E+01 0.  1.
         -5    1    4    4    0  502  0.39758548068E+02  0.14764659228E+02 -0.83652236626E+02  0.93906996540E+02  0.47000000000E+01 0.  1.
          5    1    5    5  503    0  0.23167816237E+02  0.23124016333E+02  0.49236474718E+02  0.59310945728E+02  0.47000000000E+01 0. -1.
         -5    1    5    5    0  503 -0.36094472339E+02 -0.35022810543E+02 -0.53224472147E+02  0.73378080018E+02  0.47000000000E+01 0. -1.
<mgrwt>
<rscale>  0 0.26276154E+03</rscale>
<asrwt>0</asrwt>
<pdfrwt beam="1">  1        3 0.16372388E-01 0.26276154E+03</pdfrwt>
<pdfrwt beam="2">  1       -3 0.24953121E-01 0.26276154E+03</pdfrwt>
<totfact> 0.12171225E+03</totfact>
</mgrwt>
</event>
<event>
 9    1  0.7957670E-001  0.3154288E+03  0.7818608E-02  0.1077773E+00
         -1   -1    0    0    0  501 -0.00000000000E+00  0.00000000000E+00  0.75535439899E+02  0.75535439899E+02  0.00000000000E+00 0. -1.
          1   -1    0    0  501    0  0.00000000000E+00 -0.00000000000E+00 -0.32930012971E+03  0.32930012971E+03  0.00000000000E+00 0. -1.
         35    2    1    2    0    0  0.14210854715E-13  0.71054273576E-14 -0.25376468981E+03  0.40483556961E+03  0.31542878852E+03 0.  0.
         25    2    3    3    0    0 -0.91823052434E+02 -0.25347856878E+02 -0.12369397336E+03  0.20032332026E+03  0.12551990594E+03 0.  0.
         25    2    3    3    0    0  0.91823052434E+02  0.25347856878E+02 -0.13007071645E+03  0.20451224935E+03  0.12582878069E+03 0.  0.
          5    1    4    4  502    0 -0.71620449358E+02  0.32024732171E+02 -0.11412552648E+03  0.13857055254E+03  0.47000000000E+01 0. -1.
         -5    1    4    4    0  502 -0.20202603076E+02 -0.57372589049E+02 -0.95684468827E+01  0.61752767719E+02  0.47000000000E+01 0. -1.
          5    1    5    5  503    0  0.21737837854E+02 -0.39918437906E+02 -0.89315601844E+02  0.10032637745E+03  0.47000000000E+01 0. -1.
         -5    1    5    5    0  503  0.70085214581E+02  0.65266294784E+02 -0.40755114608E+02  0.10418587190E+03  0.47000000000E+01 0. -1.
<mgrwt>
<rscale>  0 0.31542879E+03</rscale>
<asrwt>0</asrwt>
<pdfrwt beam="1">  1        1 0.50661559E-01 0.31542879E+03</pdfrwt>
<pdfrwt beam="2">  1       -1 0.11620837E-01 0.31542879E+03</pdfrwt>
<totfact> 0.37484923E+03</totfact>
</mgrwt>
</event>
<event>
 9    1  0.7957670E-001  0.2673144E+03  0.7818608E-02  0.1102827E+00
         -2   -1    0    0    0  501 -0.00000000000E+00  0.00000000000E+00  0.26791515778E+02  0.26791515778E+02  0.00000000000E+00 0.  1.
          2   -1    0    0  501    0  0.00000000000E+00 -0.00000000000E+00 -0.66678753363E+03  0.66678753363E+03  0.00000000000E+00 0.  1.
         35    2    1    2    0    0 -0.35527136788E-14  0.35527136788E-14 -0.63999601785E+03  0.69357904941E+03  0.26731441209E+03 0.  0.
         25    2    3    3    0    0 -0.21211212691E+02 -0.24298399022E+02 -0.25269548994E+03  0.28380277680E+03  0.12509467513E+03 0.  0.
         25    2    3    3    0    0  0.21211212691E+02  0.24298399022E+02 -0.38730052791E+03  0.40977627260E+03  0.12990214368E+03 0.  0.
          5    1    4    4  502    0  0.27134921521E+02  0.27216149002E+02 -0.17264101816E+03  0.17692946019E+03  0.47000000000E+01 0.  1.
         -5    1    4    4    0  502 -0.48346134211E+02 -0.51514548024E+02 -0.80054471787E+02  0.10687331662E+03  0.47000000000E+01 0.  1.
          5    1    5    5  503    0  0.25737159180E+01  0.36961083554E+02 -0.21184402532E+02  0.42937333660E+02  0.47000000000E+01 0. -1.
         -5    1    5    5    0  503  0.18637496773E+02 -0.12662684532E+02 -0.36611612538E+03  0.36683893894E+03  0.47000000000E+01 0. -1.
<mgrwt>
<rscale>  0 0.26731441E+03</rscale>
<asrwt>0</asrwt>
<pdfrwt beam="1">  1        2 0.10258269E+00 0.26731441E+03</pdfrwt>
<pdfrwt beam="2">  1       -2 0.41217721E-02 0.26731441E+03</pdfrwt>
<totfact> 0.11619819E+04</totfact>
</mgrwt>
</event>
<event>
 9    1  0.7957670E-001  0.2773499E+03  0.7818608E-02  0.1097145E+00
         -4   -1    0    0    0  501 -0.00000000000E+00  0.00000000000E+00  0.71147396980E+02  0.71147396980E+02  0.00000000000E+00 0. -1.
          4   -1    0    0  501    0  0.00000000000E+00 -0.00000000000E+00 -0.27029429273E+03  0.27029429273E+03  0.00000000000E+00 0. -1.
         35    2    1    2    0    0  0.00000000000E+00  0.71054273576E-14 -0.19914689575E+03  0.34144168971E+03  0.27734985377E+03 0.  0.
         25    2    3    3    0    0 -0.23282598094E+02  0.23365020959E+02 -0.39354666762E+02  0.13550651607E+03  0.12540024929E+03 0.  0.
         25    2    3    3    0    0  0.23282598094E+02 -0.23365020959E+02 -0.15979222899E+03  0.20593517365E+03  0.12564925674E+03 0.  0.
          5    1    4    4  502    0  0.30668386952E+02  0.47516751433E+02  0.10890357227E+02  0.57784786108E+02  0.47000000000E+01 0.  1.
         -5    1    4    4    0  502 -0.53950985046E+02 -0.24151730474E+02 -0.50245023989E+02  0.77721729960E+02  0.47000000000E+01 0.  1.
          5    1    5    5  503    0  0.61329158239E+00 -0.69880447829E+02 -0.12537153157E+03  0.14360976305E+03  0.47000000000E+01 0. -1.
         -5    1    5    5    0  503  0.22669306512E+02  0.46515426871E+02 -0.34420697420E+02  0.62325410593E+02  0.47000000000E+01 0. -1.
<mgrwt>
<rscale>  0 0.27734985E+03</rscale>
<asrwt>0</asrwt>
<pdfrwt beam="1">  1        4 0.41583738E-01 0.27734985E+03</pdfrwt>
<pdfrwt beam="2">  1       -4 0.10945753E-01 0.27734985E+03</pdfrwt>
<totfact> 0.68760214E+02</totfact>
</mgrwt>
</event>
<event>
 9    1  0.7957670E-001  0.2749504E+03  0.7818608E-02  0.1098479E+00
         -2   -1    0    0    0  501 -0.00000000000E+00  0.00000000000E+00  0.25402529342E+03  0.25402529342E+03  0.00000000000E+00 0.  1.
          2   -1    0    0  501    0  0.00000000000E+00 -0.00000000000E+00 -0.74399825222E+02  0.74399825222E+02  0.00000000000E+00 0.  1.
         35    2    1    2    0    0 -0.88817841970E-15  0.00000000000E+00  0.17962546820E+03  0.32842511864E+03  0.27495044959E+03 0.  0.
         25    2    3    3    0    0  0.24636741232E+01 -0.20459410557E+02  0.15307254486E+03  0.19848414764E+03  0.12465992020E+03 0.  0.
         25    2    3    3    0    0 -0.24636741232E+01  0.20459410557E+02  0.26552923335E+02  0.12994097100E+03  0.12551868800E+03 0.  0.
          5    1    4    4  502    0  0.56713047722E+01  0.45485943180E+02  0.11066270534E+03  0.11987267862E+03  0.47000000000E+01 0. -1.
         -5    1    4    4    0  502 -0.32076306490E+01 -0.65945353738E+02  0.42409839518E+02  0.78611469023E+02  0.47000000000E+01 0. -1.
          5    1    5    5  503    0  0.54483808308E+02 -0.98337864194E+01  0.33521820580E+02  0.64892150358E+02  0.47000000000E+01 0. -1.
         -5    1    5    5    0  503 -0.56947482431E+02  0.30293196977E+02 -0.69688972449E+01  0.65048820644E+02  0.47000000000E+01 0. -1.
<mgrwt>
<rscale>  0 0.27495045E+03</rscale>
<asrwt>0</asrwt>
<pdfrwt beam="1">  1        2 0.11446127E-01 0.27495045E+03</pdfrwt>
<pdfrwt beam="2">  1       -2 0.39080814E-01 0.27495045E+03</pdfrwt>
<totfact> 0.33589447E+03</totfact>
</mgrwt>
</event>
<event>
 9    1  0.7957670E-001  0.2800982E+03  0.7818608E-02  0.1095635E+00
         -2   -1    0    0    0  501 -0.00000000000E+00  0.00000000000E+00  0.16515046848E+02  0.16515046848E+02  0.00000000000E+00 0. -1.
          2   -1    0    0  501    0  0.00000000000E+00 -0.00000000000E+00 -0.11876294602E+04  0.11876294602E+04  0.00000000000E+00 0. -1.
         35    2    1    2    0    0  0.71054273576E-14  0.71054273576E-14 -0.11711144134E+04  0.12041445071E+04  0.28009824115E+03 0.  0.
         25    2    3    3    0    0  0.43609224518E+02 -0.10816112254E+02 -0.40838787837E+03  0.42994534441E+03  0.12670275149E+03 0.  0.
         25    2    3    3    0    0 -0.43609224518E+02  0.10816112254E+02 -0.76272653502E+03  0.77419916267E+03  0.12495528605E+03 0.  0.
          5    1    4    4  502    0 -0.43089787395E+01  0.52187889685E+02 -0.20531939564E+03  0.21194406657E+03  0.47000000000E+01 0.  1.
         -5    1    4    4    0  502  0.47918203257E+02 -0.63004001939E+02 -0.20306848272E+03  0.21800127784E+03  0.47000000000E+01 0.  1.
          5    1    5    5  503    0 -0.56982224026E+02 -0.39766946693E+02 -0.57694874961E+03  0.58113710394E+03  0.47000000000E+01 0.  1.
         -5    1    5    5    0  503  0.13372999509E+02  0.50583058947E+02 -0.18577778541E+03  0.19306205872E+03  0.47000000000E+01 0.  1.
<mgrwt>
<rscale>  0 0.28009824E+03</rscale>
<asrwt>0</asrwt>
<pdfrwt beam="1">  1        2 0.18271219E+00 0.28009824E+03</pdfrwt>
<pdfrwt beam="2">  1       -2 0.25407769E-02 0.28009824E+03</pdfrwt>
<totfact> 0.11011045E+04</totfact>
</mgrwt>
</event>
<event>
 9    1  0.7957670E-001  0.2805322E+03  0.7818608E-02  0.1095399E+00
          2   -1    0    0  501    0  0.00000000000E+00  0.00000000000E+00  0.61000950234E+03  0.61000950234E+03  0.00000000000E+00 0.  1.
         -2   -1    0    0    0  501 -0.00000000000E+00 -0.00000000000E+00 -0.32252913723E+02  0.32252913723E+02  0.00000000000E+00 0.  1.
         35    2    1    2    0    0 -0.35527136788E-14 -0.71054273576E-14  0.57775658862E+03  0.64226241607E+03  0.28053223593E+03 0.  0.
         25    2    3    3    0    0 -0.86573653402E+01  0.33438500632E+02  0.40469974197E+03  0.42482464490E+03  0.12450307009E+03 0.  0.
         25    2    3    3    0    0  0.86573653402E+01 -0.33438500632E+02  0.17305684665E+03  0.21743777117E+03  0.12703318015E+03 0.  0.
          5    1    4    4  502    0  0.26964255624E+02 -0.36211892771E+02  0.21184877374E+03  0.21665725281E+03  0.47000000000E+01 0. -1.
         -5    1    4    4    0  502 -0.35621620964E+02  0.69650393403E+02  0.19285096823E+03  0.20816739209E+03  0.47000000000E+01 0. -1.
          5    1    5    5  503    0 -0.50956339515E+02 -0.39690491416E+02  0.12378845880E+03  0.13970524750E+03  0.47000000000E+01 0. -1.
         -5    1    5    5    0  503  0.59613704855E+02  0.62519907848E+01  0.49268387850E+02  0.77732523674E+02  0.47000000000E+01 0. -1.
<mgrwt>
<rscale>  0 0.28053224E+03</rscale>
<asrwt>0</asrwt>
<pdfrwt beam="1">  1        2 0.93847607E-01 0.28053224E+03</pdfrwt>
<pdfrwt beam="2">  1       -2 0.49619872E-02 0.28053224E+03</pdfrwt>
<totfact> 0.97668629E+03</totfact>
</mgrwt>
</event>
<event>
 9    1  0.7957670E-001  0.2714763E+03  0.7818608E-02  0.1100438E+00
          1   -1    0    0  501    0  0.00000000000E+00  0.00000000000E+00  0.41773216646E+03  0.41773216646E+03  0.00000000000E+00 0. -1.
         -1   -1    0    0    0  501 -0.00000000000E+00 -0.00000000000E+00 -0.44106838278E+02  0.44106838278E+02  0.00000000000E+00 0. -1.
         35    2    1    2    0    0  0.35527136788E-14  0.71054273576E-14  0.37362532818E+03  0.46183900473E+03  0.27147629811E+03 0.  0.
         25    2    3    3    0    0 -0.85379307799E+01 -0.35905103998E+02  0.25634439990E+03  0.28676066511E+03  0.12311439779E+03 0.  0.
         25    2    3    3    0    0  0.85379307799E+01  0.35905103998E+02  0.11728092828E+03  0.17507833962E+03  0.12464163073E+03 0.  0.
          5    1    4    4  502    0 -0.31890836829E+02 -0.71731822139E+02  0.11738428693E+03  0.14129274787E+03  0.47000000000E+01 0.  1.
         -5    1    4    4    0  502  0.23352906049E+02  0.35826718140E+02  0.13896011296E+03  0.14546791725E+03  0.47000000000E+01 0.  1.
          5    1    5    5  503    0 -0.16554863820E+02  0.62583537964E+02  0.15394538445E+02  0.66707155195E+02  0.47000000000E+01 0. -1.
         -5    1    5    5    0  503  0.25092794599E+02 -0.26678433966E+02  0.10188638984E+03  0.10837118443E+03  0.47000000000E+01 0. -1.
<mgrwt>
<rscale>  0 0.27147630E+03</rscale>
<asrwt>0</asrwt>
<pdfrwt beam="1">  1        1 0.64266485E-01 0.27147630E+03</pdfrwt>
<pdfrwt beam="2">  1       -1 0.67856677E-02 0.27147630E+03</pdfrwt>
<totfact> 0.63053329E+03</totfact>
</mgrwt>
</event>
<event>
 9    1  0.7957670E-001  0.2675547E+03  0.7818608E-02  0.1102687E+00
         -1   -1    0    0    0  501 -0.00000000000E+00  0.00000000000E+00  0.32703392552E+02  0.32703392552E+02  0.00000000000E+00 0.  1.
          1   -1    0    0  501    0  0.00000000000E+00 -0.00000000000E+00 -0.54723295271E+03  0.54723295271E+03  0.00000000000E+00 0.  1.
         35    2    1    2    0    0 -0.71054273576E-14 -0.71054273576E-14 -0.51452956016E+03  0.57993634526E+03  0.26755466036E+03 0.  0.
         25    2    3    3    0    0 -0.42019160723E+02 -0.81965753819E+01 -0.20278685312E+03  0.24152642464E+03  0.12401496799E+03 0.  0.
         25    2    3    3    0    0  0.42019160723E+02  0.81965753819E+01 -0.31174270704E+03  0.33840992062E+03  0.12451893537E+03 0.  0.
          5    1    4    4  502    0  0.13999110848E+02 -0.51875369289E+02 -0.52682357770E+02  0.75395953894E+02  0.47000000000E+01 0.  1.
         -5    1    4    4    0  502 -0.56018271570E+02  0.43678793907E+02 -0.15010449535E+03  0.16613047075E+03  0.47000000000E+01 0.  1.
          5    1    5    5  503    0  0.32853009250E+02  0.57617429083E+02 -0.95598088181E+02  0.11644815505E+03  0.47000000000E+01 0.  1.
         -5    1    5    5    0  503  0.91661514730E+01 -0.49420853702E+02 -0.21614461886E+03  0.22196176557E+03  0.47000000000E+01 0.  1.
<mgrwt>
<rscale>  0 0.26755466E+03</rscale>
<asrwt>0</asrwt>
<pdfrwt beam="1">  1        1 0.84189684E-01 0.26755466E+03</pdfrwt>
<pdfrwt beam="2">  1       -1 0.50312912E-02 0.26755466E+03</pdfrwt>
<totfact> 0.69277473E+03</totfact>
</mgrwt>
</event>
<event>
 9    1  0.7957670E-001  0.2735124E+03  0.7818608E-02  0.1099286E+00
          1   -1    0    0  501    0  0.00000000000E+00  0.00000000000E+00  0.17371358312E+03  0.17371358312E+03  0.00000000000E+00 0.  1.
         -1   -1    0    0    0  501 -0.00000000000E+00 -0.00000000000E+00 -0.10766148495E+03  0.10766148495E+03  0.00000000000E+00 0.  1.
         35    2    1    2    0    0  0.00000000000E+00  0.00000000000E+00  0.66052098167E+02  0.28137506806E+03  0.27351242980E+03 0.  0.
         25    2    3    3    0    0 -0.54957531599E+02 -0.88696160942E+01  0.23716316051E+02  0.13837329855E+03  0.12444157559E+03 0.  0.
         25    2    3    3    0    0  0.54957531599E+02  0.88696160942E+01  0.42335782116E+02  0.14300176951E+03  0.12473246276E+03 0.  0.
          5    1    4    4  502    0 -0.90359203420E+02 -0.21037221399E+01  0.39495888772E+02  0.98748298818E+02  0.47000000000E+01 0. -1.
         -5    1    4    4    0  502  0.35401671821E+02 -0.67658939544E+01 -0.15779572720E+02  0.39624999734E+02  0.47000000000E+01 0. -1.
          5    1    5    5  503    0  0.10116711657E+02 -0.10932182399E+02  0.79682115621E+02  0.81198460678E+02  0.47000000000E+01 0. -1.
         -5    1    5    5    0  503  0.44840819942E+02  0.19801798493E+02 -0.37346333505E+02  0.61803308834E+02  0.47000000000E+01 0. -1.
<mgrwt>
<rscale>  0 0.27351243E+03</rscale>
<asrwt>0</asrwt>
<pdfrwt beam="1">  1        1 0.26725167E-01 0.27351243E+03</pdfrwt>
<pdfrwt beam="2">  1       -1 0.16563305E-01 0.27351243E+03</pdfrwt>
<totfact> 0.47785531E+03</totfact>
</mgrwt>
</event>
<event>
 9    1  0.7957670E-001  0.2756016E+03  0.7818608E-02  0.1098116E+00
         -3   -1    0    0    0  501 -0.00000000000E+00  0.00000000000E+00  0.25346524027E+02  0.25346524027E+02  0.00000000000E+00 0. -1.
          3   -1    0    0  501    0  0.00000000000E+00 -0.00000000000E+00 -0.74917801847E+03  0.74917801847E+03  0.00000000000E+00 0. -1.
         35    2    1    2    0    0  0.00000000000E+00  0.00000000000E+00 -0.72383149444E+03  0.77452454250E+03  0.27560158668E+03 0.  0.
         25    2    3    3    0    0  0.14901820466E+02 -0.53752063448E+01 -0.52389693657E+03  0.53850077967E+03  0.12354809776E+03 0.  0.
         25    2    3    3    0    0 -0.14901820466E+02  0.53752063448E+01 -0.19993455787E+03  0.23602376282E+03  0.12442842156E+03 0.  0.
          5    1    4    4  502    0  0.39047725705E+02  0.48014836779E+02 -0.20345401288E+03  0.21271054227E+03  0.47000000000E+01 0.  1.
         -5    1    4    4    0  502 -0.24145905239E+02 -0.53390043124E+02 -0.32044292369E+03  0.32579023740E+03  0.47000000000E+01 0.  1.
          5    1    5    5  503    0 -0.36276492631E+02  0.55918133871E+02 -0.81364218410E+02  0.10528555291E+03  0.47000000000E+01 0. -1.
         -5    1    5    5    0  503  0.21374672165E+02 -0.50542927527E+02 -0.11857033946E+03  0.13073820992E+03  0.47000000000E+01 0. -1.
<mgrwt>
<rscale>  0 0.27560159E+03</rscale>
<asrwt>0</asrwt>
<pdfrwt beam="1">  1        3 0.11525817E+00 0.27560159E+03</pdfrwt>
<pdfrwt beam="2">  1       -3 0.38994649E-02 0.27560159E+03</pdfrwt>
<totfact> 0.55910510E+02</totfact>
</mgrwt>
</event>
<event>
 9    1  0.7957670E-001  0.2722221E+03  0.7818608E-02  0.1100015E+00
          2   -1    0    0  501    0  0.00000000000E+00  0.00000000000E+00  0.11071808035E+04  0.11071808035E+04  0.00000000000E+00 0. -1.
         -2   -1    0    0    0  501 -0.00000000000E+00 -0.00000000000E+00 -0.16732782529E+02  0.16732782529E+02  0.00000000000E+00 0. -1.
         35    2    1    2    0    0 -0.71054273576E-14  0.00000000000E+00  0.10904480210E+04  0.11239135860E+04  0.27222208291E+03 0.  0.
         25    2    3    3    0    0 -0.79136998159E+01  0.35121797272E+01  0.76242732486E+03  0.77270809793E+03  0.12532923386E+03 0.  0.
         25    2    3    3    0    0  0.79136998159E+01 -0.35121797272E+01  0.32802069612E+03  0.35120548811E+03  0.12519087724E+03 0.  0.
          5    1    4    4  502    0 -0.48086228139E+02  0.14998419571E+01  0.12538884114E+03  0.13438372798E+03  0.47000000000E+01 0. -1.
         -5    1    4    4    0  502  0.40172528323E+02  0.20123377701E+01  0.63703848371E+03  0.63832436995E+03  0.47000000000E+01 0. -1.
          5    1    5    5  503    0  0.47827601421E+02  0.73298496895E+01  0.48739646009E+02  0.68839300165E+02  0.47000000000E+01 0.  1.
         -5    1    5    5    0  503 -0.39913901605E+02 -0.10842029417E+02  0.27928105011E+03  0.28236618795E+03  0.47000000000E+01 0.  1.
<mgrwt>
<rscale>  0 0.27222208E+03</rscale>
<asrwt>0</asrwt>
<pdfrwt beam="1">  1        2 0.17033545E+00 0.27222208E+03</pdfrwt>
<pdfrwt beam="2">  1       -2 0.25742751E-02 0.27222208E+03</pdfrwt>
<totfact> 0.12010003E+04</totfact>
</mgrwt>
</event>
<event>
 9    1  0.7957670E-001  0.3001607E+03  0.7818608E-02  0.1085160E+00
          2   -1    0    0  501    0  0.00000000000E+00  0.00000000000E+00  0.17988773844E+04  0.17988773844E+04  0.00000000000E+00 0. -1.
         -2   -1    0    0    0  501 -0.00000000000E+00 -0.00000000000E+00 -0.12521206397E+02  0.12521206397E+02  0.00000000000E+00 0. -1.
         35    2    1    2    0    0 -0.14210854715E-13 -0.71054273576E-14  0.17863561780E+04  0.18113985908E+04  0.30016072371E+03 0.  0.
         25    2    3    3    0    0 -0.71750518701E+02  0.37776955516E+02  0.79735904783E+03  0.81120050622E+03  0.12525803301E+03 0.  0.
         25    2    3    3    0    0  0.71750518701E+02 -0.37776955516E+02  0.98899713019E+03  0.10001980846E+04  0.12532218320E+03 0.  0.
          5    1    4    4  502    0  0.18643694941E+02  0.51605521458E+02  0.23008310279E+03  0.23658199719E+03  0.47000000000E+01 0. -1.
         -5    1    4    4    0  502 -0.90394213643E+02 -0.13828565942E+02  0.56727594505E+03  0.57461850904E+03  0.47000000000E+01 0. -1.
          5    1    5    5  503    0  0.37875712860E+02  0.39097326809E+02  0.58418692205E+03  0.58673641483E+03  0.47000000000E+01 0. -1.
         -5    1    5    5    0  503  0.33874805842E+02 -0.76874282326E+02  0.40481020813E+03  0.41346166976E+03  0.47000000000E+01 0. -1.
<mgrwt>
<rscale>  0 0.30016072E+03</rscale>
<asrwt>0</asrwt>
<pdfrwt beam="1">  1        2 0.27675016E+00 0.30016072E+03</pdfrwt>
<pdfrwt beam="2">  1       -2 0.19263409E-02 0.30016072E+03</pdfrwt>
<totfact> 0.77514195E+03</totfact>
</mgrwt>
</event>
<event>
 9    1  0.7957670E-001  0.2746808E+03  0.7818608E-02  0.1098630E+00
          3   -1    0    0  501    0  0.00000000000E+00  0.00000000000E+00  0.36935923324E+03  0.36935923324E+03  0.00000000000E+00 0. -1.
         -3   -1    0    0    0  501 -0.00000000000E+00 -0.00000000000E+00 -0.51067866561E+02  0.51067866561E+02  0.00000000000E+00 0. -1.
         35    2    1    2    0    0  0.00000000000E+00  0.00000000000E+00  0.31829136668E+03  0.42042709980E+03  0.27468081867E+03 0.  0.
         25    2    3    3    0    0  0.80932890783E+01  0.54107395965E+02  0.13656928741E+03  0.19284653945E+03  0.12468161808E+03 0.  0.
         25    2    3    3    0    0 -0.80932890783E+01 -0.54107395965E+02  0.18172207927E+03  0.22758056035E+03  0.12560607363E+03 0.  0.
          5    1    4    4  502    0 -0.45974322929E+02 -0.11718581453E+02  0.69715438707E+02  0.84458841539E+02  0.47000000000E+01 0. -1.
         -5    1    4    4    0  502  0.54067612007E+02  0.65825977417E+02  0.66853848707E+02  0.10838769791E+03  0.47000000000E+01 0. -1.
          5    1    5    5  503    0  0.44685653876E+02  0.15873198225E+02  0.80990588915E+02  0.93969843977E+02  0.47000000000E+01 0.  1.
         -5    1    5    5    0  503 -0.52778942954E+02 -0.69980594190E+02  0.10073149035E+03  0.13361071638E+03  0.47000000000E+01 0.  1.
<mgrwt>
<rscale>  0 0.27468082E+03</rscale>
<asrwt>0</asrwt>
<pdfrwt beam="1">  1        3 0.56824496E-01 0.27468082E+03</pdfrwt>
<pdfrwt beam="2">  1       -3 0.78565951E-02 0.27468082E+03</pdfrwt>
<totfact> 0.86067288E+02</totfact>
</mgrwt>
</event>
<event>
 9    1  0.7957670E-001  0.2725916E+03  0.7818608E-02  0.1099805E+00
         -3   -1    0    0    0  501 -0.00000000000E+00  0.00000000000E+00  0.15592984358E+02  0.15592984358E+02  0.00000000000E+00 0.  1.
          3   -1    0    0  501    0  0.00000000000E+00 -0.00000000000E+00 -0.11913395790E+04  0.11913395790E+04  0.00000000000E+00 0.  1.
         35    2    1    2    0    0  0.71054273576E-14  0.00000000000E+00 -0.11757465946E+04  0.12069325634E+04  0.27259155835E+03 0.  0.
         25    2    3    3    0    0  0.29971497728E+02 -0.32463312045E+02 -0.67801953142E+03  0.69087806892E+03  0.12509941574E+03 0.  0.
         25    2    3    3    0    0 -0.29971497728E+02  0.32463312045E+02 -0.49772706322E+03  0.51605449444E+03  0.12894903824E+03 0.  0.
          5    1    4    4  502    0  0.28818557092E+02 -0.57648271372E+02 -0.16478031108E+03  0.17699851227E+03  0.47000000000E+01 0. -1.
         -5    1    4    4    0  502  0.11529406360E+01  0.25184959327E+02 -0.51323922034E+03  0.51387955666E+03  0.47000000000E+01 0. -1.
          5    1    5    5  503    0  0.23623684622E+02 -0.44010016783E+01 -0.14522071148E+02  0.28468014354E+02  0.47000000000E+01 0.  1.
         -5    1    5    5    0  503 -0.53595182350E+02  0.36864313723E+02 -0.48320499208E+03  0.48758648009E+03  0.47000000000E+01 0.  1.
<mgrwt>
<rscale>  0 0.27259156E+03</rscale>
<asrwt>0</asrwt>
<pdfrwt beam="1">  1        3 0.18328308E+00 0.27259156E+03</pdfrwt>
<pdfrwt beam="2">  1       -3 0.23989198E-02 0.27259156E+03</pdfrwt>
<totfact> 0.37179528E+02</totfact>
</mgrwt>
</event>
<event>
 9    1  0.7957670E-001  0.2785515E+03  0.7818608E-02  0.1096483E+00
         -4   -1    0    0    0  501 -0.00000000000E+00  0.00000000000E+00  0.26308010425E+03  0.26308010425E+03  0.00000000000E+00 0. -1.
          4   -1    0    0  501    0  0.00000000000E+00 -0.00000000000E+00 -0.73733182381E+02  0.73733182381E+02  0.00000000000E+00 0. -1.
         35    2    1    2    0    0  0.71054273576E-14  0.71054273576E-14  0.18934692187E+03  0.33681328663E+03  0.27855149116E+03 0.  0.
         25    2    3    3    0    0 -0.35419596074E+02 -0.32427152621E+02  0.14960096928E+03  0.20062126938E+03  0.12474925132E+03 0.  0.
         25    2    3    3    0    0  0.35419596074E+02  0.32427152621E+02  0.39745952585E+02  0.13619201725E+03  0.12108863201E+03 0.  0.
          5    1    4    4  502    0  0.35877478274E+02  0.20489379741E+02  0.69277646586E+02  0.80799074537E+02  0.47000000000E+01 0.  1.
         -5    1    4    4    0  502 -0.71297074348E+02 -0.52916532362E+02  0.80323322696E+02  0.11982219484E+03  0.47000000000E+01 0.  1.
          5    1    5    5  503    0  0.23385968846E+02  0.66814508331E+02 -0.12788766527E+02  0.72088311200E+02  0.47000000000E+01 0. -1.
         -5    1    5    5    0  503  0.12033627228E+02 -0.34387355710E+02  0.52534719112E+02  0.64103706049E+02  0.47000000000E+01 0. -1.
<mgrwt>
<rscale>  0 0.27855149E+03</rscale>
<asrwt>0</asrwt>
<pdfrwt beam="1">  1        4 0.11343567E-01 0.27855149E+03</pdfrwt>
<pdfrwt beam="2">  1       -4 0.40473862E-01 0.27855149E+03</pdfrwt>
<totfact> 0.68303129E+02</totfact>
</mgrwt>
</event>
<event>
 9    1  0.7957670E-001  0.2730801E+03  0.7818608E-02  0.1099530E+00
          1   -1    0    0  501    0  0.00000000000E+00  0.00000000000E+00  0.41544177616E+02  0.41544177616E+02  0.00000000000E+00 0. -1.
         -1   -1    0    0    0  501 -0.00000000000E+00 -0.00000000000E+00 -0.44875557174E+03  0.44875557174E+03  0.00000000000E+00 0. -1.
         35    2    1    2    0    0  0.14210854715E-13  0.71054273576E-14 -0.40721139412E+03  0.49029974935E+03  0.27308007015E+03 0.  0.
         25    2    3    3    0    0  0.41927179674E+02  0.17161132440E+02 -0.15020427687E+03  0.20091626282E+03  0.12551345352E+03 0.  0.
         25    2    3    3    0    0 -0.41927179674E+02 -0.17161132440E+02 -0.25700711725E+03  0.28938348653E+03  0.12505099398E+03 0.  0.
          5    1    4    4  502    0 -0.12443768992E+02  0.58519211507E+02 -0.43455751877E+02  0.74093440150E+02  0.47000000000E+01 0.  1.
         -5    1    4    4    0  502  0.54370948667E+02 -0.41358079067E+02 -0.10674852499E+03  0.12682282267E+03  0.47000000000E+01 0.  1.
          5    1    5    5  503    0 -0.15976654676E+02  0.42356026293E+01 -0.25477018233E+03  0.25534903491E+03  0.47000000000E+01 0.  1.
         -5    1    5    5    0  503 -0.25950524999E+02 -0.21396735069E+02 -0.22369349226E+01  0.34034451621E+02  0.47000000000E+01 0.  1.
<mgrwt>
<rscale>  0 0.27308007E+03</rscale>
<asrwt>0</asrwt>
<pdfrwt beam="1">  1        1 0.63914119E-02 0.27308007E+03</pdfrwt>
<pdfrwt beam="2">  1       -1 0.69039320E-01 0.27308007E+03</pdfrwt>
<totfact> 0.26028413E+03</totfact>
</mgrwt>
</event>
<event>
 9    1  0.7957670E-001  0.2760132E+03  0.7818608E-02  0.1097887E+00
          1   -1    0    0  501    0  0.00000000000E+00  0.00000000000E+00  0.18856844088E+04  0.18856844088E+04  0.00000000000E+00 0. -1.
         -1   -1    0    0    0  501 -0.00000000000E+00 -0.00000000000E+00 -0.10100217501E+02  0.10100217501E+02  0.00000000000E+00 0. -1.
         35    2    1    2    0    0  0.35527136788E-14 -0.17763568394E-14  0.18755841913E+04  0.18957846263E+04  0.27601320742E+03 0.  0.
         25    2    3    3    0    0 -0.21199586384E+02  0.75559523463E+01  0.62512116798E+03  0.63891536221E+03  0.13011475911E+03 0.  0.
         25    2    3    3    0    0  0.21199586384E+02 -0.75559523463E+01  0.12504630233E+04  0.12568692641E+04  0.12472393291E+03 0.  0.
          5    1    4    4  502    0 -0.21957210802E+02  0.52654744138E+02  0.13412696237E+03  0.14583131770E+03  0.47000000000E+01 0.  1.
         -5    1    4    4    0  502  0.75762441826E+00 -0.45098791791E+02  0.49099420560E+03  0.49308404451E+03  0.47000000000E+01 0.  1.
          5    1    5    5  503    0  0.73252091790E+02 -0.90973609645E+01  0.78598253259E+03  0.78945504145E+03  0.47000000000E+01 0.  1.
         -5    1    5    5    0  503 -0.52052505407E+02  0.15414086181E+01  0.46448049075E+03  0.46741422266E+03  0.47000000000E+01 0.  1.
<mgrwt>
<rscale>  0 0.27601321E+03</rscale>
<asrwt>0</asrwt>
<pdfrwt beam="1">  1        1 0.29010501E+00 0.27601321E+03</pdfrwt>
<pdfrwt beam="2">  1       -1 0.15538811E-02 0.27601321E+03</pdfrwt>
<totfact> 0.39683319E+03</totfact>
</mgrwt>
</event>
<event>
 9    1  0.7957670E-001  0.2836656E+03  0.7818608E-02  0.1093704E+00
          2   -1    0    0  501    0  0.00000000000E+00  0.00000000000E+00  0.47553767681E+03  0.47553767681E+03  0.00000000000E+00 0.  1.
         -2   -1    0    0    0  501 -0.00000000000E+00 -0.00000000000E+00 -0.42302724871E+02  0.42302724871E+02  0.00000000000E+00 0.  1.
         35    2    1    2    0    0  0.35527136788E-14  0.00000000000E+00  0.43323495194E+03  0.51784040168E+03  0.28366557428E+03 0.  0.
         25    2    3    3    0    0  0.17627065804E+02 -0.14051033979E+02  0.33433154618E+03  0.35750177248E+03  0.12458647418E+03 0.  0.
         25    2    3    3    0    0 -0.17627065804E+02  0.14051033979E+02  0.98903405764E+02  0.16033862921E+03  0.12417104067E+03 0.  0.
          5    1    4    4  502    0  0.31553363540E+01  0.55306673353E+02  0.14863239187E+03  0.15868983010E+03  0.47000000000E+01 0.  1.
         -5    1    4    4    0  502  0.14471729450E+02 -0.69357707332E+02  0.18569915431E+03  0.19881194238E+03  0.47000000000E+01 0.  1.
          5    1    5    5  503    0 -0.17231609780E+02 -0.43317415528E+02  0.90843261034E+02  0.10221504263E+03  0.47000000000E+01 0.  1.
         -5    1    5    5    0  503 -0.39545602333E+00  0.57368449507E+02  0.80601447306E+01  0.58123586584E+02  0.47000000000E+01 0.  1.
<mgrwt>
<rscale>  0 0.28366557E+03</rscale>
<asrwt>0</asrwt>
<pdfrwt beam="1">  1        2 0.73159639E-01 0.28366557E+03</pdfrwt>
<pdfrwt beam="2">  1       -2 0.65081118E-02 0.28366557E+03</pdfrwt>
<totfact> 0.85604500E+03</totfact>
</mgrwt>
</event>
<event>
 9    1  0.7957670E-001  0.2747162E+03  0.7818608E-02  0.1098610E+00
          2   -1    0    0  501    0  0.00000000000E+00  0.00000000000E+00  0.15411734016E+03  0.15411734016E+03  0.00000000000E+00 0.  1.
         -2   -1    0    0    0  501 -0.00000000000E+00 -0.00000000000E+00 -0.12242132934E+03  0.12242132934E+03  0.00000000000E+00 0.  1.
         35    2    1    2    0    0 -0.35527136788E-14  0.00000000000E+00  0.31696010824E+02  0.27653866950E+03  0.27471621471E+03 0.  0.
         25    2    3    3    0    0  0.11898682649E+02  0.11323245743E+02 -0.34888637354E+02  0.13324606061E+03  0.12754411437E+03 0.  0.
         25    2    3    3    0    0 -0.11898682649E+02 -0.11323245743E+02  0.66584648178E+02  0.14329260889E+03  0.12581518925E+03 0.  0.
          5    1    4    4  502    0 -0.28477512015E+02  0.58948637555E+02 -0.22750558468E+02  0.69466455724E+02  0.47000000000E+01 0. -1.
         -5    1    4    4    0  502  0.40376194664E+02 -0.47625391813E+02 -0.12138078886E+02  0.63779604890E+02  0.47000000000E+01 0. -1.
          5    1    5    5  503    0  0.37714665893E+01  0.33316784001E+02  0.85626839436E+02  0.92077563435E+02  0.47000000000E+01 0.  1.
         -5    1    5    5    0  503 -0.15670149238E+02 -0.44640029744E+02 -0.19042191257E+02  0.51215045451E+02  0.47000000000E+01 0.  1.
<mgrwt>
<rscale>  0 0.27471621E+03</rscale>
<asrwt>0</asrwt>
<pdfrwt beam="1">  1        2 0.23710360E-01 0.27471621E+03</pdfrwt>
<pdfrwt beam="2">  1       -2 0.18834051E-01 0.27471621E+03</pdfrwt>
<totfact> 0.52860844E+03</totfact>
</mgrwt>
</event>
<event>
 9    1  0.7957670E-001  0.2769286E+03  0.7818608E-02  0.1097378E+00
          2   -1    0    0  501    0  0.00000000000E+00  0.00000000000E+00  0.11985716364E+02  0.11985716364E+02  0.00000000000E+00 0. -1.
         -2   -1    0    0    0  501 -0.00000000000E+00 -0.00000000000E+00 -0.15996003220E+04  0.15996003220E+04  0.00000000000E+00 0. -1.
         35    2    1    2    0    0  0.00000000000E+00  0.71054273576E-14 -0.15876146057E+04  0.16115860384E+04  0.27692855220E+03 0.  0.
         25    2    3    3    0    0  0.36338096949E+02  0.13778755612E+02 -0.10586230917E+04  0.10665950756E+04  0.12422517313E+03 0.  0.
         25    2    3    3    0    0 -0.36338096949E+02 -0.13778755612E+02 -0.52899151402E+03  0.54499096284E+03  0.12519111899E+03 0.  0.
          5    1    4    4  502    0  0.12052303680E+02  0.53918127797E+02 -0.22839868435E+03  0.23503291587E+03  0.47000000000E+01 0. -1.
         -5    1    4    4    0  502  0.24285793270E+02 -0.40139372185E+02 -0.83022440731E+03  0.83156215970E+03  0.47000000000E+01 0. -1.
          5    1    5    5  503    0  0.27531861099E+02 -0.40648213595E+02 -0.11375081307E+03  0.12398232986E+03  0.47000000000E+01 0.  1.
         -5    1    5    5    0  503 -0.63869958049E+02  0.26869457984E+02 -0.41524070096E+03  0.42100863298E+03  0.47000000000E+01 0.  1.
<mgrwt>
<rscale>  0 0.27692855E+03</rscale>
<asrwt>0</asrwt>
<pdfrwt beam="1">  1        2 0.18439571E-02 0.27692855E+03</pdfrwt>
<pdfrwt beam="2">  1       -2 0.24609226E+00 0.27692855E+03</pdfrwt>
<totfact> 0.46369292E+02</totfact>
</mgrwt>
</event>
<event>
 9    1  0.7957670E-001  0.2770888E+03  0.7818608E-02  0.1097290E+00
         -1   -1    0    0    0  501 -0.00000000000E+00  0.00000000000E+00  0.11600842858E+02  0.11600842858E+02  0.00000000000E+00 0. -1.
          1   -1    0    0  501    0  0.00000000000E+00 -0.00000000000E+00 -0.16545820033E+04  0.16545820033E+04  0.00000000000E+00 0. -1.
         35    2    1    2    0    0 -0.35527136788E-14  0.00000000000E+00 -0.16429811604E+04  0.16661828461E+04  0.27708876423E+03 0.  0.
         25    2    3    3    0    0 -0.19736390152E+02 -0.55461909011E+00 -0.49902785192E+03  0.51524341665E+03  0.12671680518E+03 0.  0.
         25    2    3    3    0    0  0.19736390152E+02  0.55461909011E+00 -0.11439533085E+04  0.11509394295E+04  0.12507024270E+03 0.  0.
          5    1    4    4  502    0 -0.43387312770E+02  0.19242149987E+02 -0.47067679157E+03  0.47308714986E+03  0.47000000000E+01 0. -1.
         -5    1    4    4    0  502  0.23650922617E+02 -0.19796769077E+02 -0.28351060350E+02  0.42156266789E+02  0.47000000000E+01 0. -1.
          5    1    5    5  503    0 -0.20706961730E+02 -0.12712646689E+02 -0.10100975600E+04  0.10104006929E+04  0.47000000000E+01 0.  1.
         -5    1    5    5    0  503  0.40443351882E+02  0.13267265779E+02 -0.13385574856E+03  0.14053873657E+03  0.47000000000E+01 0.  1.
<mgrwt>
<rscale>  0 0.27708876E+03</rscale>
<asrwt>0</asrwt>
<pdfrwt beam="1">  1        1 0.25455108E+00 0.27708876E+03</pdfrwt>
<pdfrwt beam="2">  1       -1 0.17847451E-02 0.27708876E+03</pdfrwt>
<totfact> 0.45853095E+03</totfact>
</mgrwt>
</event>
<event>
 9    1  0.7957670E-001  0.2778154E+03  0.7818608E-02  0.1096888E+00
         -1   -1    0    0    0  501 -0.00000000000E+00  0.00000000000E+00  0.22212659883E+03  0.22212659883E+03  0.00000000000E+00 0. -1.
          1   -1    0    0  501    0  0.00000000000E+00 -0.00000000000E+00 -0.86866431504E+02  0.86866431504E+02  0.00000000000E+00 0. -1.
         35    2    1    2    0    0  0.00000000000E+00  0.00000000000E+00  0.13526016733E+03  0.30899303033E+03  0.27781537022E+03 0.  0.
         25    2    3    3    0    0 -0.20350482574E+02  0.42019978590E+02  0.11155622629E+03  0.17377438677E+03  0.12479152668E+03 0.  0.
         25    2    3    3    0    0  0.20350482574E+02 -0.42019978590E+02  0.23703941031E+02  0.13521864356E+03  0.12466909803E+03 0.  0.
          5    1    4    4  502    0 -0.50754701454E+02  0.65477322316E+02  0.39303901707E+02  0.91816154062E+02  0.47000000000E+01 0.  1.
         -5    1    4    4    0  502  0.30404218880E+02 -0.23457343726E+02  0.72252324588E+02  0.81958232709E+02  0.47000000000E+01 0.  1.
          5    1    5    5  503    0  0.35799262501E+02 -0.81597848173E+02  0.76451286818E+01  0.89556317559E+02  0.47000000000E+01 0.  1.
         -5    1    5    5    0  503 -0.15448779927E+02  0.39577869583E+02  0.16058812349E+02  0.45662326003E+02  0.47000000000E+01 0.  1.
<mgrwt>
<rscale>  0 0.27781537E+03</rscale>
<asrwt>0</asrwt>
<pdfrwt beam="1">  1        1 0.13364066E-01 0.27781537E+03</pdfrwt>
<pdfrwt beam="2">  1       -1 0.34173323E-01 0.27781537E+03</pdfrwt>
<totfact> 0.35268158E+03</totfact>
</mgrwt>
</event>
<event>
 9    1  0.7957670E-001  0.2759261E+03  0.7818608E-02  0.1097935E+00
          4   -1    0    0  501    0  0.00000000000E+00  0.00000000000E+00  0.17361011725E+03  0.17361011725E+03  0.00000000000E+00 0. -1.
         -4   -1    0    0    0  501 -0.00000000000E+00 -0.00000000000E+00 -0.10963536824E+03  0.10963536824E+03  0.00000000000E+00 0. -1.
         35    2    1    2    0    0  0.00000000000E+00  0.17763568394E-14  0.63974749009E+02  0.28324548548E+03  0.27592614326E+03 0.  0.
         25    2    3    3    0    0  0.40880285025E+02 -0.39474155960E+01  0.73587266439E+02  0.15097010370E+03  0.12526015582E+03 0.  0.
         25    2    3    3    0    0 -0.40880285025E+02  0.39474155960E+01 -0.96125174297E+01  0.13227538178E+03  0.12536983824E+03 0.  0.
          5    1    4    4  502    0 -0.27605401658E+01  0.71860569006E+01  0.98752929715E+02  0.99163960807E+02  0.47000000000E+01 0. -1.
         -5    1    4    4    0  502  0.43640825191E+02 -0.11133472497E+02 -0.25165663276E+02  0.51806142891E+02  0.47000000000E+01 0. -1.
          5    1    5    5  503    0 -0.38670379234E+02  0.48783858307E+02  0.32641716780E+02  0.70447389843E+02  0.47000000000E+01 0. -1.
         -5    1    5    5    0  503 -0.22099057916E+01 -0.44836442711E+02 -0.42254234210E+02  0.61827991939E+02  0.47000000000E+01 0. -1.
<mgrwt>
<rscale>  0 0.27592614E+03</rscale>
<asrwt>0</asrwt>
<pdfrwt beam="1">  1        4 0.26709249E-01 0.27592614E+03</pdfrwt>
<pdfrwt beam="2">  1       -4 0.16866980E-01 0.27592614E+03</pdfrwt>
<totfact> 0.76104300E+02</totfact>
</mgrwt>
</event>
<event>
 9    1  0.7957670E-001  0.2765181E+03  0.7818608E-02  0.1097606E+00
          2   -1    0    0  501    0  0.00000000000E+00  0.00000000000E+00  0.19133779687E+04  0.19133779687E+04  0.00000000000E+00 0. -1.
         -2   -1    0    0    0  501 -0.00000000000E+00 -0.00000000000E+00 -0.99904803575E+01  0.99904803575E+01  0.00000000000E+00 0. -1.
         35    2    1    2    0    0 -0.35527136788E-14  0.00000000000E+00  0.19033874884E+04  0.19233684491E+04  0.27651810077E+03 0.  0.
         25    2    3    3    0    0 -0.18378854373E+02  0.49460091208E+02  0.10808302245E+04  0.10896752717E+04  0.12811768263E+03 0.  0.
         25    2    3    3    0    0  0.18378854373E+02 -0.49460091208E+02  0.82255726389E+03  0.83369317742E+03  0.12513903787E+03 0.  0.
          5    1    4    4  502    0 -0.46616820628E+02  0.55489008752E+02  0.31407404154E+03  0.32236121297E+03  0.47000000000E+01 0.  1.
         -5    1    4    4    0  502  0.28237966255E+02 -0.60289175440E+01  0.76675618295E+03  0.76731405870E+03  0.47000000000E+01 0.  1.
          5    1    5    5  503    0  0.48692583954E+01  0.10993061544E+02  0.65277596112E+03  0.65290359357E+03  0.47000000000E+01 0. -1.
         -5    1    5    5    0  503  0.13509595978E+02 -0.60453152751E+02  0.16978130276E+03  0.18078958385E+03  0.47000000000E+01 0. -1.
<mgrwt>
<rscale>  0 0.27651810E+03</rscale>
<asrwt>0</asrwt>
<pdfrwt beam="1">  1        2 0.29436555E+00 0.27651810E+03</pdfrwt>
<pdfrwt beam="2">  1       -2 0.15369985E-02 0.27651810E+03</pdfrwt>
<totfact> 0.93939909E+03</totfact>
</mgrwt>
</event>
<event>
 9    1  0.7957670E-001  0.2664410E+03  0.7818608E-02  0.1103334E+00
          1   -1    0    0  501    0  0.00000000000E+00  0.00000000000E+00  0.87477601982E+03  0.87477601982E+03  0.00000000000E+00 0. -1.
         -1   -1    0    0    0  501 -0.00000000000E+00 -0.00000000000E+00 -0.20288286238E+02  0.20288286238E+02  0.00000000000E+00 0. -1.
         35    2    1    2    0    0  0.00000000000E+00  0.00000000000E+00  0.85448773358E+03  0.89506430606E+03  0.26644103501E+03 0.  0.
         25    2    3    3    0    0  0.24100812234E+02  0.13393458445E+02  0.57546542808E+03  0.58801710667E+03  0.11765808487E+03 0.  0.
         25    2    3    3    0    0 -0.24100812234E+02 -0.13393458445E+02  0.27902230550E+03  0.30704719939E+03  0.12515710850E+03 0.  0.
          5    1    4    4  502    0  0.32237446224E+02 -0.30850975250E+02  0.48302142556E+03  0.48510083813E+03  0.47000000000E+01 0. -1.
         -5    1    4    4    0  502 -0.81366339896E+01  0.44244433694E+02  0.92444002529E+02  0.10291626853E+03  0.47000000000E+01 0. -1.
          5    1    5    5  503    0 -0.43783829065E+02  0.44555090021E+02  0.17951877379E+03  0.19013484656E+03  0.47000000000E+01 0.  1.
         -5    1    5    5    0  503  0.19683016830E+02 -0.57948548466E+02  0.99503531707E+02  0.11691235282E+03  0.47000000000E+01 0.  1.
<mgrwt>
<rscale>  0 0.26644104E+03</rscale>
<asrwt>0</asrwt>
<pdfrwt beam="1">  1        1 0.13458090E+00 0.26644104E+03</pdfrwt>
<pdfrwt beam="2">  1       -1 0.31212755E-02 0.26644104E+03</pdfrwt>
<totfact> 0.70964170E+03</totfact>
</mgrwt>
</event>
<event>
 9    1  0.7957670E-001  0.2632327E+03  0.7818608E-02  0.1105216E+00
          1   -1    0    0  501    0  0.00000000000E+00  0.00000000000E+00  0.10199812560E+04  0.10199812560E+04  0.00000000000E+00 0.  1.
         -1   -1    0    0    0  501 -0.00000000000E+00 -0.00000000000E+00 -0.16983514302E+02  0.16983514302E+02  0.00000000000E+00 0.  1.
         35    2    1    2    0    0 -0.71054273576E-14  0.00000000000E+00  0.10029977417E+04  0.10369647703E+04  0.26323272022E+03 0.  0.
         25    2    3    3    0    0 -0.34619856726E+02 -0.20894053082E+02  0.45005577844E+03  0.46891079507E+03  0.12526784942E+03 0.  0.
         25    2    3    3    0    0  0.34619856726E+02  0.20894053082E+02  0.55294196322E+03  0.56805397519E+03  0.12371502779E+03 0.  0.
          5    1    4    4  502    0 -0.75122520293E+02  0.14006006528E+02  0.23015699609E+03  0.24255699149E+03  0.47000000000E+01 0.  1.
         -5    1    4    4    0  502  0.40502663567E+02 -0.34900059610E+02  0.21989878235E+03  0.22635380358E+03  0.47000000000E+01 0.  1.
          5    1    5    5  503    0 -0.13240399138E+02  0.16759147532E+02  0.48054180437E+03  0.48103918025E+03  0.47000000000E+01 0. -1.
         -5    1    5    5    0  503  0.47860255864E+02  0.41349055498E+01  0.72400158853E+02  0.87014794933E+02  0.47000000000E+01 0. -1.
<mgrwt>
<rscale>  0 0.26323272E+03</rscale>
<asrwt>0</asrwt>
<pdfrwt beam="1">  1        1 0.15692015E+00 0.26323272E+03</pdfrwt>
<pdfrwt beam="2">  1       -1 0.26128492E-02 0.26323272E+03</pdfrwt>
<totfact> 0.71328635E+03</totfact>
</mgrwt>
</event>
<event>
 9    1  0.7957670E-001  0.2748111E+03  0.7818608E-02  0.1098557E+00
         -1   -1    0    0    0  501 -0.00000000000E+00  0.00000000000E+00  0.40599780866E+02  0.40599780866E+02  0.00000000000E+00 0.  1.
          1   -1    0    0  501    0  0.00000000000E+00 -0.00000000000E+00 -0.46503426210E+03  0.46503426210E+03  0.00000000000E+00 0.  1.
         35    2    1    2    0    0  0.00000000000E+00 -0.71054273576E-14 -0.42443448123E+03  0.50563404296E+03  0.27481112886E+03 0.  0.
         25    2    3    3    0    0  0.25047655884E+01 -0.42858367361E+01 -0.31515406169E+03  0.33962969152E+03  0.12649744074E+03 0.  0.
         25    2    3    3    0    0 -0.25047655884E+01  0.42858367361E+01 -0.10928041954E+03  0.16600435144E+03  0.12486229357E+03 0.  0.
          5    1    4    4  502    0  0.49735925859E+02  0.37405074750E+02 -0.13521031678E+03  0.14891850692E+03  0.47000000000E+01 0.  1.
         -5    1    4    4    0  502 -0.47231160270E+02 -0.41690911486E+02 -0.17994374491E+03  0.19071118461E+03  0.47000000000E+01 0.  1.
          5    1    5    5  503    0  0.46289100969E+02 -0.37456146361E+02 -0.42982542982E+02  0.73588265165E+02  0.47000000000E+01 0.  1.
         -5    1    5    5    0  503 -0.48793866557E+02  0.41741983097E+02 -0.66297876555E+02  0.92416086274E+02  0.47000000000E+01 0.  1.
<mgrwt>
<rscale>  0 0.27481113E+03</rscale>
<asrwt>0</asrwt>
<pdfrwt beam="1">  1        1 0.71543731E-01 0.27481113E+03</pdfrwt>
<pdfrwt beam="2">  1       -1 0.62461203E-02 0.27481113E+03</pdfrwt>
<totfact> 0.62199975E+03</totfact>
</mgrwt>
</event>
<event>
 9    1  0.7957670E-001  0.2675080E+03  0.7818608E-02  0.1102714E+00
         -2   -1    0    0    0  501 -0.00000000000E+00  0.00000000000E+00  0.88834407853E+02  0.88834407853E+02  0.00000000000E+00 0.  1.
          2   -1    0    0  501    0  0.00000000000E+00 -0.00000000000E+00 -0.20138746586E+03  0.20138746586E+03  0.00000000000E+00 0.  1.
         35    2    1    2    0    0 -0.71054273576E-14  0.17763568394E-14 -0.11255305800E+03  0.29022187371E+03  0.26750802813E+03 0.  0.
         25    2    3    3    0    0  0.40249944070E+02  0.12981668677E+02 -0.33607675345E+02  0.13661804069E+03  0.12548478586E+03 0.  0.
         25    2    3    3    0    0 -0.40249944070E+02 -0.12981668677E+02 -0.78945382659E+02  0.15360383302E+03  0.12479255729E+03 0.  0.
          5    1    4    4  502    0  0.76544007702E+02 -0.10814997517E+02 -0.47444440894E+02  0.90824084130E+02  0.47000000000E+01 0. -1.
         -5    1    4    4    0  502 -0.36294063632E+02  0.23796666194E+02  0.13836765549E+02  0.45793956564E+02  0.47000000000E+01 0. -1.
          5    1    5    5  503    0  0.35964493920E+01 -0.35486608262E+02  0.21293073295E+02  0.41805726695E+02  0.47000000000E+01 0. -1.
         -5    1    5    5    0  503 -0.43846393462E+02  0.22504939584E+02 -0.10023845595E+03  0.11179810632E+03  0.47000000000E+01 0. -1.
<mgrwt>
<rscale>  0 0.26750803E+03</rscale>
<asrwt>0</asrwt>
<pdfrwt beam="1">  1        2 0.30982687E-01 0.26750803E+03</pdfrwt>
<pdfrwt beam="2">  1       -2 0.13666832E-01 0.26750803E+03</pdfrwt>
<totfact> 0.66959753E+03</totfact>
</mgrwt>
</event>
<event>
 9    1  0.7957670E-001  0.2794316E+03  0.7818608E-02  0.1096000E+00
          1   -1    0    0  501    0  0.00000000000E+00  0.00000000000E+00  0.47571350280E+03  0.47571350280E+03  0.00000000000E+00 0.  1.
         -1   -1    0    0    0  501 -0.00000000000E+00 -0.00000000000E+00 -0.41034151132E+02  0.41034151132E+02  0.00000000000E+00 0.  1.
         35    2    1    2    0    0  0.00000000000E+00  0.71054273576E-14  0.43467935167E+03  0.51674765393E+03  0.27943156421E+03 0.  0.
         25    2    3    3    0    0 -0.40389155788E+02 -0.42301163613E+02  0.23152947134E+03  0.27175475288E+03  0.12970766079E+03 0.  0.
         25    2    3    3    0    0  0.40389155788E+02  0.42301163613E+02  0.20314988033E+03  0.24499290105E+03  0.12381831585E+03 0.  0.
          5    1    4    4  502    0 -0.11133988733E+02 -0.37801208912E+02  0.14301533117E+01  0.39711867732E+02  0.47000000000E+01 0. -1.
         -5    1    4    4    0  502 -0.29255167055E+02 -0.44999547012E+01  0.23009931803E+03  0.23204288515E+03  0.47000000000E+01 0. -1.
          5    1    5    5  503    0 -0.14819549114E+02 -0.13140877738E+02  0.14741644396E+03  0.14881532063E+03  0.47000000000E+01 0. -1.
         -5    1    5    5    0  503  0.55208704902E+02  0.55442041351E+02  0.55733436363E+02  0.96177580417E+02  0.47000000000E+01 0. -1.
<mgrwt>
<rscale>  0 0.27943156E+03</rscale>
<asrwt>0</asrwt>
<pdfrwt beam="1">  1        1 0.73186689E-01 0.27943156E+03</pdfrwt>
<pdfrwt beam="2">  1       -1 0.63129467E-02 0.27943156E+03</pdfrwt>
<totfact> 0.59438939E+03</totfact>
</mgrwt>
</event>
<event>
 9    1  0.7957670E-001  0.2761101E+03  0.7818608E-02  0.1097833E+00
         -2   -1    0    0    0  501 -0.00000000000E+00  0.00000000000E+00  0.19193687379E+02  0.19193687379E+02  0.00000000000E+00 0. -1.
          2   -1    0    0  501    0  0.00000000000E+00 -0.00000000000E+00 -0.99299262832E+03  0.99299262832E+03  0.00000000000E+00 0. -1.
         35    2    1    2    0    0  0.00000000000E+00 -0.17763568394E-14 -0.97379894094E+03  0.10121863157E+04  0.27611005109E+03 0.  0.
         25    2    3    3    0    0 -0.12575894790E+02 -0.63930973890E+00 -0.69318061209E+03  0.70454794553E+03  0.12541883725E+03 0.  0.
         25    2    3    3    0    0  0.12575894790E+02  0.63930973890E+00 -0.28061832885E+03  0.30763837016E+03  0.12544384585E+03 0.  0.
          5    1    4    4  502    0 -0.36944167032E+02 -0.35038556967E+02 -0.59990899613E+03  0.60208426784E+03  0.47000000000E+01 0.  1.
         -5    1    4    4    0  502  0.24368272243E+02  0.34399247228E+02 -0.93271615958E+02  0.10246367769E+03  0.47000000000E+01 0.  1.
          5    1    5    5  503    0  0.10682533152E+02 -0.11351659464E+02  0.84047415009E+01  0.18322291528E+02  0.47000000000E+01 0.  1.
         -5    1    5    5    0  503  0.18933616373E+01  0.11990969202E+02 -0.28902307035E+03  0.28931607864E+03  0.47000000000E+01 0.  1.
<mgrwt>
<rscale>  0 0.27611005E+03</rscale>
<asrwt>0</asrwt>
<pdfrwt beam="1">  1        2 0.15276809E+00 0.27611005E+03</pdfrwt>
<pdfrwt beam="2">  1       -2 0.29528752E-02 0.27611005E+03</pdfrwt>
<totfact> 0.11474647E+04</totfact>
</mgrwt>
</event>
<event>
 9    1  0.7957670E-001  0.2691048E+03  0.7818608E-02  0.1101793E+00
         -2   -1    0    0    0  501 -0.00000000000E+00  0.00000000000E+00  0.34479487178E+02  0.34479487178E+02  0.00000000000E+00 0. -1.
          2   -1    0    0  501    0  0.00000000000E+00 -0.00000000000E+00 -0.52507592932E+03  0.52507592932E+03  0.00000000000E+00 0. -1.
         35    2    1    2    0    0  0.00000000000E+00 -0.17763568394E-14 -0.49059644215E+03  0.55955541650E+03  0.26910480317E+03 0.  0.
         25    2    3    3    0    0  0.16549911562E+02 -0.15925016555E+02 -0.14478605554E+03  0.19203685241E+03  0.12404694708E+03 0.  0.
         25    2    3    3    0    0 -0.16549911562E+02  0.15925016555E+02 -0.34581038660E+03  0.36751856409E+03  0.12230112732E+03 0.  0.
          5    1    4    4  502    0  0.55291172309E+02 -0.11207184499E+02 -0.14171938550E+03  0.15260795833E+03  0.47000000000E+01 0. -1.
         -5    1    4    4    0  502 -0.38741260746E+02 -0.47178320556E+01 -0.30666700456E+01  0.39428894084E+02  0.47000000000E+01 0. -1.
          5    1    5    5  503    0 -0.60952601213E+02 -0.14369100389E+02 -0.12102894332E+03  0.13635169878E+03  0.47000000000E+01 0.  1.
         -5    1    5    5    0  503  0.44402689651E+02  0.30294116944E+02 -0.22478144329E+03  0.23116686531E+03  0.47000000000E+01 0.  1.
<mgrwt>
<rscale>  0 0.26910480E+03</rscale>
<asrwt>0</asrwt>
<pdfrwt beam="1">  1        2 0.80780908E-01 0.26910480E+03</pdfrwt>
<pdfrwt beam="2">  1       -2 0.53045367E-02 0.26910480E+03</pdfrwt>
<totfact> 0.10461432E+04</totfact>
</mgrwt>
</event>
<event>
 9    1  0.7957670E-001  0.2743147E+03  0.7818608E-02  0.1098835E+00
          1   -1    0    0  501    0  0.00000000000E+00  0.00000000000E+00  0.12194932726E+03  0.12194932726E+03  0.00000000000E+00 0.  1.
         -1   -1    0    0    0  501 -0.00000000000E+00 -0.00000000000E+00 -0.15426193833E+03  0.15426193833E+03  0.00000000000E+00 0.  1.
         35    2    1    2    0    0  0.35527136788E-14  0.71054273576E-14 -0.32312611065E+02  0.27621126559E+03  0.27431470687E+03 0.  0.
         25    2    3    3    0    0 -0.25609769154E+02  0.14749895397E+02  0.33276491053E+02  0.13274803438E+03  0.12506516735E+03 0.  0.
         25    2    3    3    0    0  0.25609769154E+02 -0.14749895397E+02 -0.65589102118E+02  0.14346323120E+03  0.12412231347E+03 0.  0.
          5    1    4    4  502    0  0.79864548010E+01 -0.41779758132E+02  0.48913308073E+02  0.64991794532E+02  0.47000000000E+01 0.  1.
         -5    1    4    4    0  502 -0.33596223955E+02  0.56529653530E+02 -0.15636817020E+02  0.67756239851E+02  0.47000000000E+01 0.  1.
          5    1    5    5  503    0 -0.87741476979E+01  0.41087780688E+02 -0.65214496840E+02  0.77718800735E+02  0.47000000000E+01 0.  1.
         -5    1    5    5    0  503  0.34383916852E+02 -0.55837676085E+02 -0.37460527776E+00  0.65744430469E+02  0.47000000000E+01 0.  1.
<mgrwt>
<rscale>  0 0.27431471E+03</rscale>
<asrwt>0</asrwt>
<pdfrwt beam="1">  1        1 0.18761435E-01 0.27431471E+03</pdfrwt>
<pdfrwt beam="2">  1       -1 0.23732606E-01 0.27431471E+03</pdfrwt>
<totfact> 0.41905617E+03</totfact>
</mgrwt>
</event>
<event>
 9    1  0.7957670E-001  0.2704083E+03  0.7818608E-02  0.1101046E+00
          2   -1    0    0  501    0  0.00000000000E+00  0.00000000000E+00  0.10536026487E+04  0.10536026487E+04  0.00000000000E+00 0. -1.
         -2   -1    0    0    0  501 -0.00000000000E+00 -0.00000000000E+00 -0.17350143164E+02  0.17350143164E+02  0.00000000000E+00 0. -1.
         35    2    1    2    0    0 -0.71054273576E-14  0.17763568394E-14  0.10362525056E+04  0.10709527919E+04  0.27040826018E+03 0.  0.
         25    2    3    3    0    0 -0.45700966762E+02  0.55109429731E+01  0.33884232156E+03  0.36097364598E+03  0.11562398262E+03 0.  0.
         25    2    3    3    0    0  0.45700966762E+02 -0.55109429731E+01  0.69741018402E+03  0.70997914593E+03  0.12478170548E+03 0.  0.
          5    1    4    4  502    0 -0.18842440381E+02  0.11608375079E+02  0.33124811306E+03  0.33201987040E+03  0.47000000000E+01 0.  1.
         -5    1    4    4    0  502 -0.26858526381E+02 -0.60974321054E+01  0.75942084946E+01  0.28953775579E+02  0.47000000000E+01 0.  1.
          5    1    5    5  503    0  0.85188726773E+02 -0.14666497334E+02  0.55952203377E+03  0.56617949591E+03  0.47000000000E+01 0.  1.
         -5    1    5    5    0  503 -0.39487760012E+02  0.91555543613E+01  0.13788815026E+03  0.14379965003E+03  0.47000000000E+01 0.  1.
<mgrwt>
<rscale>  0 0.27040826E+03</rscale>
<asrwt>0</asrwt>
<pdfrwt beam="1">  1        2 0.16209267E+00 0.27040826E+03</pdfrwt>
<pdfrwt beam="2">  1       -2 0.26692536E-02 0.27040826E+03</pdfrwt>
<totfact> 0.12241565E+04</totfact>
</mgrwt>
</event>
<event>
 9    1  0.7957670E-001  0.2739567E+03  0.7818608E-02  0.1099036E+00
         -2   -1    0    0    0  501 -0.00000000000E+00  0.00000000000E+00  0.12567674207E+02  0.12567674207E+02  0.00000000000E+00 0. -1.
          2   -1    0    0  501    0  0.00000000000E+00 -0.00000000000E+00 -0.14929623082E+04  0.14929623082E+04  0.00000000000E+00 0. -1.
         35    2    1    2    0    0 -0.17763568394E-14  0.00000000000E+00 -0.14803946340E+04  0.15055299824E+04  0.27395666732E+03 0.  0.
         25    2    3    3    0    0  0.15960629085E+01 -0.24056778480E+02 -0.10085798016E+04  0.10165835331E+04  0.12501035000E+03 0.  0.
         25    2    3    3    0    0 -0.15960629085E+01  0.24056778480E+02 -0.47181483238E+03  0.48894644927E+03  0.12600840526E+03 0.  0.
          5    1    4    4  502    0  0.21641162606E+02 -0.38872033769E+02 -0.12718668498E+03  0.13482550859E+03  0.47000000000E+01 0.  1.
         -5    1    4    4    0  502 -0.20045099698E+02  0.14815255289E+02 -0.88139311659E+03  0.88175802451E+03  0.47000000000E+01 0.  1.
          5    1    5    5  503    0  0.26178814956E+01 -0.18283158633E+02 -0.42531733550E+03  0.42574411689E+03  0.47000000000E+01 0. -1.
         -5    1    5    5    0  503 -0.42139444041E+01  0.42339937113E+02 -0.46497496878E+02  0.63202332379E+02  0.47000000000E+01 0. -1.
<mgrwt>
<rscale>  0 0.27395667E+03</rscale>
<asrwt>0</asrwt>
<pdfrwt beam="1">  1        2 0.22968637E+00 0.27395667E+03</pdfrwt>
<pdfrwt beam="2">  1       -2 0.19334895E-02 0.27395667E+03</pdfrwt>
<totfact> 0.11182012E+04</totfact>
</mgrwt>
</event>
<event>
 9    1  0.7957670E-001  0.2740641E+03  0.7818608E-02  0.1098976E+00
          1   -1    0    0  501    0  0.00000000000E+00  0.00000000000E+00  0.39321311857E+03  0.39321311857E+03  0.00000000000E+00 0.  1.
         -1   -1    0    0    0  501 -0.00000000000E+00 -0.00000000000E+00 -0.47754729534E+02  0.47754729534E+02  0.00000000000E+00 0.  1.
         35    2    1    2    0    0  0.00000000000E+00  0.00000000000E+00  0.34545838904E+03  0.44096784811E+03  0.27406412481E+03 0.  0.
         25    2    3    3    0    0 -0.11156521424E+02 -0.20111758368E+02  0.25610654328E+03  0.28584483095E+03  0.12485093141E+03 0.  0.
         25    2    3    3    0    0  0.11156521424E+02  0.20111758368E+02  0.89351845758E+02  0.15512301716E+03  0.12470143270E+03 0.  0.
          5    1    4    4  502    0  0.41490613240E+02  0.11152290148E+02  0.19303776377E+03  0.19781686683E+03  0.47000000000E+01 0. -1.
         -5    1    4    4    0  502 -0.52647134664E+02 -0.31264048515E+02  0.63068779515E+02  0.88027964122E+02  0.47000000000E+01 0. -1.
          5    1    5    5  503    0  0.42876492177E+01  0.39413701775E+02 -0.19379300363E+02  0.44378723573E+02  0.47000000000E+01 0.  1.
         -5    1    5    5    0  503  0.68688722063E+01 -0.19301943407E+02  0.10873114612E+03  0.11074429358E+03  0.47000000000E+01 0.  1.
<mgrwt>
<rscale>  0 0.27406412E+03</rscale>
<asrwt>0</asrwt>
<pdfrwt beam="1">  1        1 0.60494324E-01 0.27406412E+03</pdfrwt>
<pdfrwt beam="2">  1       -1 0.73468817E-02 0.27406412E+03</pdfrwt>
<totfact> 0.60420432E+03</totfact>
</mgrwt>
</event>
<event>
 9    1  0.7957670E-001  0.2732043E+03  0.7818608E-02  0.1099460E+00
          1   -1    0    0  501    0  0.00000000000E+00  0.00000000000E+00  0.11225685336E+04  0.11225685336E+04  0.00000000000E+00 0. -1.
         -1   -1    0    0    0  501 -0.00000000000E+00 -0.00000000000E+00 -0.16622724864E+02  0.16622724864E+02  0.00000000000E+00 0. -1.
         35    2    1    2    0    0  0.00000000000E+00  0.71054273576E-14  0.11059458087E+04  0.11391912585E+04  0.27320430359E+03 0.  0.
         25    2    3    3    0    0 -0.53344606535E+02 -0.20452585574E+02  0.56241568575E+03  0.57875548865E+03  0.12402643573E+03 0.  0.
         25    2    3    3    0    0  0.53344606535E+02  0.20452585574E+02  0.54353012300E+03  0.56043576983E+03  0.12409392488E+03 0.  0.
          5    1    4    4  502    0  0.32641311537E+02 -0.35097878178E+02  0.23528435933E+03  0.24016272820E+03  0.47000000000E+01 0. -1.
         -5    1    4    4    0  502 -0.85985918072E+02  0.14645292604E+02  0.32713132643E+03  0.33859276045E+03  0.47000000000E+01 0. -1.
          5    1    5    5  503    0 -0.28122663808E+02 -0.14369482874E+01  0.36121516769E+02  0.46041318549E+02  0.47000000000E+01 0. -1.
         -5    1    5    5    0  503  0.81467270343E+02  0.21889533861E+02  0.50740860623E+03  0.51439445128E+03  0.47000000000E+01 0. -1.
<mgrwt>
<rscale>  0 0.27320430E+03</rscale>
<asrwt>0</asrwt>
<pdfrwt beam="1">  1        1 0.17270279E+00 0.27320430E+03</pdfrwt>
<pdfrwt beam="2">  1       -1 0.25573432E-02 0.27320430E+03</pdfrwt>
<totfact> 0.62037543E+03</totfact>
</mgrwt>
</event>
<event>
 9    1  0.7957670E-001  0.2557065E+03  0.7818608E-02  0.1109751E+00
         -1   -1    0    0    0  501 -0.00000000000E+00  0.00000000000E+00  0.47474358626E+02  0.47474358626E+02  0.00000000000E+00 0.  1.
          1   -1    0    0  501    0  0.00000000000E+00 -0.00000000000E+00 -0.34432172823E+03  0.34432172823E+03  0.00000000000E+00 0.  1.
         35    2    1    2    0    0 -0.53290705182E-14  0.00000000000E+00 -0.29684736960E+03  0.39179608685E+03  0.25570649744E+03 0.  0.
         25    2    3    3    0    0 -0.14894739672E+02 -0.25292733860E+02 -0.15242773124E+03  0.19823525843E+03  0.12329407438E+03 0.  0.
         25    2    3    3    0    0  0.14894739672E+02  0.25292733860E+02 -0.14441963836E+03  0.19356082843E+03  0.12548779502E+03 0.  0.
          5    1    4    4  502    0  0.93570937838E+01  0.43585928172E+02 -0.95594245883E+02  0.10558237630E+03  0.47000000000E+01 0.  1.
         -5    1    4    4    0  502 -0.24251833456E+02 -0.68878662032E+02 -0.56833485353E+02  0.92652882128E+02  0.47000000000E+01 0.  1.
          5    1    5    5  503    0 -0.37064308269E+02 -0.33134625415E+02 -0.47221177816E+02  0.68728421946E+02  0.47000000000E+01 0. -1.
         -5    1    5    5    0  503  0.51959047941E+02  0.58427359275E+02 -0.97198460549E+02  0.12483240648E+03  0.47000000000E+01 0. -1.
<mgrwt>
<rscale>  0 0.25570650E+03</rscale>
<asrwt>0</asrwt>
<pdfrwt beam="1">  1        1 0.52972574E-01 0.25570650E+03</pdfrwt>
<pdfrwt beam="2">  1       -1 0.73037474E-02 0.25570650E+03</pdfrwt>
<totfact> 0.72001895E+03</totfact>
</mgrwt>
</event>
<event>
 9    1  0.7957670E-001  0.2751708E+03  0.7818608E-02  0.1098356E+00
          1   -1    0    0  501    0  0.00000000000E+00  0.00000000000E+00  0.13467605302E+03  0.13467605302E+03  0.00000000000E+00 0. -1.
         -1   -1    0    0    0  501 -0.00000000000E+00 -0.00000000000E+00 -0.14055760318E+03  0.14055760318E+03  0.00000000000E+00 0. -1.
         35    2    1    2    0    0  0.00000000000E+00 -0.35527136788E-14 -0.58815501555E+01  0.27523365620E+03  0.27517080672E+03 0.  0.
         25    2    3    3    0    0  0.31974197074E+02  0.12874542168E+02 -0.49517367398E+02  0.13869926093E+03  0.12488960003E+03 0.  0.
         25    2    3    3    0    0 -0.31974197074E+02 -0.12874542168E+02  0.43635817242E+02  0.13653439526E+03  0.12469744756E+03 0.  0.
          5    1    4    4  502    0  0.40895750562E+02  0.32496756862E+02 -0.83250002555E+02  0.98392858206E+02  0.47000000000E+01 0. -1.
         -5    1    4    4    0  502 -0.89215534878E+01 -0.19622214693E+02  0.33732635157E+02  0.40306402727E+02  0.47000000000E+01 0. -1.
          5    1    5    5  503    0  0.22525346124E+02 -0.37595663438E+02  0.59873167950E+02  0.74348580133E+02  0.47000000000E+01 0. -1.
         -5    1    5    5    0  503 -0.54499543197E+02  0.24721121269E+02 -0.16237350708E+02  0.62185815131E+02  0.47000000000E+01 0. -1.
<mgrwt>
<rscale>  0 0.27517081E+03</rscale>
<asrwt>0</asrwt>
<pdfrwt beam="1">  1        1 0.20719393E-01 0.27517081E+03</pdfrwt>
<pdfrwt beam="2">  1       -1 0.21624247E-01 0.27517081E+03</pdfrwt>
<totfact> 0.42974768E+03</totfact>
</mgrwt>
</event>
<event>
 9    1  0.7957670E-001  0.2732424E+03  0.7818608E-02  0.1099438E+00
         -1   -1    0    0    0  501 -0.00000000000E+00  0.00000000000E+00  0.15127944478E+02  0.15127944478E+02  0.00000000000E+00 0. -1.
          1   -1    0    0  501    0  0.00000000000E+00 -0.00000000000E+00 -0.12338324157E+04  0.12338324157E+04  0.00000000000E+00 0. -1.
         35    2    1    2    0    0  0.71054273576E-14 -0.71054273576E-14 -0.12187044712E+04  0.12489603602E+04  0.27324237065E+03 0.  0.
         25    2    3    3    0    0  0.22242292576E+02 -0.48265034329E+02 -0.68629258595E+03  0.69947887313E+03  0.12429379430E+03 0.  0.
         25    2    3    3    0    0 -0.22242292576E+02  0.48265034329E+02 -0.53241188528E+03  0.54948148707E+03  0.12507300235E+03 0.  0.
          5    1    4    4  502    0 -0.45629234194E+02  0.54811014805E+01 -0.30307128029E+03  0.30657194983E+03  0.47000000000E+01 0.  1.
         -5    1    4    4    0  502  0.67871526770E+02 -0.53746135809E+02 -0.38322130566E+03  0.39290692330E+03  0.47000000000E+01 0.  1.
          5    1    5    5  503    0  0.50149799744E+02  0.18847650841E+02 -0.15583536509E+03  0.16485444298E+03  0.47000000000E+01 0. -1.
         -5    1    5    5    0  503 -0.72392092320E+02  0.29417383488E+02 -0.37657652019E+03  0.38462704409E+03  0.47000000000E+01 0. -1.
<mgrwt>
<rscale>  0 0.27324237E+03</rscale>
<asrwt>0</asrwt>
<pdfrwt beam="1">  1        1 0.18982043E+00 0.27324237E+03</pdfrwt>
<pdfrwt beam="2">  1       -1 0.23273754E-02 0.27324237E+03</pdfrwt>
<totfact> 0.59485033E+03</totfact>
</mgrwt>
</event>
<event>
 9    1  0.7957670E-001  0.2738364E+03  0.7818608E-02  0.1099104E+00
         -1   -1    0    0    0  501 -0.00000000000E+00  0.00000000000E+00  0.46060542562E+02  0.46060542562E+02  0.00000000000E+00 0. -1.
          1   -1    0    0  501    0  0.00000000000E+00 -0.00000000000E+00 -0.40699905648E+03  0.40699905648E+03  0.00000000000E+00 0. -1.
         35    2    1    2    0    0  0.35527136788E-14 -0.35527136788E-14 -0.36093851392E+03  0.45305959904E+03  0.27383642828E+03 0.  0.
         25    2    3    3    0    0  0.19439068654E+02  0.17444685274E+02 -0.24190194801E+03  0.27485303219E+03  0.12784929574E+03 0.  0.
         25    2    3    3    0    0 -0.19439068654E+02 -0.17444685274E+02 -0.11903656591E+03  0.17820656685E+03  0.13002185205E+03 0.  0.
          5    1    4    4  502    0 -0.16793422668E+02  0.20094163577E+02  0.34076143547E+01  0.26823428013E+02  0.47000000000E+01 0.  1.
         -5    1    4    4    0  502  0.36232491322E+02 -0.26494783039E+01 -0.24530956237E+03  0.24802960418E+03  0.47000000000E+01 0.  1.
          5    1    5    5  503    0 -0.36784684836E+02  0.26913976544E+02  0.41896912356E+01  0.46012158008E+02  0.47000000000E+01 0.  1.
         -5    1    5    5    0  503  0.17345616181E+02 -0.44358661818E+02 -0.12322625714E+03  0.13219440884E+03  0.47000000000E+01 0.  1.
<mgrwt>
<rscale>  0 0.27383643E+03</rscale>
<asrwt>0</asrwt>
<pdfrwt beam="1">  1        1 0.62615240E-01 0.27383643E+03</pdfrwt>
<pdfrwt beam="2">  1       -1 0.70862373E-02 0.27383643E+03</pdfrwt>
<totfact> 0.61069097E+03</totfact>
</mgrwt>
</event>
<event>
 9    1  0.7957670E-001  0.2861207E+03  0.7818608E-02  0.1092392E+00
         -1   -1    0    0    0  501 -0.00000000000E+00  0.00000000000E+00  0.41702032913E+02  0.41702032913E+02  0.00000000000E+00 0. -1.
          1   -1    0    0  501    0  0.00000000000E+00 -0.00000000000E+00 -0.49077392574E+03  0.49077392574E+03  0.00000000000E+00 0. -1.
         35    2    1    2    0    0  0.35527136788E-14  0.00000000000E+00 -0.44907189283E+03  0.53247595866E+03  0.28612074657E+03 0.  0.
         25    2    3    3    0    0 -0.21624840485E+01 -0.66164995311E+02 -0.26278056013E+03  0.29873746185E+03  0.12572973153E+03 0.  0.
         25    2    3    3    0    0  0.21624840485E+01  0.66164995311E+02 -0.18629133270E+03  0.23373849680E+03  0.12468657228E+03 0.  0.
          5    1    4    4  502    0  0.49616668396E+02 -0.22579808303E+02 -0.45660664640E+02  0.71264632330E+02  0.47000000000E+01 0.  1.
         -5    1    4    4    0  502 -0.51779152444E+02 -0.43585187008E+02 -0.21711989549E+03  0.22747282952E+03  0.47000000000E+01 0.  1.
          5    1    5    5  503    0 -0.70040841788E+01 -0.20927105969E+01 -0.15942863216E+03  0.15966532305E+03  0.47000000000E+01 0. -1.
         -5    1    5    5    0  503  0.91665682273E+01  0.68257705908E+02 -0.26862700538E+02  0.74073173748E+02  0.47000000000E+01 0. -1.
<mgrwt>
<rscale>  0 0.28612075E+03</rscale>
<asrwt>0</asrwt>
<pdfrwt beam="1">  1        1 0.75503685E-01 0.28612075E+03</pdfrwt>
<pdfrwt beam="2">  1       -1 0.64156970E-02 0.28612075E+03</pdfrwt>
<totfact> 0.55700492E+03</totfact>
</mgrwt>
</event>
<event>
 9    1  0.7957670E-001  0.2767022E+03  0.7818608E-02  0.1097504E+00
          2   -1    0    0  501    0  0.00000000000E+00  0.00000000000E+00  0.40145262098E+03  0.40145262098E+03  0.00000000000E+00 0.  1.
         -2   -1    0    0    0  501 -0.00000000000E+00 -0.00000000000E+00 -0.47679403624E+02  0.47679403624E+02  0.00000000000E+00 0.  1.
         35    2    1    2    0    0  0.00000000000E+00  0.00000000000E+00  0.35377321736E+03  0.44913202461E+03  0.27670216155E+03 0.  0.
         25    2    3    3    0    0  0.12275584605E+02  0.48722923897E+02  0.11647697755E+03  0.17786896268E+03  0.12468307141E+03 0.  0.
         25    2    3    3    0    0 -0.12275584605E+02 -0.48722923897E+02  0.23729623981E+03  0.27126306193E+03  0.12144764323E+03 0.  0.
          5    1    4    4  502    0  0.63377253738E+02  0.51916627245E+02  0.61154081023E+02  0.10234219121E+03  0.47000000000E+01 0.  1.
         -5    1    4    4    0  502 -0.51101669133E+02 -0.31937033483E+01  0.55322896524E+02  0.75526771473E+02  0.47000000000E+01 0.  1.
          5    1    5    5  503    0  0.48515138375E+02 -0.23523043353E+02  0.16374822876E+03  0.17246050169E+03  0.47000000000E+01 0.  1.
         -5    1    5    5    0  503 -0.60790722980E+02 -0.25199880544E+02  0.73548011050E+02  0.98802560236E+02  0.47000000000E+01 0.  1.
<mgrwt>
<rscale>  0 0.27670216E+03</rscale>
<asrwt>0</asrwt>
<pdfrwt beam="1">  1        2 0.61761939E-01 0.27670216E+03</pdfrwt>
<pdfrwt beam="2">  1       -2 0.73352931E-02 0.27670216E+03</pdfrwt>
<totfact> 0.85593120E+03</totfact>
</mgrwt>
</event>
<event>
 9    1  0.7957670E-001  0.2739749E+03  0.7818608E-02  0.1099026E+00
         -2   -1    0    0    0  501 -0.00000000000E+00  0.00000000000E+00  0.35305840667E+03  0.35305840667E+03  0.00000000000E+00 0. -1.
          2   -1    0    0  501    0  0.00000000000E+00 -0.00000000000E+00 -0.53151447901E+02  0.53151447901E+02  0.00000000000E+00 0. -1.
         35    2    1    2    0    0  0.00000000000E+00  0.00000000000E+00  0.29990695877E+03  0.40620985458E+03  0.27397492957E+03 0.  0.
         25    2    3    3    0    0 -0.48626374740E+02  0.12323142708E+02  0.17921610505E+03  0.22542088599E+03  0.12719976165E+03 0.  0.
         25    2    3    3    0    0  0.48626374740E+02 -0.12323142708E+02  0.12069085373E+03  0.18078896859E+03  0.12490790537E+03 0.  0.
          5    1    4    4  502    0 -0.59366519730E+01  0.39733785956E+02  0.14254163833E+01  0.40473934760E+02  0.47000000000E+01 0.  1.
         -5    1    4    4    0  502 -0.42689722767E+02 -0.27410643248E+02  0.17779068866E+03  0.18494695123E+03  0.47000000000E+01 0.  1.
          5    1    5    5  503    0  0.57771948154E+02 -0.94391406308E+01  0.14380115191E+03  0.15533047564E+03  0.47000000000E+01 0. -1.
         -5    1    5    5    0  503 -0.91455734140E+01 -0.28840020773E+01 -0.23110298188E+02  0.25458492952E+02  0.47000000000E+01 0. -1.
<mgrwt>
<rscale>  0 0.27397493E+03</rscale>
<asrwt>0</asrwt>
<pdfrwt beam="1">  1        2 0.81771461E-02 0.27397493E+03</pdfrwt>
<pdfrwt beam="2">  1       -2 0.54316676E-01 0.27397493E+03</pdfrwt>
<totfact> 0.26760340E+03</totfact>
</mgrwt>
</event>
<event>
 9    1  0.7957670E-001  0.2592993E+03  0.7818608E-02  0.1107565E+00
         -2   -1    0    0    0  501 -0.00000000000E+00  0.00000000000E+00  0.27418024507E+03  0.27418024507E+03  0.00000000000E+00 0. -1.
          2   -1    0    0  501    0  0.00000000000E+00 -0.00000000000E+00 -0.61306494440E+02  0.61306494440E+02  0.00000000000E+00 0. -1.
         35    2    1    2    0    0  0.00000000000E+00  0.35527136788E-14  0.21287375063E+03  0.33548673951E+03  0.25929928400E+03 0.  0.
         25    2    3    3    0    0 -0.12372316362E+02 -0.21150387501E+02  0.76053159036E+02  0.14859424741E+03  0.12528269737E+03 0.  0.
         25    2    3    3    0    0  0.12372316362E+02  0.21150387501E+02  0.13682059159E+03  0.18689249210E+03  0.12493404746E+03 0.  0.
          5    1    4    4  502    0  0.12744567929E+01  0.27203226783E+02 -0.23957220224E+02  0.36574283156E+02  0.47000000000E+01 0.  1.
         -5    1    4    4    0  502 -0.13646773155E+02 -0.48353614284E+02  0.10001037926E+03  0.11201996425E+03  0.47000000000E+01 0.  1.
          5    1    5    5  503    0  0.74403711656E+01  0.37384003802E+01  0.15820106078E+03  0.15848974854E+03  0.47000000000E+01 0. -1.
         -5    1    5    5    0  503  0.49319451964E+01  0.17411987121E+02 -0.21380469188E+02  0.28402743558E+02  0.47000000000E+01 0. -1.
<mgrwt>
<rscale>  0 0.25929928E+03</rscale>
<asrwt>0</asrwt>
<pdfrwt beam="1">  1        2 0.94317685E-02 0.25929928E+03</pdfrwt>
<pdfrwt beam="2">  1       -2 0.42181575E-01 0.25929928E+03</pdfrwt>
<totfact> 0.36797252E+03</totfact>
</mgrwt>
</event>
<event>
 9    1  0.7957670E-001  0.2746863E+03  0.7818608E-02  0.1098627E+00
          2   -1    0    0  501    0  0.00000000000E+00  0.00000000000E+00  0.40588478579E+03  0.40588478579E+03  0.00000000000E+00 0.  1.
         -2   -1    0    0    0  501 -0.00000000000E+00 -0.00000000000E+00 -0.46474112815E+02  0.46474112815E+02  0.00000000000E+00 0.  1.
         35    2    1    2    0    0 -0.17763568394E-14 -0.71054273576E-14  0.35941067298E+03  0.45235889861E+03  0.27468625976E+03 0.  0.
         25    2    3    3    0    0  0.51076780067E+01  0.68170795938E+01  0.27307289051E+03  0.30001293973E+03  0.12396128237E+03 0.  0.
         25    2    3    3    0    0 -0.51076780067E+01 -0.68170795938E+01  0.86337782469E+02  0.15234595888E+03  0.12522985888E+03 0.  0.
          5    1    4    4  502    0  0.36376416762E+02 -0.42583419596E+02  0.76828655195E+02  0.95190984762E+02  0.47000000000E+01 0. -1.
         -5    1    4    4    0  502 -0.31268738755E+02  0.49400499190E+02  0.19624423531E+03  0.20482195497E+03  0.47000000000E+01 0. -1.
          5    1    5    5  503    0 -0.11385382476E+02 -0.61297774516E+02  0.18941520987E+02  0.65329283726E+02  0.47000000000E+01 0.  1.
         -5    1    5    5    0  503  0.62777044692E+01  0.54480694923E+02  0.67396261482E+02  0.87016675151E+02  0.47000000000E+01 0.  1.
<mgrwt>
<rscale>  0 0.27468626E+03</rscale>
<asrwt>0</asrwt>
<pdfrwt beam="1">  1        2 0.62443811E-01 0.27468626E+03</pdfrwt>
<pdfrwt beam="2">  1       -2 0.71498638E-02 0.27468626E+03</pdfrwt>
<totfact> 0.87980558E+03</totfact>
</mgrwt>
</event>
<event>
 9    1  0.7957670E-001  0.2764820E+03  0.7818608E-02  0.1097626E+00
          2   -1    0    0  501    0  0.00000000000E+00  0.00000000000E+00  0.94378226442E+02  0.94378226442E+02  0.00000000000E+00 0. -1.
         -2   -1    0    0    0  501 -0.00000000000E+00 -0.00000000000E+00 -0.20248916234E+03  0.20248916234E+03  0.00000000000E+00 0. -1.
         35    2    1    2    0    0  0.00000000000E+00  0.00000000000E+00 -0.10811093590E+03  0.29686738878E+03  0.27648195612E+03 0.  0.
         25    2    3    3    0    0 -0.45703031550E+02  0.37821532220E+02 -0.49116869289E+02  0.14652231923E+03  0.12464785515E+03 0.  0.
         25    2    3    3    0    0  0.45703031550E+02 -0.37821532220E+02 -0.58994066608E+02  0.15034506955E+03  0.12491639064E+03 0.  0.
          5    1    4    4  502    0  0.41963517903E+00  0.64544663710E+02 -0.63960141769E+02  0.90989996386E+02  0.47000000000E+01 0.  1.
         -5    1    4    4    0  502 -0.46122666729E+02 -0.26723131491E+02  0.14843272480E+02  0.55532322847E+02  0.47000000000E+01 0.  1.
          5    1    5    5  503    0  0.19658023721E+02 -0.76490040498E+02 -0.56115069589E+01  0.79314205552E+02  0.47000000000E+01 0. -1.
         -5    1    5    5    0  503  0.26045007829E+02  0.38668508279E+02 -0.53382559649E+02  0.71030863996E+02  0.47000000000E+01 0. -1.
<mgrwt>
<rscale>  0 0.27648196E+03</rscale>
<asrwt>0</asrwt>
<pdfrwt beam="1">  1        2 0.14519727E-01 0.27648196E+03</pdfrwt>
<pdfrwt beam="2">  1       -2 0.31152179E-01 0.27648196E+03</pdfrwt>
<totfact> 0.38469572E+03</totfact>
</mgrwt>
</event>
<event>
 9    1  0.7957670E-001  0.2817969E+03  0.7818608E-02  0.1094712E+00
         -2   -1    0    0    0  501 -0.00000000000E+00  0.00000000000E+00  0.98035046406E+02  0.98035046406E+02  0.00000000000E+00 0.  1.
          2   -1    0    0  501    0  0.00000000000E+00 -0.00000000000E+00 -0.20250277728E+03  0.20250277728E+03  0.00000000000E+00 0.  1.
         35    2    1    2    0    0  0.00000000000E+00 -0.71054273576E-14 -0.10446773087E+03  0.30053782369E+03  0.28179687130E+03 0.  0.
         25    2    3    3    0    0 -0.18896064390E+02 -0.44895362061E+00  0.17471265092E+02  0.12495392274E+03  0.12227417919E+03 0.  0.
         25    2    3    3    0    0  0.18896064390E+02  0.44895362061E+00 -0.12193899596E+03  0.17558390094E+03  0.12491326881E+03 0.  0.
          5    1    4    4  502    0  0.57628195548E+01  0.58534249297E+02  0.14613577754E+02  0.60787458285E+02  0.47000000000E+01 0.  1.
         -5    1    4    4    0  502 -0.24658883945E+02 -0.58983202918E+02  0.28576873380E+01  0.64166464456E+02  0.47000000000E+01 0.  1.
          5    1    5    5  503    0 -0.27182851709E+02 -0.39405530642E+02 -0.11639944821E+02  0.49490217090E+02  0.47000000000E+01 0.  1.
         -5    1    5    5    0  503  0.46078916099E+02  0.39854484262E+02 -0.11029905114E+03  0.12609368385E+03  0.47000000000E+01 0.  1.
<mgrwt>
<rscale>  0 0.28179687E+03</rscale>
<asrwt>0</asrwt>
<pdfrwt beam="1">  1        2 0.31154273E-01 0.28179687E+03</pdfrwt>
<pdfrwt beam="2">  1       -2 0.15082315E-01 0.28179687E+03</pdfrwt>
<totfact> 0.56706657E+03</totfact>
</mgrwt>
</event>
<event>
 9    1  0.7957670E-001  0.2721389E+03  0.7818608E-02  0.1100062E+00
         -2   -1    0    0    0  501 -0.00000000000E+00  0.00000000000E+00  0.10186233850E+02  0.10186233850E+02  0.00000000000E+00 0.  1.
          2   -1    0    0  501    0  0.00000000000E+00 -0.00000000000E+00 -0.18176386800E+04  0.18176386800E+04  0.00000000000E+00 0.  1.
         35    2    1    2    0    0  0.00000000000E+00  0.71054273576E-14 -0.18074524462E+04  0.18278249139E+04  0.27213888109E+03 0.  0.
         25    2    3    3    0    0 -0.35727383764E+02 -0.89312853496E+01 -0.64011557402E+03  0.65313080868E+03  0.12440133169E+03 0.  0.
         25    2    3    3    0    0  0.35727383764E+02  0.89312853496E+01 -0.11673368722E+04  0.11746941052E+04  0.12599465820E+03 0.  0.
          5    1    4    4  502    0 -0.41263497640E+02 -0.15290000823E+02 -0.64180715295E+03  0.64333115263E+03  0.47000000000E+01 0. -1.
         -5    1    4    4    0  502  0.55361138756E+01  0.63587154733E+01  0.16915789311E+01  0.97996560447E+01  0.47000000000E+01 0. -1.
          5    1    5    5  503    0 -0.35073850968E+02 -0.27098028224E+02 -0.25260029415E+03  0.25650239133E+03  0.47000000000E+01 0.  1.
         -5    1    5    5    0  503  0.70801234732E+02  0.36029313574E+02 -0.91473657802E+03  0.91819171388E+03  0.47000000000E+01 0.  1.
<mgrwt>
<rscale>  0 0.27213888E+03</rscale>
<asrwt>0</asrwt>
<pdfrwt beam="1">  1        2 0.27963683E+00 0.27213888E+03</pdfrwt>
<pdfrwt beam="2">  1       -2 0.15671123E-02 0.27213888E+03</pdfrwt>
<totfact> 0.10248785E+04</totfact>
</mgrwt>
</event>
<event>
 9    1  0.7957670E-001  0.2719293E+03  0.7818608E-02  0.1100180E+00
         -2   -1    0    0    0  501 -0.00000000000E+00  0.00000000000E+00  0.14610371068E+03  0.14610371068E+03  0.00000000000E+00 0.  1.
          2   -1    0    0  501    0  0.00000000000E+00 -0.00000000000E+00 -0.12652924804E+03  0.12652924804E+03  0.00000000000E+00 0.  1.
         35    2    1    2    0    0  0.35527136788E-14 -0.71054273576E-14  0.19574462642E+02  0.27263295872E+03  0.27192934853E+03 0.  0.
         25    2    3    3    0    0 -0.12593450813E+02 -0.31345831187E+02 -0.29876317780E+02  0.13259502842E+03  0.12469038079E+03 0.  0.
         25    2    3    3    0    0  0.12593450813E+02  0.31345831187E+02  0.49450780422E+02  0.14003793031E+03  0.12658627929E+03 0.  0.
          5    1    4    4  502    0  0.19878882407E+02  0.31104963338E+02  0.23605828273E+02  0.44068286085E+02  0.47000000000E+01 0.  1.
         -5    1    4    4    0  502 -0.32472333220E+02 -0.62450794525E+02 -0.53482146053E+02  0.88526742333E+02  0.47000000000E+01 0.  1.
          5    1    5    5  503    0 -0.75416197194E+01 -0.45592854088E+02  0.37035298488E+02  0.59407808460E+02  0.47000000000E+01 0.  1.
         -5    1    5    5    0  503  0.20135070532E+02  0.76938685275E+02  0.12415481933E+02  0.80630121846E+02  0.47000000000E+01 0.  1.
<mgrwt>
<rscale>  0 0.27192935E+03</rscale>
<asrwt>0</asrwt>
<pdfrwt beam="1">  1        2 0.19466038E-01 0.27192935E+03</pdfrwt>
<pdfrwt beam="2">  1       -2 0.22477494E-01 0.27192935E+03</pdfrwt>
<totfact> 0.48796919E+03</totfact>
</mgrwt>
</event>
<event>
 9    1  0.7957670E-001  0.2826608E+03  0.7818608E-02  0.1094244E+00
         -4   -1    0    0    0  501 -0.00000000000E+00  0.00000000000E+00  0.10550701935E+02  0.10550701935E+02  0.00000000000E+00 0. -1.
          4   -1    0    0  501    0  0.00000000000E+00 -0.00000000000E+00 -0.18931708141E+04  0.18931708141E+04  0.00000000000E+00 0. -1.
         35    2    1    2    0    0 -0.71054273576E-14 -0.71054273576E-14 -0.18826201121E+04  0.19037215160E+04  0.28266079298E+03 0.  0.
         25    2    3    3    0    0 -0.15968172377E+02  0.51687227666E+02 -0.11884542470E+04  0.11963241646E+04  0.12586285178E+03 0.  0.
         25    2    3    3    0    0  0.15968172377E+02 -0.51687227666E+02 -0.69416586515E+03  0.70739735146E+03  0.12497284699E+03 0.  0.
          5    1    4    4  502    0 -0.56635235391E+02 -0.14679081207E+02 -0.55152301998E+03  0.55463750043E+03  0.47000000000E+01 0. -1.
         -5    1    4    4    0  502  0.40667063015E+02  0.66366308873E+02 -0.63693122702E+03  0.64168666413E+03  0.47000000000E+01 0. -1.
          5    1    5    5  503    0 -0.46804522129E+02 -0.40716768628E+02 -0.47656936460E+03  0.48061311656E+03  0.47000000000E+01 0. -1.
         -5    1    5    5    0  503  0.62772694506E+02 -0.10970459039E+02 -0.21759650055E+03  0.22678423490E+03  0.47000000000E+01 0. -1.
<mgrwt>
<rscale>  0 0.28266079E+03</rscale>
<asrwt>0</asrwt>
<pdfrwt beam="1">  1        4 0.29125652E+00 0.28266079E+03</pdfrwt>
<pdfrwt beam="2">  1       -4 0.16231879E-02 0.28266079E+03</pdfrwt>
<totfact> 0.10730816E+02</totfact>
</mgrwt>
</event>
<event>
 9    1  0.7957670E-001  0.2765529E+03  0.7818608E-02  0.1097587E+00
          1   -1    0    0  501    0  0.00000000000E+00  0.00000000000E+00  0.26010244238E+02  0.26010244238E+02  0.00000000000E+00 0.  1.
         -1   -1    0    0    0  501 -0.00000000000E+00 -0.00000000000E+00 -0.73510964690E+03  0.73510964690E+03  0.00000000000E+00 0.  1.
         35    2    1    2    0    0  0.00000000000E+00  0.00000000000E+00 -0.70909940266E+03  0.76111989113E+03  0.27655293495E+03 0.  0.
         25    2    3    3    0    0  0.22577853738E+02 -0.41551498168E+00 -0.50485814705E+03  0.52033068823E+03  0.12390457758E+03 0.  0.
         25    2    3    3    0    0 -0.22577853738E+02  0.41551498168E+00 -0.20424125561E+03  0.24078920290E+03  0.12551899302E+03 0.  0.
          5    1    4    4  502    0  0.53240529067E+02 -0.31310478647E+02 -0.14307990189E+03  0.15591295114E+03  0.47000000000E+01 0. -1.
         -5    1    4    4    0  502 -0.30662675329E+02  0.30894963666E+02 -0.36177824515E+03  0.36441773709E+03  0.47000000000E+01 0. -1.
          5    1    5    5  503    0  0.80603760173E+01 -0.27645251161E+02 -0.19601690752E+03  0.19817655665E+03  0.47000000000E+01 0. -1.
         -5    1    5    5    0  503 -0.30638229755E+02  0.28060766143E+02 -0.82243480961E+01  0.42612646253E+02  0.47000000000E+01 0. -1.
<mgrwt>
<rscale>  0 0.27655293E+03</rscale>
<asrwt>0</asrwt>
<pdfrwt beam="1">  1        1 0.40015764E-02 0.27655293E+03</pdfrwt>
<pdfrwt beam="2">  1       -1 0.11309378E+00 0.27655293E+03</pdfrwt>
<totfact> 0.17277341E+03</totfact>
</mgrwt>
</event>
<event>
 9    1  0.7957670E-001  0.2742799E+03  0.7818608E-02  0.1098855E+00
          1   -1    0    0  501    0  0.00000000000E+00  0.00000000000E+00  0.61569827264E+03  0.61569827264E+03  0.00000000000E+00 0. -1.
         -1   -1    0    0    0  501 -0.00000000000E+00 -0.00000000000E+00 -0.30546410844E+02  0.30546410844E+02  0.00000000000E+00 0. -1.
         35    2    1    2    0    0  0.00000000000E+00  0.71054273576E-14  0.58515186180E+03  0.64624468349E+03  0.27427994744E+03 0.  0.
         25    2    3    3    0    0 -0.30657230379E+01  0.50908399800E+02  0.26439521871E+03  0.29683530791E+03  0.12492119324E+03 0.  0.
         25    2    3    3    0    0  0.30657230379E+01 -0.50908399800E+02  0.32075664309E+03  0.34940937558E+03  0.12884496041E+03 0.  0.
          5    1    4    4  502    0 -0.25723664745E+02  0.45018871502E+02  0.26771261979E+03  0.27272796430E+03  0.47000000000E+01 0. -1.
         -5    1    4    4    0  502  0.22657941707E+02  0.58895282973E+01 -0.33174010805E+01  0.24107343609E+02  0.47000000000E+01 0. -1.
          5    1    5    5  503    0  0.11158111909E+02  0.42754029977E+02  0.10456046510E+03  0.11361070109E+03  0.47000000000E+01 0.  1.
         -5    1    5    5    0  503 -0.80923888706E+01 -0.93662429777E+02  0.21619617800E+03  0.23579867449E+03  0.47000000000E+01 0.  1.
<mgrwt>
<rscale>  0 0.27427995E+03</rscale>
<asrwt>0</asrwt>
<pdfrwt beam="1">  1        1 0.94722802E-01 0.27427995E+03</pdfrwt>
<pdfrwt beam="2">  1       -1 0.46994483E-02 0.27427995E+03</pdfrwt>
<totfact> 0.65284716E+03</totfact>
</mgrwt>
</event>
<event>
 9    1  0.7957670E-001  0.2832389E+03  0.7818608E-02  0.1093933E+00
         -2   -1    0    0    0  501 -0.00000000000E+00  0.00000000000E+00  0.27895721323E+03  0.27895721323E+03  0.00000000000E+00 0.  1.
          2   -1    0    0  501    0  0.00000000000E+00 -0.00000000000E+00 -0.71896586310E+02  0.71896586310E+02  0.00000000000E+00 0.  1.
         35    2    1    2    0    0  0.10658141036E-13 -0.17763568394E-14  0.20706062692E+03  0.35085379954E+03  0.28323891935E+03 0.  0.
         25    2    3    3    0    0 -0.16054611203E+02  0.15915208833E+02  0.24084872221E+02  0.12817758278E+03  0.12384816206E+03 0.  0.
         25    2    3    3    0    0  0.16054611203E+02 -0.15915208833E+02  0.18297575470E+03  0.22267621676E+03  0.12487404170E+03 0.  0.
          5    1    4    4  502    0  0.18239357501E+02 -0.60409387373E+01 -0.44262190512E+02  0.48480909766E+02  0.47000000000E+01 0.  1.
         -5    1    4    4    0  502 -0.34293968703E+02  0.21956147570E+02  0.68347062732E+02  0.79696673015E+02  0.47000000000E+01 0.  1.
          5    1    5    5  503    0  0.42780797262E+02  0.41700097865E+02  0.63666370481E+02  0.87433354657E+02  0.47000000000E+01 0. -1.
         -5    1    5    5    0  503 -0.26726186059E+02 -0.57615306698E+02  0.11930938422E+03  0.13524286210E+03  0.47000000000E+01 0. -1.
<mgrwt>
<rscale>  0 0.28323892E+03</rscale>
<asrwt>0</asrwt>
<pdfrwt beam="1">  1        2 0.11061013E-01 0.28323892E+03</pdfrwt>
<pdfrwt beam="2">  1       -2 0.42916494E-01 0.28323892E+03</pdfrwt>
<totfact> 0.29293917E+03</totfact>
</mgrwt>
</event>
<event>
 9    1  0.7957670E-001  0.2764058E+03  0.7818608E-02  0.1097668E+00
          2   -1    0    0  501    0  0.00000000000E+00  0.00000000000E+00  0.67074963989E+03  0.67074963989E+03  0.00000000000E+00 0. -1.
         -2   -1    0    0    0  501 -0.00000000000E+00 -0.00000000000E+00 -0.28475666838E+02  0.28475666838E+02  0.00000000000E+00 0. -1.
         35    2    1    2    0    0 -0.71054273576E-14 -0.71054273576E-14  0.64227397305E+03  0.69922530673E+03  0.27640581236E+03 0.  0.
         25    2    3    3    0    0 -0.45337350042E+02 -0.36900430917E+01  0.21234315279E+03  0.24886469709E+03  0.12155217477E+03 0.  0.
         25    2    3    3    0    0  0.45337350042E+02  0.36900430917E+01  0.42993082026E+03  0.45036060964E+03  0.12615497128E+03 0.  0.
          5    1    4    4  502    0  0.23428232863E+02  0.40976048273E+02  0.84765850237E+02  0.97135256182E+02  0.47000000000E+01 0.  1.
         -5    1    4    4    0  502 -0.68765582905E+02 -0.44666091365E+02  0.12757730256E+03  0.15172944091E+03  0.47000000000E+01 0.  1.
          5    1    5    5  503    0  0.11644757729E+02 -0.53931487518E+02  0.29017832780E+03  0.29541455221E+03  0.47000000000E+01 0. -1.
         -5    1    5    5    0  503  0.33692592314E+02  0.57621530610E+02  0.13975249245E+03  0.15494605743E+03  0.47000000000E+01 0. -1.
<mgrwt>
<rscale>  0 0.27640581E+03</rscale>
<asrwt>0</asrwt>
<pdfrwt beam="1">  1        2 0.10319224E+00 0.27640581E+03</pdfrwt>
<pdfrwt beam="2">  1       -2 0.43808723E-02 0.27640581E+03</pdfrwt>
<totfact> 0.10537806E+04</totfact>
</mgrwt>
</event>
<event>
 9    1  0.7957670E-001  0.2759041E+03  0.7818608E-02  0.1097947E+00
         -2   -1    0    0    0  501 -0.00000000000E+00  0.00000000000E+00  0.33454526038E+03  0.33454526038E+03  0.00000000000E+00 0.  1.
          2   -1    0    0  501    0  0.00000000000E+00 -0.00000000000E+00 -0.56885474820E+02  0.56885474820E+02  0.00000000000E+00 0.  1.
         35    2    1    2    0    0  0.00000000000E+00 -0.35527136788E-14  0.27765978556E+03  0.39143073520E+03  0.27590408468E+03 0.  0.
         25    2    3    3    0    0  0.47453577410E+02  0.15943925003E+02  0.92029881391E+02  0.16306435726E+03  0.12495773200E+03 0.  0.
         25    2    3    3    0    0 -0.47453577410E+02 -0.15943925003E+02  0.18562990417E+03  0.22836637794E+03  0.12323429108E+03 0.  0.
          5    1    4    4  502    0  0.47475419149E+02 -0.46849083464E+02  0.25775785780E+02  0.71660541286E+02  0.47000000000E+01 0. -1.
         -5    1    4    4    0  502 -0.21841739451E-01  0.62793008467E+02  0.66254095611E+02  0.91403815974E+02  0.47000000000E+01 0. -1.
          5    1    5    5  503    0  0.36339976025E+02  0.19045486473E+02  0.46857486725E+02  0.62458293882E+02  0.47000000000E+01 0.  1.
         -5    1    5    5    0  503 -0.83793553435E+02 -0.34989411476E+02  0.13877241744E+03  0.16590808406E+03  0.47000000000E+01 0.  1.
<mgrwt>
<rscale>  0 0.27590408E+03</rscale>
<asrwt>0</asrwt>
<pdfrwt beam="1">  1        2 0.87516117E-02 0.27590408E+03</pdfrwt>
<pdfrwt beam="2">  1       -2 0.51468500E-01 0.27590408E+03</pdfrwt>
<totfact> 0.27384700E+03</totfact>
</mgrwt>
</event>
<event>
 9    1  0.7957670E-001  0.2773562E+03  0.7818608E-02  0.1097142E+00
          3   -1    0    0  501    0  0.00000000000E+00  0.00000000000E+00  0.31607909916E+02  0.31607909916E+02  0.00000000000E+00 0. -1.
         -3   -1    0    0    0  501 -0.00000000000E+00 -0.00000000000E+00 -0.60844323524E+03  0.60844323524E+03  0.00000000000E+00 0. -1.
         35    2    1    2    0    0  0.00000000000E+00  0.00000000000E+00 -0.57683532532E+03  0.64005114515E+03  0.27735622559E+03 0.  0.
         25    2    3    3    0    0 -0.40514151850E+02 -0.20853209928E+02 -0.19173798724E+03  0.23316691985E+03  0.12460780030E+03 0.  0.
         25    2    3    3    0    0  0.40514151850E+02  0.20853209928E+02 -0.38509733808E+03  0.40688422531E+03  0.12320129927E+03 0.  0.
          5    1    4    4  502    0 -0.47082366763E+02 -0.10438629538E+02 -0.81840428527E+01  0.49140439600E+02  0.47000000000E+01 0. -1.
         -5    1    4    4    0  502  0.65682149134E+01 -0.10414580390E+02 -0.18355394439E+03  0.18402648025E+03  0.47000000000E+01 0. -1.
          5    1    5    5  503    0  0.29541969119E+02  0.34177973175E+02 -0.38629390413E+03  0.38895492304E+03  0.47000000000E+01 0.  1.
         -5    1    5    5    0  503  0.10972182731E+02 -0.13324763247E+02  0.11965660471E+01  0.17929302267E+02  0.47000000000E+01 0.  1.
<mgrwt>
<rscale>  0 0.27735623E+03</rscale>
<asrwt>0</asrwt>
<pdfrwt beam="1">  1        3 0.48627554E-02 0.27735623E+03</pdfrwt>
<pdfrwt beam="2">  1       -3 0.93606651E-01 0.27735623E+03</pdfrwt>
<totfact> 0.63662923E+02</totfact>
</mgrwt>
</event>
<event>
 9    1  0.7957670E-001  0.2764450E+03  0.7818608E-02  0.1097647E+00
          1   -1    0    0  501    0  0.00000000000E+00  0.00000000000E+00  0.16795011698E+04  0.16795011698E+04  0.00000000000E+00 0.  1.
         -1   -1    0    0    0  501 -0.00000000000E+00 -0.00000000000E+00 -0.11375677590E+02  0.11375677590E+02  0.00000000000E+00 0.  1.
         35    2    1    2    0    0 -0.35527136788E-14  0.00000000000E+00  0.16681254923E+04  0.16908768474E+04  0.27644503121E+03 0.  0.
         25    2    3    3    0    0 -0.10286536074E+02  0.57082312298E+02  0.74358868363E+03  0.75608067770E+03  0.12397442305E+03 0.  0.
         25    2    3    3    0    0  0.10286536074E+02 -0.57082312298E+02  0.92453680863E+03  0.93479616974E+03  0.12534498491E+03 0.  0.
          5    1    4    4  502    0 -0.28146306902E+02  0.90012998458E+02  0.60975447683E+03  0.61702282494E+03  0.47000000000E+01 0.  1.
         -5    1    4    4    0  502  0.17859770828E+02 -0.32930686160E+02  0.13383420680E+03  0.13905785276E+03  0.47000000000E+01 0.  1.
          5    1    5    5  503    0  0.11838732303E+01 -0.30685805028E+02  0.88813779909E+03  0.88868096658E+03  0.47000000000E+01 0. -1.
         -5    1    5    5    0  503  0.91026628442E+01 -0.26396507269E+02  0.36399009535E+02  0.46115203154E+02  0.47000000000E+01 0. -1.
<mgrwt>
<rscale>  0 0.27644503E+03</rscale>
<asrwt>0</asrwt>
<pdfrwt beam="1">  1        1 0.25838460E+00 0.27644503E+03</pdfrwt>
<pdfrwt beam="2">  1       -1 0.17501056E-02 0.27644503E+03</pdfrwt>
<totfact> 0.45445900E+03</totfact>
</mgrwt>
</event>
<event>
 9    1  0.7957670E-001  0.2745361E+03  0.7818608E-02  0.1098711E+00
          1   -1    0    0  501    0  0.00000000000E+00  0.00000000000E+00  0.50302994573E+01  0.50302994573E+01  0.00000000000E+00 0.  1.
         -1   -1    0    0    0  501 -0.00000000000E+00 -0.00000000000E+00 -0.37458054459E+04  0.37458054459E+04  0.00000000000E+00 0.  1.
         35    2    1    2    0    0 -0.35527136788E-14  0.00000000000E+00 -0.37407751464E+04  0.37508357453E+04  0.27453614044E+03 0.  0.
         25    2    3    3    0    0  0.26416046606E+02 -0.26347294290E+01 -0.25621116004E+04  0.25653046428E+04  0.12516911727E+03 0.  0.
         25    2    3    3    0    0 -0.26416046606E+02  0.26347294290E+01 -0.11786635460E+04  0.11855311025E+04  0.12462540331E+03 0.  0.
          5    1    4    4  502    0 -0.66053601942E+01 -0.52131147852E+02 -0.18313053496E+04  0.18320651355E+04  0.47000000000E+01 0. -1.
         -5    1    4    4    0  502  0.33021406801E+02  0.49496418423E+02 -0.73080625089E+03  0.73323950731E+03  0.47000000000E+01 0. -1.
          5    1    5    5  503    0  0.25717782946E+02 -0.29003411356E+02 -0.86945058724E+03  0.87032695918E+03  0.47000000000E+01 0.  1.
         -5    1    5    5    0  503 -0.52133829553E+02  0.31638140785E+02 -0.30921295874E+03  0.31520414336E+03  0.47000000000E+01 0.  1.
<mgrwt>
<rscale>  0 0.27453614E+03</rscale>
<asrwt>0</asrwt>
<pdfrwt beam="1">  1        1 0.77388791E-03 0.27453614E+03</pdfrwt>
<pdfrwt beam="2">  1       -1 0.57628097E+00 0.27453614E+03</pdfrwt>
<totfact> 0.15297421E+01</totfact>
</mgrwt>
</event>
<event>
 9    1  0.7957670E-001  0.2728472E+03  0.7818608E-02  0.1099661E+00
          2   -1    0    0  501    0  0.00000000000E+00  0.00000000000E+00  0.78477447380E+03  0.78477447380E+03  0.00000000000E+00 0.  1.
         -2   -1    0    0    0  501 -0.00000000000E+00 -0.00000000000E+00 -0.23715594104E+02  0.23715594104E+02  0.00000000000E+00 0.  1.
         35    2    1    2    0    0 -0.71054273576E-14 -0.71054273576E-14  0.76105887969E+03  0.80849006790E+03  0.27284715783E+03 0.  0.
         25    2    3    3    0    0  0.40390788782E+02  0.32140338119E+02  0.42177717875E+03  0.44294647160E+03  0.12506466741E+03 0.  0.
         25    2    3    3    0    0 -0.40390788782E+02 -0.32140338119E+02  0.33928170094E+03  0.36554359630E+03  0.12587943061E+03 0.  0.
          5    1    4    4  502    0  0.17747173411E+02  0.47918698702E+02  0.40894090936E+03  0.41214793606E+03  0.47000000000E+01 0.  1.
         -5    1    4    4    0  502  0.22643615372E+02 -0.15778360583E+02  0.12836269397E+02  0.30798535547E+02  0.47000000000E+01 0.  1.
          5    1    5    5  503    0 -0.53844891186E+01  0.47605876606E+02  0.13882544113E+03  0.14693503774E+03  0.47000000000E+01 0.  1.
         -5    1    5    5    0  503 -0.35006299664E+02 -0.79746214725E+02  0.20045625981E+03  0.21860855856E+03  0.47000000000E+01 0.  1.
<mgrwt>
<rscale>  0 0.27284716E+03</rscale>
<asrwt>0</asrwt>
<pdfrwt beam="1">  1        2 0.12073451E+00 0.27284716E+03</pdfrwt>
<pdfrwt beam="2">  1       -2 0.36485535E-02 0.27284716E+03</pdfrwt>
<totfact> 0.11435684E+04</totfact>
</mgrwt>
</event>
<event>
 9    1  0.7957670E-001  0.2757041E+03  0.7818608E-02  0.1098059E+00
         -1   -1    0    0    0  501 -0.00000000000E+00  0.00000000000E+00  0.95213700415E+02  0.95213700415E+02  0.00000000000E+00 0. -1.
          1   -1    0    0  501    0  0.00000000000E+00 -0.00000000000E+00 -0.19958459883E+03  0.19958459883E+03  0.00000000000E+00 0. -1.
         35    2    1    2    0    0  0.00000000000E+00  0.00000000000E+00 -0.10437089841E+03  0.29479829924E+03  0.27570410371E+03 0.  0.
         25    2    3    3    0    0 -0.48182100903E+02  0.24628972834E+02 -0.28478879631E+02  0.13886992748E+03  0.12468243270E+03 0.  0.
         25    2    3    3    0    0  0.48182100903E+02 -0.24628972834E+02 -0.75892018782E+02  0.15592837176E+03  0.12500382976E+03 0.  0.
          5    1    4    4  502    0  0.25492495964E+02  0.12432047088E+02 -0.52860498558E+02  0.60172630432E+02  0.47000000000E+01 0. -1.
         -5    1    4    4    0  502 -0.73674596868E+02  0.12196925746E+02  0.24381618927E+02  0.78697297049E+02  0.47000000000E+01 0. -1.
          5    1    5    5  503    0  0.85611654695E+02 -0.11453730021E+02 -0.77210310992E+02  0.11594854667E+03  0.47000000000E+01 0.  1.
         -5    1    5    5    0  503 -0.37429553792E+02 -0.13175242813E+02  0.13182922101E+01  0.39979825094E+02  0.47000000000E+01 0.  1.
<mgrwt>
<rscale>  0 0.27570410E+03</rscale>
<asrwt>0</asrwt>
<pdfrwt beam="1">  1        1 0.30705323E-01 0.27570410E+03</pdfrwt>
<pdfrwt beam="2">  1       -1 0.14648262E-01 0.27570410E+03</pdfrwt>
<totfact> 0.48763733E+03</totfact>
</mgrwt>
</event>
<event>
 9    1  0.7957670E-001  0.2752632E+03  0.7818608E-02  0.1098305E+00
          2   -1    0    0  501    0  0.00000000000E+00  0.00000000000E+00  0.91801628747E+03  0.91801628747E+03  0.00000000000E+00 0.  1.
         -2   -1    0    0    0  501 -0.00000000000E+00 -0.00000000000E+00 -0.20634121315E+02  0.20634121315E+02  0.00000000000E+00 0.  1.
         35    2    1    2    0    0  0.00000000000E+00  0.00000000000E+00  0.89738216616E+03  0.93865040879E+03  0.27526321545E+03 0.  0.
         25    2    3    3    0    0 -0.55206211449E+02  0.37506728017E+01  0.38733447821E+03  0.41048232344E+03  0.12412069335E+03 0.  0.
         25    2    3    3    0    0  0.55206211449E+02 -0.37506728017E+01  0.51004768794E+03  0.52816808534E+03  0.12550334286E+03 0.  0.
          5    1    4    4  502    0  0.15225573921E+02  0.25910005189E+02  0.21518288055E+02  0.37259538254E+02  0.47000000000E+01 0. -1.
         -5    1    4    4    0  502 -0.70431785370E+02 -0.22159332388E+02  0.36581619016E+03  0.37322278519E+03  0.47000000000E+01 0. -1.
          5    1    5    5  503    0  0.88381991310E+02  0.22135480547E+02  0.39959890547E+03  0.40988136228E+03  0.47000000000E+01 0. -1.
         -5    1    5    5    0  503 -0.33175779861E+02 -0.25886153348E+02  0.11044878247E+03  0.11828672307E+03  0.47000000000E+01 0. -1.
<mgrwt>
<rscale>  0 0.27526322E+03</rscale>
<asrwt>0</asrwt>
<pdfrwt beam="1">  1        2 0.14123324E+00 0.27526322E+03</pdfrwt>
<pdfrwt beam="2">  1       -2 0.31744809E-02 0.27526322E+03</pdfrwt>
<totfact> 0.11477909E+04</totfact>
</mgrwt>
</event>
<event>
 9    1  0.7957670E-001  0.2623479E+03  0.7818608E-02  0.1105741E+00
          2   -1    0    0  501    0  0.00000000000E+00  0.00000000000E+00  0.61413204662E+02  0.61413204662E+02  0.00000000000E+00 0.  1.
         -2   -1    0    0    0  501 -0.00000000000E+00 -0.00000000000E+00 -0.28017757543E+03  0.28017757543E+03  0.00000000000E+00 0.  1.
         35    2    1    2    0    0 -0.71054273576E-14  0.00000000000E+00 -0.21876437077E+03  0.34159078009E+03  0.26234788188E+03 0.  0.
         25    2    3    3    0    0 -0.27276738727E+02 -0.12694036531E+01 -0.70487596312E+02  0.14513316584E+03  0.12389311011E+03 0.  0.
         25    2    3    3    0    0  0.27276738727E+02  0.12694036531E+01 -0.14827677446E+03  0.19645761425E+03  0.12595221511E+03 0.  0.
          5    1    4    4  502    0  0.18420124144E+02  0.48708110132E+02 -0.80500109301E+01  0.52902491832E+02  0.47000000000E+01 0. -1.
         -5    1    4    4    0  502 -0.45696862871E+02 -0.49977513785E+02 -0.62437585382E+02  0.92230674012E+02  0.47000000000E+01 0. -1.
          5    1    5    5  503    0 -0.16283421831E+02 -0.50100357968E+02 -0.10107917186E+03  0.11408016778E+03  0.47000000000E+01 0.  1.
         -5    1    5    5    0  503  0.43560160558E+02  0.51369761621E+02 -0.47197602594E+02  0.82377446473E+02  0.47000000000E+01 0.  1.
<mgrwt>
<rscale>  0 0.26234788E+03</rscale>
<asrwt>0</asrwt>
<pdfrwt beam="1">  1        2 0.94481855E-02 0.26234788E+03</pdfrwt>
<pdfrwt beam="2">  1       -2 0.43104241E-01 0.26234788E+03</pdfrwt>
<totfact> 0.35228497E+03</totfact>
</mgrwt>
</event>
<event>
 9    1  0.7957670E-001  0.2757461E+03  0.7818608E-02  0.1098035E+00
          2   -1    0    0  501    0  0.00000000000E+00  0.00000000000E+00  0.49742354385E+03  0.49742354385E+03  0.00000000000E+00 0. -1.
         -2   -1    0    0    0  501 -0.00000000000E+00 -0.00000000000E+00 -0.38214881872E+02  0.38214881872E+02  0.00000000000E+00 0. -1.
         35    2    1    2    0    0  0.00000000000E+00 -0.14210854715E-13  0.45920866198E+03  0.53563842572E+03  0.27574612939E+03 0.  0.
         25    2    3    3    0    0  0.33687269058E+02 -0.43495437720E+02  0.27290622425E+03  0.30489007901E+03  0.12431197788E+03 0.  0.
         25    2    3    3    0    0 -0.33687269058E+02  0.43495437720E+02  0.18630243773E+03  0.23074834672E+03  0.12453720732E+03 0.  0.
          5    1    4    4  502    0  0.18590168000E+02 -0.85760905076E+02  0.14852097193E+03  0.17257200320E+03  0.47000000000E+01 0. -1.
         -5    1    4    4    0  502  0.15097101058E+02  0.42265467357E+02  0.12438525232E+03  0.13231807580E+03  0.47000000000E+01 0. -1.
          5    1    5    5  503    0  0.46740911592E+02  0.77626207943E+01  0.57072196357E+02  0.74325612645E+02  0.47000000000E+01 0. -1.
         -5    1    5    5    0  503 -0.80428180650E+02  0.35732816925E+02  0.12923024138E+03  0.15642273407E+03  0.47000000000E+01 0. -1.
<mgrwt>
<rscale>  0 0.27574613E+03</rscale>
<asrwt>0</asrwt>
<pdfrwt beam="1">  1        2 0.76526694E-01 0.27574613E+03</pdfrwt>
<pdfrwt beam="2">  1       -2 0.58792130E-02 0.27574613E+03</pdfrwt>
<totfact> 0.95090083E+03</totfact>
</mgrwt>
</event>
<event>
 9    1  0.7957670E-001  0.2761211E+03  0.7818608E-02  0.1097827E+00
          1   -1    0    0  501    0  0.00000000000E+00  0.00000000000E+00  0.16909734483E+03  0.16909734483E+03  0.00000000000E+00 0. -1.
         -1   -1    0    0    0  501 -0.00000000000E+00 -0.00000000000E+00 -0.11272038228E+03  0.11272038228E+03  0.00000000000E+00 0. -1.
         35    2    1    2    0    0  0.00000000000E+00  0.14210854715E-13  0.56376962555E+02  0.28181772711E+03  0.27612111365E+03 0.  0.
         25    2    3    3    0    0  0.15644766187E+02  0.45875190811E+02  0.46646305021E+02  0.14869604661E+03  0.13260974573E+03 0.  0.
         25    2    3    3    0    0 -0.15644766187E+02 -0.45875190811E+02  0.97306575336E+01  0.13312168050E+03  0.12360179725E+03 0.  0.
          5    1    4    4  502    0  0.64310691423E+02  0.40663712222E+02  0.60822764218E+02  0.97523849237E+02  0.47000000000E+01 0.  1.
         -5    1    4    4    0  502 -0.48665925236E+02  0.52114785888E+01 -0.14176459197E+02  0.51172197369E+02  0.47000000000E+01 0.  1.
          5    1    5    5  503    0 -0.24500795616E+02 -0.71922071430E+02  0.44778098512E+02  0.88318975600E+02  0.47000000000E+01 0.  1.
         -5    1    5    5    0  503  0.88560294297E+01  0.26046880619E+02 -0.35047440979E+02  0.44802704901E+02  0.47000000000E+01 0.  1.
<mgrwt>
<rscale>  0 0.27612111E+03</rscale>
<asrwt>0</asrwt>
<pdfrwt beam="1">  1        1 0.26014976E-01 0.27612111E+03</pdfrwt>
<pdfrwt beam="2">  1       -1 0.17341597E-01 0.27612111E+03</pdfrwt>
<totfact> 0.45954876E+03</totfact>
</mgrwt>
</event>
<event>
 9    1  0.7957670E-001  0.2749471E+03  0.7818608E-02  0.1098481E+00
         -1   -1    0    0    0  501 -0.00000000000E+00  0.00000000000E+00  0.20919935975E+02  0.20919935975E+02  0.00000000000E+00 0.  1.
          1   -1    0    0  501    0  0.00000000000E+00 -0.00000000000E+00 -0.90339576524E+03  0.90339576524E+03  0.00000000000E+00 0.  1.
         35    2    1    2    0    0  0.00000000000E+00  0.00000000000E+00 -0.88247582926E+03  0.92431570121E+03  0.27494713360E+03 0.  0.
         25    2    3    3    0    0 -0.34452626135E+02  0.28970802873E+02 -0.32751584645E+03  0.35340354147E+03  0.12490453387E+03 0.  0.
         25    2    3    3    0    0  0.34452626135E+02 -0.28970802873E+02 -0.55495998281E+03  0.57091215974E+03  0.12622923889E+03 0.  0.
          5    1    4    4  502    0 -0.54014364862E+02 -0.21864316035E+02 -0.26018403673E+03  0.26667100123E+03  0.47000000000E+01 0. -1.
         -5    1    4    4    0  502  0.19561738727E+02  0.50835118908E+02 -0.67331809717E+02  0.86732540239E+02  0.47000000000E+01 0. -1.
          5    1    5    5  503    0  0.54425181397E+02  0.15065371387E+02 -0.11423655942E+03  0.12751920362E+03  0.47000000000E+01 0.  1.
         -5    1    5    5    0  503 -0.19972555262E+02 -0.44036174260E+02 -0.44072342340E+03  0.44339295612E+03  0.47000000000E+01 0.  1.
<mgrwt>
<rscale>  0 0.27494713E+03</rscale>
<asrwt>0</asrwt>
<pdfrwt beam="1">  1        1 0.13898399E+00 0.27494713E+03</pdfrwt>
<pdfrwt beam="2">  1       -1 0.32184512E-02 0.27494713E+03</pdfrwt>
<totfact> 0.64431426E+03</totfact>
</mgrwt>
</event>
<event>
 9    1  0.7957670E-001  0.2756559E+03  0.7818608E-02  0.1098086E+00
          1   -1    0    0  501    0  0.00000000000E+00  0.00000000000E+00  0.11607585153E+04  0.11607585153E+04  0.00000000000E+00 0. -1.
         -1   -1    0    0    0  501 -0.00000000000E+00 -0.00000000000E+00 -0.16365624739E+02  0.16365624739E+02  0.00000000000E+00 0. -1.
         35    2    1    2    0    0 -0.14210854715E-13 -0.71054273576E-14  0.11443928906E+04  0.11771241401E+04  0.27565585990E+03 0.  0.
         25    2    3    3    0    0 -0.56477029947E+02 -0.15286872288E+01  0.49714293295E+03  0.51562845725E+03  0.12461788936E+03 0.  0.
         25    2    3    3    0    0  0.56477029947E+02  0.15286872288E+01  0.64724995764E+03  0.66149568282E+03  0.12430623043E+03 0.  0.
          5    1    4    4  502    0  0.18561531118E+02 -0.14109046357E+02  0.16426460938E+02  0.28905263284E+02  0.47000000000E+01 0.  1.
         -5    1    4    4    0  502 -0.75038561065E+02  0.12580359128E+02  0.48071647201E+03  0.48672319397E+03  0.47000000000E+01 0.  1.
          5    1    5    5  503    0  0.64926548262E+02  0.52479668083E+02  0.35817173528E+03  0.36780246626E+03  0.47000000000E+01 0. -1.
         -5    1    5    5    0  503 -0.84495183157E+01 -0.50950980855E+02  0.28907822237E+03  0.29369321656E+03  0.47000000000E+01 0. -1.
<mgrwt>
<rscale>  0 0.27565586E+03</rscale>
<asrwt>0</asrwt>
<pdfrwt beam="1">  1        1 0.17857817E+00 0.27565586E+03</pdfrwt>
<pdfrwt beam="2">  1       -1 0.25177893E-02 0.27565586E+03</pdfrwt>
<totfact> 0.59635744E+03</totfact>
</mgrwt>
</event>
<event>
 9    1  0.7957670E-001  0.2742681E+03  0.7818608E-02  0.1098861E+00
         -1   -1    0    0    0  501 -0.00000000000E+00  0.00000000000E+00  0.84314628944E+01  0.84314628944E+01  0.00000000000E+00 0.  1.
          1   -1    0    0  501    0  0.00000000000E+00 -0.00000000000E+00 -0.22304258330E+04  0.22304258330E+04  0.00000000000E+00 0.  1.
         35    2    1    2    0    0  0.00000000000E+00  0.00000000000E+00 -0.22219943701E+04  0.22388572959E+04  0.27426813632E+03 0.  0.
         25    2    3    3    0    0 -0.94409454180E-01 -0.24368728224E+02 -0.14864680370E+04  0.14922319271E+04  0.12874414673E+03 0.  0.
         25    2    3    3    0    0  0.94409454180E-01  0.24368728224E+02 -0.73552633307E+03  0.74662536879E+03  0.12592303543E+03 0.  0.
          5    1    4    4  502    0 -0.50088354923E+02 -0.52026209905E+02 -0.93308331497E+03  0.93588574757E+03  0.47000000000E+01 0.  1.
         -5    1    4    4    0  502  0.49993945469E+02  0.27657481681E+02 -0.55338472206E+03  0.55634617954E+03  0.47000000000E+01 0.  1.
          5    1    5    5  503    0  0.15084165685E+02  0.51689472499E+02 -0.13709934416E+03  0.14736910732E+03  0.47000000000E+01 0.  1.
         -5    1    5    5    0  503 -0.14989756231E+02 -0.27320744275E+02 -0.59842698891E+03  0.59925626148E+03  0.47000000000E+01 0.  1.
<mgrwt>
<rscale>  0 0.27426814E+03</rscale>
<asrwt>0</asrwt>
<pdfrwt beam="1">  1        1 0.34314232E+00 0.27426814E+03</pdfrwt>
<pdfrwt beam="2">  1       -1 0.12971486E-02 0.27426814E+03</pdfrwt>
<totfact> 0.30790535E+03</totfact>
</mgrwt>
</event>
<event>
 9    1  0.7957670E-001  0.2741212E+03  0.7818608E-02  0.1098944E+00
         -3   -1    0    0    0  501 -0.00000000000E+00  0.00000000000E+00  0.41316215645E+02  0.41316215645E+02  0.00000000000E+00 0. -1.
          3   -1    0    0  501    0  0.00000000000E+00 -0.00000000000E+00 -0.45467887477E+03  0.45467887477E+03  0.00000000000E+00 0. -1.
         35    2    1    2    0    0 -0.71054273576E-14  0.00000000000E+00 -0.41336265912E+03  0.49599509041E+03  0.27412121727E+03 0.  0.
         25    2    3    3    0    0 -0.45188608708E+02  0.25589653218E+02 -0.24638339470E+03  0.28094501450E+03  0.12461333507E+03 0.  0.
         25    2    3    3    0    0  0.45188608708E+02 -0.25589653218E+02 -0.16697926442E+03  0.21505007591E+03  0.12517036269E+03 0.  0.
          5    1    4    4  502    0 -0.31331315814E+02 -0.46532069701E+02 -0.70015389967E+02  0.89839466236E+02  0.47000000000E+01 0. -1.
         -5    1    4    4    0  502 -0.13857292894E+02  0.72121722919E+02 -0.17636800473E+03  0.19110554826E+03  0.47000000000E+01 0. -1.
          5    1    5    5  503    0  0.73169619144E+01 -0.43845518295E+02 -0.20119098187E+01  0.44744890069E+02  0.47000000000E+01 0. -1.
         -5    1    5    5    0  503  0.37871646794E+02  0.18255865077E+02 -0.16496735460E+03  0.17030518584E+03  0.47000000000E+01 0. -1.
<mgrwt>
<rscale>  0 0.27412122E+03</rscale>
<asrwt>0</asrwt>
<pdfrwt beam="1">  1        3 0.69950598E-01 0.27412122E+03</pdfrwt>
<pdfrwt beam="2">  1       -3 0.63563407E-02 0.27412122E+03</pdfrwt>
<totfact> 0.78586314E+02</totfact>
</mgrwt>
</event>
<event>
 9    1  0.7957670E-001  0.2747599E+03  0.7818608E-02  0.1098586E+00
          1   -1    0    0  501    0  0.00000000000E+00  0.00000000000E+00  0.34850827997E+03  0.34850827997E+03  0.00000000000E+00 0.  1.
         -1   -1    0    0    0  501 -0.00000000000E+00 -0.00000000000E+00 -0.54154386277E+02  0.54154386277E+02  0.00000000000E+00 0.  1.
         35    2    1    2    0    0  0.71054273576E-14 -0.35527136788E-14  0.29435389370E+03  0.40266266625E+03  0.27475990984E+03 0.  0.
         25    2    3    3    0    0  0.49975854039E+02  0.16856010159E+02  0.82327556389E+02  0.15086371958E+03  0.11489266417E+03 0.  0.
         25    2    3    3    0    0 -0.49975854039E+02 -0.16856010159E+02  0.21202633731E+03  0.25179894667E+03  0.12516321651E+03 0.  0.
          5    1    4    4  502    0 -0.16076946527E+01 -0.19917029690E+01  0.94305732769E+02  0.94457465539E+02  0.47000000000E+01 0. -1.
         -5    1    4    4    0  502  0.51583548691E+02  0.18847713128E+02 -0.11978176380E+02  0.56406254043E+02  0.47000000000E+01 0. -1.
          5    1    5    5  503    0  0.30596650514E+02 -0.32671855264E+02  0.12110812019E+03  0.12920089754E+03  0.47000000000E+01 0. -1.
         -5    1    5    5    0  503 -0.80572504553E+02  0.15815845104E+02  0.90918217112E+02  0.12259804912E+03  0.47000000000E+01 0. -1.
<mgrwt>
<rscale>  0 0.27475991E+03</rscale>
<asrwt>0</asrwt>
<pdfrwt beam="1">  1        1 0.53616657E-01 0.27475991E+03</pdfrwt>
<pdfrwt beam="2">  1       -1 0.83314443E-02 0.27475991E+03</pdfrwt>
<totfact> 0.58161936E+03</totfact>
</mgrwt>
</event>
<event>
 9    1  0.7957670E-001  0.2763068E+03  0.7818608E-02  0.1097723E+00
         -2   -1    0    0    0  501 -0.00000000000E+00  0.00000000000E+00  0.12080568553E+02  0.12080568553E+02  0.00000000000E+00 0. -1.
          2   -1    0    0  501    0  0.00000000000E+00 -0.00000000000E+00 -0.15799221482E+04  0.15799221482E+04  0.00000000000E+00 0. -1.
         35    2    1    2    0    0 -0.71054273576E-14 -0.14210854715E-13 -0.15678415796E+04  0.15920027167E+04  0.27630677023E+03 0.  0.
         25    2    3    3    0    0  0.32647148229E+02  0.50676737901E+02 -0.78347027628E+03  0.79557690357E+03  0.12443057351E+03 0.  0.
         25    2    3    3    0    0 -0.32647148229E+02 -0.50676737901E+02 -0.78437130335E+03  0.79642581316E+03  0.12418440445E+03 0.  0.
          5    1    4    4  502    0 -0.77831366290E+01  0.24829361778E+01  0.14543346845E+00  0.94262048960E+01  0.47000000000E+01 0. -1.
         -5    1    4    4    0  502  0.40430284858E+02  0.48193801723E+02 -0.78361570975E+03  0.78615069867E+03  0.47000000000E+01 0. -1.
          5    1    5    5  503    0  0.18393737852E+02 -0.77216003693E+02 -0.49620098198E+03  0.50253173565E+03  0.47000000000E+01 0. -1.
         -5    1    5    5    0  503 -0.51040886081E+02  0.26539265792E+02 -0.28817032137E+03  0.29389407751E+03  0.47000000000E+01 0. -1.
<mgrwt>
<rscale>  0 0.27630677E+03</rscale>
<asrwt>0</asrwt>
<pdfrwt beam="1">  1        2 0.24306502E+00 0.27630677E+03</pdfrwt>
<pdfrwt beam="2">  1       -2 0.18585484E-02 0.27630677E+03</pdfrwt>
<totfact> 0.10652631E+04</totfact>
</mgrwt>
</event>
<event>
 9    1  0.7957670E-001  0.2830498E+03  0.7818608E-02  0.1094035E+00
          2   -1    0    0  501    0  0.00000000000E+00  0.00000000000E+00  0.34018249078E+03  0.34018249078E+03  0.00000000000E+00 0.  1.
         -2   -1    0    0    0  501 -0.00000000000E+00 -0.00000000000E+00 -0.58878082500E+02  0.58878082500E+02  0.00000000000E+00 0.  1.
         35    2    1    2    0    0  0.00000000000E+00 -0.35527136788E-14  0.28130440828E+03  0.39906057328E+03  0.28304976776E+03 0.  0.
         25    2    3    3    0    0 -0.39757481543E+01  0.10572222875E+02  0.23081204342E+03  0.26262362352E+03  0.12477736081E+03 0.  0.
         25    2    3    3    0    0  0.39757481543E+01 -0.10572222875E+02  0.50492364859E+02  0.13643694976E+03  0.12624572817E+03 0.  0.
          5    1    4    4  502    0 -0.36089229971E+02  0.36911050077E+02  0.20928250026E+03  0.21560638453E+03  0.47000000000E+01 0. -1.
         -5    1    4    4    0  502  0.32113481817E+02 -0.26338827202E+02  0.21529543166E+02  0.47017238984E+02  0.47000000000E+01 0. -1.
          5    1    5    5  503    0  0.16324943372E+02 -0.37890182830E+02 -0.29464140597E+02  0.50915570429E+02  0.47000000000E+01 0.  1.
         -5    1    5    5    0  503 -0.12349195218E+02  0.27317959955E+02  0.79956505456E+02  0.85521379335E+02  0.47000000000E+01 0.  1.
<mgrwt>
<rscale>  0 0.28304977E+03</rscale>
<asrwt>0</asrwt>
<pdfrwt beam="1">  1        2 0.52335766E-01 0.28304977E+03</pdfrwt>
<pdfrwt beam="2">  1       -2 0.90581668E-02 0.28304977E+03</pdfrwt>
<totfact> 0.73664846E+03</totfact>
</mgrwt>
</event>
<event>
 9    1  0.7957670E-001  0.2781464E+03  0.7818608E-02  0.1096706E+00
         -2   -1    0    0    0  501 -0.00000000000E+00  0.00000000000E+00  0.68444252000E+02  0.68444252000E+02  0.00000000000E+00 0. -1.
          2   -1    0    0  501    0  0.00000000000E+00 -0.00000000000E+00 -0.28258561772E+03  0.28258561772E+03  0.00000000000E+00 0. -1.
         35    2    1    2    0    0  0.14210854715E-13 -0.14210854715E-13 -0.21414136572E+03  0.35102986972E+03  0.27814644510E+03 0.  0.
         25    2    3    3    0    0  0.18992707660E+02  0.54097606929E+02 -0.13280096902E+03  0.19109367895E+03  0.12487362709E+03 0.  0.
         25    2    3    3    0    0 -0.18992707660E+02 -0.54097606929E+02 -0.81340396693E+02  0.15993619076E+03  0.12520403732E+03 0.  0.
          5    1    4    4  502    0 -0.52340538424E+02  0.35872269373E+02 -0.62320293300E+02  0.89063239496E+02  0.47000000000E+01 0. -1.
         -5    1    4    4    0  502  0.71333246084E+02  0.18225337556E+02 -0.70480675723E+02  0.10203043946E+03  0.47000000000E+01 0. -1.
          5    1    5    5  503    0 -0.65964754424E+02 -0.81154843232E+01 -0.19152201654E+02  0.69326089896E+02  0.47000000000E+01 0. -1.
         -5    1    5    5    0  503  0.46972046764E+02 -0.45982122606E+02 -0.62188195039E+02  0.90610100865E+02  0.47000000000E+01 0. -1.
<mgrwt>
<rscale>  0 0.27814645E+03</rscale>
<asrwt>0</asrwt>
<pdfrwt beam="1">  1        2 0.43474711E-01 0.27814645E+03</pdfrwt>
<pdfrwt beam="2">  1       -2 0.10529885E-01 0.27814645E+03</pdfrwt>
<totfact> 0.70787608E+03</totfact>
</mgrwt>
</event>
<event>
 9    1  0.7957670E-001  0.2804672E+03  0.7818608E-02  0.1095434E+00
          2   -1    0    0  501    0  0.00000000000E+00  0.00000000000E+00  0.17996196139E+04  0.17996196139E+04  0.00000000000E+00 0. -1.
         -2   -1    0    0    0  501 -0.00000000000E+00 -0.00000000000E+00 -0.10927565657E+02  0.10927565657E+02  0.00000000000E+00 0. -1.
         35    2    1    2    0    0  0.71054273576E-14 -0.71054273576E-14  0.17886920482E+04  0.18105471795E+04  0.28046719229E+03 0.  0.
         25    2    3    3    0    0  0.48732623633E+02 -0.36624339410E+02  0.10166467079E+04  0.10261069449E+04  0.12493487424E+03 0.  0.
         25    2    3    3    0    0 -0.48732623633E+02  0.36624339410E+02  0.77204534032E+03  0.78444023466E+03  0.12480490131E+03 0.  0.
          5    1    4    4  502    0  0.84372887954E+00  0.25176445333E+02  0.49005441231E+02  0.55300891026E+02  0.47000000000E+01 0. -1.
         -5    1    4    4    0  502  0.47888894754E+02 -0.61800784743E+02  0.96764126664E+03  0.97080605383E+03  0.47000000000E+01 0. -1.
          5    1    5    5  503    0 -0.19152951864E+02 -0.17160575513E+02  0.61795090374E+03  0.61850362193E+03  0.47000000000E+01 0. -1.
         -5    1    5    5    0  503 -0.29579671769E+02  0.53784914922E+02  0.15409443659E+03  0.16593661272E+03  0.47000000000E+01 0. -1.
<mgrwt>
<rscale>  0 0.28046719E+03</rscale>
<asrwt>0</asrwt>
<pdfrwt beam="1">  1        2 0.27686432E+00 0.28046719E+03</pdfrwt>
<pdfrwt beam="2">  1       -2 0.16811654E-02 0.28046719E+03</pdfrwt>
<totfact> 0.94539121E+03</totfact>
</mgrwt>
</event>
<event>
 9    1  0.7957670E-001  0.2752309E+03  0.7818608E-02  0.1098323E+00
         -4   -1    0    0    0  501 -0.00000000000E+00  0.00000000000E+00  0.93938450831E+02  0.93938450831E+02  0.00000000000E+00 0.  1.
          4   -1    0    0  501    0  0.00000000000E+00 -0.00000000000E+00 -0.20160018709E+03  0.20160018709E+03  0.00000000000E+00 0.  1.
         35    2    1    2    0    0  0.71054273576E-14 -0.71054273576E-14 -0.10766173626E+03  0.29553863792E+03  0.27523087954E+03 0.  0.
         25    2    3    3    0    0  0.44420459966E+02  0.34571371018E+02 -0.65954297229E+02  0.15227382152E+03  0.12517583808E+03 0.  0.
         25    2    3    3    0    0 -0.44420459966E+02 -0.34571371018E+02 -0.41707439029E+02  0.14326481640E+03  0.12496775661E+03 0.  0.
          5    1    4    4  502    0  0.67363036632E+02  0.64859871837E+02 -0.26526309462E+02  0.97315552573E+02  0.47000000000E+01 0. -1.
         -5    1    4    4    0  502 -0.22942576666E+02 -0.30288500818E+02 -0.39427987767E+02  0.54958268943E+02  0.47000000000E+01 0. -1.
          5    1    5    5  503    0 -0.80788037348E+02 -0.21287543963E+02  0.32583373493E+01  0.83741108596E+02  0.47000000000E+01 0.  1.
         -5    1    5    5    0  503  0.36367577383E+02 -0.13283827055E+02 -0.44965776379E+02  0.59523707808E+02  0.47000000000E+01 0.  1.
<mgrwt>
<rscale>  0 0.27523088E+03</rscale>
<asrwt>0</asrwt>
<pdfrwt beam="1">  1        4 0.31015413E-01 0.27523088E+03</pdfrwt>
<pdfrwt beam="2">  1       -4 0.14452069E-01 0.27523088E+03</pdfrwt>
<totfact> 0.75298517E+02</totfact>
</mgrwt>
</event>
<event>
 9    1  0.7957670E-001  0.2749293E+03  0.7818608E-02  0.1098491E+00
         -2   -1    0    0    0  501 -0.00000000000E+00  0.00000000000E+00  0.27305121204E+02  0.27305121204E+02  0.00000000000E+00 0. -1.
          2   -1    0    0  501    0  0.00000000000E+00 -0.00000000000E+00 -0.69205082848E+03  0.69205082848E+03  0.00000000000E+00 0. -1.
         35    2    1    2    0    0  0.35527136788E-14  0.71054273576E-14 -0.66474570727E+03  0.71935594968E+03  0.27492931274E+03 0.  0.
         25    2    3    3    0    0  0.86677929887E+00  0.51345964521E+02 -0.36901140887E+03  0.39427623241E+03  0.12902390549E+03 0.  0.
         25    2    3    3    0    0 -0.86677929887E+00 -0.51345964521E+02 -0.29573429840E+03  0.32507971727E+03  0.12482342709E+03 0.  0.
          5    1    4    4  502    0  0.46858940194E+02  0.62341130672E+02 -0.30317754772E+03  0.31308288406E+03  0.47000000000E+01 0.  1.
         -5    1    4    4    0  502 -0.45992160895E+02 -0.10995166151E+02 -0.65833861154E+02  0.81193348354E+02  0.47000000000E+01 0.  1.
          5    1    5    5  503    0  0.30240769913E+02  0.14615004218E+02 -0.19032221907E+02  0.38889818513E+02  0.47000000000E+01 0.  1.
         -5    1    5    5    0  503 -0.31107549212E+02 -0.65960968739E+02 -0.27670207650E+03  0.28618989876E+03  0.47000000000E+01 0.  1.
<mgrwt>
<rscale>  0 0.27492931E+03</rscale>
<asrwt>0</asrwt>
<pdfrwt beam="1">  1        2 0.10646936E+00 0.27492931E+03</pdfrwt>
<pdfrwt beam="2">  1       -2 0.42007880E-02 0.27492931E+03</pdfrwt>
<totfact> 0.10810210E+04</totfact>
</mgrwt>
</event>
<event>
 9    1  0.7957670E-001  0.2745114E+03  0.7818608E-02  0.1098725E+00
         -2   -1    0    0    0  501 -0.00000000000E+00  0.00000000000E+00  0.60221341904E+01  0.60221341904E+01  0.00000000000E+00 0.  1.
          2   -1    0    0  501    0  0.00000000000E+00 -0.00000000000E+00 -0.31283151822E+04  0.31283151822E+04  0.00000000000E+00 0.  1.
         35    2    1    2    0    0  0.00000000000E+00  0.00000000000E+00 -0.31222930480E+04  0.31343373164E+04  0.27451144834E+03 0.  0.
         25    2    3    3    0    0  0.21226985761E+02 -0.42261561365E+02 -0.18772693334E+04  0.18820188488E+04  0.12497268647E+03 0.  0.
         25    2    3    3    0    0 -0.21226985761E+02  0.42261561365E+02 -0.12450237146E+04  0.12523184676E+04  0.12641546585E+03 0.  0.
          5    1    4    4  502    0  0.46801671845E+02 -0.73027862211E+02 -0.97880387349E+03  0.98265079144E+03  0.47000000000E+01 0.  1.
         -5    1    4    4    0  502 -0.25574686084E+02  0.30766300846E+02 -0.89846545994E+03  0.89936805733E+03  0.47000000000E+01 0.  1.
          5    1    5    5  503    0 -0.56129801173E+02  0.69969629279E+02 -0.78792013380E+03  0.79302366348E+03  0.47000000000E+01 0. -1.
         -5    1    5    5    0  503  0.34902815412E+02 -0.27708067915E+02 -0.45710358075E+03  0.45929480412E+03  0.47000000000E+01 0. -1.
<mgrwt>
<rscale>  0 0.27451145E+03</rscale>
<asrwt>0</asrwt>
<pdfrwt beam="1">  1        2 0.48128096E+00 0.27451145E+03</pdfrwt>
<pdfrwt beam="2">  1       -2 0.92647891E-03 0.27451145E+03</pdfrwt>
<totfact> 0.41568339E+03</totfact>
</mgrwt>
</event>
<event>
 9    1  0.7957670E-001  0.2738714E+03  0.7818608E-02  0.1099084E+00
          1   -1    0    0  501    0  0.00000000000E+00  0.00000000000E+00  0.31884759049E+03  0.31884759049E+03  0.00000000000E+00 0.  1.
         -1   -1    0    0    0  501 -0.00000000000E+00 -0.00000000000E+00 -0.58809881502E+02  0.58809881502E+02  0.00000000000E+00 0.  1.
         35    2    1    2    0    0  0.00000000000E+00  0.00000000000E+00  0.26003770898E+03  0.37765747199E+03  0.27387142249E+03 0.  0.
         25    2    3    3    0    0 -0.35609952918E+02  0.16963682909E+02  0.18370269452E+03  0.22581172983E+03  0.12525343137E+03 0.  0.
         25    2    3    3    0    0  0.35609952918E+02 -0.16963682909E+02  0.76335014467E+02  0.15184574216E+03  0.12519688372E+03 0.  0.
          5    1    4    4  502    0  0.54039736420E+01  0.37206428221E+02  0.17495236187E+03  0.17900821253E+03  0.47000000000E+01 0. -1.
         -5    1    4    4    0  502 -0.41013926560E+02 -0.20242745311E+02  0.87503326495E+01  0.46803517294E+02  0.47000000000E+01 0. -1.
          5    1    5    5  503    0  0.49357296149E+01  0.45494677587E+02 -0.31391432185E+01  0.46109341090E+02  0.47000000000E+01 0.  1.
         -5    1    5    5    0  503  0.30674223303E+02 -0.62458360497E+02  0.79474157686E+02  0.10573640107E+03  0.47000000000E+01 0.  1.
<mgrwt>
<rscale>  0 0.27387142E+03</rscale>
<asrwt>0</asrwt>
<pdfrwt beam="1">  1        1 0.49053474E-01 0.27387142E+03</pdfrwt>
<pdfrwt beam="2">  1       -1 0.90476743E-02 0.27387142E+03</pdfrwt>
<totfact> 0.57344848E+03</totfact>
</mgrwt>
</event>
<event>
 9    1  0.7957670E-001  0.2802445E+03  0.7818608E-02  0.1095555E+00
          1   -1    0    0  501    0  0.00000000000E+00  0.00000000000E+00  0.38568316329E+03  0.38568316329E+03  0.00000000000E+00 0.  1.
         -1   -1    0    0    0  501 -0.00000000000E+00 -0.00000000000E+00 -0.50907715372E+02  0.50907715372E+02  0.00000000000E+00 0.  1.
         35    2    1    2    0    0 -0.53290705182E-14  0.14210854715E-13  0.33477544792E+03  0.43659087866E+03  0.28024452680E+03 0.  0.
         25    2    3    3    0    0  0.15595072675E+02  0.52735081538E+02  0.11742501516E+03  0.17989355242E+03  0.12469507168E+03 0.  0.
         25    2    3    3    0    0 -0.15595072675E+02 -0.52735081538E+02  0.21735043276E+03  0.25669732624E+03  0.12501244563E+03 0.  0.
          5    1    4    4  502    0  0.54000391104E+02  0.66731452063E+02  0.46101758376E+02  0.97553016658E+02  0.47000000000E+01 0. -1.
         -5    1    4    4    0  502 -0.38405318430E+02 -0.13996370525E+02  0.71323256783E+02  0.82340535763E+02  0.47000000000E+01 0. -1.
          5    1    5    5  503    0  0.90691751273E+01  0.13282082709E+02 -0.93922473608E+01  0.19208538962E+02  0.47000000000E+01 0.  1.
         -5    1    5    5    0  503 -0.24664247802E+02 -0.66017164247E+02  0.22674268012E+03  0.23748878728E+03  0.47000000000E+01 0.  1.
<mgrwt>
<rscale>  0 0.28024453E+03</rscale>
<asrwt>0</asrwt>
<pdfrwt beam="1">  1        1 0.59335869E-01 0.28024453E+03</pdfrwt>
<pdfrwt beam="2">  1       -1 0.78319564E-02 0.28024453E+03</pdfrwt>
<totfact> 0.56223314E+03</totfact>
</mgrwt>
</event>
<event>
 9    1  0.7957670E-001  0.2802585E+03  0.7818608E-02  0.1095548E+00
         -2   -1    0    0    0  501 -0.00000000000E+00  0.00000000000E+00  0.86226219008E+02  0.86226219008E+02  0.00000000000E+00 0.  1.
          2   -1    0    0  501    0  0.00000000000E+00 -0.00000000000E+00 -0.22772892031E+03  0.22772892031E+03  0.00000000000E+00 0.  1.
         35    2    1    2    0    0 -0.71054273576E-14  0.00000000000E+00 -0.14150270130E+03  0.31395513932E+03  0.28025847896E+03 0.  0.
         25    2    3    3    0    0  0.60919841276E+02  0.13189424429E+02 -0.63791517115E+02  0.15396018947E+03  0.12549579398E+03 0.  0.
         25    2    3    3    0    0 -0.60919841276E+02 -0.13189424429E+02 -0.77711184188E+02  0.15999494985E+03  0.12519651693E+03 0.  0.
          5    1    4    4  502    0  0.48468840769E+02  0.18739803485E+02  0.29243928785E+02  0.59813929238E+02  0.47000000000E+01 0. -1.
         -5    1    4    4    0  502  0.12451000507E+02 -0.55503790559E+01 -0.93035445900E+02  0.94146260229E+02  0.47000000000E+01 0. -1.
          5    1    5    5  503    0  0.34061949630E+01 -0.19849925727E+02  0.28705930735E+02  0.35379968553E+02  0.47000000000E+01 0. -1.
         -5    1    5    5    0  503 -0.64326036239E+02  0.66605012981E+01 -0.10641711492E+03  0.12461498130E+03  0.47000000000E+01 0. -1.
<mgrwt>
<rscale>  0 0.28025848E+03</rscale>
<asrwt>0</asrwt>
<pdfrwt beam="1">  1        2 0.35035218E-01 0.28025848E+03</pdfrwt>
<pdfrwt beam="2">  1       -2 0.13265572E-01 0.28025848E+03</pdfrwt>
<totfact> 0.61591222E+03</totfact>
</mgrwt>
</event>
<event>
 9    1  0.7957670E-001  0.2783582E+03  0.7818608E-02  0.1096589E+00
          4   -1    0    0  501    0  0.00000000000E+00  0.00000000000E+00  0.94200586964E+02  0.94200586964E+02  0.00000000000E+00 0. -1.
         -4   -1    0    0    0  501 -0.00000000000E+00 -0.00000000000E+00 -0.20563377171E+03  0.20563377171E+03  0.00000000000E+00 0. -1.
         35    2    1    2    0    0 -0.35527136788E-14  0.00000000000E+00 -0.11143318475E+03  0.29983435868E+03  0.27835820085E+03 0.  0.
         25    2    3    3    0    0 -0.17993949726E+02 -0.44216175448E+02 -0.13663973185E+02  0.13467634956E+03  0.12518850814E+03 0.  0.
         25    2    3    3    0    0  0.17993949726E+02  0.44216175448E+02 -0.97769211561E+02  0.16515800911E+03  0.12425577189E+03 0.  0.
          5    1    4    4  502    0  0.14021286277E+02 -0.46037837139E+02  0.46024571532E+02  0.66756498574E+02  0.47000000000E+01 0.  1.
         -5    1    4    4    0  502 -0.32015236003E+02  0.18216616909E+01 -0.59688544717E+02  0.67919850987E+02  0.47000000000E+01 0.  1.
          5    1    5    5  503    0  0.50450554559E+01 -0.82598732494E+00 -0.11484643295E+03  0.11505619497E+03  0.47000000000E+01 0. -1.
         -5    1    5    5    0  503  0.12948894270E+02  0.45042162773E+02  0.17077221390E+02  0.50101814143E+02  0.47000000000E+01 0. -1.
<mgrwt>
<rscale>  0 0.27835820E+03</rscale>
<asrwt>0</asrwt>
<pdfrwt beam="1">  1        4 0.14492398E-01 0.27835820E+03</pdfrwt>
<pdfrwt beam="2">  1       -4 0.31635965E-01 0.27835820E+03</pdfrwt>
<totfact> 0.72249955E+02</totfact>
</mgrwt>
</event>
<event>
 9    1  0.7957670E-001  0.2717376E+03  0.7818608E-02  0.1100289E+00
         -2   -1    0    0    0  501 -0.00000000000E+00  0.00000000000E+00  0.18642143786E+02  0.18642143786E+02  0.00000000000E+00 0.  1.
          2   -1    0    0  501    0  0.00000000000E+00 -0.00000000000E+00 -0.99024695864E+03  0.99024695864E+03  0.00000000000E+00 0.  1.
         35    2    1    2    0    0 -0.35527136788E-14  0.00000000000E+00 -0.97160481485E+03  0.10088891024E+04  0.27173756595E+03 0.  0.
         25    2    3    3    0    0  0.88719691979E+01 -0.13745714827E+02 -0.29677478682E+03  0.32267093366E+03  0.12559299670E+03 0.  0.
         25    2    3    3    0    0 -0.88719691979E+01  0.13745714827E+02 -0.67483002803E+03  0.68621816877E+03  0.12341860436E+03 0.  0.
          5    1    4    4  502    0 -0.27526147440E+02 -0.40888433618E+02 -0.45374452224E+02  0.67160134836E+02  0.47000000000E+01 0. -1.
         -5    1    4    4    0  502  0.36398116638E+02  0.27142718791E+02 -0.25140033460E+03  0.25551079882E+03  0.47000000000E+01 0. -1.
          5    1    5    5  503    0 -0.33272102372E+02 -0.35507408866E+02 -0.13504059858E+03  0.14361706773E+03  0.47000000000E+01 0.  1.
         -5    1    5    5    0  503  0.24400133174E+02  0.49253123694E+02 -0.53978942945E+03  0.54260110103E+03  0.47000000000E+01 0.  1.
<mgrwt>
<rscale>  0 0.27173757E+03</rscale>
<asrwt>0</asrwt>
<pdfrwt beam="1">  1        2 0.15234570E+00 0.27173757E+03</pdfrwt>
<pdfrwt beam="2">  1       -2 0.28680218E-02 0.27173757E+03</pdfrwt>
<totfact> 0.12023471E+04</totfact>
</mgrwt>
</event>
<event>
 9    1  0.7957670E-001  0.2666427E+03  0.7818608E-02  0.1103217E+00
          2   -1    0    0  501    0  0.00000000000E+00  0.00000000000E+00  0.12802343313E+03  0.12802343313E+03  0.00000000000E+00 0.  1.
         -2   -1    0    0    0  501 -0.00000000000E+00 -0.00000000000E+00 -0.13883848431E+03  0.13883848431E+03  0.00000000000E+00 0.  1.
         35    2    1    2    0    0  0.53290705182E-14  0.00000000000E+00 -0.10815051174E+02  0.26686191744E+03  0.26664267784E+03 0.  0.
         25    2    3    3    0    0 -0.63647261834E+01 -0.10417774182E+02 -0.49619343378E+02  0.13530297220E+03  0.12528278130E+03 0.  0.
         25    2    3    3    0    0  0.63647261834E+01  0.10417774182E+02  0.38804292203E+02  0.13155894524E+03  0.12511172295E+03 0.  0.
          5    1    4    4  502    0 -0.57006092538E+02  0.11279895223E+02  0.37931164277E+01  0.58424381511E+02  0.47000000000E+01 0.  1.
         -5    1    4    4    0  502  0.50641366355E+02 -0.21697669405E+02 -0.53412459805E+02  0.76878590689E+02  0.47000000000E+01 0.  1.
          5    1    5    5  503    0 -0.81360148975E+01  0.37578521483E+02 -0.34525568441E+02  0.51888774233E+02  0.47000000000E+01 0.  1.
         -5    1    5    5    0  503  0.14500741081E+02 -0.27160747301E+02  0.73329860644E+02  0.79670171005E+02  0.47000000000E+01 0.  1.
<mgrwt>
<rscale>  0 0.26664268E+03</rscale>
<asrwt>0</asrwt>
<pdfrwt beam="1">  1        2 0.19695913E-01 0.26664268E+03</pdfrwt>
<pdfrwt beam="2">  1       -2 0.21359767E-01 0.26664268E+03</pdfrwt>
<totfact> 0.52550949E+03</totfact>
</mgrwt>
</event>
<event>
 9    1  0.7957670E-001  0.2737217E+03  0.7818608E-02  0.1099168E+00
          2   -1    0    0  501    0  0.00000000000E+00  0.00000000000E+00  0.13485119628E+03  0.13485119628E+03  0.00000000000E+00 0.  1.
         -2   -1    0    0    0  501 -0.00000000000E+00 -0.00000000000E+00 -0.13890045135E+03  0.13890045135E+03  0.00000000000E+00 0.  1.
         35    2    1    2    0    0  0.00000000000E+00  0.00000000000E+00 -0.40492550661E+01  0.27375164763E+03  0.27372169829E+03 0.  0.
         25    2    3    3    0    0 -0.89501463272E+01  0.37499217751E+02 -0.38091042182E+02  0.13833493476E+03  0.12727658948E+03 0.  0.
         25    2    3    3    0    0  0.89501463272E+01 -0.37499217751E+02  0.34041787116E+02  0.13541671287E+03  0.12526989424E+03 0.  0.
          5    1    4    4  502    0  0.49536463996E+02  0.49124267230E+02 -0.53054205138E+01  0.70123408238E+02  0.47000000000E+01 0. -1.
         -5    1    4    4    0  502 -0.58486610323E+02 -0.11625049479E+02 -0.32785621668E+02  0.68211526523E+02  0.47000000000E+01 0. -1.
          5    1    5    5  503    0 -0.30743926376E+02 -0.54569076080E+01 -0.36482503841E+02  0.48249662550E+02  0.47000000000E+01 0.  1.
         -5    1    5    5    0  503  0.39694072703E+02 -0.32042310143E+02  0.70524290957E+02  0.87167050323E+02  0.47000000000E+01 0.  1.
<mgrwt>
<rscale>  0 0.27372170E+03</rscale>
<asrwt>0</asrwt>
<pdfrwt beam="1">  1        2 0.20746338E-01 0.27372170E+03</pdfrwt>
<pdfrwt beam="2">  1       -2 0.21369300E-01 0.27372170E+03</pdfrwt>
<totfact> 0.49528737E+03</totfact>
</mgrwt>
</event>
<event>
 9    1  0.7957670E-001  0.2774871E+03  0.7818608E-02  0.1097069E+00
         -1   -1    0    0    0  501 -0.00000000000E+00  0.00000000000E+00  0.24142742457E+03  0.24142742457E+03  0.00000000000E+00 0.  1.
          1   -1    0    0  501    0  0.00000000000E+00 -0.00000000000E+00 -0.79733156674E+02  0.79733156674E+02  0.00000000000E+00 0.  1.
         35    2    1    2    0    0  0.00000000000E+00 -0.35527136788E-14  0.16169426789E+03  0.32116058124E+03  0.27748708560E+03 0.  0.
         25    2    3    3    0    0  0.35570594449E+00 -0.19560447587E+02  0.14574735012E+02  0.12708745537E+03  0.12472393827E+03 0.  0.
         25    2    3    3    0    0 -0.35570594449E+00  0.19560447587E+02  0.14711953288E+03  0.19407312587E+03  0.12504992440E+03 0.  0.
          5    1    4    4  502    0 -0.42461561649E+02 -0.53367893290E+02  0.22034910018E+02  0.71824393568E+02  0.47000000000E+01 0. -1.
         -5    1    4    4    0  502  0.42817267594E+02  0.33807445703E+02 -0.74601750061E+01  0.55263061807E+02  0.47000000000E+01 0. -1.
          5    1    5    5  503    0 -0.58604033528E+02  0.27717237782E+02  0.57544463683E+02  0.86810905517E+02  0.47000000000E+01 0. -1.
         -5    1    5    5    0  503  0.58248327584E+02 -0.81567901951E+01  0.89575069198E+02  0.10726222035E+03  0.47000000000E+01 0. -1.
<mgrwt>
<rscale>  0 0.27748709E+03</rscale>
<asrwt>0</asrwt>
<pdfrwt beam="1">  1        1 0.12266640E-01 0.27748709E+03</pdfrwt>
<pdfrwt beam="2">  1       -1 0.37142680E-01 0.27748709E+03</pdfrwt>
<totfact> 0.34168073E+03</totfact>
</mgrwt>
</event>
<event>
 9    1  0.7957670E-001  0.2767837E+03  0.7818608E-02  0.1097459E+00
         -1   -1    0    0    0  501 -0.00000000000E+00  0.00000000000E+00  0.94597103821E+02  0.94597103821E+02  0.00000000000E+00 0. -1.
          1   -1    0    0  501    0  0.00000000000E+00 -0.00000000000E+00 -0.20246182210E+03  0.20246182210E+03  0.00000000000E+00 0. -1.
         35    2    1    2    0    0  0.00000000000E+00 -0.71054273576E-14 -0.10786471828E+03  0.29705892592E+03  0.27678368453E+03 0.  0.
         25    2    3    3    0    0  0.23014455028E+02  0.54463912396E+02 -0.58159666051E+02  0.15020204402E+03  0.12522828905E+03 0.  0.
         25    2    3    3    0    0 -0.23014455028E+02 -0.54463912396E+02 -0.49705052231E+02  0.14685688191E+03  0.12490143575E+03 0.  0.
          5    1    4    4  502    0 -0.16193314004E+02 -0.17692401660E+02 -0.63231865869E+02  0.67790879595E+02  0.47000000000E+01 0.  1.
         -5    1    4    4    0  502  0.39207769031E+02  0.72156314055E+02  0.50721998182E+01  0.82411164423E+02  0.47000000000E+01 0.  1.
          5    1    5    5  503    0 -0.66893551761E+01  0.28470977851E+02 -0.54536956271E+02  0.62062175693E+02  0.47000000000E+01 0.  1.
         -5    1    5    5    0  503 -0.16325099852E+02 -0.82934890246E+02  0.48319040396E+01  0.84794706214E+02  0.47000000000E+01 0.  1.
<mgrwt>
<rscale>  0 0.27678368E+03</rscale>
<asrwt>0</asrwt>
<pdfrwt beam="1">  1        1 0.31147972E-01 0.27678368E+03</pdfrwt>
<pdfrwt beam="2">  1       -1 0.14553401E-01 0.27678368E+03</pdfrwt>
<totfact> 0.48393064E+03</totfact>
</mgrwt>
</event>
<event>
 9    1  0.7957670E-001  0.2675012E+03  0.7818608E-02  0.1102718E+00
         -1   -1    0    0    0  501 -0.00000000000E+00  0.00000000000E+00  0.66561559492E+02  0.66561559492E+02  0.00000000000E+00 0. -1.
          1   -1    0    0  501    0  0.00000000000E+00 -0.00000000000E+00 -0.26876205788E+03  0.26876205788E+03  0.00000000000E+00 0. -1.
         35    2    1    2    0    0  0.35527136788E-14 -0.71054273576E-14 -0.20220049839E+03  0.33532361737E+03  0.26750119031E+03 0.  0.
         25    2    3    3    0    0  0.44744321706E+01  0.33744611990E+02 -0.14060773562E+03  0.19162168326E+03  0.12565673400E+03 0.  0.
         25    2    3    3    0    0 -0.44744321706E+01 -0.33744611990E+02 -0.61592762767E+02  0.14370193411E+03  0.12529109329E+03 0.  0.
          5    1    4    4  502    0 -0.23436450188E+02 -0.21067074286E+02 -0.12358753644E+03  0.12762859390E+03  0.47000000000E+01 0. -1.
         -5    1    4    4    0  502  0.27910882358E+02  0.54811686277E+02 -0.17020199176E+02  0.63993089365E+02  0.47000000000E+01 0. -1.
          5    1    5    5  503    0 -0.18932279331E+02 -0.73207597196E+02 -0.66910821715E+02  0.10107883829E+03  0.47000000000E+01 0. -1.
         -5    1    5    5    0  503  0.14457847160E+02  0.39462985206E+02  0.53180589474E+01  0.42623095815E+02  0.47000000000E+01 0. -1.
<mgrwt>
<rscale>  0 0.26750119E+03</rscale>
<asrwt>0</asrwt>
<pdfrwt beam="1">  1        1 0.41348009E-01 0.26750119E+03</pdfrwt>
<pdfrwt beam="2">  1       -1 0.10240240E-01 0.26750119E+03</pdfrwt>
<totfact> 0.58680731E+03</totfact>
</mgrwt>
</event>
<event>
 9    1  0.7957670E-001  0.2741136E+03  0.7818608E-02  0.1098948E+00
         -2   -1    0    0    0  501 -0.00000000000E+00  0.00000000000E+00  0.92627586600E+01  0.92627586600E+01  0.00000000000E+00 0. -1.
          2   -1    0    0  501    0  0.00000000000E+00 -0.00000000000E+00 -0.20279668884E+04  0.20279668884E+04  0.00000000000E+00 0. -1.
         35    2    1    2    0    0 -0.71054273576E-14  0.00000000000E+00 -0.20187041298E+04  0.20372296471E+04  0.27411361045E+03 0.  0.
         25    2    3    3    0    0  0.33374706613E+02  0.42820779184E+02 -0.11378681655E+04  0.11459955098E+04  0.12495701772E+03 0.  0.
         25    2    3    3    0    0 -0.33374706613E+02 -0.42820779184E+02 -0.88083596428E+03  0.89123413729E+03  0.12441383093E+03 0.  0.
          5    1    4    4  502    0  0.27203272897E+02  0.62312998984E+02 -0.11043645469E+04  0.11064655757E+04  0.47000000000E+01 0.  1.
         -5    1    4    4    0  502  0.61714337164E+01 -0.19492219799E+02 -0.33503618618E+02  0.39529934067E+02  0.47000000000E+01 0.  1.
          5    1    5    5  503    0  0.44372227602E+02 -0.13029879655E+02 -0.45056677322E+03  0.45295825357E+03  0.47000000000E+01 0. -1.
         -5    1    5    5    0  503 -0.77746934215E+02 -0.29790899529E+02 -0.43026919106E+03  0.43827588372E+03  0.47000000000E+01 0. -1.
<mgrwt>
<rscale>  0 0.27411361E+03</rscale>
<asrwt>0</asrwt>
<pdfrwt beam="1">  1        2 0.31199478E+00 0.27411361E+03</pdfrwt>
<pdfrwt beam="2">  1       -2 0.14250404E-02 0.27411361E+03</pdfrwt>
<totfact> 0.91328461E+03</totfact>
</mgrwt>
</event>
<event>
 9    1  0.7957670E-001  0.2753058E+03  0.7818608E-02  0.1098281E+00
          2   -1    0    0  501    0  0.00000000000E+00  0.00000000000E+00  0.15159518539E+03  0.15159518539E+03  0.00000000000E+00 0. -1.
         -2   -1    0    0    0  501 -0.00000000000E+00 -0.00000000000E+00 -0.12499292949E+03  0.12499292949E+03  0.00000000000E+00 0. -1.
         35    2    1    2    0    0  0.00000000000E+00  0.35527136788E-14  0.26602255903E+02  0.27658811488E+03  0.27530583952E+03 0.  0.
         25    2    3    3    0    0  0.38307060679E+02 -0.27399912316E+02 -0.22005245335E+02  0.13496223003E+03  0.12454873190E+03 0.  0.
         25    2    3    3    0    0 -0.38307060679E+02  0.27399912316E+02  0.48607501238E+02  0.14162588485E+03  0.12440665573E+03 0.  0.
          5    1    4    4  502    0 -0.41075253172E+02 -0.20940134439E+01  0.14519011617E+02  0.43868588008E+02  0.47000000000E+01 0.  1.
         -5    1    4    4    0  502  0.79382313851E+02 -0.25305898872E+02 -0.36524256952E+02  0.91093642018E+02  0.47000000000E+01 0.  1.
          5    1    5    5  503    0  0.46929208909E+01  0.27062589338E+02 -0.36639272626E+02  0.46031875333E+02  0.47000000000E+01 0.  1.
         -5    1    5    5    0  503 -0.42999981570E+02  0.33732297838E+00  0.85246773864E+02  0.95594009519E+02  0.47000000000E+01 0.  1.
<mgrwt>
<rscale>  0 0.27530584E+03</rscale>
<asrwt>0</asrwt>
<pdfrwt beam="1">  1        2 0.23322336E-01 0.27530584E+03</pdfrwt>
<pdfrwt beam="2">  1       -2 0.19229681E-01 0.27530584E+03</pdfrwt>
<totfact> 0.51985310E+03</totfact>
</mgrwt>
</event>
<event>
 9    1  0.7957670E-001  0.2745379E+03  0.7818608E-02  0.1098710E+00
          1   -1    0    0  501    0  0.00000000000E+00  0.00000000000E+00  0.17064394079E+04  0.17064394079E+04  0.00000000000E+00 0.  1.
         -1   -1    0    0    0  501 -0.00000000000E+00 -0.00000000000E+00 -0.11042155354E+02  0.11042155354E+02  0.00000000000E+00 0.  1.
         35    2    1    2    0    0 -0.17763568394E-14  0.00000000000E+00  0.16953972525E+04  0.17174815632E+04  0.27453793213E+03 0.  0.
         25    2    3    3    0    0 -0.37334724725E+01 -0.56495420293E+02  0.81301768735E+03  0.82446837725E+03  0.12467828126E+03 0.  0.
         25    2    3    3    0    0  0.37334724725E+01  0.56495420293E+02  0.88237956515E+03  0.89301318595E+03  0.12519257951E+03 0.  0.
          5    1    4    4  502    0  0.62912424422E+01 -0.33214127148E+02  0.78734989538E+03  0.78808927522E+03  0.47000000000E+01 0.  1.
         -5    1    4    4    0  502 -0.10024714915E+02 -0.23281293145E+02  0.25667791970E+02  0.36379102026E+02  0.47000000000E+01 0.  1.
          5    1    5    5  503    0 -0.36162931840E+02  0.74370198537E+02  0.72130101859E+03  0.72604127534E+03  0.47000000000E+01 0. -1.
         -5    1    5    5    0  503  0.39896404313E+02 -0.17874778244E+02  0.16107854656E+03  0.16697191062E+03  0.47000000000E+01 0. -1.
<mgrwt>
<rscale>  0 0.27453793E+03</rscale>
<asrwt>0</asrwt>
<pdfrwt beam="1">  1        1 0.26252893E+00 0.27453793E+03</pdfrwt>
<pdfrwt beam="2">  1       -1 0.16987945E-02 0.27453793E+03</pdfrwt>
<totfact> 0.45577331E+03</totfact>
</mgrwt>
</event>
<event>
 9    1  0.7957670E-001  0.2739250E+03  0.7818608E-02  0.1099054E+00
          2   -1    0    0  501    0  0.00000000000E+00  0.00000000000E+00  0.11779606504E+04  0.11779606504E+04  0.00000000000E+00 0.  1.
         -2   -1    0    0    0  501 -0.00000000000E+00 -0.00000000000E+00 -0.15924747196E+02  0.15924747196E+02  0.00000000000E+00 0.  1.
         35    2    1    2    0    0  0.00000000000E+00  0.00000000000E+00  0.11620359032E+04  0.11938853976E+04  0.27392499385E+03 0.  0.
         25    2    3    3    0    0  0.57001049569E+02  0.42467779612E+01  0.56145777948E+03  0.57798819402E+03  0.12477323237E+03 0.  0.
         25    2    3    3    0    0 -0.57001049569E+02 -0.42467779612E+01  0.60057812369E+03  0.61589720354E+03  0.12396825358E+03 0.  0.
          5    1    4    4  502    0  0.19648107970E+02 -0.52113993118E+02  0.38365488311E+03  0.38770488230E+03  0.47000000000E+01 0. -1.
         -5    1    4    4    0  502  0.37352941599E+02  0.56360771079E+02  0.17780289637E+03  0.19028331172E+03  0.47000000000E+01 0. -1.
          5    1    5    5  503    0  0.12604426392E+01 -0.51128367125E+02  0.13715658007E+03  0.14645721592E+03  0.47000000000E+01 0.  1.
         -5    1    5    5    0  503 -0.58261492208E+02  0.46881589164E+02  0.46342154362E+03  0.46943998761E+03  0.47000000000E+01 0.  1.
<mgrwt>
<rscale>  0 0.27392499E+03</rscale>
<asrwt>0</asrwt>
<pdfrwt beam="1">  1        2 0.18122465E+00 0.27392499E+03</pdfrwt>
<pdfrwt beam="2">  1       -2 0.24499620E-02 0.27392499E+03</pdfrwt>
<totfact> 0.11762075E+04</totfact>
</mgrwt>
</event>
<event>
 8    1  0.7957670E-001  0.3566463E+03  0.7818608E-02  0.1059920E+00
          1   -1    0    0  501    0  0.00000000000E+00  0.00000000000E+00  0.30110006835E+03  0.30110006835E+03  0.00000000000E+00 0.  1.
         -1   -1    0    0    0  501 -0.00000000000E+00 -0.00000000000E+00 -0.10560991023E+03  0.10560991023E+03  0.00000000000E+00 0.  1.
         25    2    1    2    0    0 -0.26561379546E+02 -0.12025848542E+03  0.73561001207E+02  0.19301394595E+03  0.12913385395E+03 0.  0.
         25    2    1    2    0    0  0.26561379546E+02  0.12025848542E+03  0.12192915691E+03  0.21369603263E+03  0.12502665659E+03 0.  0.
          5    1    3    3  502    0  0.43648212470E+02 -0.34649975342E+02  0.58915799147E+02  0.81233913067E+02  0.47000000000E+01 0. -1.
         -5    1    3    3    0  502 -0.70209592016E+02 -0.85608510078E+02  0.14645202060E+02  0.11178003289E+03  0.47000000000E+01 0. -1.
          5    1    4    4  503    0 -0.41331092158E+02  0.24610870891E+02  0.59844322621E+01  0.48701720447E+02  0.47000000000E+01 0. -1.
         -5    1    4    4    0  503  0.67892471704E+02  0.95647614529E+02  0.11594472465E+03  0.16499431218E+03  0.47000000000E+01 0. -1.
<mgrwt>
<rscale>  0 0.35664633E+03</rscale>
<asrwt>0</asrwt>
<pdfrwt beam="1">  1        1 0.46323087E-01 0.35664633E+03</pdfrwt>
<pdfrwt beam="2">  1       -1 0.16247679E-01 0.35664633E+03</pdfrwt>
<totfact> 0.24737457E+03</totfact>
</mgrwt>
</event>
<event>
 8    1  0.7957670E-001  0.3654844E+03  0.7818608E-02  0.1056433E+00
          1   -1    0    0  501    0  0.00000000000E+00  0.00000000000E+00  0.13007613149E+03  0.13007613149E+03  0.00000000000E+00 0.  1.
         -1   -1    0    0    0  501 -0.00000000000E+00 -0.00000000000E+00 -0.25673207806E+03  0.25673207806E+03  0.00000000000E+00 0.  1.
         25    2    1    2    0    0  0.85605273764E+02  0.52121756976E+02 -0.15784069901E+03  0.22480046547E+03  0.12480634025E+03 0.  0.
         25    2    1    2    0    0 -0.85605273764E+02 -0.52121756976E+02  0.31184752436E+02  0.16200774408E+03  0.12340615831E+03 0.  0.
          5    1    3    3  502    0  0.89493732852E+02  0.76717888673E+02 -0.16064121394E+03  0.19930492287E+03  0.47000000000E+01 0.  1.
         -5    1    3    3    0  502 -0.38884590881E+01 -0.24596131697E+02  0.28005149368E+01  0.25495542600E+02  0.47000000000E+01 0.  1.
          5    1    4    4  503    0 -0.26623789979E+02  0.18925971054E+02  0.57130415150E+02  0.65977215070E+02  0.47000000000E+01 0.  1.
         -5    1    4    4    0  503 -0.58981483785E+02 -0.71047728030E+02 -0.25945662714E+02  0.96030529007E+02  0.47000000000E+01 0.  1.
<mgrwt>
<rscale>  0 0.36548442E+03</rscale>
<asrwt>0</asrwt>
<pdfrwt beam="1">  1        1 0.20011713E-01 0.36548442E+03</pdfrwt>
<pdfrwt beam="2">  1       -1 0.39497242E-01 0.36548442E+03</pdfrwt>
<totfact> 0.16182176E+03</totfact>
</mgrwt>
</event>
<event>
 9    1  0.7957670E-001  0.2766279E+03  0.7818608E-02  0.1097545E+00
          2   -1    0    0  501    0  0.00000000000E+00  0.00000000000E+00  0.25023160601E+03  0.25023160601E+03  0.00000000000E+00 0. -1.
         -2   -1    0    0    0  501 -0.00000000000E+00 -0.00000000000E+00 -0.76452177091E+02  0.76452177091E+02  0.00000000000E+00 0. -1.
         35    2    1    2    0    0  0.00000000000E+00  0.00000000000E+00  0.17377942892E+03  0.32668378310E+03  0.27662791657E+03 0.  0.
         25    2    3    3    0    0  0.43606430216E+02  0.91739365710E+01  0.13306594726E+03  0.18871227743E+03  0.12617486066E+03 0.  0.
         25    2    3    3    0    0 -0.43606430216E+02 -0.91739365710E+01  0.40713481658E+02  0.13797150567E+03  0.12406799313E+03 0.  0.
          5    1    4    4  502    0 -0.39824458753E+01  0.61275274025E+02  0.76135119883E+02  0.97924284841E+02  0.47000000000E+01 0. -1.
         -5    1    4    4    0  502  0.47588876092E+02 -0.52101337454E+02  0.56930827375E+02  0.90787992586E+02  0.47000000000E+01 0. -1.
          5    1    5    5  503    0  0.33463663452E+02 -0.60933233776E+01  0.49452176071E+02  0.60204261307E+02  0.47000000000E+01 0.  1.
         -5    1    5    5    0  503 -0.77070093669E+02 -0.30806131934E+01 -0.87386944131E+01  0.77767244363E+02  0.47000000000E+01 0.  1.
<mgrwt>
<rscale>  0 0.27662792E+03</rscale>
<asrwt>0</asrwt>
<pdfrwt beam="1">  1        2 0.38497170E-01 0.27662792E+03</pdfrwt>
<pdfrwt beam="2">  1       -2 0.11761873E-01 0.27662792E+03</pdfrwt>
<totfact> 0.67560355E+03</totfact>
</mgrwt>
</event>
<event>
 9    1  0.7957670E-001  0.2759838E+03  0.7818608E-02  0.1097903E+00
          2   -1    0    0  501    0  0.00000000000E+00  0.00000000000E+00  0.48178681126E+03  0.48178681126E+03  0.00000000000E+00 0.  1.
         -2   -1    0    0    0  501 -0.00000000000E+00 -0.00000000000E+00 -0.39523205148E+02  0.39523205148E+02  0.00000000000E+00 0.  1.
         35    2    1    2    0    0  0.00000000000E+00  0.00000000000E+00  0.44226360611E+03  0.52131001641E+03  0.27598376024E+03 0.  0.
         25    2    3    3    0    0 -0.37217237878E+02 -0.41840081668E+02  0.16295483483E+03  0.21091522628E+03  0.12163568249E+03 0.  0.
         25    2    3    3    0    0  0.37217237878E+02  0.41840081668E+02  0.27930877128E+03  0.31039479013E+03  0.12327132996E+03 0.  0.
          5    1    4    4  502    0 -0.23162673205E+02 -0.77648953791E+02  0.14909606304E+03  0.16975746072E+03  0.47000000000E+01 0. -1.
         -5    1    4    4    0  502 -0.14054564673E+02  0.35808872123E+02  0.13858771784E+02  0.41157765564E+02  0.47000000000E+01 0. -1.
          5    1    5    5  503    0 -0.27142223105E+02  0.51467019919E+02  0.69965334620E+02  0.91119660134E+02  0.47000000000E+01 0.  1.
         -5    1    5    5    0  503  0.64359460984E+02 -0.96269382510E+01  0.20934343667E+03  0.21927512999E+03  0.47000000000E+01 0.  1.
<mgrwt>
<rscale>  0 0.27598376E+03</rscale>
<asrwt>0</asrwt>
<pdfrwt beam="1">  1        2 0.74121043E-01 0.27598376E+03</pdfrwt>
<pdfrwt beam="2">  1       -2 0.60804935E-02 0.27598376E+03</pdfrwt>
<totfact> 0.93581687E+03</totfact>
</mgrwt>
</event>
<event>
 9    1  0.7957670E-001  0.2718949E+03  0.7818608E-02  0.1100200E+00
          2   -1    0    0  501    0  0.00000000000E+00  0.00000000000E+00  0.15911471628E+03  0.15911471628E+03  0.00000000000E+00 0.  1.
         -2   -1    0    0    0  501 -0.00000000000E+00 -0.00000000000E+00 -0.11615335063E+03  0.11615335063E+03  0.00000000000E+00 0.  1.
         35    2    1    2    0    0 -0.71054273576E-14  0.71054273576E-14  0.42961365647E+02  0.27526806690E+03  0.27189488726E+03 0.  0.
         25    2    3    3    0    0 -0.10486921043E+02  0.33658559295E+02  0.62781798953E+02  0.14416507980E+03  0.12489652449E+03 0.  0.
         25    2    3    3    0    0  0.10486921043E+02 -0.33658559295E+02 -0.19820433306E+02  0.13110298710E+03  0.12470873876E+03 0.  0.
          5    1    4    4  502    0  0.53788559793E+02  0.30781534344E+02  0.15140353866E+02  0.63968995117E+02  0.47000000000E+01 0. -1.
         -5    1    4    4    0  502 -0.64275480836E+02  0.28770249516E+01  0.47641445087E+02  0.80196084687E+02  0.47000000000E+01 0. -1.
          5    1    5    5  503    0 -0.49538078560E+02 -0.46052982966E+02 -0.15018119637E+02  0.69444455394E+02  0.47000000000E+01 0. -1.
         -5    1    5    5    0  503  0.60024999603E+02  0.12394423671E+02 -0.48023136693E+01  0.61658531706E+02  0.47000000000E+01 0. -1.
<mgrwt>
<rscale>  0 0.27189489E+03</rscale>
<asrwt>0</asrwt>
<pdfrwt beam="1">  1        2 0.24479187E-01 0.27189489E+03</pdfrwt>
<pdfrwt beam="2">  1       -2 0.17869746E-01 0.27189489E+03</pdfrwt>
<totfact> 0.55721786E+03</totfact>
</mgrwt>
</event>
<event>
 9    1  0.7957670E-001  0.2721475E+03  0.7818608E-02  0.1100057E+00
         -2   -1    0    0    0  501 -0.00000000000E+00  0.00000000000E+00  0.20732865490E+02  0.20732865490E+02  0.00000000000E+00 0.  1.
          2   -1    0    0  501    0  0.00000000000E+00 -0.00000000000E+00 -0.89307786707E+03  0.89307786707E+03  0.00000000000E+00 0.  1.
         35    2    1    2    0    0  0.14210854715E-13  0.17763568394E-14 -0.87234500158E+03  0.91381073256E+03  0.27214748421E+03 0.  0.
         25    2    3    3    0    0  0.50649318768E+02 -0.42262869537E+01 -0.47300190910E+03  0.49162879531E+03  0.12403568589E+03 0.  0.
         25    2    3    3    0    0 -0.50649318768E+02  0.42262869537E+01 -0.39934309248E+03  0.42218193725E+03  0.12719853629E+03 0.  0.
          5    1    4    4  502    0 -0.22089211874E+02 -0.44812635040E+02 -0.15885636786E+03  0.16659394092E+03  0.47000000000E+01 0.  1.
         -5    1    4    4    0  502  0.72738530642E+02  0.40586348086E+02 -0.31414554124E+03  0.32503485440E+03  0.47000000000E+01 0.  1.
          5    1    5    5  503    0  0.40555091766E+02 -0.15145167430E+02 -0.13358267630E+03  0.14050093584E+03  0.47000000000E+01 0.  1.
         -5    1    5    5    0  503 -0.91204410534E+02  0.19371454383E+02 -0.26576041618E+03  0.28168100141E+03  0.47000000000E+01 0.  1.
<mgrwt>
<rscale>  0 0.27214748E+03</rscale>
<asrwt>0</asrwt>
<pdfrwt beam="1">  1        2 0.13739663E+00 0.27214748E+03</pdfrwt>
<pdfrwt beam="2">  1       -2 0.31896708E-02 0.27214748E+03</pdfrwt>
<totfact> 0.11821168E+04</totfact>
</mgrwt>
</event>
<event>
 9    1  0.7957670E-001  0.2753120E+03  0.7818608E-02  0.1098277E+00
          2   -1    0    0  501    0  0.00000000000E+00  0.00000000000E+00  0.91287521344E+03  0.91287521344E+03  0.00000000000E+00 0. -1.
         -2   -1    0    0    0  501 -0.00000000000E+00 -0.00000000000E+00 -0.20757676720E+02  0.20757676720E+02  0.00000000000E+00 0. -1.
         35    2    1    2    0    0 -0.71054273576E-14 -0.71054273576E-14  0.89211753672E+03  0.93363289016E+03  0.27531195809E+03 0.  0.
         25    2    3    3    0    0  0.22392175739E+02 -0.54408704602E+02  0.51669122599E+03  0.53381321090E+03  0.12051972641E+03 0.  0.
         25    2    3    3    0    0 -0.22392175739E+02  0.54408704602E+02  0.37542631073E+03  0.39981967925E+03  0.12429458741E+03 0.  0.
          5    1    4    4  502    0  0.66289661348E+02 -0.11398062390E+02  0.19657920063E+03  0.20782133468E+03  0.47000000000E+01 0.  1.
         -5    1    4    4    0  502 -0.43897485609E+02 -0.43010642212E+02  0.32011202535E+03  0.32599187622E+03  0.47000000000E+01 0.  1.
          5    1    5    5  503    0 -0.42951327394E+02 -0.25129509336E+02  0.19846123916E+03  0.20465889234E+03  0.47000000000E+01 0.  1.
         -5    1    5    5    0  503  0.20559151656E+02  0.79538213938E+02  0.17696507157E+03  0.19516078691E+03  0.47000000000E+01 0.  1.
<mgrwt>
<rscale>  0 0.27531196E+03</rscale>
<asrwt>0</asrwt>
<pdfrwt beam="1">  1        2 0.14044231E+00 0.27531196E+03</pdfrwt>
<pdfrwt beam="2">  1       -2 0.31934894E-02 0.27531196E+03</pdfrwt>
<totfact> 0.11462780E+04</totfact>
</mgrwt>
</event>
<event>
 9    1  0.7957670E-001  0.2756234E+03  0.7818608E-02  0.1098104E+00
         -2   -1    0    0    0  501 -0.00000000000E+00  0.00000000000E+00  0.12261112884E+03  0.12261112884E+03  0.00000000000E+00 0.  1.
          2   -1    0    0  501    0  0.00000000000E+00 -0.00000000000E+00 -0.15489674824E+03  0.15489674824E+03  0.00000000000E+00 0.  1.
         35    2    1    2    0    0  0.00000000000E+00  0.14210854715E-13 -0.32285619400E+02  0.27750787708E+03  0.27562340361E+03 0.  0.
         25    2    3    3    0    0  0.15049733502E+02 -0.51691702520E+02  0.49499417459E+01  0.13605313531E+03  0.12484961800E+03 0.  0.
         25    2    3    3    0    0 -0.15049733502E+02  0.51691702520E+02 -0.37235561146E+02  0.14145474177E+03  0.12539709075E+03 0.  0.
          5    1    4    4  502    0 -0.11769455990E+02  0.26654267984E+02  0.36828590505E+02  0.47195393575E+02  0.47000000000E+01 0.  1.
         -5    1    4    4    0  502  0.26819189492E+02 -0.78345970504E+02 -0.31878648759E+02  0.88857741733E+02  0.47000000000E+01 0.  1.
          5    1    5    5  503    0 -0.18775210861E+02  0.18264343642E+02 -0.81459001972E+02  0.85695704640E+02  0.47000000000E+01 0.  1.
         -5    1    5    5    0  503  0.37254773585E+01  0.33427358877E+02  0.44223440826E+02  0.55759037129E+02  0.47000000000E+01 0.  1.
<mgrwt>
<rscale>  0 0.27562340E+03</rscale>
<asrwt>0</asrwt>
<pdfrwt beam="1">  1        2 0.23830269E-01 0.27562340E+03</pdfrwt>
<pdfrwt beam="2">  1       -2 0.18863251E-01 0.27562340E+03</pdfrwt>
<totfact> 0.52430175E+03</totfact>
</mgrwt>
</event>
<event>
 9    1  0.7957670E-001  0.2713917E+03  0.7818608E-02  0.1100486E+00
         -2   -1    0    0    0  501 -0.00000000000E+00  0.00000000000E+00  0.76738493536E+02  0.76738493536E+02  0.00000000000E+00 0. -1.
          2   -1    0    0  501    0  0.00000000000E+00 -0.00000000000E+00 -0.23994950571E+03  0.23994950571E+03  0.00000000000E+00 0. -1.
         35    2    1    2    0    0  0.00000000000E+00 -0.71054273576E-14 -0.16321101217E+03  0.31668799924E+03  0.27139169915E+03 0.  0.
         25    2    3    3    0    0 -0.83550113165E+00  0.50981492547E+02 -0.68057366304E+02  0.15121145547E+03  0.12503314965E+03 0.  0.
         25    2    3    3    0    0  0.83550113165E+00 -0.50981492547E+02 -0.95153645867E+02  0.16547654377E+03  0.12541315550E+03 0.  0.
          5    1    4    4  502    0 -0.36830628832E+02  0.69106783578E+02 -0.76714010957E+02  0.10972407317E+03  0.47000000000E+01 0. -1.
         -5    1    4    4    0  502  0.35995127700E+02 -0.18125291031E+02  0.86566446534E+01  0.41487382296E+02  0.47000000000E+01 0. -1.
          5    1    5    5  503    0 -0.52912614514E+02 -0.50820258665E+01 -0.74595595447E+02  0.91717853342E+02  0.47000000000E+01 0. -1.
         -5    1    5    5    0  503  0.53748115646E+02 -0.45899466680E+02 -0.20558050420E+02  0.73758690430E+02  0.47000000000E+01 0. -1.
<mgrwt>
<rscale>  0 0.27139170E+03</rscale>
<asrwt>0</asrwt>
<pdfrwt beam="1">  1        2 0.36915308E-01 0.27139170E+03</pdfrwt>
<pdfrwt beam="2">  1       -2 0.11805922E-01 0.27139170E+03</pdfrwt>
<totfact> 0.70222027E+03</totfact>
</mgrwt>
</event>
<event>
 9    1  0.7957670E-001  0.2741380E+03  0.7818608E-02  0.1098934E+00
         -2   -1    0    0    0  501 -0.00000000000E+00  0.00000000000E+00  0.40320678690E+02  0.40320678690E+02  0.00000000000E+00 0. -1.
          2   -1    0    0  501    0  0.00000000000E+00 -0.00000000000E+00 -0.46596212742E+03  0.46596212742E+03  0.00000000000E+00 0. -1.
         35    2    1    2    0    0  0.00000000000E+00  0.14210854715E-13 -0.42564144873E+03  0.50628280611E+03  0.27413798877E+03 0.  0.
         25    2    3    3    0    0 -0.30579452919E+02  0.41843488750E+02 -0.18945147242E+03  0.23421438664E+03  0.12758737404E+03 0.  0.
         25    2    3    3    0    0  0.30579452919E+02 -0.41843488750E+02 -0.23618997631E+03  0.27206841948E+03  0.12469779258E+03 0.  0.
          5    1    4    4  502    0 -0.62269036421E+02 -0.22056576487E+02 -0.90255133267E+02  0.11194643605E+03  0.47000000000E+01 0.  1.
         -5    1    4    4    0  502  0.31689583502E+02  0.63900065237E+02 -0.99196339154E+02  0.12226795059E+03  0.47000000000E+01 0.  1.
          5    1    5    5  503    0  0.47086492014E+02  0.61182271876E+01 -0.23170280712E+02  0.53042646449E+02  0.47000000000E+01 0.  1.
         -5    1    5    5    0  503 -0.16507039095E+02 -0.47961715938E+02 -0.21301969560E+03  0.21902577303E+03  0.47000000000E+01 0.  1.
<mgrwt>
<rscale>  0 0.27413799E+03</rscale>
<asrwt>0</asrwt>
<pdfrwt beam="1">  1        2 0.71686487E-01 0.27413799E+03</pdfrwt>
<pdfrwt beam="2">  1       -2 0.62031808E-02 0.27413799E+03</pdfrwt>
<totfact> 0.94153760E+03</totfact>
</mgrwt>
</event>
<event>
 9    1  0.7957670E-001  0.2741063E+03  0.7818608E-02  0.1098952E+00
         -2   -1    0    0    0  501 -0.00000000000E+00  0.00000000000E+00  0.33324660794E+02  0.33324660794E+02  0.00000000000E+00 0. -1.
          2   -1    0    0  501    0  0.00000000000E+00 -0.00000000000E+00 -0.56365343811E+03  0.56365343811E+03  0.00000000000E+00 0. -1.
         35    2    1    2    0    0 -0.35527136788E-14 -0.17763568394E-14 -0.53032877732E+03  0.59697809891E+03  0.27410625407E+03 0.  0.
         25    2    3    3    0    0 -0.61441571917E+01  0.75909267547E+01 -0.14598356011E+03  0.19245285698E+03  0.12502611528E+03 0.  0.
         25    2    3    3    0    0  0.61441571917E+01 -0.75909267547E+01 -0.38434521721E+03  0.40452524193E+03  0.12579369031E+03 0.  0.
          5    1    4    4  502    0  0.57621888241E+02 -0.65338358200E+01 -0.52832556782E+02  0.78589707157E+02  0.47000000000E+01 0. -1.
         -5    1    4    4    0  502 -0.63766045432E+02  0.14124762575E+02 -0.93151003325E+02  0.11386314983E+03  0.47000000000E+01 0. -1.
          5    1    5    5  503    0 -0.17964671497E+02  0.45284670709E+02 -0.73802070338E+02  0.88556571802E+02  0.47000000000E+01 0.  1.
         -5    1    5    5    0  503  0.24108828689E+02 -0.52875597463E+02 -0.31054314688E+03  0.31596867012E+03  0.47000000000E+01 0.  1.
<mgrwt>
<rscale>  0 0.27410625E+03</rscale>
<asrwt>0</asrwt>
<pdfrwt beam="1">  1        2 0.86715904E-01 0.27410625E+03</pdfrwt>
<pdfrwt beam="2">  1       -2 0.51268714E-02 0.27410625E+03</pdfrwt>
<totfact> 0.10173154E+04</totfact>
</mgrwt>
</event>
<event>
 9    1  0.7957670E-001  0.2764953E+03  0.7818608E-02  0.1097619E+00
          1   -1    0    0  501    0  0.00000000000E+00  0.00000000000E+00  0.86538387310E+03  0.86538387310E+03  0.00000000000E+00 0.  1.
         -1   -1    0    0    0  501 -0.00000000000E+00 -0.00000000000E+00 -0.22085481100E+02  0.22085481100E+02  0.00000000000E+00 0.  1.
         35    2    1    2    0    0 -0.35527136788E-14 -0.17763568394E-14  0.84329839200E+03  0.88746935420E+03  0.27649534660E+03 0.  0.
         25    2    3    3    0    0 -0.15814800704E+02 -0.12822978638E+02  0.59995164949E+03  0.61329200883E+03  0.12558092872E+03 0.  0.
         25    2    3    3    0    0  0.15814800704E+02  0.12822978638E+02  0.24334674250E+03  0.27417734537E+03  0.12466371936E+03 0.  0.
          5    1    4    4  502    0 -0.55057004002E+02  0.12919840860E+02  0.49483298338E+03  0.49807626667E+03  0.47000000000E+01 0.  1.
         -5    1    4    4    0  502  0.39242203298E+02 -0.25742819498E+02  0.10511866611E+03  0.11521574215E+03  0.47000000000E+01 0.  1.
          5    1    5    5  503    0 -0.26923447398E+01  0.55764565715E+02  0.49649594472E+02  0.74860588702E+02  0.47000000000E+01 0.  1.
         -5    1    5    5    0  503  0.18507145444E+02 -0.42941587078E+02  0.19369714803E+03  0.19931675667E+03  0.47000000000E+01 0.  1.
<mgrwt>
<rscale>  0 0.27649535E+03</rscale>
<asrwt>0</asrwt>
<pdfrwt beam="1">  1        1 0.13313595E+00 0.27649535E+03</pdfrwt>
<pdfrwt beam="2">  1       -1 0.33977670E-02 0.27649535E+03</pdfrwt>
<totfact> 0.63745548E+03</totfact>
</mgrwt>
</event>
<event>
 9    1  0.7957670E-001  0.2694486E+03  0.7818608E-02  0.1101596E+00
         -1   -1    0    0    0  501 -0.00000000000E+00  0.00000000000E+00  0.11750824750E+02  0.11750824750E+02  0.00000000000E+00 0.  1.
          1   -1    0    0  501    0  0.00000000000E+00 -0.00000000000E+00 -0.15446263464E+04  0.15446263464E+04  0.00000000000E+00 0.  1.
         35    2    1    2    0    0  0.17763568394E-14 -0.35527136788E-14 -0.15328755217E+04  0.15563771712E+04  0.26944857396E+03 0.  0.
         25    2    3    3    0    0 -0.15923761103E+02  0.21666103906E+02 -0.10095873188E+04  0.10176085049E+04  0.12464962397E+03 0.  0.
         25    2    3    3    0    0  0.15923761103E+02 -0.21666103906E+02 -0.52328820291E+03  0.53876866630E+03  0.12537203140E+03 0.  0.
          5    1    4    4  502    0  0.32911489938E+02 -0.16072000658E+02 -0.11285687036E+03  0.11874442540E+03  0.47000000000E+01 0. -1.
         -5    1    4    4    0  502 -0.48835251041E+02  0.37738104564E+02 -0.89673044839E+03  0.89886407947E+03  0.47000000000E+01 0. -1.
          5    1    5    5  503    0  0.20327713547E+02 -0.41859604160E+02 -0.51314282874E+03  0.51526992449E+03  0.47000000000E+01 0. -1.
         -5    1    5    5    0  503 -0.44039524437E+01  0.20193500255E+02 -0.10145374173E+02  0.23498741813E+02  0.47000000000E+01 0. -1.
<mgrwt>
<rscale>  0 0.26944857E+03</rscale>
<asrwt>0</asrwt>
<pdfrwt beam="1">  1        1 0.23763476E+00 0.26944857E+03</pdfrwt>
<pdfrwt beam="2">  1       -1 0.18078197E-02 0.26944857E+03</pdfrwt>
<totfact> 0.53132064E+03</totfact>
</mgrwt>
</event>
<event>
 9    1  0.7957670E-001  0.2723622E+03  0.7818608E-02  0.1099935E+00
          1   -1    0    0  501    0  0.00000000000E+00  0.00000000000E+00  0.43415963527E+02  0.43415963527E+02  0.00000000000E+00 0. -1.
         -1   -1    0    0    0  501 -0.00000000000E+00 -0.00000000000E+00 -0.42715363144E+03  0.42715363144E+03  0.00000000000E+00 0. -1.
         35    2    1    2    0    0 -0.71054273576E-14 -0.14210854715E-13 -0.38373766791E+03  0.47056959496E+03  0.27236215951E+03 0.  0.
         25    2    3    3    0    0  0.49601323739E+01  0.53331837872E+02 -0.21228888288E+03  0.25202962044E+03  0.12483377725E+03 0.  0.
         25    2    3    3    0    0 -0.49601323739E+01 -0.53331837872E+02 -0.17144878503E+03  0.21853997452E+03  0.12448351992E+03 0.  0.
          5    1    4    4  502    0  0.55069012173E+02  0.29135096413E+02 -0.48834299085E+02  0.79298983044E+02  0.47000000000E+01 0.  1.
         -5    1    4    4    0  502 -0.50108879799E+02  0.24196741459E+02 -0.16345458380E+03  0.17273063740E+03  0.47000000000E+01 0.  1.
          5    1    5    5  503    0  0.12233502027E+02  0.13096016395E+02 -0.14286132358E+03  0.14405766898E+03  0.47000000000E+01 0.  1.
         -5    1    5    5    0  503 -0.17193634400E+02 -0.66427854267E+02 -0.28587461447E+02  0.74482305539E+02  0.47000000000E+01 0.  1.
<mgrwt>
<rscale>  0 0.27236216E+03</rscale>
<asrwt>0</asrwt>
<pdfrwt beam="1">  1        1 0.66793791E-02 0.27236216E+03</pdfrwt>
<pdfrwt beam="2">  1       -1 0.65715943E-01 0.27236216E+03</pdfrwt>
<totfact> 0.27012160E+03</totfact>
</mgrwt>
</event>
<event>
 9    1  0.7957670E-001  0.2754013E+03  0.7818608E-02  0.1098227E+00
          2   -1    0    0  501    0  0.00000000000E+00  0.00000000000E+00  0.51521839363E+03  0.51521839363E+03  0.00000000000E+00 0.  1.
         -2   -1    0    0    0  501 -0.00000000000E+00 -0.00000000000E+00 -0.36802791727E+02  0.36802791727E+02  0.00000000000E+00 0.  1.
         35    2    1    2    0    0 -0.35527136788E-14 -0.71054273576E-14  0.47841560190E+03  0.55202118535E+03  0.27540134520E+03 0.  0.
         25    2    3    3    0    0  0.30612704939E+02 -0.21402347645E+02  0.32914862886E+03  0.35399463406E+03  0.12481259099E+03 0.  0.
         25    2    3    3    0    0 -0.30612704939E+02  0.21402347645E+02  0.14926697304E+03  0.19802655130E+03  0.12465427225E+03 0.  0.
          5    1    4    4  502    0  0.41317163187E+01 -0.52235145019E+02  0.52451262548E+02  0.74288669377E+02  0.47000000000E+01 0. -1.
         -5    1    4    4    0  502  0.26480988620E+02  0.30832797374E+02  0.27669736631E+03  0.27970596468E+03  0.47000000000E+01 0. -1.
          5    1    5    5  503    0 -0.14948777683E+02  0.73556982540E+02  0.80168956617E+02  0.10992382471E+03  0.47000000000E+01 0. -1.
         -5    1    5    5    0  503 -0.15663927256E+02 -0.52154634895E+02  0.69098016421E+02  0.88102726583E+02  0.47000000000E+01 0. -1.
<mgrwt>
<rscale>  0 0.27540135E+03</rscale>
<asrwt>0</asrwt>
<pdfrwt beam="1">  1        2 0.79264363E-01 0.27540135E+03</pdfrwt>
<pdfrwt beam="2">  1       -2 0.56619683E-02 0.27540135E+03</pdfrwt>
<totfact> 0.96834543E+03</totfact>
</mgrwt>
</event>
<event>
 9    1  0.7957670E-001  0.2766432E+03  0.7818608E-02  0.1097537E+00
          2   -1    0    0  501    0  0.00000000000E+00  0.00000000000E+00  0.20864909801E+04  0.20864909801E+04  0.00000000000E+00 0. -1.
         -2   -1    0    0    0  501 -0.00000000000E+00 -0.00000000000E+00 -0.91698739935E+01  0.91698739935E+01  0.00000000000E+00 0. -1.
         35    2    1    2    0    0 -0.71054273576E-14 -0.14210854715E-13  0.20773211061E+04  0.20956608541E+04  0.27664315915E+03 0.  0.
         25    2    3    3    0    0  0.29836822911E+02  0.47745226623E+02  0.10567735998E+04  0.10656516892E+04  0.12519280668E+03 0.  0.
         25    2    3    3    0    0 -0.29836822911E+02 -0.47745226623E+02  0.10205475063E+04  0.10300091649E+04  0.12740417741E+03 0.  0.
          5    1    4    4  502    0  0.26011650525E+01 -0.26335342334E+02  0.59976525839E+02  0.65723587601E+02  0.47000000000E+01 0. -1.
         -5    1    4    4    0  502  0.27235657859E+02  0.74080568957E+02  0.99679707396E+03  0.99992810162E+03  0.47000000000E+01 0. -1.
          5    1    5    5  503    0  0.25781711873E+01  0.32244360491E+02  0.95638262296E+02  0.10106984202E+03  0.47000000000E+01 0.  1.
         -5    1    5    5    0  503 -0.32414994098E+02 -0.79989587114E+02  0.92490924405E+03  0.92893932290E+03  0.47000000000E+01 0.  1.
<mgrwt>
<rscale>  0 0.27664316E+03</rscale>
<asrwt>0</asrwt>
<pdfrwt beam="1">  1        2 0.32099823E+00 0.27664316E+03</pdfrwt>
<pdfrwt beam="2">  1       -2 0.14107515E-02 0.27664316E+03</pdfrwt>
<totfact> 0.86331080E+03</totfact>
</mgrwt>
</event>
<event>
 9    1  0.7957670E-001  0.2738962E+03  0.7818608E-02  0.1099070E+00
          1   -1    0    0  501    0  0.00000000000E+00  0.00000000000E+00  0.13249777352E+03  0.13249777352E+03  0.00000000000E+00 0.  1.
         -1   -1    0    0    0  501 -0.00000000000E+00 -0.00000000000E+00 -0.14154791304E+03  0.14154791304E+03  0.00000000000E+00 0.  1.
         35    2    1    2    0    0  0.00000000000E+00  0.00000000000E+00 -0.90501395232E+01  0.27404568655E+03  0.27389620898E+03 0.  0.
         25    2    3    3    0    0 -0.18541823737E+02  0.25121988589E+02 -0.50593117054E+02  0.13827587297E+03  0.12484246078E+03 0.  0.
         25    2    3    3    0    0  0.18541823737E+02 -0.25121988589E+02  0.41542977531E+02  0.13576981359E+03  0.12543009911E+03 0.  0.
          5    1    4    4  502    0 -0.66378005996E+02  0.83324024559E+01 -0.55601950927E+02  0.87115644736E+02  0.47000000000E+01 0.  1.
         -5    1    4    4    0  502  0.47836182260E+02  0.16789586133E+02  0.50088338737E+01  0.51160228229E+02  0.47000000000E+01 0.  1.
          5    1    5    5  503    0  0.62861300328E+02 -0.85675964545E+01 -0.11381705788E+02  0.64626465280E+02  0.47000000000E+01 0. -1.
         -5    1    5    5    0  503 -0.44319476591E+02 -0.16554392135E+02  0.52924683319E+02  0.71143348309E+02  0.47000000000E+01 0. -1.
<mgrwt>
<rscale>  0 0.27389621E+03</rscale>
<asrwt>0</asrwt>
<pdfrwt beam="1">  1        1 0.20384273E-01 0.27389621E+03</pdfrwt>
<pdfrwt beam="2">  1       -1 0.21776602E-01 0.27389621E+03</pdfrwt>
<totfact> 0.43377616E+03</totfact>
</mgrwt>
</event>
<event>
 9    1  0.7957670E-001  0.2783345E+03  0.7818608E-02  0.1096602E+00
          2   -1    0    0  501    0  0.00000000000E+00  0.00000000000E+00  0.73385833432E+02  0.73385833432E+02  0.00000000000E+00 0. -1.
         -2   -1    0    0    0  501 -0.00000000000E+00 -0.00000000000E+00 -0.26391370457E+03  0.26391370457E+03  0.00000000000E+00 0. -1.
         35    2    1    2    0    0  0.17763568394E-14  0.14210854715E-13 -0.19052787114E+03  0.33729953800E+03  0.27833452652E+03 0.  0.
         25    2    3    3    0    0  0.10204398292E+01 -0.57428979070E+02 -0.94135494361E+02  0.16931672239E+03  0.12848164167E+03 0.  0.
         25    2    3    3    0    0 -0.10204398292E+01  0.57428979070E+02 -0.96392376775E+02  0.16798281561E+03  0.12501042799E+03 0.  0.
          5    1    4    4  502    0 -0.10369339878E+02  0.40134323326E+02 -0.20613135920E+02  0.46532553022E+02  0.47000000000E+01 0. -1.
         -5    1    4    4    0  502  0.11389779707E+02 -0.97563302396E+02 -0.73522358441E+02  0.12278416937E+03  0.47000000000E+01 0. -1.
          5    1    5    5  503    0 -0.52145870772E+02 -0.80709450674E+01 -0.49262434745E+02  0.72340925277E+02  0.47000000000E+01 0.  1.
         -5    1    5    5    0  503  0.51125430943E+02  0.65499924137E+02 -0.47129942029E+02  0.95641890335E+02  0.47000000000E+01 0.  1.
<mgrwt>
<rscale>  0 0.27833453E+03</rscale>
<asrwt>0</asrwt>
<pdfrwt beam="1">  1        2 0.11290128E-01 0.27833453E+03</pdfrwt>
<pdfrwt beam="2">  1       -2 0.40602109E-01 0.27833453E+03</pdfrwt>
<totfact> 0.31769344E+03</totfact>
</mgrwt>
</event>
<event>
 9    1  0.7957670E-001  0.2757633E+03  0.7818608E-02  0.1098026E+00
          2   -1    0    0  501    0  0.00000000000E+00  0.00000000000E+00  0.44298947294E+03  0.44298947294E+03  0.00000000000E+00 0. -1.
         -2   -1    0    0    0  501 -0.00000000000E+00 -0.00000000000E+00 -0.42916015932E+02  0.42916015932E+02  0.00000000000E+00 0. -1.
         35    2    1    2    0    0 -0.71054273576E-14  0.14210854715E-13  0.40007345701E+03  0.48590548887E+03  0.27576325555E+03 0.  0.
         25    2    3    3    0    0 -0.20000447381E+02 -0.53175489789E+02  0.22058009123E+03  0.25974977429E+03  0.12484677804E+03 0.  0.
         25    2    3    3    0    0  0.20000447381E+02  0.53175489789E+02  0.17949336578E+03  0.22615571458E+03  0.12530318539E+03 0.  0.
          5    1    4    4  502    0 -0.48595840922E+02  0.23113891305E+02  0.10736467158E+03  0.12018764674E+03  0.47000000000E+01 0.  1.
         -5    1    4    4    0  502  0.28595393541E+02 -0.76289381094E+02  0.11321541965E+03  0.13956212755E+03  0.47000000000E+01 0.  1.
          5    1    5    5  503    0  0.70904223810E+02  0.38443065576E+02  0.82140590891E+02  0.11521477734E+03  0.47000000000E+01 0. -1.
         -5    1    5    5    0  503 -0.50903776428E+02  0.14732424213E+02  0.97352774893E+02  0.11094093725E+03  0.47000000000E+01 0. -1.
<mgrwt>
<rscale>  0 0.27576326E+03</rscale>
<asrwt>0</asrwt>
<pdfrwt beam="1">  1        2 0.68152223E-01 0.27576326E+03</pdfrwt>
<pdfrwt beam="2">  1       -2 0.66024643E-02 0.27576326E+03</pdfrwt>
<totfact> 0.90452408E+03</totfact>
</mgrwt>
</event>
<event>
 9    1  0.7957670E-001  0.2744870E+03  0.7818608E-02  0.1098739E+00
         -2   -1    0    0    0  501 -0.00000000000E+00  0.00000000000E+00  0.65877927071E+02  0.65877927071E+02  0.00000000000E+00 0.  1.
          2   -1    0    0  501    0  0.00000000000E+00 -0.00000000000E+00 -0.28591945748E+03  0.28591945748E+03  0.00000000000E+00 0.  1.
         35    2    1    2    0    0 -0.35527136788E-14 -0.71054273576E-14 -0.22004153041E+03  0.35179738455E+03  0.27448702095E+03 0.  0.
         25    2    3    3    0    0 -0.14264084423E+02 -0.49949324969E+02 -0.13217583707E+03  0.18900741912E+03  0.12471949891E+03 0.  0.
         25    2    3    3    0    0  0.14264084423E+02  0.49949324969E+02 -0.87865693340E+02  0.16278996543E+03  0.12681401188E+03 0.  0.
          5    1    4    4  502    0  0.88411884988E+01 -0.67377113937E+00 -0.13397621260E+03  0.13435153934E+03  0.47000000000E+01 0.  1.
         -5    1    4    4    0  502 -0.23105272922E+02 -0.49275553830E+02  0.18003755347E+01  0.54655879776E+02  0.47000000000E+01 0.  1.
          5    1    5    5  503    0  0.42989380919E+02 -0.29416135868E+02 -0.37933278900E+02  0.64609748253E+02  0.47000000000E+01 0. -1.
         -5    1    5    5    0  503 -0.28725296496E+02  0.79365460836E+02 -0.49932414441E+02  0.98180217175E+02  0.47000000000E+01 0. -1.
<mgrwt>
<rscale>  0 0.27448702E+03</rscale>
<asrwt>0</asrwt>
<pdfrwt beam="1">  1        2 0.43987610E-01 0.27448702E+03</pdfrwt>
<pdfrwt beam="2">  1       -2 0.10135066E-01 0.27448702E+03</pdfrwt>
<totfact> 0.74252943E+03</totfact>
</mgrwt>
</event>
<event>
 9    1  0.7957670E-001  0.2703720E+03  0.7818608E-02  0.1101067E+00
          2   -1    0    0  501    0  0.00000000000E+00  0.00000000000E+00  0.72994961340E+02  0.72994961340E+02  0.00000000000E+00 0.  1.
         -2   -1    0    0    0  501 -0.00000000000E+00 -0.00000000000E+00 -0.25036315832E+03  0.25036315832E+03  0.00000000000E+00 0.  1.
         35    2    1    2    0    0  0.35527136788E-14  0.00000000000E+00 -0.17736819698E+03  0.32335811966E+03  0.27037195906E+03 0.  0.
         25    2    3    3    0    0 -0.28499949943E+02 -0.39061553421E+02 -0.73321016154E+02  0.15252110866E+03  0.12469428646E+03 0.  0.
         25    2    3    3    0    0  0.28499949943E+02  0.39061553421E+02 -0.10404718082E+03  0.17083701099E+03  0.12657573379E+03 0.  0.
          5    1    4    4  502    0  0.44243667171E+02 -0.38020419906E+01 -0.21369575535E+01  0.44705863101E+02  0.47000000000E+01 0. -1.
         -5    1    4    4    0  502 -0.72743617113E+02 -0.35259511430E+02 -0.71184058601E+02  0.10781524556E+03  0.47000000000E+01 0. -1.
          5    1    5    5  503    0 -0.24645976869E+02  0.58900956090E+02 -0.15998728565E+02  0.65990879065E+02  0.47000000000E+01 0. -1.
         -5    1    5    5    0  503  0.53145926812E+02 -0.19839402669E+02 -0.88048452256E+02  0.10484613193E+03  0.47000000000E+01 0. -1.
<mgrwt>
<rscale>  0 0.27037196E+03</rscale>
<asrwt>0</asrwt>
<pdfrwt beam="1">  1        2 0.11229994E-01 0.27037196E+03</pdfrwt>
<pdfrwt beam="2">  1       -2 0.38517409E-01 0.27037196E+03</pdfrwt>
<totfact> 0.35325594E+03</totfact>
</mgrwt>
</event>
<event>
 9    1  0.7957670E-001  0.2844449E+03  0.7818608E-02  0.1093286E+00
          2   -1    0    0  501    0  0.00000000000E+00  0.00000000000E+00  0.13928079654E+04  0.13928079654E+04  0.00000000000E+00 0. -1.
         -2   -1    0    0    0  501 -0.00000000000E+00 -0.00000000000E+00 -0.14522627792E+02  0.14522627792E+02  0.00000000000E+00 0. -1.
         35    2    1    2    0    0  0.35527136788E-14 -0.71054273576E-14  0.13782853377E+04  0.14073305932E+04  0.28444494489E+03 0.  0.
         25    2    3    3    0    0  0.24636508269E+02 -0.24944470343E+02  0.97557690238E+03  0.98417100471E+03  0.12495235052E+03 0.  0.
         25    2    3    3    0    0 -0.24636508269E+02  0.24944470343E+02  0.40270843527E+03  0.42315958853E+03  0.12514299576E+03 0.  0.
          5    1    4    4  502    0 -0.33030763349E+02  0.33243820399E+02  0.40333948958E+03  0.40608006203E+03  0.47000000000E+01 0.  1.
         -5    1    4    4    0  502  0.57667271617E+02 -0.58188290741E+02  0.57223741280E+03  0.57809094267E+03  0.47000000000E+01 0.  1.
          5    1    5    5  503    0 -0.53542862808E+02  0.24333588604E+02  0.38376874976E+03  0.38827761329E+03  0.47000000000E+01 0.  1.
         -5    1    5    5    0  503  0.28906354540E+02  0.61088173877E+00  0.18939685511E+02  0.34881975238E+02  0.47000000000E+01 0.  1.
<mgrwt>
<rscale>  0 0.28444494E+03</rscale>
<asrwt>0</asrwt>
<pdfrwt beam="1">  1        2 0.21427804E+00 0.28444494E+03</pdfrwt>
<pdfrwt beam="2">  1       -2 0.22342515E-02 0.28444494E+03</pdfrwt>
<totfact> 0.10242771E+04</totfact>
</mgrwt>
</event>
<event>
 9    1  0.7957670E-001  0.2760195E+03  0.7818608E-02  0.1097883E+00
         -2   -1    0    0    0  501 -0.00000000000E+00  0.00000000000E+00  0.75651227204E+02  0.75651227204E+02  0.00000000000E+00 0. -1.
          2   -1    0    0  501    0  0.00000000000E+00 -0.00000000000E+00 -0.25176969032E+03  0.25176969032E+03  0.00000000000E+00 0. -1.
         35    2    1    2    0    0  0.14210854715E-13  0.00000000000E+00 -0.17611846311E+03  0.32742091752E+03  0.27601946341E+03 0.  0.
         25    2    3    3    0    0 -0.47170104139E+02  0.32860262458E+02 -0.72088178934E+02  0.15575367973E+03  0.12552962851E+03 0.  0.
         25    2    3    3    0    0  0.47170104139E+02 -0.32860262458E+02 -0.10403028418E+03  0.17166723779E+03  0.12386494633E+03 0.  0.
          5    1    4    4  502    0 -0.68285781671E+02  0.49284592227E+02 -0.63003895307E+01  0.84579571515E+02  0.47000000000E+01 0. -1.
         -5    1    4    4    0  502  0.21115677532E+02 -0.16424329769E+02 -0.65787789404E+02  0.71174108218E+02  0.47000000000E+01 0. -1.
          5    1    5    5  503    0  0.57448919158E+02 -0.34400833114E+02 -0.12832871272E+03  0.14482452880E+03  0.47000000000E+01 0. -1.
         -5    1    5    5    0  503 -0.10278815018E+02  0.15405706560E+01  0.24298428547E+02  0.26842708991E+02  0.47000000000E+01 0. -1.
<mgrwt>
<rscale>  0 0.27601946E+03</rscale>
<asrwt>0</asrwt>
<pdfrwt beam="1">  1        2 0.38733798E-01 0.27601946E+03</pdfrwt>
<pdfrwt beam="2">  1       -2 0.11638650E-01 0.27601946E+03</pdfrwt>
<totfact> 0.68257297E+03</totfact>
</mgrwt>
</event>
<event>
 9    1  0.7957670E-001  0.2756206E+03  0.7818608E-02  0.1098105E+00
         -1   -1    0    0    0  501 -0.00000000000E+00  0.00000000000E+00  0.10715157075E+04  0.10715157075E+04  0.00000000000E+00 0.  1.
          1   -1    0    0  501    0  0.00000000000E+00 -0.00000000000E+00 -0.17724129140E+02  0.17724129140E+02  0.00000000000E+00 0.  1.
         35    2    1    2    0    0 -0.10658141036E-13  0.10658141036E-13  0.10537915784E+04  0.10892398366E+04  0.27562062894E+03 0.  0.
         25    2    3    3    0    0 -0.14881217336E+02  0.31633912861E+02  0.70102290176E+03  0.71332627787E+03  0.12719714947E+03 0.  0.
         25    2    3    3    0    0  0.14881217336E+02 -0.31633912861E+02  0.35276867659E+03  0.37591355876E+03  0.12507241664E+03 0.  0.
          5    1    4    4  502    0 -0.43390570823E+01 -0.32766732098E+02  0.57525628934E+02  0.66511458659E+02  0.47000000000E+01 0. -1.
         -5    1    4    4    0  502 -0.10542160254E+02  0.64400644959E+02  0.64349727283E+03  0.64681481921E+03  0.47000000000E+01 0. -1.
          5    1    5    5  503    0  0.67353555949E+02 -0.29566185455E+02  0.24651722092E+03  0.25730039065E+03  0.47000000000E+01 0. -1.
         -5    1    5    5    0  503 -0.52472338613E+02 -0.20677274065E+01  0.10625145568E+03  0.11861316811E+03  0.47000000000E+01 0. -1.
<mgrwt>
<rscale>  0 0.27562063E+03</rscale>
<asrwt>0</asrwt>
<pdfrwt beam="1">  1        1 0.27267899E-02 0.27562063E+03</pdfrwt>
<pdfrwt beam="2">  1       -1 0.16484852E+00 0.27562063E+03</pdfrwt>
<totfact> 0.11433058E+03</totfact>
</mgrwt>
</event>
<event>
 9    1  0.7957670E-001  0.2736031E+03  0.7818608E-02  0.1099235E+00
          2   -1    0    0  501    0  0.00000000000E+00  0.00000000000E+00  0.24031069290E+04  0.24031069290E+04  0.00000000000E+00 0.  1.
         -2   -1    0    0    0  501 -0.00000000000E+00 -0.00000000000E+00 -0.77876977183E+01  0.77876977183E+01  0.00000000000E+00 0.  1.
         35    2    1    2    0    0 -0.10658141036E-13 -0.14210854715E-13  0.23953192313E+04  0.24108946267E+04  0.27360314580E+03 0.  0.
         25    2    3    3    0    0 -0.30430229048E+02 -0.48463975393E+02  0.13007005057E+04  0.13079487171E+04  0.12503313669E+03 0.  0.
         25    2    3    3    0    0  0.30430229048E+02  0.48463975393E+02  0.10946187255E+04  0.11029459096E+04  0.12257556612E+03 0.  0.
          5    1    4    4  502    0  0.24268859296E+01  0.30320807578E+02  0.75186534934E+03  0.75249507286E+03  0.47000000000E+01 0. -1.
         -5    1    4    4    0  502 -0.32857114978E+02 -0.78784782970E+02  0.54883515640E+03  0.55545364427E+03  0.47000000000E+01 0. -1.
          5    1    5    5  503    0  0.70032667760E+02  0.62720140135E+01  0.42373752412E+03  0.42955732104E+03  0.47000000000E+01 0.  1.
         -5    1    5    5    0  503 -0.39602438711E+02  0.42191961379E+02  0.67088120141E+03  0.67338858853E+03  0.47000000000E+01 0.  1.
<mgrwt>
<rscale>  0 0.27360315E+03</rscale>
<asrwt>0</asrwt>
<pdfrwt beam="1">  1        2 0.36970817E+00 0.27360315E+03</pdfrwt>
<pdfrwt beam="2">  1       -2 0.11981093E-02 0.27360315E+03</pdfrwt>
<totfact> 0.74221949E+03</totfact>
</mgrwt>
</event>
<event>
 9    1  0.7957670E-001  0.2756459E+03  0.7818608E-02  0.1098091E+00
          2   -1    0    0  501    0  0.00000000000E+00  0.00000000000E+00  0.19782041176E+04  0.19782041176E+04  0.00000000000E+00 0. -1.
         -2   -1    0    0    0  501 -0.00000000000E+00 -0.00000000000E+00 -0.96022270456E+01  0.96022270456E+01  0.00000000000E+00 0. -1.
         35    2    1    2    0    0  0.71054273576E-14  0.71054273576E-14  0.19686018906E+04  0.19878063447E+04  0.27564589661E+03 0.  0.
         25    2    3    3    0    0  0.45806588320E+02  0.29725986377E+02  0.10839177897E+04  0.10924765171E+04  0.12508112494E+03 0.  0.
         25    2    3    3    0    0 -0.45806588320E+02 -0.29725986377E+02  0.88468410085E+03  0.89532982753E+03  0.12636322236E+03 0.  0.
          5    1    4    4  502    0 -0.15657645158E+02  0.46038485364E+02  0.79981567287E+03  0.80130637372E+03  0.47000000000E+01 0. -1.
         -5    1    4    4    0  502  0.61464233477E+02 -0.16312498986E+02  0.28410211685E+03  0.29117014341E+03  0.47000000000E+01 0. -1.
          5    1    5    5  503    0  0.32581261283E+02 -0.41537228292E+02  0.24057531707E+03  0.24634417611E+03  0.47000000000E+01 0.  1.
         -5    1    5    5    0  503 -0.78387849603E+02  0.11811241915E+02  0.64410878378E+03  0.64898565141E+03  0.47000000000E+01 0.  1.
<mgrwt>
<rscale>  0 0.27564590E+03</rscale>
<asrwt>0</asrwt>
<pdfrwt beam="1">  1        2 0.30433877E+00 0.27564590E+03</pdfrwt>
<pdfrwt beam="2">  1       -2 0.14772673E-02 0.27564590E+03</pdfrwt>
<totfact> 0.92036557E+03</totfact>
</mgrwt>
</event>
<event>
 9    1  0.7957670E-001  0.2880228E+03  0.7818608E-02  0.1091386E+00
         -2   -1    0    0    0  501 -0.00000000000E+00  0.00000000000E+00  0.27902487861E+03  0.27902487861E+03  0.00000000000E+00 0. -1.
          2   -1    0    0  501    0  0.00000000000E+00 -0.00000000000E+00 -0.74327696651E+02  0.74327696651E+02  0.00000000000E+00 0. -1.
         35    2    1    2    0    0 -0.14210854715E-13  0.00000000000E+00  0.20469718196E+03  0.35335257526E+03  0.28802275282E+03 0.  0.
         25    2    3    3    0    0  0.43495025460E+02 -0.19536017726E+02  0.16756845896E+03  0.21482179485E+03  0.12568111185E+03 0.  0.
         25    2    3    3    0    0 -0.43495025460E+02  0.19536017726E+02  0.37128723000E+02  0.13853078041E+03  0.12465457000E+03 0.  0.
          5    1    4    4  502    0  0.23673839444E+02 -0.55475602078E+02  0.16225909283E+03  0.17317071434E+03  0.47000000000E+01 0. -1.
         -5    1    4    4    0  502  0.19821186016E+02  0.35939584352E+02  0.53093661270E+01  0.41651080504E+02  0.47000000000E+01 0. -1.
          5    1    5    5  503    0 -0.15620271598E+02  0.30501810131E+02 -0.41637248095E+02  0.54130432614E+02  0.47000000000E+01 0. -1.
         -5    1    5    5    0  503 -0.27874753862E+02 -0.10965792405E+02  0.78765971095E+02  0.84400347799E+02  0.47000000000E+01 0. -1.
<mgrwt>
<rscale>  0 0.28802275E+03</rscale>
<asrwt>0</asrwt>
<pdfrwt beam="1">  1        2 0.11435030E-01 0.28802275E+03</pdfrwt>
<pdfrwt beam="2">  1       -2 0.42926904E-01 0.28802275E+03</pdfrwt>
<totfact> 0.28120830E+03</totfact>
</mgrwt>
</event>
<event>
 9    1  0.7957670E-001  0.2763868E+03  0.7818608E-02  0.1097679E+00
         -2   -1    0    0    0  501 -0.00000000000E+00  0.00000000000E+00  0.29330914078E+02  0.29330914078E+02  0.00000000000E+00 0. -1.
          2   -1    0    0  501    0  0.00000000000E+00 -0.00000000000E+00 -0.65110187054E+03  0.65110187054E+03  0.00000000000E+00 0. -1.
         35    2    1    2    0    0  0.71054273576E-14  0.88817841970E-15 -0.62177095647E+03  0.68043278462E+03  0.27638677986E+03 0.  0.
         25    2    3    3    0    0 -0.50754833965E+02  0.33415532257E+01 -0.38576845700E+03  0.40862001221E+03  0.12476294648E+03 0.  0.
         25    2    3    3    0    0  0.50754833965E+02 -0.33415532257E+01 -0.23600249947E+03  0.27181277241E+03  0.12489108992E+03 0.  0.
          5    1    4    4  502    0  0.36031318523E+02 -0.60386075657E+01 -0.52879175633E+02  0.64443912912E+02  0.47000000000E+01 0.  1.
         -5    1    4    4    0  502 -0.86786152488E+02  0.93801607914E+01 -0.33288928137E+03  0.34417609930E+03  0.47000000000E+01 0.  1.
          5    1    5    5  503    0 -0.29626760821E+02  0.98378368548E+01 -0.14991933267E+03  0.15320712875E+03  0.47000000000E+01 0. -1.
         -5    1    5    5    0  503  0.80381594786E+02 -0.13179390081E+02 -0.86083166799E+02  0.11860564367E+03  0.47000000000E+01 0. -1.
<mgrwt>
<rscale>  0 0.27638678E+03</rscale>
<asrwt>0</asrwt>
<pdfrwt beam="1">  1        2 0.10016951E+00 0.27638678E+03</pdfrwt>
<pdfrwt beam="2">  1       -2 0.45124488E-02 0.27638678E+03</pdfrwt>
<totfact> 0.10440512E+04</totfact>
</mgrwt>
</event>
<event>
 9    1  0.7957670E-001  0.2682555E+03  0.7818608E-02  0.1102282E+00
         -1   -1    0    0    0  501 -0.00000000000E+00  0.00000000000E+00  0.53224537115E+03  0.53224537115E+03  0.00000000000E+00 0.  1.
          1   -1    0    0  501    0  0.00000000000E+00 -0.00000000000E+00 -0.33800663807E+02  0.33800663807E+02  0.00000000000E+00 0.  1.
         35    2    1    2    0    0 -0.71054273576E-14 -0.35527136788E-14  0.49844470734E+03  0.56604603496E+03  0.26825545179E+03 0.  0.
         25    2    3    3    0    0  0.17122040962E+02 -0.86403010820E+01  0.14951467795E+03  0.19485874725E+03  0.12348065990E+03 0.  0.
         25    2    3    3    0    0 -0.17122040962E+02  0.86403010820E+01  0.34893002940E+03  0.37118728771E+03  0.12513999381E+03 0.  0.
          5    1    4    4  502    0 -0.30140537687E+02  0.39964691778E+02  0.33530929893E+02  0.60432126063E+02  0.47000000000E+01 0. -1.
         -5    1    4    4    0  502  0.47262578649E+02 -0.48604992860E+02  0.11598374805E+03  0.13442662119E+03  0.47000000000E+01 0. -1.
          5    1    5    5  503    0 -0.65640842317E+02  0.90996668122E+01  0.12037055585E+03  0.13748703514E+03  0.47000000000E+01 0. -1.
         -5    1    5    5    0  503  0.48518801355E+02 -0.45936573020E+00  0.22855947355E+03  0.23370025257E+03  0.47000000000E+01 0. -1.
<mgrwt>
<rscale>  0 0.26825545E+03</rscale>
<asrwt>0</asrwt>
<pdfrwt beam="1">  1        1 0.52001025E-02 0.26825545E+03</pdfrwt>
<pdfrwt beam="2">  1       -1 0.81883897E-01 0.26825545E+03</pdfrwt>
<totfact> 0.24420920E+03</totfact>
</mgrwt>
</event>
<event>
 9    1  0.7957670E-001  0.2750269E+03  0.7818608E-02  0.1098437E+00
          1   -1    0    0  501    0  0.00000000000E+00  0.00000000000E+00  0.23495336886E+03  0.23495336886E+03  0.00000000000E+00 0. -1.
         -1   -1    0    0    0  501 -0.00000000000E+00 -0.00000000000E+00 -0.80483842398E+02  0.80483842398E+02  0.00000000000E+00 0. -1.
         35    2    1    2    0    0  0.71054273576E-14  0.00000000000E+00  0.15446952646E+03  0.31543721126E+03  0.27502690712E+03 0.  0.
         25    2    3    3    0    0  0.60400388786E+01  0.11247784818E+02  0.17967486009E+02  0.12991871880E+03  0.12803533968E+03 0.  0.
         25    2    3    3    0    0 -0.60400388786E+01 -0.11247784818E+02  0.13650204045E+03  0.18551849246E+03  0.12498523618E+03 0.  0.
          5    1    4    4  502    0 -0.51788126303E+02 -0.27567265474E+02  0.89704561282E+01  0.59535898707E+02  0.47000000000E+01 0.  1.
         -5    1    4    4    0  502  0.57828165181E+02  0.38815050292E+02  0.89970298810E+01  0.70382820092E+02  0.47000000000E+01 0.  1.
          5    1    5    5  503    0 -0.77039791441E+01  0.43741942467E+02  0.76222632107E+01  0.45308914376E+02  0.47000000000E+01 0.  1.
         -5    1    5    5    0  503  0.16639402654E+01 -0.54989727285E+02  0.12887977724E+03  0.14020957808E+03  0.47000000000E+01 0.  1.
<mgrwt>
<rscale>  0 0.27502691E+03</rscale>
<asrwt>0</asrwt>
<pdfrwt beam="1">  1        1 0.36146672E-01 0.27502691E+03</pdfrwt>
<pdfrwt beam="2">  1       -1 0.12382130E-01 0.27502691E+03</pdfrwt>
<totfact> 0.51741876E+03</totfact>
</mgrwt>
</event>
<event>
 9    1  0.7957670E-001  0.2528423E+03  0.7818608E-02  0.1111522E+00
         -2   -1    0    0    0  501 -0.00000000000E+00  0.00000000000E+00  0.29589412573E+03  0.29589412573E+03  0.00000000000E+00 0. -1.
          2   -1    0    0  501    0  0.00000000000E+00 -0.00000000000E+00 -0.54013611737E+02  0.54013611737E+02  0.00000000000E+00 0. -1.
         35    2    1    2    0    0  0.00000000000E+00 -0.35527136788E-14  0.24188051399E+03  0.34990773747E+03  0.25284232575E+03 0.  0.
         25    2    3    3    0    0  0.13911426329E+02  0.10591991793E+02  0.12685565042E+03  0.17897496979E+03  0.12503585764E+03 0.  0.
         25    2    3    3    0    0 -0.13911426329E+02 -0.10591991793E+02  0.11502486358E+03  0.17093276768E+03  0.12522609054E+03 0.  0.
          5    1    4    4  502    0  0.26963778517E+02  0.26427848888E+02  0.14578217742E+03  0.15066522426E+03  0.47000000000E+01 0.  1.
         -5    1    4    4    0  502 -0.13052352188E+02 -0.15835857094E+02 -0.18926527001E+02  0.28309745528E+02  0.47000000000E+01 0.  1.
          5    1    5    5  503    0 -0.81484990254E+01 -0.30174774864E+02 -0.17929553220E+02  0.36338326229E+02  0.47000000000E+01 0. -1.
         -5    1    5    5    0  503 -0.57629273033E+01  0.19582783070E+02  0.13295441680E+03  0.13459444145E+03  0.47000000000E+01 0. -1.
<mgrwt>
<rscale>  0 0.25284233E+03</rscale>
<asrwt>0</asrwt>
<pdfrwt beam="1">  1        2 0.83097866E-02 0.25284233E+03</pdfrwt>
<pdfrwt beam="2">  1       -2 0.45522172E-01 0.25284233E+03</pdfrwt>
<totfact> 0.37177104E+03</totfact>
</mgrwt>
</event>
<event>
 9    1  0.7957670E-001  0.2725679E+03  0.7818608E-02  0.1099819E+00
          2   -1    0    0  501    0  0.00000000000E+00  0.00000000000E+00  0.48375138353E+03  0.48375138353E+03  0.00000000000E+00 0.  1.
         -2   -1    0    0    0  501 -0.00000000000E+00 -0.00000000000E+00 -0.38394350814E+02  0.38394350814E+02  0.00000000000E+00 0.  1.
         35    2    1    2    0    0  0.00000000000E+00  0.71054273576E-14  0.44535703272E+03  0.52214573435E+03  0.27256793888E+03 0.  0.
         25    2    3    3    0    0  0.15216303591E+02 -0.28377593498E+02  0.30705457420E+03  0.33299194041E+03  0.12475695224E+03 0.  0.
         25    2    3    3    0    0 -0.15216303591E+02  0.28377593498E+02  0.13830245852E+03  0.18915379394E+03  0.12495904938E+03 0.  0.
          5    1    4    4  502    0 -0.30578598111E+02  0.27334134085E+02  0.44621951091E+02  0.60789917485E+02  0.47000000000E+01 0. -1.
         -5    1    4    4    0  502  0.45794901701E+02 -0.55711727583E+02  0.26243262311E+03  0.27220202293E+03  0.47000000000E+01 0. -1.
          5    1    5    5  503    0 -0.16321283888E+02  0.29287354581E+02  0.16172028349E+03  0.16522612850E+03  0.47000000000E+01 0. -1.
         -5    1    5    5    0  503  0.11049802970E+01 -0.90976108254E+00 -0.23417824976E+02  0.23927665437E+02  0.47000000000E+01 0. -1.
<mgrwt>
<rscale>  0 0.27256794E+03</rscale>
<asrwt>0</asrwt>
<pdfrwt beam="1">  1        2 0.74423285E-01 0.27256794E+03</pdfrwt>
<pdfrwt beam="2">  1       -2 0.59068235E-02 0.27256794E+03</pdfrwt>
<totfact> 0.97346279E+03</totfact>
</mgrwt>
</event>
<event>
 9    1  0.7957670E-001  0.2884965E+03  0.7818608E-02  0.1091137E+00
         -2   -1    0    0    0  501 -0.00000000000E+00  0.00000000000E+00  0.93333351121E+02  0.93333351121E+02  0.00000000000E+00 0.  1.
          2   -1    0    0  501    0  0.00000000000E+00 -0.00000000000E+00 -0.22293805250E+03  0.22293805250E+03  0.00000000000E+00 0.  1.
         35    2    1    2    0    0 -0.71054273576E-14  0.00000000000E+00 -0.12960470138E+03  0.31627140362E+03  0.28849648547E+03 0.  0.
         25    2    3    3    0    0 -0.37069502819E+02 -0.14959786477E+02 -0.12993199483E+03  0.18447961328E+03  0.12470950721E+03 0.  0.
         25    2    3    3    0    0  0.37069502819E+02  0.14959786477E+02  0.32729344676E+00  0.13179179034E+03  0.12558274415E+03 0.  0.
          5    1    4    4  502    0  0.42735060347E+02  0.10249236604E+02 -0.27229719369E+02  0.51912232188E+02  0.47000000000E+01 0. -1.
         -5    1    4    4    0  502 -0.79804563166E+02 -0.25209023080E+02 -0.10270227546E+03  0.13256738110E+03  0.47000000000E+01 0. -1.
          5    1    5    5  503    0 -0.13199754012E+02  0.53338712184E+02 -0.28558034891E+02  0.62103969923E+02  0.47000000000E+01 0.  1.
         -5    1    5    5    0  503  0.50269256831E+02 -0.38378925707E+02  0.28885328338E+02  0.69687820413E+02  0.47000000000E+01 0.  1.
<mgrwt>
<rscale>  0 0.28849649E+03</rscale>
<asrwt>0</asrwt>
<pdfrwt beam="1">  1        2 0.34298161E-01 0.28849649E+03</pdfrwt>
<pdfrwt beam="2">  1       -2 0.14358977E-01 0.28849649E+03</pdfrwt>
<totfact> 0.55410348E+03</totfact>
</mgrwt>
</event>
<event>
 9    1  0.7957670E-001  0.2847478E+03  0.7818608E-02  0.1093124E+00
         -2   -1    0    0    0  501 -0.00000000000E+00  0.00000000000E+00  0.13353088251E+03  0.13353088251E+03  0.00000000000E+00 0. -1.
          2   -1    0    0  501    0  0.00000000000E+00 -0.00000000000E+00 -0.15180252357E+03  0.15180252357E+03  0.00000000000E+00 0. -1.
         35    2    1    2    0    0  0.00000000000E+00  0.00000000000E+00 -0.18271641051E+02  0.28533340608E+03  0.28474778271E+03 0.  0.
         25    2    3    3    0    0 -0.69434812710E+01  0.81479417603E+01 -0.81280463245E+02  0.14934592125E+03  0.12483224584E+03 0.  0.
         25    2    3    3    0    0  0.69434812710E+01 -0.81479417603E+01  0.63008822194E+02  0.13598748483E+03  0.12003284330E+03 0.  0.
          5    1    4    4  502    0  0.44046512353E+02 -0.59112452129E+01 -0.85086585404E+02  0.96108558860E+02  0.47000000000E+01 0. -1.
         -5    1    4    4    0  502 -0.50989993624E+02  0.14059186973E+02  0.38061221589E+01  0.53237362388E+02  0.47000000000E+01 0. -1.
          5    1    5    5  503    0  0.48055545220E+02  0.54808885313E+01  0.76280528855E+02  0.90444373224E+02  0.47000000000E+01 0.  1.
         -5    1    5    5    0  503 -0.41112063949E+02 -0.13628830292E+02 -0.13271706660E+02  0.45543111608E+02  0.47000000000E+01 0.  1.
<mgrwt>
<rscale>  0 0.28474778E+03</rscale>
<asrwt>0</asrwt>
<pdfrwt beam="1">  1        2 0.23354234E-01 0.28474778E+03</pdfrwt>
<pdfrwt beam="2">  1       -2 0.20543213E-01 0.28474778E+03</pdfrwt>
<totfact> 0.46411474E+03</totfact>
</mgrwt>
</event>
<event>
 9    1  0.7957670E-001  0.2888618E+03  0.7818608E-02  0.1090945E+00
          1   -1    0    0  501    0  0.00000000000E+00  0.00000000000E+00  0.69263641390E+02  0.69263641390E+02  0.00000000000E+00 0.  1.
         -1   -1    0    0    0  501 -0.00000000000E+00 -0.00000000000E+00 -0.30117214720E+03  0.30117214720E+03  0.00000000000E+00 0.  1.
         35    2    1    2    0    0  0.00000000000E+00  0.00000000000E+00 -0.23190850581E+03  0.37043578859E+03  0.28886176348E+03 0.  0.
         25    2    3    3    0    0  0.63915657538E+02  0.32513159793E+02 -0.10611491877E+03  0.17930357084E+03  0.12548736069E+03 0.  0.
         25    2    3    3    0    0 -0.63915657538E+02 -0.32513159793E+02 -0.12579358704E+03  0.19113221775E+03  0.12476049568E+03 0.  0.
          5    1    4    4  502    0 -0.86339331627E+00  0.61763983408E+02 -0.15162638985E+02  0.63777195889E+02  0.47000000000E+01 0.  1.
         -5    1    4    4    0  502  0.64779050854E+02 -0.29250823616E+02 -0.90952279788E+02  0.11552637496E+03  0.47000000000E+01 0.  1.
          5    1    5    5  503    0  0.20307253304E+02  0.21288530498E+02  0.76346967245E+00  0.29803673489E+02  0.47000000000E+01 0. -1.
         -5    1    5    5    0  503 -0.84222910841E+02 -0.53801690291E+02 -0.12655705671E+03  0.16132854426E+03  0.47000000000E+01 0. -1.
<mgrwt>
<rscale>  0 0.28886176E+03</rscale>
<asrwt>0</asrwt>
<pdfrwt beam="1">  1        1 0.10655945E-01 0.28886176E+03</pdfrwt>
<pdfrwt beam="2">  1       -1 0.46334175E-01 0.28886176E+03</pdfrwt>
<totfact> 0.27793390E+03</totfact>
</mgrwt>
</event>
<event>
 9    1  0.7957670E-001  0.2724899E+03  0.7818608E-02  0.1099863E+00
         -1   -1    0    0    0  501 -0.00000000000E+00  0.00000000000E+00  0.17553792268E+02  0.17553792268E+02  0.00000000000E+00 0.  1.
          1   -1    0    0  501    0  0.00000000000E+00 -0.00000000000E+00 -0.10574743198E+04  0.10574743198E+04  0.00000000000E+00 0.  1.
         35    2    1    2    0    0  0.00000000000E+00  0.00000000000E+00 -0.10399205275E+04  0.10750281121E+04  0.27248988634E+03 0.  0.
         25    2    3    3    0    0 -0.20986459796E+02 -0.38671404618E+02 -0.64104548293E+03  0.65481689604E+03  0.12613463888E+03 0.  0.
         25    2    3    3    0    0  0.20986459796E+02  0.38671404618E+02 -0.39887504460E+03  0.42021121603E+03  0.12466056249E+03 0.  0.
          5    1    4    4  502    0  0.22216434939E+02  0.27730191648E+02 -0.73755060620E+02  0.82002637015E+02  0.47000000000E+01 0. -1.
         -5    1    4    4    0  502 -0.43202894736E+02 -0.66401596266E+02 -0.56729042231E+03  0.57281425903E+03  0.47000000000E+01 0. -1.
          5    1    5    5  503    0  0.47432976198E+02  0.45463948684E+02 -0.98103112530E+02  0.11816585187E+03  0.47000000000E+01 0.  1.
         -5    1    5    5    0  503 -0.26446516401E+02 -0.67925440662E+01 -0.30077193207E+03  0.30204536416E+03  0.47000000000E+01 0.  1.
<mgrwt>
<rscale>  0 0.27248989E+03</rscale>
<asrwt>0</asrwt>
<pdfrwt beam="1">  1        1 0.16268840E+00 0.27248989E+03</pdfrwt>
<pdfrwt beam="2">  1       -1 0.27005827E-02 0.27248989E+03</pdfrwt>
<totfact> 0.63812047E+03</totfact>
</mgrwt>
</event>
<event>
 9    1  0.7957670E-001  0.2769133E+03  0.7818608E-02  0.1097387E+00
         -2   -1    0    0    0  501 -0.00000000000E+00  0.00000000000E+00  0.21916178599E+02  0.21916178599E+02  0.00000000000E+00 0. -1.
          2   -1    0    0  501    0  0.00000000000E+00 -0.00000000000E+00 -0.87470710615E+03  0.87470710615E+03  0.00000000000E+00 0. -1.
         35    2    1    2    0    0  0.35527136788E-14 -0.71054273576E-14 -0.85279092755E+03  0.89662328475E+03  0.27691325111E+03 0.  0.
         25    2    3    3    0    0 -0.14539994104E+02  0.22261422380E+02 -0.60131225186E+03  0.61475425446E+03  0.12505753394E+03 0.  0.
         25    2    3    3    0    0  0.14539994104E+02 -0.22261422380E+02 -0.25147867570E+03  0.28186903029E+03  0.12450559646E+03 0.  0.
          5    1    4    4  502    0 -0.23012923197E+02  0.70702843300E+02 -0.43219676208E+03  0.43857110921E+03  0.47000000000E+01 0. -1.
         -5    1    4    4    0  502  0.84729290931E+01 -0.48441420920E+02 -0.16911548978E+03  0.17618314525E+03  0.47000000000E+01 0. -1.
          5    1    5    5  503    0  0.25739764413E+01  0.27286080928E+02 -0.27672745930E+01  0.27944648429E+02  0.47000000000E+01 0. -1.
         -5    1    5    5    0  503  0.11966017662E+02 -0.49547503309E+02 -0.24871140111E+03  0.25392438186E+03  0.47000000000E+01 0. -1.
<mgrwt>
<rscale>  0 0.27691325E+03</rscale>
<asrwt>0</asrwt>
<pdfrwt beam="1">  1        2 0.13457029E+00 0.27691325E+03</pdfrwt>
<pdfrwt beam="2">  1       -2 0.33717206E-02 0.27691325E+03</pdfrwt>
<totfact> 0.11192162E+04</totfact>
</mgrwt>
</event>
<event>
 9    1  0.7957670E-001  0.2744464E+03  0.7818608E-02  0.1098761E+00
          1   -1    0    0  501    0  0.00000000000E+00  0.00000000000E+00  0.15966080096E+03  0.15966080096E+03  0.00000000000E+00 0.  1.
         -1   -1    0    0    0  501 -0.00000000000E+00 -0.00000000000E+00 -0.11793886068E+03  0.11793886068E+03  0.00000000000E+00 0.  1.
         35    2    1    2    0    0  0.00000000000E+00  0.00000000000E+00  0.41721940272E+02  0.27759966164E+03  0.27444644622E+03 0.  0.
         25    2    3    3    0    0 -0.39649975927E+02 -0.15002870748E+01  0.61782330336E+02  0.14407090738E+03  0.12395563142E+03 0.  0.
         25    2    3    3    0    0  0.39649975927E+02  0.15002870748E+01 -0.20060390064E+02  0.13352875425E+03  0.12590924315E+03 0.  0.
          5    1    4    4  502    0 -0.19176016755E+02  0.42408972705E+02  0.79524258579E+02  0.92262875996E+02  0.47000000000E+01 0.  1.
         -5    1    4    4    0  502 -0.20473959172E+02 -0.43909259780E+02 -0.17741928243E+02  0.51808031389E+02  0.47000000000E+01 0.  1.
          5    1    5    5  503    0  0.36224378475E+02 -0.55737579040E+02 -0.33292616538E+02  0.74494104660E+02  0.47000000000E+01 0. -1.
         -5    1    5    5    0  503  0.34255974520E+01  0.57237866115E+02  0.13232226475E+02  0.59034649595E+02  0.47000000000E+01 0. -1.
<mgrwt>
<rscale>  0 0.27444645E+03</rscale>
<asrwt>0</asrwt>
<pdfrwt beam="1">  1        1 0.24563200E-01 0.27444645E+03</pdfrwt>
<pdfrwt beam="2">  1       -1 0.18144440E-01 0.27444645E+03</pdfrwt>
<totfact> 0.45958832E+03</totfact>
</mgrwt>
</event>
<event>
 9    1  0.7957670E-001  0.2974677E+03  0.7818608E-02  0.1086513E+00
          1   -1    0    0  501    0  0.00000000000E+00  0.00000000000E+00  0.30549413869E+02  0.30549413869E+02  0.00000000000E+00 0. -1.
         -1   -1    0    0    0  501 -0.00000000000E+00 -0.00000000000E+00 -0.72413016479E+03  0.72413016479E+03  0.00000000000E+00 0. -1.
         35    2    1    2    0    0  0.00000000000E+00  0.00000000000E+00 -0.69358075092E+03  0.75467957866E+03  0.29746765941E+03 0.  0.
         25    2    3    3    0    0 -0.65124893918E+02 -0.42668650261E+02 -0.39947398969E+03  0.42484869890E+03  0.12188143008E+03 0.  0.
         25    2    3    3    0    0  0.65124893918E+02  0.42668650261E+02 -0.29410676123E+03  0.32983087975E+03  0.12738821262E+03 0.  0.
          5    1    4    4  502    0 -0.85454188374E+02  0.29434317374E+01 -0.31661170003E+03  0.32798801913E+03  0.47000000000E+01 0. -1.
         -5    1    4    4    0  502  0.20329294457E+02 -0.45612081998E+02 -0.82862289662E+02  0.96860679770E+02  0.47000000000E+01 0. -1.
          5    1    5    5  503    0  0.10431179456E+02 -0.35510616714E+02 -0.16535080606E+03  0.16950749975E+03  0.47000000000E+01 0.  1.
         -5    1    5    5    0  503  0.54693714462E+02  0.78179266975E+02 -0.12875595516E+03  0.16032338001E+03  0.47000000000E+01 0.  1.
<mgrwt>
<rscale>  0 0.29746766E+03</rscale>
<asrwt>0</asrwt>
<pdfrwt beam="1">  1        1 0.46999102E-02 0.29746766E+03</pdfrwt>
<pdfrwt beam="2">  1       -1 0.11140463E+00 0.29746766E+03</pdfrwt>
<totfact> 0.14312919E+03</totfact>
</mgrwt>
</event>
<event>
 9    1  0.7957670E-001  0.2762684E+03  0.7818608E-02  0.1097745E+00
          2   -1    0    0  501    0  0.00000000000E+00  0.00000000000E+00  0.22804346247E+03  0.22804346247E+03  0.00000000000E+00 0.  1.
         -2   -1    0    0    0  501 -0.00000000000E+00 -0.00000000000E+00 -0.83672882358E+02  0.83672882358E+02  0.00000000000E+00 0.  1.
         35    2    1    2    0    0  0.71054273576E-14  0.00000000000E+00  0.14437058011E+03  0.31171634482E+03  0.27626837537E+03 0.  0.
         25    2    3    3    0    0 -0.28616096490E+02 -0.29710434235E+02  0.25512784341E+02  0.13438883959E+03  0.12533103032E+03 0.  0.
         25    2    3    3    0    0  0.28616096490E+02  0.29710434235E+02  0.11885779577E+03  0.17732750523E+03  0.12496510559E+03 0.  0.
          5    1    4    4  502    0 -0.66998347843E+02  0.12402499955E+02  0.34493239768E+02  0.76514535930E+02  0.47000000000E+01 0. -1.
         -5    1    4    4    0  502  0.38382251353E+02 -0.42112934189E+02 -0.89804554270E+01  0.57874303665E+02  0.47000000000E+01 0. -1.
          5    1    5    5  503    0  0.40012724278E+02 -0.82243856458E+01 -0.10100698397E+02  0.42341147026E+02  0.47000000000E+01 0.  1.
         -5    1    5    5    0  503 -0.11396627788E+02  0.37934819880E+02  0.12895849416E+03  0.13498635820E+03  0.47000000000E+01 0.  1.
<mgrwt>
<rscale>  0 0.27626838E+03</rscale>
<asrwt>0</asrwt>
<pdfrwt beam="1">  1        2 0.35083609E-01 0.27626838E+03</pdfrwt>
<pdfrwt beam="2">  1       -2 0.12872751E-01 0.27626838E+03</pdfrwt>
<totfact> 0.64551723E+03</totfact>
</mgrwt>
</event>
<event>
 9    1  0.7957670E-001  0.2748608E+03  0.7818608E-02  0.1098529E+00
         -2   -1    0    0    0  501 -0.00000000000E+00  0.00000000000E+00  0.15384236956E+02  0.15384236956E+02  0.00000000000E+00 0. -1.
          2   -1    0    0  501    0  0.00000000000E+00 -0.00000000000E+00 -0.12276928773E+04  0.12276928773E+04  0.00000000000E+00 0. -1.
         35    2    1    2    0    0  0.00000000000E+00  0.35527136788E-14 -0.12123086404E+04  0.12430771143E+04  0.27486082394E+03 0.  0.
         25    2    3    3    0    0 -0.35554859324E+02  0.13324296065E+02 -0.39852058855E+03  0.41889422129E+03  0.12333703516E+03 0.  0.
         25    2    3    3    0    0  0.35554859324E+02 -0.13324296065E+02 -0.81378805181E+03  0.82418289299E+03  0.12483894798E+03 0.  0.
          5    1    4    4  502    0  0.11284930073E+02 -0.20974542691E+02 -0.10371834865E+02  0.26399735724E+02  0.47000000000E+01 0. -1.
         -5    1    4    4    0  502 -0.46839789396E+02  0.34298838756E+02 -0.38814875369E+03  0.39249448557E+03  0.47000000000E+01 0. -1.
          5    1    5    5  503    0  0.44998326953E+02 -0.62020230184E+02 -0.58614187240E+03  0.59114781820E+03  0.47000000000E+01 0.  1.
         -5    1    5    5    0  503 -0.94434676299E+01  0.48695934119E+02 -0.22764617941E+03  0.23303507479E+03  0.47000000000E+01 0.  1.
<mgrwt>
<rscale>  0 0.27486082E+03</rscale>
<asrwt>0</asrwt>
<pdfrwt beam="1">  1        2 0.18887590E+00 0.27486082E+03</pdfrwt>
<pdfrwt beam="2">  1       -2 0.23668047E-02 0.27486082E+03</pdfrwt>
<totfact> 0.11599949E+04</totfact>
</mgrwt>
</event>
<event>
 9    1  0.7957670E-001  0.2731148E+03  0.7818608E-02  0.1099510E+00
          1   -1    0    0  501    0  0.00000000000E+00  0.00000000000E+00  0.30611820298E+03  0.30611820298E+03  0.00000000000E+00 0. -1.
         -1   -1    0    0    0  501 -0.00000000000E+00 -0.00000000000E+00 -0.60917407486E+02  0.60917407486E+02  0.00000000000E+00 0. -1.
         35    2    1    2    0    0  0.00000000000E+00  0.00000000000E+00  0.24520079549E+03  0.36703561046E+03  0.27311482794E+03 0.  0.
         25    2    3    3    0    0  0.43045835998E+02 -0.91384422957E+01  0.82212420382E+02  0.15483392869E+03  0.12360504959E+03 0.  0.
         25    2    3    3    0    0 -0.43045835998E+02  0.91384422957E+01  0.16298837511E+03  0.21220168178E+03  0.12856083464E+03 0.  0.
          5    1    4    4  502    0  0.28951997624E+02 -0.57103199105E+02  0.82608299612E+02  0.10461938004E+03  0.47000000000E+01 0.  1.
         -5    1    4    4    0  502  0.14093838374E+02  0.47964756809E+02 -0.39587923012E+00  0.50214548651E+02  0.47000000000E+01 0.  1.
          5    1    5    5  503    0  0.33861649061E+02 -0.29418688608E+02  0.31552620750E+02  0.55042968604E+02  0.47000000000E+01 0.  1.
         -5    1    5    5    0  503 -0.76907485059E+02  0.38557130904E+02  0.13143575436E+03  0.15715871317E+03  0.47000000000E+01 0.  1.
<mgrwt>
<rscale>  0 0.27311483E+03</rscale>
<asrwt>0</asrwt>
<pdfrwt beam="1">  1        1 0.47095107E-01 0.27311483E+03</pdfrwt>
<pdfrwt beam="2">  1       -1 0.93719090E-02 0.27311483E+03</pdfrwt>
<totfact> 0.57176442E+03</totfact>
</mgrwt>
</event>
<event>
 9    1  0.7957670E-001  0.2753418E+03  0.7818608E-02  0.1098261E+00
         -1   -1    0    0    0  501 -0.00000000000E+00  0.00000000000E+00  0.19415098225E+02  0.19415098225E+02  0.00000000000E+00 0.  1.
          1   -1    0    0  501    0  0.00000000000E+00 -0.00000000000E+00 -0.97621341557E+03  0.97621341557E+03  0.00000000000E+00 0.  1.
         35    2    1    2    0    0 -0.71054273576E-14  0.35527136788E-14 -0.95679831735E+03  0.99562851380E+03  0.27534181922E+03 0.  0.
         25    2    3    3    0    0 -0.54205831077E+02  0.69587058789E+01 -0.53834371256E+03  0.55544644622E+03  0.12537984707E+03 0.  0.
         25    2    3    3    0    0  0.54205831077E+02 -0.69587058789E+01 -0.41845460478E+03  0.44018206758E+03  0.12517707715E+03 0.  0.
          5    1    4    4  502    0 -0.16644085355E+01 -0.27018413842E+02 -0.21711425659E+02  0.35017723319E+02  0.47000000000E+01 0.  1.
         -5    1    4    4    0  502 -0.52541422541E+02  0.33977119721E+02 -0.51663228691E+03  0.52042872290E+03  0.47000000000E+01 0.  1.
          5    1    5    5  503    0 -0.27006029219E+02 -0.33957009065E+02 -0.21544370216E+03  0.21981920498E+03  0.47000000000E+01 0.  1.
         -5    1    5    5    0  503  0.81211860296E+02  0.26998303186E+02 -0.20301090262E+03  0.22036286260E+03  0.47000000000E+01 0.  1.
<mgrwt>
<rscale>  0 0.27534182E+03</rscale>
<asrwt>0</asrwt>
<pdfrwt beam="1">  1        1 0.15018666E+00 0.27534182E+03</pdfrwt>
<pdfrwt beam="2">  1       -1 0.29869385E-02 0.27534182E+03</pdfrwt>
<totfact> 0.63230947E+03</totfact>
</mgrwt>
</event>
<event>
 9    1  0.7957670E-001  0.2765533E+03  0.7818608E-02  0.1097586E+00
         -1   -1    0    0    0  501 -0.00000000000E+00  0.00000000000E+00  0.92351826201E+01  0.92351826201E+01  0.00000000000E+00 0. -1.
          1   -1    0    0  501    0  0.00000000000E+00 -0.00000000000E+00 -0.20703903238E+04  0.20703903238E+04  0.00000000000E+00 0. -1.
         35    2    1    2    0    0  0.00000000000E+00  0.00000000000E+00 -0.20611551411E+04  0.20796255064E+04  0.27655330578E+03 0.  0.
         25    2    3    3    0    0  0.89820223769E+01  0.27212584241E+02 -0.14158068385E+04  0.14216611868E+04  0.12565955797E+03 0.  0.
         25    2    3    3    0    0 -0.89820223769E+01 -0.27212584241E+02 -0.64534830264E+03  0.65796431963E+03  0.12498565004E+03 0.  0.
          5    1    4    4  502    0  0.48902644968E+02  0.54871348901E+02 -0.61985714612E+03  0.62421735414E+03  0.47000000000E+01 0.  1.
         -5    1    4    4    0  502 -0.39920622591E+02 -0.27658764660E+02 -0.79594969238E+03  0.79744383261E+03  0.47000000000E+01 0.  1.
          5    1    5    5  503    0 -0.49566833212E+02  0.12403327500E+02 -0.13448506570E+03  0.14394108651E+03  0.47000000000E+01 0. -1.
         -5    1    5    5    0  503  0.40584810835E+02 -0.39615911741E+02 -0.51086323694E+03  0.51402323312E+03  0.47000000000E+01 0. -1.
<mgrwt>
<rscale>  0 0.27655331E+03</rscale>
<asrwt>0</asrwt>
<pdfrwt beam="1">  1        1 0.31852165E+00 0.27655331E+03</pdfrwt>
<pdfrwt beam="2">  1       -1 0.14207970E-02 0.27655331E+03</pdfrwt>
<totfact> 0.34296182E+03</totfact>
</mgrwt>
</event>
<event>
 9    1  0.7957670E-001  0.2711191E+03  0.7818608E-02  0.1100641E+00
          1   -1    0    0  501    0  0.00000000000E+00  0.00000000000E+00  0.97343476664E+02  0.97343476664E+02  0.00000000000E+00 0.  1.
         -1   -1    0    0    0  501 -0.00000000000E+00 -0.00000000000E+00 -0.18877882365E+03  0.18877882365E+03  0.00000000000E+00 0.  1.
         35    2    1    2    0    0 -0.71054273576E-14  0.71054273576E-14 -0.91435346986E+02  0.28612230031E+03  0.27111906620E+03 0.  0.
         25    2    3    3    0    0 -0.20770292030E+02 -0.49014354453E+02 -0.36016391474E+02  0.14024721195E+03  0.12465266957E+03 0.  0.
         25    2    3    3    0    0  0.20770292030E+02  0.49014354453E+02 -0.55418955512E+02  0.14587508836E+03  0.12399382566E+03 0.  0.
          5    1    4    4  502    0 -0.19768992186E+02 -0.90627442828E+02 -0.31688536466E+02  0.98134600366E+02  0.47000000000E+01 0. -1.
         -5    1    4    4    0  502 -0.10012998436E+01  0.41613088375E+02 -0.43278550079E+01  0.42112611585E+02  0.47000000000E+01 0. -1.
          5    1    5    5  503    0  0.67271650346E+02  0.55195603190E+02 -0.29062207737E+02  0.91862568385E+02  0.47000000000E+01 0. -1.
         -5    1    5    5    0  503 -0.46501358316E+02 -0.61812487366E+01 -0.26356747775E+02  0.54012519979E+02  0.47000000000E+01 0. -1.
<mgrwt>
<rscale>  0 0.27111907E+03</rscale>
<asrwt>0</asrwt>
<pdfrwt beam="1">  1        1 0.14975919E-01 0.27111907E+03</pdfrwt>
<pdfrwt beam="2">  1       -1 0.29042896E-01 0.27111907E+03</pdfrwt>
<totfact> 0.40079908E+03</totfact>
</mgrwt>
</event>
<event>
 9    1  0.7957670E-001  0.2735568E+03  0.7818608E-02  0.1099261E+00
         -1   -1    0    0    0  501 -0.00000000000E+00  0.00000000000E+00  0.29384430581E+03  0.29384430581E+03  0.00000000000E+00 0.  1.
          1   -1    0    0  501    0  0.00000000000E+00 -0.00000000000E+00 -0.63667509852E+02  0.63667509852E+02  0.00000000000E+00 0.  1.
         35    2    1    2    0    0 -0.71054273576E-14  0.00000000000E+00  0.23017679596E+03  0.35751181566E+03  0.27355683311E+03 0.  0.
         25    2    3    3    0    0  0.46717850653E+02 -0.16091079986E+02  0.88045028335E+02  0.16088863411E+03  0.12526669607E+03 0.  0.
         25    2    3    3    0    0 -0.46717850653E+02  0.16091079986E+02  0.14213176762E+03  0.19662318156E+03  0.12656127264E+03 0.  0.
          5    1    4    4  502    0  0.32534331166E+02 -0.67671998166E+02  0.27854891318E+02  0.80224478873E+02  0.47000000000E+01 0. -1.
         -5    1    4    4    0  502  0.14183519487E+02  0.51580918179E+02  0.60190137016E+02  0.80664155232E+02  0.47000000000E+01 0. -1.
          5    1    5    5  503    0  0.12158863317E+02 -0.47392369290E+02  0.50929547844E+02  0.70779823874E+02  0.47000000000E+01 0. -1.
         -5    1    5    5    0  503 -0.58876713971E+02  0.63483449277E+02  0.91202219781E+02  0.12584335768E+03  0.47000000000E+01 0. -1.
<mgrwt>
<rscale>  0 0.27355683E+03</rscale>
<asrwt>0</asrwt>
<pdfrwt beam="1">  1        1 0.97950017E-02 0.27355683E+03</pdfrwt>
<pdfrwt beam="2">  1       -1 0.45206815E-01 0.27355683E+03</pdfrwt>
<totfact> 0.32506950E+03</totfact>
</mgrwt>
</event>
<event>
 9    1  0.7957670E-001  0.2811122E+03  0.7818608E-02  0.1095083E+00
         -2   -1    0    0    0  501 -0.00000000000E+00  0.00000000000E+00  0.89428723885E+01  0.89428723885E+01  0.00000000000E+00 0.  1.
          2   -1    0    0  501    0  0.00000000000E+00 -0.00000000000E+00 -0.22091350312E+04  0.22091350312E+04  0.00000000000E+00 0.  1.
         35    2    1    2    0    0  0.00000000000E+00  0.71054273576E-14 -0.22001921588E+04  0.22180779036E+04  0.28111216746E+03 0.  0.
         25    2    3    3    0    0 -0.18306543906E+02 -0.57150672625E+02 -0.93303431545E+03  0.94336682038E+03  0.12564471762E+03 0.  0.
         25    2    3    3    0    0  0.18306543906E+02  0.57150672625E+02 -0.12671578434E+04  0.12747110832E+04  0.12489202022E+03 0.  0.
          5    1    4    4  502    0 -0.66235583977E+02 -0.52330243420E+02 -0.71757560924E+03  0.72253889302E+03  0.47000000000E+01 0.  1.
         -5    1    4    4    0  502  0.47929040071E+02 -0.48204292052E+01 -0.21545870621E+03  0.22082792736E+03  0.47000000000E+01 0.  1.
          5    1    5    5  503    0  0.55871807602E+02 -0.63734130557E+01 -0.77224041408E+03  0.77429944235E+03  0.47000000000E+01 0.  1.
         -5    1    5    5    0  503 -0.37565263695E+02  0.63524085680E+02 -0.49491742929E+03  0.50041164086E+03  0.47000000000E+01 0.  1.
<mgrwt>
<rscale>  0 0.28111217E+03</rscale>
<asrwt>0</asrwt>
<pdfrwt beam="1">  1        2 0.33986659E+00 0.28111217E+03</pdfrwt>
<pdfrwt beam="2">  1       -2 0.13758279E-02 0.28111217E+03</pdfrwt>
<totfact> 0.77100562E+03</totfact>
</mgrwt>
</event>
<event>
 9    1  0.7957670E-001  0.2742834E+03  0.7818608E-02  0.1098853E+00
          1   -1    0    0  501    0  0.00000000000E+00  0.00000000000E+00  0.42851693756E+03  0.42851693756E+03  0.00000000000E+00 0.  1.
         -1   -1    0    0    0  501 -0.00000000000E+00 -0.00000000000E+00 -0.43890568114E+02  0.43890568114E+02  0.00000000000E+00 0.  1.
         35    2    1    2    0    0  0.17763568394E-14  0.00000000000E+00  0.38462636945E+03  0.47240750567E+03  0.27428344344E+03 0.  0.
         25    2    3    3    0    0  0.82584666848E+01  0.34169099085E+02  0.23475643302E+03  0.26803688177E+03  0.12448878479E+03 0.  0.
         25    2    3    3    0    0 -0.82584666848E+01 -0.34169099085E+02  0.14986993642E+03  0.20437062390E+03  0.13442702283E+03 0.  0.
          5    1    4    4  502    0  0.39074409411E+02  0.43100144617E+02  0.40375267333E+02  0.70969600175E+02  0.47000000000E+01 0. -1.
         -5    1    4    4    0  502 -0.30815942727E+02 -0.89310455316E+01  0.19438116569E+03  0.19706728160E+03  0.47000000000E+01 0. -1.
          5    1    5    5  503    0  0.42135082255E+01  0.30194325656E+02 -0.92544835773E+01  0.32205378738E+02  0.47000000000E+01 0. -1.
         -5    1    5    5    0  503 -0.12471974910E+02 -0.64363424740E+02  0.15912442000E+03  0.17216524517E+03  0.47000000000E+01 0. -1.
<mgrwt>
<rscale>  0 0.27428344E+03</rscale>
<asrwt>0</asrwt>
<pdfrwt beam="1">  1        1 0.65925680E-01 0.27428344E+03</pdfrwt>
<pdfrwt beam="2">  1       -1 0.67523954E-02 0.27428344E+03</pdfrwt>
<totfact> 0.61487842E+03</totfact>
</mgrwt>
</event>
<event>
 9    1  0.7957670E-001  0.2741583E+03  0.7818608E-02  0.1098923E+00
         -1   -1    0    0    0  501 -0.00000000000E+00  0.00000000000E+00  0.30446840562E+02  0.30446840562E+02  0.00000000000E+00 0. -1.
          1   -1    0    0  501    0  0.00000000000E+00 -0.00000000000E+00 -0.61716405894E+03  0.61716405894E+03  0.00000000000E+00 0. -1.
         35    2    1    2    0    0  0.71054273576E-14  0.00000000000E+00 -0.58671721838E+03  0.64761089950E+03  0.27415831706E+03 0.  0.
         25    2    3    3    0    0 -0.48994066238E+02  0.22286728809E+02 -0.26502670334E+03  0.29816251562E+03  0.12555721974E+03 0.  0.
         25    2    3    3    0    0  0.48994066238E+02 -0.22286728809E+02 -0.32169051503E+03  0.34944838388E+03  0.12542834101E+03 0.  0.
          5    1    4    4  502    0  0.31420564218E+02 -0.26178902373E+02 -0.10165659290E+03  0.10967561108E+03  0.47000000000E+01 0. -1.
         -5    1    4    4    0  502 -0.80414630456E+02  0.48465631182E+02 -0.16337011044E+03  0.18848690454E+03  0.47000000000E+01 0. -1.
          5    1    5    5  503    0 -0.18494612164E+02 -0.31377593021E+01  0.82652011883E+00  0.19356377451E+02  0.47000000000E+01 0.  1.
         -5    1    5    5    0  503  0.67488678402E+02 -0.19148969507E+02 -0.32251703515E+03  0.33009200643E+03  0.47000000000E+01 0.  1.
<mgrwt>
<rscale>  0 0.27415832E+03</rscale>
<asrwt>0</asrwt>
<pdfrwt beam="1">  1        1 0.94948317E-01 0.27415832E+03</pdfrwt>
<pdfrwt beam="2">  1       -1 0.46841293E-02 0.27415832E+03</pdfrwt>
<totfact> 0.65385320E+03</totfact>
</mgrwt>
</event>
<event>
 9    1  0.7957670E-001  0.2751918E+03  0.7818608E-02  0.1098344E+00
         -2   -1    0    0    0  501 -0.00000000000E+00  0.00000000000E+00  0.74376445982E+01  0.74376445982E+01  0.00000000000E+00 0. -1.
          2   -1    0    0  501    0  0.00000000000E+00 -0.00000000000E+00 -0.25455144706E+04  0.25455144706E+04  0.00000000000E+00 0. -1.
         35    2    1    2    0    0 -0.71054273576E-14  0.35527136788E-14 -0.25380768260E+04  0.25529521152E+04  0.27519180186E+03 0.  0.
         25    2    3    3    0    0  0.44062214674E+02  0.56538044554E+01 -0.10195061913E+04  0.10286824683E+04  0.12969696305E+03 0.  0.
         25    2    3    3    0    0 -0.44062214674E+02 -0.56538044554E+01 -0.15185706348E+04  0.15242696470E+04  0.12396668748E+03 0.  0.
          5    1    4    4  502    0 -0.85033777158E+00  0.48604479183E+02 -0.16952984951E+03  0.17642442673E+03  0.47000000000E+01 0. -1.
         -5    1    4    4    0  502  0.44912552446E+02 -0.42950674728E+02 -0.84997634177E+03  0.85225804155E+03  0.47000000000E+01 0. -1.
          5    1    5    5  503    0 -0.36469975588E+02 -0.34345624131E+02 -0.23404710973E+03  0.23939469625E+03  0.47000000000E+01 0. -1.
         -5    1    5    5    0  503 -0.75922390866E+01  0.28691819675E+02 -0.12845235250E+04  0.12848749507E+04  0.47000000000E+01 0. -1.
<mgrwt>
<rscale>  0 0.27519180E+03</rscale>
<asrwt>0</asrwt>
<pdfrwt beam="1">  1        2 0.39161814E+00 0.27519180E+03</pdfrwt>
<pdfrwt beam="2">  1       -2 0.11442515E-02 0.27519180E+03</pdfrwt>
<totfact> 0.66343211E+03</totfact>
</mgrwt>
</event>
<event>
 9    1  0.7957670E-001  0.2719754E+03  0.7818608E-02  0.1100154E+00
          3   -1    0    0  501    0  0.00000000000E+00  0.00000000000E+00  0.61437642054E+02  0.61437642054E+02  0.00000000000E+00 0.  1.
         -3   -1    0    0    0  501 -0.00000000000E+00 -0.00000000000E+00 -0.30099875842E+03  0.30099875842E+03  0.00000000000E+00 0.  1.
         35    2    1    2    0    0  0.00000000000E+00  0.00000000000E+00 -0.23956111636E+03  0.36243640047E+03  0.27197539579E+03 0.  0.
         25    2    3    3    0    0 -0.39100963250E+02 -0.37997326603E+02 -0.13377848782E+03  0.18974367748E+03  0.12301746698E+03 0.  0.
         25    2    3    3    0    0  0.39100963250E+02  0.37997326603E+02 -0.10578262854E+03  0.17269272300E+03  0.12514044078E+03 0.  0.
          5    1    4    4  502    0  0.15205654968E+02  0.16525025665E+02 -0.10495700119E+03  0.10743533178E+03  0.47000000000E+01 0. -1.
         -5    1    4    4    0  502 -0.54306618218E+02 -0.54522352268E+02 -0.28821486635E+02  0.82308345695E+02  0.47000000000E+01 0. -1.
          5    1    5    5  503    0  0.33431107766E+01  0.59412740594E+02 -0.11516159964E+03  0.12971250582E+03  0.47000000000E+01 0.  1.
         -5    1    5    5    0  503  0.35757852473E+02 -0.21415413990E+02  0.93789710983E+01  0.42980217179E+02  0.47000000000E+01 0.  1.
<mgrwt>
<rscale>  0 0.27197540E+03</rscale>
<asrwt>0</asrwt>
<pdfrwt beam="1">  1        3 0.94519450E-02 0.27197540E+03</pdfrwt>
<pdfrwt beam="2">  1       -3 0.46307501E-01 0.27197540E+03</pdfrwt>
<totfact> 0.95840759E+02</totfact>
</mgrwt>
</event>
<event>
 9    1  0.7957670E-001  0.2733987E+03  0.7818608E-02  0.1099350E+00
         -3   -1    0    0    0  501 -0.00000000000E+00  0.00000000000E+00  0.81658389260E+03  0.81658389260E+03  0.00000000000E+00 0.  1.
          3   -1    0    0  501    0  0.00000000000E+00 -0.00000000000E+00 -0.22884013952E+02  0.22884013952E+02  0.00000000000E+00 0.  1.
         35    2    1    2    0    0 -0.71054273576E-14  0.00000000000E+00  0.79369987865E+03  0.83946790655E+03  0.27339873585E+03 0.  0.
         25    2    3    3    0    0  0.35162463064E+02  0.38591074713E+02  0.34876511653E+03  0.37429000814E+03  0.12542022894E+03 0.  0.
         25    2    3    3    0    0 -0.35162463064E+02 -0.38591074713E+02  0.44493476212E+03  0.46517789842E+03  0.12529112010E+03 0.  0.
          5    1    4    4  502    0 -0.14404180520E+02 -0.37698359294E+02  0.69077919726E+02  0.80140474815E+02  0.47000000000E+01 0. -1.
         -5    1    4    4    0  502  0.49566643584E+02  0.76289434008E+02  0.27968719680E+03  0.29414953332E+03  0.47000000000E+01 0. -1.
          5    1    5    5  503    0 -0.26631167823E+02 -0.47117649734E+02  0.44847814862E+03  0.45175660682E+03  0.47000000000E+01 0. -1.
         -5    1    5    5    0  503 -0.85312952404E+01  0.85265750207E+01 -0.35433865048E+01  0.13421291592E+02  0.47000000000E+01 0. -1.
<mgrwt>
<rscale>  0 0.27339874E+03</rscale>
<asrwt>0</asrwt>
<pdfrwt beam="1">  1        3 0.35206182E-02 0.27339874E+03</pdfrwt>
<pdfrwt beam="2">  1       -3 0.12562827E+00 0.27339874E+03</pdfrwt>
<totfact> 0.53257948E+02</totfact>
</mgrwt>
</event>
<event>
 9    1  0.7957670E-001  0.2761220E+03  0.7818608E-02  0.1097826E+00
          2   -1    0    0  501    0  0.00000000000E+00  0.00000000000E+00  0.90995893143E+03  0.90995893143E+03  0.00000000000E+00 0. -1.
         -2   -1    0    0    0  501 -0.00000000000E+00 -0.00000000000E+00 -0.20946923992E+02  0.20946923992E+02  0.00000000000E+00 0. -1.
         35    2    1    2    0    0  0.71054273576E-14  0.35527136788E-14  0.88901200744E+03  0.93090585542E+03  0.27612200617E+03 0.  0.
         25    2    3    3    0    0  0.48776878834E+02  0.22480422762E+02  0.35301546307E+03  0.37789054632E+03  0.12368021069E+03 0.  0.
         25    2    3    3    0    0 -0.48776878834E+02 -0.22480422762E+02  0.53599654437E+03  0.55301530910E+03  0.12509629575E+03 0.  0.
          5    1    4    4  502    0  0.18193468316E+02  0.68918963875E+02  0.13369826045E+03  0.15158542383E+03  0.47000000000E+01 0.  1.
         -5    1    4    4    0  502  0.30583410518E+02 -0.46438541113E+02  0.21931720263E+03  0.22630512250E+03  0.47000000000E+01 0.  1.
          5    1    5    5  503    0  0.20418475887E+02 -0.35770975891E+02  0.67406032550E+02  0.79133684976E+02  0.47000000000E+01 0.  1.
         -5    1    5    5    0  503 -0.69195354722E+02  0.13290553129E+02  0.46859051182E+03  0.47388162412E+03  0.47000000000E+01 0.  1.
<mgrwt>
<rscale>  0 0.27612201E+03</rscale>
<asrwt>0</asrwt>
<pdfrwt beam="1">  1        2 0.13999365E+00 0.27612201E+03</pdfrwt>
<pdfrwt beam="2">  1       -2 0.32226044E-02 0.27612201E+03</pdfrwt>
<totfact> 0.11358566E+04</totfact>
</mgrwt>
</event>
<event>
 9    1  0.7957670E-001  0.2684377E+03  0.7818608E-02  0.1102177E+00
         -2   -1    0    0    0  501 -0.00000000000E+00  0.00000000000E+00  0.24438649440E+03  0.24438649440E+03  0.00000000000E+00 0.  1.
          2   -1    0    0  501    0  0.00000000000E+00 -0.00000000000E+00 -0.73713971687E+02  0.73713971687E+02  0.00000000000E+00 0.  1.
         35    2    1    2    0    0 -0.35527136788E-14  0.35527136788E-14  0.17067252271E+03  0.31810046608E+03  0.26843769578E+03 0.  0.
         25    2    3    3    0    0  0.18488713846E+02  0.48858628157E+01  0.13522992610E+03  0.18546260849E+03  0.12547327221E+03 0.  0.
         25    2    3    3    0    0 -0.18488713846E+02 -0.48858628157E+01  0.35442596610E+02  0.13263785760E+03  0.12637610303E+03 0.  0.
          5    1    4    4  502    0  0.15513223352E+02 -0.15815204643E+01 -0.22348564633E+02  0.27653384005E+02  0.47000000000E+01 0.  1.
         -5    1    4    4    0  502  0.29754904934E+01  0.64673832801E+01  0.15757849073E+03  0.15780922448E+03  0.47000000000E+01 0.  1.
          5    1    5    5  503    0  0.25984447539E+02  0.48643278658E+02  0.29275414468E+02  0.62613895940E+02  0.47000000000E+01 0. -1.
         -5    1    5    5    0  503 -0.44473161385E+02 -0.53529141473E+02  0.61671821414E+01  0.70023961656E+02  0.47000000000E+01 0. -1.
<mgrwt>
<rscale>  0 0.26843770E+03</rscale>
<asrwt>0</asrwt>
<pdfrwt beam="1">  1        2 0.11340611E-01 0.26843770E+03</pdfrwt>
<pdfrwt beam="2">  1       -2 0.37597922E-01 0.26843770E+03</pdfrwt>
<totfact> 0.36527683E+03</totfact>
</mgrwt>
</event>
<event>
 9    1  0.7957670E-001  0.2734793E+03  0.7818608E-02  0.1099305E+00
         -2   -1    0    0    0  501 -0.00000000000E+00  0.00000000000E+00  0.23980203997E+03  0.23980203997E+03  0.00000000000E+00 0.  1.
          2   -1    0    0  501    0  0.00000000000E+00 -0.00000000000E+00 -0.77971537959E+02  0.77971537959E+02  0.00000000000E+00 0.  1.
         35    2    1    2    0    0  0.35527136788E-14  0.00000000000E+00  0.16183050201E+03  0.31777357793E+03  0.27347931448E+03 0.  0.
         25    2    3    3    0    0 -0.16383676607E+01  0.43374177849E+02  0.47373412801E+02  0.14307833936E+03  0.12784039816E+03 0.  0.
         25    2    3    3    0    0  0.16383676607E+01 -0.43374177849E+02  0.11445708921E+03  0.17469523857E+03  0.12463545866E+03 0.  0.
          5    1    4    4  502    0 -0.24430182758E+02  0.67548078237E+02  0.71725526789E+02  0.10161799986E+03  0.47000000000E+01 0.  1.
         -5    1    4    4    0  502  0.22791815098E+02 -0.24173900388E+02 -0.24352113988E+02  0.41460339495E+02  0.47000000000E+01 0.  1.
          5    1    5    5  503    0  0.35210190705E+02 -0.19532733532E+02  0.12543441024E+03  0.13182248094E+03  0.47000000000E+01 0. -1.
         -5    1    5    5    0  503 -0.33571823045E+02 -0.23841444317E+02 -0.10977321032E+02  0.42872757629E+02  0.47000000000E+01 0. -1.
<mgrwt>
<rscale>  0 0.27347931E+03</rscale>
<asrwt>0</asrwt>
<pdfrwt beam="1">  1        2 0.11995621E-01 0.27347931E+03</pdfrwt>
<pdfrwt beam="2">  1       -2 0.36892621E-01 0.27347931E+03</pdfrwt>
<totfact> 0.35367777E+03</totfact>
</mgrwt>
</event>
<event>
 9    1  0.7957670E-001  0.2879550E+03  0.7818608E-02  0.1091422E+00
         -2   -1    0    0    0  501 -0.00000000000E+00  0.00000000000E+00  0.98170357508E+01  0.98170357508E+01  0.00000000000E+00 0. -1.
          2   -1    0    0  501    0  0.00000000000E+00 -0.00000000000E+00 -0.21115869447E+04  0.21115869447E+04  0.00000000000E+00 0. -1.
         35    2    1    2    0    0  0.71054273576E-14 -0.35527136788E-14 -0.21017699090E+04  0.21214039805E+04  0.28795502793E+03 0.  0.
         25    2    3    3    0    0 -0.39253280089E+02  0.65542576621E+00 -0.14749943858E+04  0.14809967961E+04  0.12728637914E+03 0.  0.
         25    2    3    3    0    0  0.39253280089E+02 -0.65542576621E+00 -0.62677552321E+03  0.64040718441E+03  0.12542948529E+03 0.  0.
          5    1    4    4  502    0  0.25434273212E+02  0.20605905907E+02 -0.12507296855E+03  0.12937095143E+03  0.47000000000E+01 0.  1.
         -5    1    4    4    0  502 -0.64687553301E+02 -0.19950480141E+02 -0.13499214172E+04  0.13516258447E+04  0.47000000000E+01 0.  1.
          5    1    5    5  503    0  0.33204271519E+02 -0.32426498485E+02 -0.79639354247E+02  0.92295818952E+02  0.47000000000E+01 0. -1.
         -5    1    5    5    0  503  0.60490085701E+01  0.31771072719E+02 -0.54713616896E+03  0.54811136546E+03  0.47000000000E+01 0. -1.
<mgrwt>
<rscale>  0 0.28795503E+03</rscale>
<asrwt>0</asrwt>
<pdfrwt beam="1">  1        2 0.32486011E+00 0.28795503E+03</pdfrwt>
<pdfrwt beam="2">  1       -2 0.15103105E-02 0.28795503E+03</pdfrwt>
<totfact> 0.75795698E+03</totfact>
</mgrwt>
</event>
<event>
 9    1  0.7957670E-001  0.2733702E+03  0.7818608E-02  0.1099366E+00
         -2   -1    0    0    0  501 -0.00000000000E+00  0.00000000000E+00  0.64857887186E+02  0.64857887186E+02  0.00000000000E+00 0.  1.
          2   -1    0    0  501    0  0.00000000000E+00 -0.00000000000E+00 -0.28805773380E+03  0.28805773380E+03  0.00000000000E+00 0.  1.
         35    2    1    2    0    0  0.00000000000E+00  0.00000000000E+00 -0.22319984661E+03  0.35291562099E+03  0.27337019590E+03 0.  0.
         25    2    3    3    0    0  0.23716323503E+02 -0.47570045242E+02 -0.92456327395E+02  0.16514172277E+03  0.12608823466E+03 0.  0.
         25    2    3    3    0    0 -0.23716323503E+02  0.47570045242E+02 -0.13074351922E+03  0.18777389822E+03  0.12385392940E+03 0.  0.
          5    1    4    4  502    0  0.61122578114E+02 -0.57804147253E+02 -0.93757974746E+02  0.12605529272E+03  0.47000000000E+01 0.  1.
         -5    1    4    4    0  502 -0.37406254611E+02  0.10234102011E+02  0.13016473513E+01  0.39086430047E+02  0.47000000000E+01 0.  1.
          5    1    5    5  503    0  0.14511290618E+02  0.15150045353E+02 -0.13551017867E+03  0.13720495600E+03  0.47000000000E+01 0.  1.
         -5    1    5    5    0  503 -0.38227614121E+02  0.32419999889E+02  0.47666594473E+01  0.50568942213E+02  0.47000000000E+01 0.  1.
<mgrwt>
<rscale>  0 0.27337020E+03</rscale>
<asrwt>0</asrwt>
<pdfrwt beam="1">  1        2 0.44316574E-01 0.27337020E+03</pdfrwt>
<pdfrwt beam="2">  1       -2 0.99781365E-02 0.27337020E+03</pdfrwt>
<totfact> 0.75499069E+03</totfact>
</mgrwt>
</event>
<event>
 9    1  0.7957670E-001  0.2778822E+03  0.7818608E-02  0.1096851E+00
          1   -1    0    0  501    0  0.00000000000E+00  0.00000000000E+00  0.85539518020E+03  0.85539518020E+03  0.00000000000E+00 0.  1.
         -1   -1    0    0    0  501 -0.00000000000E+00 -0.00000000000E+00 -0.22568085017E+02  0.22568085017E+02  0.00000000000E+00 0.  1.
         35    2    1    2    0    0  0.71054273576E-14  0.00000000000E+00  0.83282709518E+03  0.87796326522E+03  0.27788221354E+03 0.  0.
         25    2    3    3    0    0 -0.11175047833E+02 -0.60711831982E+02  0.42347546338E+03  0.44584564274E+03  0.12504423550E+03 0.  0.
         25    2    3    3    0    0  0.11175047833E+02  0.60711831982E+02  0.40935163181E+03  0.43211762248E+03  0.12387926766E+03 0.  0.
          5    1    4    4  502    0 -0.43768346778E+02 -0.79131367051E+02  0.36641550703E+03  0.37743854496E+03  0.47000000000E+01 0.  1.
         -5    1    4    4    0  502  0.32593298945E+02  0.18419535068E+02  0.57059956352E+02  0.68407097783E+02  0.47000000000E+01 0.  1.
          5    1    5    5  503    0  0.61005397986E+02  0.47272602369E+02  0.16347051056E+03  0.18083433120E+03  0.47000000000E+01 0.  1.
         -5    1    5    5    0  503 -0.49830350153E+02  0.13439229613E+02  0.24588112125E+03  0.25128329128E+03  0.47000000000E+01 0.  1.
<mgrwt>
<rscale>  0 0.27788221E+03</rscale>
<asrwt>0</asrwt>
<pdfrwt beam="1">  1        1 0.13159923E+00 0.27788221E+03</pdfrwt>
<pdfrwt beam="2">  1       -1 0.34720137E-02 0.27788221E+03</pdfrwt>
<totfact> 0.62896439E+03</totfact>
</mgrwt>
</event>
<event>
 9    1  0.7957670E-001  0.2679244E+03  0.7818608E-02  0.1102473E+00
         -2   -1    0    0    0  501 -0.00000000000E+00  0.00000000000E+00  0.10000636717E+02  0.10000636717E+02  0.00000000000E+00 0.  1.
          2   -1    0    0  501    0  0.00000000000E+00 -0.00000000000E+00 -0.17944734533E+04  0.17944734533E+04  0.00000000000E+00 0.  1.
         35    2    1    2    0    0  0.00000000000E+00  0.00000000000E+00 -0.17844728166E+04  0.18044740900E+04  0.26792444536E+03 0.  0.
         25    2    3    3    0    0  0.17823946842E+02  0.40490207593E+02 -0.73483425050E+03  0.74659397200E+03  0.12435446644E+03 0.  0.
         25    2    3    3    0    0 -0.17823946842E+02 -0.40490207593E+02 -0.10496385661E+04  0.10578801180E+04  0.12414537728E+03 0.  0.
          5    1    4    4  502    0  0.55814435011E+02 -0.16347780597E+02 -0.44277671513E+03  0.44660475876E+03  0.47000000000E+01 0.  1.
         -5    1    4    4    0  502 -0.37990488169E+02  0.56837988190E+02 -0.29205753537E+03  0.29998921324E+03  0.47000000000E+01 0.  1.
          5    1    5    5  503    0  0.21688946405E+02 -0.66131946097E+02 -0.36492914385E+03  0.37153628992E+03  0.47000000000E+01 0. -1.
         -5    1    5    5    0  503 -0.39512893247E+02  0.25641738504E+02 -0.68470942223E+03  0.68634382811E+03  0.47000000000E+01 0. -1.
<mgrwt>
<rscale>  0 0.26792445E+03</rscale>
<asrwt>0</asrwt>
<pdfrwt beam="1">  1        2 0.27607263E+00 0.26792445E+03</pdfrwt>
<pdfrwt beam="2">  1       -2 0.15385607E-02 0.26792445E+03</pdfrwt>
<totfact> 0.10824386E+04</totfact>
</mgrwt>
</event>
<event>
 9    1  0.7957670E-001  0.2753098E+03  0.7818608E-02  0.1098279E+00
          2   -1    0    0  501    0  0.00000000000E+00  0.00000000000E+00  0.80931653490E+03  0.80931653490E+03  0.00000000000E+00 0.  1.
         -2   -1    0    0    0  501 -0.00000000000E+00 -0.00000000000E+00 -0.23413417418E+02  0.23413417418E+02  0.00000000000E+00 0.  1.
         35    2    1    2    0    0  0.35527136788E-14 -0.71054273576E-14  0.78590311748E+03  0.83272995232E+03  0.27530975903E+03 0.  0.
         25    2    3    3    0    0 -0.28056325848E+02  0.20417728241E+02  0.25571944861E+03  0.28694073401E+03  0.12545320798E+03 0.  0.
         25    2    3    3    0    0  0.28056325848E+02 -0.20417728241E+02  0.53018366887E+03  0.54578921831E+03  0.12484833612E+03 0.  0.
          5    1    4    4  502    0  0.13061216033E+02  0.56229926607E+02  0.58708343072E+02  0.82469143058E+02  0.47000000000E+01 0. -1.
         -5    1    4    4    0  502 -0.41117541881E+02 -0.35812198367E+02  0.19701110553E+03  0.20447159095E+03  0.47000000000E+01 0. -1.
          5    1    5    5  503    0 -0.16441010983E+02 -0.62802852184E+02  0.21502130612E+03  0.22465697668E+03  0.47000000000E+01 0. -1.
         -5    1    5    5    0  503  0.44497336831E+02  0.42385123943E+02  0.31516236275E+03  0.32113224163E+03  0.47000000000E+01 0. -1.
<mgrwt>
<rscale>  0 0.27530976E+03</rscale>
<asrwt>0</asrwt>
<pdfrwt beam="1">  1        2 0.12451021E+00 0.27530976E+03</pdfrwt>
<pdfrwt beam="2">  1       -2 0.36020648E-02 0.27530976E+03</pdfrwt>
<totfact> 0.11213659E+04</totfact>
</mgrwt>
</event>
<event>
 9    1  0.7957670E-001  0.2760774E+03  0.7818608E-02  0.1097851E+00
         -2   -1    0    0    0  501 -0.00000000000E+00  0.00000000000E+00  0.10881359184E+02  0.10881359184E+02  0.00000000000E+00 0.  1.
          2   -1    0    0  501    0  0.00000000000E+00 -0.00000000000E+00 -0.17511304831E+04  0.17511304831E+04  0.00000000000E+00 0.  1.
         35    2    1    2    0    0  0.00000000000E+00  0.71054273576E-14 -0.17402491239E+04  0.17620118423E+04  0.27607737875E+03 0.  0.
         25    2    3    3    0    0 -0.42445916769E+02 -0.37872156578E+02 -0.93370051654E+03  0.94383645914E+03  0.12567677160E+03 0.  0.
         25    2    3    3    0    0  0.42445916769E+02  0.37872156578E+02 -0.80654860739E+03  0.81817538316E+03  0.12511732665E+03 0.  0.
          5    1    4    4  502    0 -0.50362500808E+02 -0.55211528696E+02 -0.90993594875E+03  0.91301161834E+03  0.47000000000E+01 0. -1.
         -5    1    4    4    0  502  0.79165840397E+01  0.17339372118E+02 -0.23764567790E+02  0.30824840803E+02  0.47000000000E+01 0. -1.
          5    1    5    5  503    0  0.51344379389E+02 -0.34692179225E+02 -0.30116941180E+03  0.30751406016E+03  0.47000000000E+01 0.  1.
         -5    1    5    5    0  503 -0.88984626204E+01  0.72564335803E+02 -0.50537919559E+03  0.51066132299E+03  0.47000000000E+01 0.  1.
<mgrwt>
<rscale>  0 0.27607738E+03</rscale>
<asrwt>0</asrwt>
<pdfrwt beam="1">  1        2 0.26940487E+00 0.27607738E+03</pdfrwt>
<pdfrwt beam="2">  1       -2 0.16740541E-02 0.27607738E+03</pdfrwt>
<totfact> 0.10085539E+04</totfact>
</mgrwt>
</event>
<event>
 9    1  0.7957670E-001  0.2748859E+03  0.7818608E-02  0.1098515E+00
         -2   -1    0    0    0  501 -0.00000000000E+00  0.00000000000E+00  0.17351169330E+03  0.17351169330E+03  0.00000000000E+00 0.  1.
          2   -1    0    0  501    0  0.00000000000E+00 -0.00000000000E+00 -0.10887200557E+03  0.10887200557E+03  0.00000000000E+00 0.  1.
         35    2    1    2    0    0  0.00000000000E+00  0.00000000000E+00  0.64639687730E+02  0.28238369887E+03  0.27488591117E+03 0.  0.
         25    2    3    3    0    0 -0.26287853764E+02  0.51208640426E+02  0.83855062097E+01  0.13838722506E+03  0.12556803430E+03 0.  0.
         25    2    3    3    0    0  0.26287853764E+02 -0.51208640426E+02  0.56254181520E+02  0.14399647381E+03  0.11940299586E+03 0.  0.
          5    1    4    4  502    0  0.53640426520E+01 -0.74949525544E+01  0.55589670870E+02  0.56544219641E+02  0.47000000000E+01 0.  1.
         -5    1    4    4    0  502 -0.31651896416E+02  0.58703592980E+02 -0.47204164660E+02  0.81843005424E+02  0.47000000000E+01 0.  1.
          5    1    5    5  503    0  0.58404012623E+02  0.11172633161E+02  0.11804056020E+02  0.60805280698E+02  0.47000000000E+01 0. -1.
         -5    1    5    5    0  503 -0.32116158859E+02 -0.62381273587E+02  0.44450125501E+02  0.83191193111E+02  0.47000000000E+01 0. -1.
<mgrwt>
<rscale>  0 0.27488591E+03</rscale>
<asrwt>0</asrwt>
<pdfrwt beam="1">  1        2 0.16749539E-01 0.27488591E+03</pdfrwt>
<pdfrwt beam="2">  1       -2 0.26694107E-01 0.27488591E+03</pdfrwt>
<totfact> 0.42940864E+03</totfact>
</mgrwt>
</event>
<event>
 9    1  0.7957670E-001  0.2753159E+03  0.7818608E-02  0.1098275E+00
         -1   -1    0    0    0  501 -0.00000000000E+00  0.00000000000E+00  0.25528766748E+02  0.25528766748E+02  0.00000000000E+00 0. -1.
          1   -1    0    0  501    0  0.00000000000E+00 -0.00000000000E+00 -0.74228851290E+03  0.74228851290E+03  0.00000000000E+00 0. -1.
         35    2    1    2    0    0  0.71054273576E-14  0.00000000000E+00 -0.71675974615E+03  0.76781727965E+03  0.27531589351E+03 0.  0.
         25    2    3    3    0    0 -0.48422761517E+02  0.14001943549E+02 -0.28837149735E+03  0.31863003073E+03  0.12580205779E+03 0.  0.
         25    2    3    3    0    0  0.48422761517E+02 -0.14001943549E+02 -0.42838824880E+03  0.44918724892E+03  0.12534701680E+03 0.  0.
          5    1    4    4  502    0 -0.44459909655E+02 -0.12117651529E+02 -0.28809525406E+03  0.29179528176E+03  0.47000000000E+01 0. -1.
         -5    1    4    4    0  502 -0.39628518619E+01  0.26119595078E+02 -0.27624328822E+00  0.26834748970E+02  0.47000000000E+01 0. -1.
          5    1    5    5  503    0  0.77786136684E+02 -0.37574214617E+01 -0.39757079379E+03  0.40515358489E+03  0.47000000000E+01 0.  1.
         -5    1    5    5    0  503 -0.29363375168E+02 -0.10244522087E+02 -0.30817455014E+02  0.44033664026E+02  0.47000000000E+01 0.  1.
<mgrwt>
<rscale>  0 0.27531589E+03</rscale>
<asrwt>0</asrwt>
<pdfrwt beam="1">  1        1 0.11419823E+00 0.27531589E+03</pdfrwt>
<pdfrwt beam="2">  1       -1 0.39275025E-02 0.27531589E+03</pdfrwt>
<totfact> 0.65138237E+03</totfact>
</mgrwt>
</event>
<event>
 9    1  0.7957670E-001  0.2752602E+03  0.7818608E-02  0.1098306E+00
          1   -1    0    0  501    0  0.00000000000E+00  0.00000000000E+00  0.37168101737E+02  0.37168101737E+02  0.00000000000E+00 0.  1.
         -1   -1    0    0    0  501 -0.00000000000E+00 -0.00000000000E+00 -0.50963184162E+03  0.50963184162E+03  0.00000000000E+00 0.  1.
         35    2    1    2    0    0  0.00000000000E+00 -0.71054273576E-14 -0.47246373989E+03  0.54679994336E+03  0.27526022697E+03 0.  0.
         25    2    3    3    0    0  0.41685290709E+02  0.32960487877E+02 -0.19083907007E+03  0.23479874622E+03  0.12604302179E+03 0.  0.
         25    2    3    3    0    0 -0.41685290709E+02 -0.32960487877E+02 -0.28162466982E+03  0.31200119714E+03  0.12332167345E+03 0.  0.
          5    1    4    4  502    0  0.36083083022E+02  0.52322872909E+02 -0.26270935421E+02  0.68934200204E+02  0.47000000000E+01 0. -1.
         -5    1    4    4    0  502  0.56022076874E+01 -0.19362385033E+02 -0.16456813465E+03  0.16586454602E+03  0.47000000000E+01 0. -1.
          5    1    5    5  503    0 -0.39679070977E+02  0.42637814862E+02 -0.11731079559E+03  0.13105847814E+03  0.47000000000E+01 0. -1.
         -5    1    5    5    0  503 -0.20062197318E+01 -0.75598302739E+02 -0.16431387423E+03  0.18094271900E+03  0.47000000000E+01 0. -1.
<mgrwt>
<rscale>  0 0.27526023E+03</rscale>
<asrwt>0</asrwt>
<pdfrwt beam="1">  1        1 0.57181692E-02 0.27526023E+03</pdfrwt>
<pdfrwt beam="2">  1       -1 0.78404903E-01 0.27526023E+03</pdfrwt>
<totfact> 0.23450618E+03</totfact>
</mgrwt>
</event>
<event>
 9    1  0.7957670E-001  0.2885630E+03  0.7818608E-02  0.1091102E+00
         -1   -1    0    0    0  501 -0.00000000000E+00  0.00000000000E+00  0.51556340176E+02  0.51556340176E+02  0.00000000000E+00 0.  1.
          1   -1    0    0  501    0  0.00000000000E+00 -0.00000000000E+00 -0.40377488321E+03  0.40377488321E+03  0.00000000000E+00 0.  1.
         35    2    1    2    0    0 -0.71054273576E-14  0.00000000000E+00 -0.35221854303E+03  0.45533122339E+03  0.28856302766E+03 0.  0.
         25    2    3    3    0    0  0.12524470428E+02  0.63706517180E+02 -0.12944280887E+03  0.19154791628E+03  0.12537854989E+03 0.  0.
         25    2    3    3    0    0 -0.12524470428E+02 -0.63706517180E+02 -0.22277573417E+03  0.26378330711E+03  0.12544808761E+03 0.  0.
          5    1    4    4  502    0 -0.22138145028E+02  0.69588403076E+02 -0.13696583126E+03  0.15528802993E+03  0.47000000000E+01 0.  1.
         -5    1    4    4    0  502  0.34662615456E+02 -0.58818858959E+01  0.75230223917E+01  0.36259886347E+02  0.47000000000E+01 0.  1.
          5    1    5    5  503    0  0.26869957425E+02 -0.53835149915E+02 -0.31287880013E+02  0.67979698544E+02  0.47000000000E+01 0. -1.
         -5    1    5    5    0  503 -0.39394427854E+02 -0.98713672647E+01 -0.19148785415E+03  0.19580360856E+03  0.47000000000E+01 0. -1.
<mgrwt>
<rscale>  0 0.28856303E+03</rscale>
<asrwt>0</asrwt>
<pdfrwt beam="1">  1        1 0.62119215E-01 0.28856303E+03</pdfrwt>
<pdfrwt beam="2">  1       -1 0.79317443E-02 0.28856303E+03</pdfrwt>
<totfact> 0.52039869E+03</totfact>
</mgrwt>
</event>
<event>
 9    1  0.7957670E-001  0.2748862E+03  0.7818608E-02  0.1098515E+00
          3   -1    0    0  501    0  0.00000000000E+00  0.00000000000E+00  0.67140203049E+02  0.67140203049E+02  0.00000000000E+00 0. -1.
         -3   -1    0    0    0  501 -0.00000000000E+00 -0.00000000000E+00 -0.28136057946E+03  0.28136057946E+03  0.00000000000E+00 0. -1.
         35    2    1    2    0    0  0.71054273576E-14 -0.71054273576E-14 -0.21422037641E+03  0.34850078250E+03  0.27488620507E+03 0.  0.
         25    2    3    3    0    0 -0.52286892086E+02  0.24568921140E+02 -0.99908121290E+02  0.16918461061E+03  0.12371034233E+03 0.  0.
         25    2    3    3    0    0  0.52286892086E+02 -0.24568921140E+02 -0.11431225512E+03  0.17931617189E+03  0.12549680020E+03 0.  0.
          5    1    4    4  502    0  0.24180571667E+02 -0.30093330083E+02 -0.12788888837E+02  0.40938420088E+02  0.47000000000E+01 0.  1.
         -5    1    4    4    0  502 -0.76467463753E+02  0.54662251223E+02 -0.87119232452E+02  0.12824619053E+03  0.47000000000E+01 0.  1.
          5    1    5    5  503    0 -0.36664987736E+02  0.14187654988E+02 -0.21938962562E+02  0.45266090598E+02  0.47000000000E+01 0. -1.
         -5    1    5    5    0  503  0.88951879821E+02 -0.38756576128E+02 -0.92373292555E+02  0.13405008129E+03  0.47000000000E+01 0. -1.
<mgrwt>
<rscale>  0 0.27488621E+03</rscale>
<asrwt>0</asrwt>
<pdfrwt beam="1">  1        3 0.10329262E-01 0.27488621E+03</pdfrwt>
<pdfrwt beam="2">  1       -3 0.43286243E-01 0.27488621E+03</pdfrwt>
<totfact> 0.94579660E+02</totfact>
</mgrwt>
</event>
<event>
 9    1  0.7957670E-001  0.2772113E+03  0.7818608E-02  0.1097222E+00
          3   -1    0    0  501    0  0.00000000000E+00  0.00000000000E+00  0.30778125099E+02  0.30778125099E+02  0.00000000000E+00 0. -1.
         -3   -1    0    0    0  501 -0.00000000000E+00 -0.00000000000E+00 -0.62419398055E+03  0.62419398055E+03  0.00000000000E+00 0. -1.
         35    2    1    2    0    0 -0.14210854715E-13 -0.35527136788E-14 -0.59341585545E+03  0.65497210565E+03  0.27721125821E+03 0.  0.
         25    2    3    3    0    0 -0.60414826260E+02  0.76926080233E+01 -0.29843261635E+03  0.32927027263E+03  0.12509100081E+03 0.  0.
         25    2    3    3    0    0  0.60414826260E+02 -0.76926080233E+01 -0.29498323910E+03  0.32570183302E+03  0.12392515981E+03 0.  0.
          5    1    4    4  502    0  0.38887853717E+02 -0.96250034775E+00 -0.91314108603E+02  0.99365728516E+02  0.47000000000E+01 0.  1.
         -5    1    4    4    0  502 -0.99302679976E+02  0.86551083711E+01 -0.20711850775E+03  0.22990454411E+03  0.47000000000E+01 0.  1.
          5    1    5    5  503    0  0.18011141507E+02 -0.33381713447E+02 -0.26463920239E+03  0.26738499856E+03  0.47000000000E+01 0. -1.
         -5    1    5    5    0  503  0.42403684753E+02  0.25689105424E+02 -0.30344036706E+02  0.58316834462E+02  0.47000000000E+01 0. -1.
<mgrwt>
<rscale>  0 0.27721126E+03</rscale>
<asrwt>0</asrwt>
<pdfrwt beam="1">  1        3 0.47350967E-02 0.27721126E+03</pdfrwt>
<pdfrwt beam="2">  1       -3 0.96029833E-01 0.27721126E+03</pdfrwt>
<totfact> 0.62673451E+02</totfact>
</mgrwt>
</event>
<event>
 9    1  0.7957670E-001  0.2737591E+03  0.7818608E-02  0.1099147E+00
         -2   -1    0    0    0  501 -0.00000000000E+00  0.00000000000E+00  0.43701103404E+02  0.43701103404E+02  0.00000000000E+00 0.  1.
          2   -1    0    0  501    0  0.00000000000E+00 -0.00000000000E+00 -0.42873097834E+03  0.42873097834E+03  0.00000000000E+00 0.  1.
         35    2    1    2    0    0  0.14210854715E-13 -0.17763568394E-14 -0.38502987494E+03  0.47243208175E+03  0.27375914098E+03 0.  0.
         25    2    3    3    0    0  0.30114414058E+02 -0.15257387440E+02 -0.27147119843E+03  0.30077182431E+03  0.12500965129E+03 0.  0.
         25    2    3    3    0    0 -0.30114414058E+02  0.15257387440E+02 -0.11355867651E+03  0.17166025744E+03  0.12422562203E+03 0.  0.
          5    1    4    4  502    0  0.76384383061E+02 -0.14714681229E+02 -0.12705771463E+03  0.14905317395E+03  0.47000000000E+01 0.  1.
         -5    1    4    4    0  502 -0.46269969003E+02 -0.54270621035E+00 -0.14441348380E+03  0.15171865036E+03  0.47000000000E+01 0.  1.
          5    1    5    5  503    0 -0.64401394994E+02 -0.15236631040E+02 -0.10580736565E+03  0.12488788264E+03  0.47000000000E+01 0.  1.
         -5    1    5    5    0  503  0.34286980936E+02  0.30494018479E+02 -0.77513108544E+01  0.46772374803E+02  0.47000000000E+01 0.  1.
<mgrwt>
<rscale>  0 0.27375914E+03</rscale>
<asrwt>0</asrwt>
<pdfrwt beam="1">  1        2 0.65958614E-01 0.27375914E+03</pdfrwt>
<pdfrwt beam="2">  1       -2 0.67232465E-02 0.27375914E+03</pdfrwt>
<totfact> 0.91143365E+03</totfact>
</mgrwt>
</event>
<event>
 9    1  0.7957670E-001  0.2782679E+03  0.7818608E-02  0.1096639E+00
         -1   -1    0    0    0  501 -0.00000000000E+00  0.00000000000E+00  0.52314657003E+02  0.52314657003E+02  0.00000000000E+00 0.  1.
          1   -1    0    0  501    0  0.00000000000E+00 -0.00000000000E+00 -0.37003515802E+03  0.37003515802E+03  0.00000000000E+00 0.  1.
         35    2    1    2    0    0  0.00000000000E+00  0.00000000000E+00 -0.31772050102E+03  0.42234981502E+03  0.27826794548E+03 0.  0.
         25    2    3    3    0    0 -0.34398359521E+02 -0.11606802533E+02 -0.82132149891E+02  0.15383674679E+03  0.12490832484E+03 0.  0.
         25    2    3    3    0    0  0.34398359521E+02  0.11606802533E+02 -0.23558835113E+03  0.26851306823E+03  0.12360999806E+03 0.  0.
          5    1    4    4  502    0 -0.13101169944E+02  0.43759348828E+02  0.72189942436E+01  0.46483600782E+02  0.47000000000E+01 0. -1.
         -5    1    4    4    0  502 -0.21297189577E+02 -0.55366151361E+02 -0.89351144134E+02  0.10735314601E+03  0.47000000000E+01 0. -1.
          5    1    5    5  503    0  0.31184993064E+02 -0.33205953011E+02 -0.21326260587E+03  0.21812420354E+03  0.47000000000E+01 0.  1.
         -5    1    5    5    0  503  0.32133664571E+01  0.44812755543E+02 -0.22325745254E+02  0.50388864688E+02  0.47000000000E+01 0.  1.
<mgrwt>
<rscale>  0 0.27826795E+03</rscale>
<asrwt>0</asrwt>
<pdfrwt beam="1">  1        1 0.56928488E-01 0.27826795E+03</pdfrwt>
<pdfrwt beam="2">  1       -1 0.80484084E-02 0.27826795E+03</pdfrwt>
<totfact> 0.56844394E+03</totfact>
</mgrwt>
</event>
<event>
 9    1  0.7957670E-001  0.2759921E+03  0.7818608E-02  0.1097898E+00
          2   -1    0    0  501    0  0.00000000000E+00  0.00000000000E+00  0.25255954596E+03  0.25255954596E+03  0.00000000000E+00 0.  1.
         -2   -1    0    0    0  501 -0.00000000000E+00 -0.00000000000E+00 -0.75399686744E+02  0.75399686744E+02  0.00000000000E+00 0.  1.
         35    2    1    2    0    0 -0.71054273576E-14  0.00000000000E+00  0.17715985922E+03  0.32795923271E+03  0.27599210605E+03 0.  0.
         25    2    3    3    0    0  0.40349213526E+02 -0.66090968820E+01  0.50339224904E+02  0.14550386464E+03  0.13025205514E+03 0.  0.
         25    2    3    3    0    0 -0.40349213526E+02  0.66090968820E+01  0.12682063432E+03  0.18245536806E+03  0.12463847260E+03 0.  0.
          5    1    4    4  502    0 -0.21078166325E+02  0.13031968989E+02  0.72804815293E+02  0.77050324083E+02  0.47000000000E+01 0. -1.
         -5    1    4    4    0  502  0.61427379851E+02 -0.19641065871E+02 -0.22465590389E+02  0.68453540562E+02  0.47000000000E+01 0. -1.
          5    1    5    5  503    0  0.86495700900E+01 -0.49129362849E+02  0.23986228382E+02  0.55551224187E+02  0.47000000000E+01 0.  1.
         -5    1    5    5    0  503 -0.48998783616E+02  0.55738459732E+02  0.10283440593E+03  0.12690414388E+03  0.47000000000E+01 0.  1.
<mgrwt>
<rscale>  0 0.27599211E+03</rscale>
<asrwt>0</asrwt>
<pdfrwt beam="1">  1        2 0.38855314E-01 0.27599211E+03</pdfrwt>
<pdfrwt beam="2">  1       -2 0.11599952E-01 0.27599211E+03</pdfrwt>
<totfact> 0.68392166E+03</totfact>
</mgrwt>
</event>
<event>
 9    1  0.7957670E-001  0.2749936E+03  0.7818608E-02  0.1098455E+00
          1   -1    0    0  501    0  0.00000000000E+00  0.00000000000E+00  0.66951208563E+02  0.66951208563E+02  0.00000000000E+00 0. -1.
         -1   -1    0    0    0  501 -0.00000000000E+00 -0.00000000000E+00 -0.28237542897E+03  0.28237542897E+03  0.00000000000E+00 0. -1.
         35    2    1    2    0    0  0.00000000000E+00 -0.35527136788E-14 -0.21542422041E+03  0.34932663754E+03  0.27499364530E+03 0.  0.
         25    2    3    3    0    0 -0.42796322692E+02  0.13665443109E+02 -0.16054559860E+03  0.20576700856E+03  0.12061054270E+03 0.  0.
         25    2    3    3    0    0  0.42796322692E+02 -0.13665443109E+02 -0.54878621813E+02  0.14355962898E+03  0.12481760440E+03 0.  0.
          5    1    4    4  502    0 -0.75998948262E+02 -0.60017003097E+01 -0.14502250361E+03  0.16390691595E+03  0.47000000000E+01 0.  1.
         -5    1    4    4    0  502  0.33202625570E+02  0.19667143419E+02 -0.15523094985E+02  0.41860092605E+02  0.47000000000E+01 0.  1.
          5    1    5    5  503    0  0.78700916175E+02 -0.15556884814E+02 -0.67722558508E+02  0.10509179703E+03  0.47000000000E+01 0.  1.
         -5    1    5    5    0  503 -0.35904593483E+02  0.18914417050E+01  0.12843936695E+02  0.38467831948E+02  0.47000000000E+01 0.  1.
<mgrwt>
<rscale>  0 0.27499365E+03</rscale>
<asrwt>0</asrwt>
<pdfrwt beam="1">  1        1 0.10300186E-01 0.27499365E+03</pdfrwt>
<pdfrwt beam="2">  1       -1 0.43442373E-01 0.27499365E+03</pdfrwt>
<totfact> 0.32654324E+03</totfact>
</mgrwt>
</event>
<event>
 9    1  0.7957670E-001  0.2864126E+03  0.7818608E-02  0.1092237E+00
          3   -1    0    0  501    0  0.00000000000E+00  0.00000000000E+00  0.41505063250E+02  0.41505063250E+02  0.00000000000E+00 0. -1.
         -3   -1    0    0    0  501 -0.00000000000E+00 -0.00000000000E+00 -0.49410931178E+03  0.49410931178E+03  0.00000000000E+00 0. -1.
         35    2    1    2    0    0  0.71054273576E-14  0.00000000000E+00 -0.45260424853E+03  0.53561437503E+03  0.28641255725E+03 0.  0.
         25    2    3    3    0    0 -0.61670644956E+02  0.47829839788E+01 -0.16140686577E+03  0.21300380467E+03  0.12446806458E+03 0.  0.
         25    2    3    3    0    0  0.61670644956E+02 -0.47829839788E+01 -0.29119738276E+03  0.32261057036E+03  0.12432022763E+03 0.  0.
          5    1    4    4  502    0  0.34825978262E+02  0.13001880351E+02 -0.71750104050E+02  0.80944827418E+02  0.47000000000E+01 0. -1.
         -5    1    4    4    0  502 -0.96496623217E+02 -0.82188963721E+01 -0.89656761719E+02  0.13205897725E+03  0.47000000000E+01 0. -1.
          5    1    5    5  503    0  0.75904587029E+01  0.36346187183E+02 -0.18905303527E+02  0.41930429136E+02  0.47000000000E+01 0.  1.
         -5    1    5    5    0  503  0.54080186253E+02 -0.41129171162E+02 -0.27229207923E+03  0.28068014122E+03  0.47000000000E+01 0.  1.
<mgrwt>
<rscale>  0 0.28641256E+03</rscale>
<asrwt>0</asrwt>
<pdfrwt beam="1">  1        3 0.63853938E-02 0.28641256E+03</pdfrwt>
<pdfrwt beam="2">  1       -3 0.76016824E-01 0.28641256E+03</pdfrwt>
<totfact> 0.65406068E+02</totfact>
</mgrwt>
</event>
<event>
 9    1  0.7957670E-001  0.2792371E+03  0.7818608E-02  0.1096106E+00
         -2   -1    0    0    0  501 -0.00000000000E+00  0.00000000000E+00  0.70066252512E+02  0.70066252512E+02  0.00000000000E+00 0. -1.
          2   -1    0    0  501    0  0.00000000000E+00 -0.00000000000E+00 -0.27821303179E+03  0.27821303179E+03  0.00000000000E+00 0. -1.
         35    2    1    2    0    0 -0.14210854715E-13 -0.17763568394E-14 -0.20814677928E+03  0.34827928430E+03  0.27923713605E+03 0.  0.
         25    2    3    3    0    0 -0.51490885871E+02 -0.12382537847E+02 -0.14164473434E+03  0.19608754843E+03  0.12482971326E+03 0.  0.
         25    2    3    3    0    0  0.51490885871E+02  0.12382537847E+02 -0.66502044941E+02  0.15219173587E+03  0.12623455911E+03 0.  0.
          5    1    4    4  502    0 -0.62738319792E+02 -0.22183817982E+02 -0.14865235300E+02  0.68346790496E+02  0.47000000000E+01 0. -1.
         -5    1    4    4    0  502  0.11247433921E+02  0.98012801350E+01 -0.12677949904E+03  0.12774075794E+03  0.47000000000E+01 0. -1.
          5    1    5    5  503    0  0.88083423430E+02 -0.11049649202E+02 -0.26043345950E+02  0.92634389397E+02  0.47000000000E+01 0.  1.
         -5    1    5    5    0  503 -0.36592537559E+02  0.23432187049E+02 -0.40458698991E+02  0.59557346473E+02  0.47000000000E+01 0.  1.
<mgrwt>
<rscale>  0 0.27923714E+03</rscale>
<asrwt>0</asrwt>
<pdfrwt beam="1">  1        2 0.42802005E-01 0.27923714E+03</pdfrwt>
<pdfrwt beam="2">  1       -2 0.10779423E-01 0.27923714E+03</pdfrwt>
<totfact> 0.69350742E+03</totfact>
</mgrwt>
</event>
<event>
 9    1  0.7957670E-001  0.2700833E+03  0.7818608E-02  0.1101232E+00
         -2   -1    0    0    0  501 -0.00000000000E+00  0.00000000000E+00  0.20675103036E+02  0.20675103036E+02  0.00000000000E+00 0.  1.
          2   -1    0    0  501    0  0.00000000000E+00 -0.00000000000E+00 -0.88203927818E+03  0.88203927818E+03  0.00000000000E+00 0.  1.
         35    2    1    2    0    0  0.14210854715E-13  0.00000000000E+00 -0.86136417514E+03  0.90271438121E+03  0.27008334238E+03 0.  0.
         25    2    3    3    0    0  0.35015325452E+02 -0.38189057131E+02 -0.42541303348E+03  0.44623614487E+03  0.12436225647E+03 0.  0.
         25    2    3    3    0    0 -0.35015325452E+02  0.38189057131E+02 -0.43595114167E+03  0.45647823635E+03  0.12503801516E+03 0.  0.
          5    1    4    4  502    0 -0.34904380621E+02 -0.38860432496E+02 -0.27935463824E+03  0.28423503110E+03  0.47000000000E+01 0.  1.
         -5    1    4    4    0  502  0.69919706073E+02  0.67137536506E+00 -0.14605839524E+03  0.16200111377E+03  0.47000000000E+01 0.  1.
          5    1    5    5  503    0  0.34621262645E+02 -0.21021734779E+02 -0.93451639648E+02  0.10196001232E+03  0.47000000000E+01 0.  1.
         -5    1    5    5    0  503 -0.69636588097E+02  0.59210791910E+02 -0.34249950202E+03  0.35451822402E+03  0.47000000000E+01 0.  1.
<mgrwt>
<rscale>  0 0.27008334E+03</rscale>
<asrwt>0</asrwt>
<pdfrwt beam="1">  1        2 0.13569838E+00 0.27008334E+03</pdfrwt>
<pdfrwt beam="2">  1       -2 0.31807843E-02 0.27008334E+03</pdfrwt>
<totfact> 0.12065160E+04</totfact>
</mgrwt>
</event>
<event>
 9    1  0.7957670E-001  0.2742036E+03  0.7818608E-02  0.1098898E+00
          1   -1    0    0  501    0  0.00000000000E+00  0.00000000000E+00  0.32837699838E+03  0.32837699838E+03  0.00000000000E+00 0.  1.
         -1   -1    0    0    0  501 -0.00000000000E+00 -0.00000000000E+00 -0.57241821115E+02  0.57241821115E+02  0.00000000000E+00 0.  1.
         35    2    1    2    0    0 -0.17763568394E-14  0.00000000000E+00  0.27113517727E+03  0.38561881950E+03  0.27420355504E+03 0.  0.
         25    2    3    3    0    0 -0.68744032041E+01 -0.23566933528E+02  0.18998503799E+03  0.22643535163E+03  0.12073108976E+03 0.  0.
         25    2    3    3    0    0  0.68744032041E+01  0.23566933528E+02  0.81150139280E+02  0.15918346787E+03  0.13472703352E+03 0.  0.
          5    1    4    4  502    0 -0.18849780809E+02  0.45926291954E+02  0.56225392859E+02  0.75152666828E+02  0.47000000000E+01 0.  1.
         -5    1    4    4    0  502  0.11975377605E+02 -0.69493225482E+02  0.13375964513E+03  0.15128268480E+03  0.47000000000E+01 0.  1.
          5    1    5    5  503    0  0.85829432371E+00  0.68414295120E+01  0.11784514011E+03  0.11814020854E+03  0.47000000000E+01 0. -1.
         -5    1    5    5    0  503  0.60161088804E+01  0.16725504016E+02 -0.36695000826E+02  0.41043259328E+02  0.47000000000E+01 0. -1.
<mgrwt>
<rscale>  0 0.27420356E+03</rscale>
<asrwt>0</asrwt>
<pdfrwt beam="1">  1        1 0.50519537E-01 0.27420356E+03</pdfrwt>
<pdfrwt beam="2">  1       -1 0.88064342E-02 0.27420356E+03</pdfrwt>
<totfact> 0.57597052E+03</totfact>
</mgrwt>
</event>
<event>
 9    1  0.7957670E-001  0.2761879E+03  0.7818608E-02  0.1097789E+00
         -4   -1    0    0    0  501 -0.00000000000E+00  0.00000000000E+00  0.59309592895E+02  0.59309592895E+02  0.00000000000E+00 0.  1.
          4   -1    0    0  501    0  0.00000000000E+00 -0.00000000000E+00 -0.32153211041E+03  0.32153211041E+03  0.00000000000E+00 0.  1.
         35    2    1    2    0    0  0.71054273576E-14  0.00000000000E+00 -0.26222251752E+03  0.38084170331E+03  0.27618789670E+03 0.  0.
         25    2    3    3    0    0  0.10101957044E+02  0.38102234681E+02 -0.67698831760E+02  0.14653046758E+03  0.12383140265E+03 0.  0.
         25    2    3    3    0    0 -0.10101957044E+02 -0.38102234681E+02 -0.19452368576E+03  0.23431123573E+03  0.12453297172E+03 0.  0.
          5    1    4    4  502    0 -0.56573855113E+02  0.22373264167E+02 -0.36560909773E+02  0.71133354730E+02  0.47000000000E+01 0.  1.
         -5    1    4    4    0  502  0.66675812157E+02  0.15728970514E+02 -0.31137921987E+02  0.75397112848E+02  0.47000000000E+01 0.  1.
          5    1    5    5  503    0  0.35030208522E+02 -0.14487098101E+02 -0.56261422679E+01  0.38610037520E+02  0.47000000000E+01 0. -1.
         -5    1    5    5    0  503 -0.45132165566E+02 -0.23615136580E+02 -0.18889754349E+03  0.19570119821E+03  0.47000000000E+01 0. -1.
<mgrwt>
<rscale>  0 0.27618790E+03</rscale>
<asrwt>0</asrwt>
<pdfrwt beam="1">  1        4 0.49466478E-01 0.27618790E+03</pdfrwt>
<pdfrwt beam="2">  1       -4 0.91245529E-02 0.27618790E+03</pdfrwt>
<totfact> 0.65876403E+02</totfact>
</mgrwt>
</event>
<event>
 9    1  0.7957670E-001  0.2768446E+03  0.7818608E-02  0.1097425E+00
         -1   -1    0    0    0  501 -0.00000000000E+00  0.00000000000E+00  0.67833220622E+02  0.67833220622E+02  0.00000000000E+00 0. -1.
          1   -1    0    0  501    0  0.00000000000E+00 -0.00000000000E+00 -0.28246835811E+03  0.28246835811E+03  0.00000000000E+00 0. -1.
         35    2    1    2    0    0 -0.71054273576E-14  0.00000000000E+00 -0.21463513749E+03  0.35030157874E+03  0.27684463841E+03 0.  0.
         25    2    3    3    0    0  0.33281786949E+02 -0.24449646585E+02 -0.52790157763E+02  0.14134230294E+03  0.12444027998E+03 0.  0.
         25    2    3    3    0    0 -0.33281786949E+02  0.24449646585E+02 -0.16184497973E+03  0.20895927580E+03  0.12555763186E+03 0.  0.
          5    1    4    4  502    0 -0.32459294041E+02  0.26762314362E+02  0.46469893851E+00  0.42333594045E+02  0.47000000000E+01 0.  1.
         -5    1    4    4    0  502  0.65741080990E+02 -0.51211960947E+02 -0.53254856702E+02  0.99008708890E+02  0.47000000000E+01 0.  1.
          5    1    5    5  503    0 -0.97831590512E+01  0.18492502706E+02  0.17650922949E+02  0.27772791331E+02  0.47000000000E+01 0. -1.
         -5    1    5    5    0  503 -0.23498627898E+02  0.59571438789E+01 -0.17949590268E+03  0.18118648447E+03  0.47000000000E+01 0. -1.
<mgrwt>
<rscale>  0 0.27684464E+03</rscale>
<asrwt>0</asrwt>
<pdfrwt beam="1">  1        1 0.43456670E-01 0.27684464E+03</pdfrwt>
<pdfrwt beam="2">  1       -1 0.10435880E-01 0.27684464E+03</pdfrwt>
<totfact> 0.53600620E+03</totfact>
</mgrwt>
</event>
<event>
 9    1  0.7957670E-001  0.2717284E+03  0.7818608E-02  0.1100294E+00
          1   -1    0    0  501    0  0.00000000000E+00  0.00000000000E+00  0.10555874770E+04  0.10555874770E+04  0.00000000000E+00 0.  1.
         -1   -1    0    0    0  501 -0.00000000000E+00 -0.00000000000E+00 -0.17487025875E+02  0.17487025875E+02  0.00000000000E+00 0.  1.
         35    2    1    2    0    0 -0.35527136788E-14  0.14210854715E-13  0.10381004511E+04  0.10730745028E+04  0.27172843445E+03 0.  0.
         25    2    3    3    0    0 -0.11241799114E+01 -0.41590875780E+02  0.38272347249E+03  0.40487677238E+03  0.12536698004E+03 0.  0.
         25    2    3    3    0    0  0.11241799114E+01  0.41590875780E+02  0.65537697860E+03  0.66819773047E+03  0.12344293496E+03 0.  0.
          5    1    4    4  502    0  0.21081324401E+01 -0.63038485417E+02  0.83096403267E+02  0.10442890932E+03  0.47000000000E+01 0.  1.
         -5    1    4    4    0  502 -0.32323123515E+01  0.21447609637E+02  0.29962706922E+03  0.30044786305E+03  0.47000000000E+01 0.  1.
          5    1    5    5  503    0  0.61051560303E+02  0.10248168480E+02  0.33918649524E+03  0.34482152852E+03  0.47000000000E+01 0. -1.
         -5    1    5    5    0  503 -0.59927380392E+02  0.31342707301E+02  0.31619048336E+03  0.32337620195E+03  0.47000000000E+01 0. -1.
<mgrwt>
<rscale>  0 0.27172843E+03</rscale>
<asrwt>0</asrwt>
<pdfrwt beam="1">  1        1 0.16239802E+00 0.27172843E+03</pdfrwt>
<pdfrwt beam="2">  1       -1 0.26903125E-02 0.27172843E+03</pdfrwt>
<totfact> 0.64371459E+03</totfact>
</mgrwt>
</event>
<event>
 9    1  0.7957670E-001  0.2718399E+03  0.7818608E-02  0.1100231E+00
          1   -1    0    0  501    0  0.00000000000E+00  0.00000000000E+00  0.10323461486E+03  0.10323461486E+03  0.00000000000E+00 0.  1.
         -1   -1    0    0    0  501 -0.00000000000E+00 -0.00000000000E+00 -0.17895384791E+03  0.17895384791E+03  0.00000000000E+00 0.  1.
         35    2    1    2    0    0  0.00000000000E+00  0.00000000000E+00 -0.75719233050E+02  0.28218846278E+03  0.27183989087E+03 0.  0.
         25    2    3    3    0    0 -0.23679279565E+02  0.18234374471E+01  0.13987511827E+02  0.12677850127E+03  0.12374613001E+03 0.  0.
         25    2    3    3    0    0  0.23679279565E+02 -0.18234374471E+01 -0.89706744876E+02  0.15540996150E+03  0.12466323778E+03 0.  0.
          5    1    4    4  502    0  0.34131262672E+02 -0.24569563394E+02  0.39736466875E+02  0.58048973605E+02  0.47000000000E+01 0.  1.
         -5    1    4    4    0  502 -0.57810542237E+02  0.26393000841E+02 -0.25748955048E+02  0.68729527666E+02  0.47000000000E+01 0.  1.
          5    1    5    5  503    0 -0.39582135252E+02 -0.11775860321E+02 -0.80426105961E+02  0.90531015886E+02  0.47000000000E+01 0. -1.
         -5    1    5    5    0  503  0.63261414817E+02  0.99524228740E+01 -0.92806389156E+01  0.64878945618E+02  0.47000000000E+01 0. -1.
<mgrwt>
<rscale>  0 0.27183989E+03</rscale>
<asrwt>0</asrwt>
<pdfrwt beam="1">  1        1 0.15882248E-01 0.27183989E+03</pdfrwt>
<pdfrwt beam="2">  1       -1 0.27531361E-01 0.27183989E+03</pdfrwt>
<totfact> 0.40618862E+03</totfact>
</mgrwt>
</event>
<event>
 9    1  0.7957670E-001  0.2747902E+03  0.7818608E-02  0.1098569E+00
         -1   -1    0    0    0  501 -0.00000000000E+00  0.00000000000E+00  0.28920843116E+02  0.28920843116E+02  0.00000000000E+00 0. -1.
          1   -1    0    0  501    0  0.00000000000E+00 -0.00000000000E+00 -0.65272712884E+03  0.65272712884E+03  0.00000000000E+00 0. -1.
         35    2    1    2    0    0  0.00000000000E+00 -0.71054273576E-14 -0.62380628573E+03  0.68164797196E+03  0.27479023921E+03 0.  0.
         25    2    3    3    0    0 -0.24222900416E+02 -0.30909245225E+02 -0.19501940825E+03  0.23324338226E+03  0.12176935340E+03 0.  0.
         25    2    3    3    0    0  0.24222900416E+02  0.30909245225E+02 -0.42878687747E+03  0.44840458970E+03  0.12516532837E+03 0.  0.
          5    1    4    4  502    0  0.12937551700E+02  0.41758593923E+02 -0.48534488172E+02  0.65489288838E+02  0.47000000000E+01 0. -1.
         -5    1    4    4    0  502 -0.37160452116E+02 -0.72667839148E+02 -0.14648492008E+03  0.16775409342E+03  0.47000000000E+01 0. -1.
          5    1    5    5  503    0  0.22497365340E+02  0.73446317881E+02 -0.17708588887E+03  0.19308546060E+03  0.47000000000E+01 0.  1.
         -5    1    5    5    0  503  0.17255350761E+01 -0.42537072655E+02 -0.25170098860E+03  0.25531912910E+03  0.47000000000E+01 0.  1.
<mgrwt>
<rscale>  0 0.27479024E+03</rscale>
<asrwt>0</asrwt>
<pdfrwt beam="1">  1        1 0.10041956E+00 0.27479024E+03</pdfrwt>
<pdfrwt beam="2">  1       -1 0.44493604E-02 0.27479024E+03</pdfrwt>
<totfact> 0.65238103E+03</totfact>
</mgrwt>
</event>
<event>
 9    1  0.7957670E-001  0.2759150E+03  0.7818608E-02  0.1097941E+00
         -1   -1    0    0    0  501 -0.00000000000E+00  0.00000000000E+00  0.14013173061E+03  0.14013173061E+03  0.00000000000E+00 0.  1.
          1   -1    0    0  501    0  0.00000000000E+00 -0.00000000000E+00 -0.13581704775E+03  0.13581704775E+03  0.00000000000E+00 0.  1.
         35    2    1    2    0    0  0.00000000000E+00  0.00000000000E+00  0.43146828568E+01  0.27594877836E+03  0.27591504452E+03 0.  0.
         25    2    3    3    0    0 -0.29110772456E+02  0.47173520568E+01 -0.47766148813E+02  0.13669955071E+03  0.12464137238E+03 0.  0.
         25    2    3    3    0    0  0.29110772456E+02 -0.47173520568E+01  0.52080831670E+02  0.13924922765E+03  0.12573083906E+03 0.  0.
          5    1    4    4  502    0  0.21401891848E+02  0.46753094809E+02 -0.48460556212E+02  0.70812487297E+02  0.47000000000E+01 0. -1.
         -5    1    4    4    0  502 -0.50512664304E+02 -0.42035742752E+02  0.69440739845E+00  0.65887063415E+02  0.47000000000E+01 0. -1.
          5    1    5    5  503    0 -0.47556119386E+02  0.25703301657E+01  0.37333896057E+02  0.60696794668E+02  0.47000000000E+01 0.  1.
         -5    1    5    5    0  503  0.76666891842E+02 -0.72876822225E+01  0.14746935613E+02  0.78552432979E+02  0.47000000000E+01 0.  1.
<mgrwt>
<rscale>  0 0.27591504E+03</rscale>
<asrwt>0</asrwt>
<pdfrwt beam="1">  1        1 0.20894930E-01 0.27591504E+03</pdfrwt>
<pdfrwt beam="2">  1       -1 0.21558728E-01 0.27591504E+03</pdfrwt>
<totfact> 0.42726507E+03</totfact>
</mgrwt>
</event>
<event>
 9    1  0.7957670E-001  0.2754104E+03  0.7818608E-02  0.1098222E+00
         -2   -1    0    0    0  501 -0.00000000000E+00  0.00000000000E+00  0.16462374552E+02  0.16462374552E+02  0.00000000000E+00 0.  1.
          2   -1    0    0  501    0  0.00000000000E+00 -0.00000000000E+00 -0.11518829413E+04  0.11518829413E+04  0.00000000000E+00 0.  1.
         35    2    1    2    0    0  0.00000000000E+00  0.71054273576E-14 -0.11354205667E+04  0.11683453158E+04  0.27541044584E+03 0.  0.
         25    2    3    3    0    0  0.21488710006E+02 -0.53348212469E+02 -0.58024186139E+03  0.59647535053E+03  0.12567589129E+03 0.  0.
         25    2    3    3    0    0 -0.21488710006E+02  0.53348212469E+02 -0.55517870534E+03  0.57186996530E+03  0.12451532404E+03 0.  0.
          5    1    4    4  502    0 -0.29647753594E+02  0.24660547256E+02 -0.26022657563E+03  0.26311041892E+03  0.47000000000E+01 0. -1.
         -5    1    4    4    0  502  0.51136463600E+02 -0.78008759724E+02 -0.32001528577E+03  0.33336493161E+03  0.47000000000E+01 0. -1.
          5    1    5    5  503    0  0.51878173829E+02  0.29282524844E+02 -0.24911121245E+03  0.25617825308E+03  0.47000000000E+01 0. -1.
         -5    1    5    5    0  503 -0.73366883836E+02  0.24065687625E+02 -0.30606749288E+03  0.31569171222E+03  0.47000000000E+01 0. -1.
<mgrwt>
<rscale>  0 0.27541045E+03</rscale>
<asrwt>0</asrwt>
<pdfrwt beam="1">  1        2 0.17721278E+00 0.27541045E+03</pdfrwt>
<pdfrwt beam="2">  1       -2 0.25326727E-02 0.27541045E+03</pdfrwt>
<totfact> 0.11592876E+04</totfact>
</mgrwt>
</event>
<event>
 9    1  0.7957670E-001  0.2782445E+03  0.7818608E-02  0.1096652E+00
         -2   -1    0    0    0  501 -0.00000000000E+00  0.00000000000E+00  0.14026140957E+02  0.14026140957E+02  0.00000000000E+00 0.  1.
          2   -1    0    0  501    0  0.00000000000E+00 -0.00000000000E+00 -0.13799238331E+04  0.13799238331E+04  0.00000000000E+00 0.  1.
         35    2    1    2    0    0  0.00000000000E+00  0.00000000000E+00 -0.13658976921E+04  0.13939499741E+04  0.27824454132E+03 0.  0.
         25    2    3    3    0    0 -0.92873950529E+01  0.59813966563E+02 -0.68599283190E+03  0.69996986090E+03  0.12533026146E+03 0.  0.
         25    2    3    3    0    0  0.92873950529E+01 -0.59813966563E+02 -0.67990486024E+03  0.69398011316E+03  0.12519509648E+03 0.  0.
          5    1    4    4  502    0 -0.86349114584E+01  0.71045883499E+02 -0.68383660634E+03  0.68758757510E+03  0.47000000000E+01 0. -1.
         -5    1    4    4    0  502 -0.65248359447E+00 -0.11231916936E+02 -0.21562255619E+01  0.12382285797E+02  0.47000000000E+01 0. -1.
          5    1    5    5  503    0  0.80967670321E+01 -0.47044596744E+01 -0.57743426861E+03  0.57752931886E+03  0.47000000000E+01 0.  1.
         -5    1    5    5    0  503  0.11906280208E+01 -0.55109506889E+02 -0.10247059163E+03  0.11645079430E+03  0.47000000000E+01 0.  1.
<mgrwt>
<rscale>  0 0.27824454E+03</rscale>
<asrwt>0</asrwt>
<pdfrwt beam="1">  1        2 0.21229598E+00 0.27824454E+03</pdfrwt>
<pdfrwt beam="2">  1       -2 0.21578677E-02 0.27824454E+03</pdfrwt>
<totfact> 0.10952804E+04</totfact>
</mgrwt>
</event>
<event>
 9    1  0.7957670E-001  0.2740189E+03  0.7818608E-02  0.1099001E+00
         -2   -1    0    0    0  501 -0.00000000000E+00  0.00000000000E+00  0.12717646260E+03  0.12717646260E+03  0.00000000000E+00 0.  1.
          2   -1    0    0  501    0  0.00000000000E+00 -0.00000000000E+00 -0.14760265426E+03  0.14760265426E+03  0.00000000000E+00 0.  1.
         35    2    1    2    0    0  0.00000000000E+00 -0.88817841970E-15 -0.20426191654E+02  0.27477911686E+03  0.27401885657E+03 0.  0.
         25    2    3    3    0    0  0.32922674163E+02  0.40648683559E+01  0.35379123091E+02  0.13415159287E+03  0.12507814314E+03 0.  0.
         25    2    3    3    0    0 -0.32922674163E+02 -0.40648683559E+01 -0.55805314745E+02  0.14062752399E+03  0.12474550782E+03 0.  0.
          5    1    4    4  502    0  0.79843020323E+02 -0.75531854686E+01  0.27726296068E+02  0.84987034298E+02  0.47000000000E+01 0.  1.
         -5    1    4    4    0  502 -0.46920346161E+02  0.11618053824E+02  0.76528270232E+01  0.49164558576E+02  0.47000000000E+01 0.  1.
          5    1    5    5  503    0 -0.36047787493E+02 -0.14034920637E+01  0.34481923180E+02  0.50124901988E+02  0.47000000000E+01 0.  1.
         -5    1    5    5    0  503  0.31251133309E+01 -0.26613762922E+01 -0.90287237924E+02  0.90502622001E+02  0.47000000000E+01 0.  1.
<mgrwt>
<rscale>  0 0.27401886E+03</rscale>
<asrwt>0</asrwt>
<pdfrwt beam="1">  1        2 0.22708101E-01 0.27401886E+03</pdfrwt>
<pdfrwt beam="2">  1       -2 0.19565610E-01 0.27401886E+03</pdfrwt>
<totfact> 0.52006762E+03</totfact>
</mgrwt>
</event>
<event>
 9    1  0.7957670E-001  0.2787298E+03  0.7818608E-02  0.1096385E+00
         -3   -1    0    0    0  501 -0.00000000000E+00  0.00000000000E+00  0.11058080907E+02  0.11058080907E+02  0.00000000000E+00 0. -1.
          3   -1    0    0  501    0  0.00000000000E+00 -0.00000000000E+00 -0.17564142013E+04  0.17564142013E+04  0.00000000000E+00 0. -1.
         35    2    1    2    0    0  0.35527136788E-14 -0.71054273576E-14 -0.17453561204E+04  0.17674722822E+04  0.27872976407E+03 0.  0.
         25    2    3    3    0    0  0.18924777262E+02  0.37729250989E+02 -0.57140144338E+03  0.58610036673E+03  0.12341955601E+03 0.  0.
         25    2    3    3    0    0 -0.18924777262E+02 -0.37729250989E+02 -0.11739546770E+04  0.11813719154E+04  0.12525324520E+03 0.  0.
          5    1    4    4  502    0  0.44220832171E+02  0.73709015194E+02 -0.36536097499E+03  0.37536546586E+03  0.47000000000E+01 0. -1.
         -5    1    4    4    0  502 -0.25296054910E+02 -0.35979764205E+02 -0.20604046840E+03  0.21073490087E+03  0.47000000000E+01 0. -1.
          5    1    5    5  503    0  0.22285866225E+02 -0.53868187008E+02 -0.26720940287E+03  0.27353500030E+03  0.47000000000E+01 0.  1.
         -5    1    5    5    0  503 -0.41210643487E+02  0.16138936019E+02 -0.90674527411E+03  0.90783691515E+03  0.47000000000E+01 0.  1.
<mgrwt>
<rscale>  0 0.27872976E+03</rscale>
<asrwt>0</asrwt>
<pdfrwt beam="1">  1        3 0.27021747E+00 0.27872976E+03</pdfrwt>
<pdfrwt beam="2">  1       -3 0.17012438E-02 0.27872976E+03</pdfrwt>
<totfact> 0.19862812E+02</totfact>
</mgrwt>
</event>
<event>
 9    1  0.7957670E-001  0.2745185E+03  0.7818608E-02  0.1098721E+00
          3   -1    0    0  501    0  0.00000000000E+00  0.00000000000E+00  0.80048595763E+03  0.80048595763E+03  0.00000000000E+00 0.  1.
         -3   -1    0    0    0  501 -0.00000000000E+00 -0.00000000000E+00 -0.23535825259E+02  0.23535825259E+02  0.00000000000E+00 0.  1.
         35    2    1    2    0    0  0.35527136788E-14  0.00000000000E+00  0.77695013237E+03  0.82402178289E+03  0.27451847021E+03 0.  0.
         25    2    3    3    0    0  0.26547514722E+02  0.44847927640E+02  0.33130690538E+03  0.35828933971E+03  0.12605902683E+03 0.  0.
         25    2    3    3    0    0 -0.26547514722E+02 -0.44847927640E+02  0.44564322699E+03  0.46573244318E+03  0.12487079609E+03 0.  0.
          5    1    4    4  502    0  0.34426142431E+02 -0.49726608460E+01  0.15370691926E+02  0.38317552229E+02  0.47000000000E+01 0.  1.
         -5    1    4    4    0  502 -0.78786277085E+01  0.49820588486E+02  0.31593621345E+03  0.31997178748E+03  0.47000000000E+01 0.  1.
          5    1    5    5  503    0  0.11456310584E+02  0.21264460903E+02  0.30229555581E+03  0.30329542927E+03  0.47000000000E+01 0. -1.
         -5    1    5    5    0  503 -0.38003825306E+02 -0.66112388543E+02  0.14334767118E+03  0.16243701391E+03  0.47000000000E+01 0. -1.
<mgrwt>
<rscale>  0 0.27451847E+03</rscale>
<asrwt>0</asrwt>
<pdfrwt beam="1">  1        3 0.12315166E+00 0.27451847E+03</pdfrwt>
<pdfrwt beam="2">  1       -3 0.36208968E-02 0.27451847E+03</pdfrwt>
<totfact> 0.53643549E+02</totfact>
</mgrwt>
</event>
<event>
 9    1  0.7957670E-001  0.2735992E+03  0.7818608E-02  0.1099237E+00
          2   -1    0    0  501    0  0.00000000000E+00  0.00000000000E+00  0.21481821517E+04  0.21481821517E+04  0.00000000000E+00 0.  1.
         -2   -1    0    0    0  501 -0.00000000000E+00 -0.00000000000E+00 -0.87116129255E+01  0.87116129255E+01  0.00000000000E+00 0.  1.
         35    2    1    2    0    0  0.17763568394E-14  0.00000000000E+00  0.21394705388E+04  0.21568937647E+04  0.27359920613E+03 0.  0.
         25    2    3    3    0    0 -0.38682015544E+01 -0.46668430622E+02  0.12372912736E+04  0.12444779207E+04  0.12507075596E+03 0.  0.
         25    2    3    3    0    0  0.38682015544E+01  0.46668430622E+02  0.90217926518E+03  0.91241584392E+03  0.12799351674E+03 0.  0.
          5    1    4    4  502    0  0.46706375519E+02 -0.17640460624E+02  0.94828022167E+03  0.94960525492E+03  0.47000000000E+01 0.  1.
         -5    1    4    4    0  502 -0.50574577074E+02 -0.29027969998E+02  0.28901105196E+03  0.29487266581E+03  0.47000000000E+01 0.  1.
          5    1    5    5  503    0 -0.11506493717E+02 -0.40991765822E+02  0.41010963619E+03  0.41234054853E+03  0.47000000000E+01 0.  1.
         -5    1    5    5    0  503  0.15374695271E+02  0.87660196444E+02  0.49206962899E+03  0.50007529540E+03  0.47000000000E+01 0.  1.
<mgrwt>
<rscale>  0 0.27359921E+03</rscale>
<asrwt>0</asrwt>
<pdfrwt beam="1">  1        2 0.33048914E+00 0.27359921E+03</pdfrwt>
<pdfrwt beam="2">  1       -2 0.13402499E-02 0.27359921E+03</pdfrwt>
<totfact> 0.86301422E+03</totfact>
</mgrwt>
</event>
<event>
 9    1  0.7957670E-001  0.2787523E+03  0.7818608E-02  0.1096372E+00
         -2   -1    0    0    0  501 -0.00000000000E+00  0.00000000000E+00  0.10763476595E+02  0.10763476595E+02  0.00000000000E+00 0. -1.
          2   -1    0    0  501    0  0.00000000000E+00 -0.00000000000E+00 -0.18047801293E+04  0.18047801293E+04  0.00000000000E+00 0. -1.
         35    2    1    2    0    0  0.00000000000E+00  0.00000000000E+00 -0.17940166527E+04  0.18155436059E+04  0.27875228200E+03 0.  0.
         25    2    3    3    0    0 -0.23659205904E+01 -0.56121723430E+02 -0.10689867122E+04  0.10777455630E+04  0.12509061627E+03 0.  0.
         25    2    3    3    0    0  0.23659205904E+01  0.56121723430E+02 -0.72502994050E+03  0.73779804289E+03  0.12458849085E+03 0.  0.
          5    1    4    4  502    0  0.14011558759E+02 -0.15319355904E+02 -0.25048411161E+02  0.32871254097E+02  0.47000000000E+01 0.  1.
         -5    1    4    4    0  502 -0.16377479350E+02 -0.40802367526E+02 -0.10439383010E+04  0.10448743089E+04  0.47000000000E+01 0.  1.
          5    1    5    5  503    0  0.85373814445E+01  0.51996182966E+02 -0.10377550705E+03  0.11648148260E+03  0.47000000000E+01 0.  1.
         -5    1    5    5    0  503 -0.61714608542E+01  0.41255404644E+01 -0.62125443344E+03  0.62131656029E+03  0.47000000000E+01 0.  1.
<mgrwt>
<rscale>  0 0.27875228E+03</rscale>
<asrwt>0</asrwt>
<pdfrwt beam="1">  1        2 0.27765842E+00 0.27875228E+03</pdfrwt>
<pdfrwt beam="2">  1       -2 0.16559199E-02 0.27875228E+03</pdfrwt>
<totfact> 0.96050979E+03</totfact>
</mgrwt>
</event>
<event>
 9    1  0.7957670E-001  0.2754420E+03  0.7818608E-02  0.1098205E+00
         -2   -1    0    0    0  501 -0.00000000000E+00  0.00000000000E+00  0.89295055406E+01  0.89295055406E+01  0.00000000000E+00 0. -1.
          2   -1    0    0  501    0  0.00000000000E+00 -0.00000000000E+00 -0.21240903280E+04  0.21240903280E+04  0.00000000000E+00 0. -1.
         35    2    1    2    0    0  0.00000000000E+00  0.71054273576E-14 -0.21151608225E+04  0.21330198336E+04  0.27544201824E+03 0.  0.
         25    2    3    3    0    0 -0.49461565415E+01  0.56937163840E+02 -0.10317073016E+04  0.10408318992E+04  0.12507909950E+03 0.  0.
         25    2    3    3    0    0  0.49461565415E+01 -0.56937163840E+02 -0.10834535209E+04  0.10921879344E+04  0.12544579292E+03 0.  0.
          5    1    4    4  502    0 -0.59513157046E+02  0.55585261455E+02 -0.54925630912E+03  0.55528021778E+03  0.47000000000E+01 0.  1.
         -5    1    4    4    0  502  0.54567000505E+02  0.13519023849E+01 -0.48245099245E+03  0.48555168139E+03  0.47000000000E+01 0.  1.
          5    1    5    5  503    0 -0.36665792167E+02 -0.34795064585E+02 -0.16783007400E+03  0.17533995715E+03  0.47000000000E+01 0. -1.
         -5    1    5    5    0  503  0.41611948708E+02 -0.22142099255E+02 -0.91562344693E+03  0.91684797726E+03  0.47000000000E+01 0. -1.
<mgrwt>
<rscale>  0 0.27544202E+03</rscale>
<asrwt>0</asrwt>
<pdfrwt beam="1">  1        2 0.32678312E+00 0.27544202E+03</pdfrwt>
<pdfrwt beam="2">  1       -2 0.13737701E-02 0.27544202E+03</pdfrwt>
<totfact> 0.85729296E+03</totfact>
</mgrwt>
</event>
<event>
 9    1  0.7957670E-001  0.2740635E+03  0.7818608E-02  0.1098976E+00
          2   -1    0    0  501    0  0.00000000000E+00  0.00000000000E+00  0.39030508292E+04  0.39030508292E+04  0.00000000000E+00 0. -1.
         -2   -1    0    0    0  501 -0.00000000000E+00 -0.00000000000E+00 -0.48110303875E+01  0.48110303875E+01  0.00000000000E+00 0. -1.
         35    2    1    2    0    0 -0.35527136788E-14  0.14210854715E-13  0.38982397988E+04  0.39078618596E+04  0.27406346815E+03 0.  0.
         25    2    3    3    0    0  0.13890535983E+02 -0.37826679108E+02  0.13522778542E+04  0.13585189578E+04  0.12367117332E+03 0.  0.
         25    2    3    3    0    0 -0.13890535983E+02  0.37826679108E+02  0.25459619445E+04  0.25493429017E+04  0.12491278085E+03 0.  0.
          5    1    4    4  502    0  0.20144948774E+01  0.41949168637E+02  0.27640723854E+03  0.27961910245E+03  0.47000000000E+01 0. -1.
         -5    1    4    4    0  502  0.11876041106E+02 -0.79775847745E+02  0.10758706157E+04  0.10788998554E+04  0.47000000000E+01 0. -1.
          5    1    5    5  503    0  0.22688367847E+02  0.69716433659E+02  0.10398207040E+04  0.10424127444E+04  0.47000000000E+01 0.  1.
         -5    1    5    5    0  503 -0.36578903831E+02 -0.31889754552E+02  0.15061412405E+04  0.15069301573E+04  0.47000000000E+01 0.  1.
<mgrwt>
<rscale>  0 0.27406347E+03</rscale>
<asrwt>0</asrwt>
<pdfrwt beam="1">  1        2 0.60046683E+00 0.27406347E+03</pdfrwt>
<pdfrwt beam="2">  1       -2 0.74016164E-03 0.27406347E+03</pdfrwt>
<totfact> 0.17462991E+03</totfact>
</mgrwt>
</event>
<event>
 9    1  0.7957670E-001  0.2874117E+03  0.7818608E-02  0.1091708E+00
         -1   -1    0    0    0  501 -0.00000000000E+00  0.00000000000E+00  0.38337841985E+02  0.38337841985E+02  0.00000000000E+00 0. -1.
          1   -1    0    0  501    0  0.00000000000E+00 -0.00000000000E+00 -0.53866825451E+03  0.53866825451E+03  0.00000000000E+00 0. -1.
         35    2    1    2    0    0  0.00000000000E+00 -0.71054273576E-14 -0.50033041252E+03  0.57700609649E+03  0.28741174940E+03 0.  0.
         25    2    3    3    0    0  0.67208645226E+02 -0.80818148073E+01 -0.20976052041E+03  0.25382981198E+03  0.12588796529E+03 0.  0.
         25    2    3    3    0    0 -0.67208645226E+02  0.80818148073E+01 -0.29056989212E+03  0.32317628452E+03  0.12421646809E+03 0.  0.
          5    1    4    4  502    0  0.28393515819E+02  0.63625034217E+01  0.92469291728E+01  0.30891242926E+02  0.47000000000E+01 0. -1.
         -5    1    4    4    0  502  0.38815129407E+02 -0.14444318229E+02 -0.21900744958E+03  0.22293856905E+03  0.47000000000E+01 0. -1.
          5    1    5    5  503    0 -0.67323746314E+02 -0.48964463113E+02 -0.15463822750E+03  0.17568459486E+03  0.47000000000E+01 0.  1.
         -5    1    5    5    0  503  0.11510108780E+00  0.57046277920E+02 -0.13593166462E+03  0.14749168966E+03  0.47000000000E+01 0.  1.
<mgrwt>
<rscale>  0 0.28741175E+03</rscale>
<asrwt>0</asrwt>
<pdfrwt beam="1">  1        1 0.82872044E-01 0.28741175E+03</pdfrwt>
<pdfrwt beam="2">  1       -1 0.58981292E-02 0.28741175E+03</pdfrwt>
<totfact> 0.55846270E+03</totfact>
</mgrwt>
</event>
<event>
 9    1  0.7957670E-001  0.2714866E+03  0.7818608E-02  0.1100432E+00
          2   -1    0    0  501    0  0.00000000000E+00  0.00000000000E+00  0.75885121929E+03  0.75885121929E+03  0.00000000000E+00 0.  1.
         -2   -1    0    0    0  501 -0.00000000000E+00 -0.00000000000E+00 -0.24281761400E+02  0.24281761400E+02  0.00000000000E+00 0.  1.
         35    2    1    2    0    0  0.71054273576E-14  0.35527136788E-14  0.73456945789E+03  0.78313298069E+03  0.27148660552E+03 0.  0.
         25    2    3    3    0    0  0.40430074477E+02 -0.20708785479E+02  0.44099950043E+03  0.46058252520E+03  0.12486896500E+03 0.  0.
         25    2    3    3    0    0 -0.40430074477E+02  0.20708785479E+02  0.29356995747E+03  0.32255045550E+03  0.12566635070E+03 0.  0.
          5    1    4    4  502    0  0.49943964679E+02  0.21190459740E+02  0.38976892928E+03  0.39355475277E+03  0.47000000000E+01 0.  1.
         -5    1    4    4    0  502 -0.95138902017E+01 -0.41899245219E+02  0.51230571146E+02  0.67027772428E+02  0.47000000000E+01 0.  1.
          5    1    5    5  503    0 -0.70573190886E+02  0.43539626377E+02  0.25560734018E+03  0.26876286330E+03  0.47000000000E+01 0.  1.
         -5    1    5    5    0  503  0.30143116409E+02 -0.22830840899E+02  0.37962617287E+02  0.53787592196E+02  0.47000000000E+01 0.  1.
<mgrwt>
<rscale>  0 0.27148661E+03</rscale>
<asrwt>0</asrwt>
<pdfrwt beam="1">  1        2 0.11674632E+00 0.27148661E+03</pdfrwt>
<pdfrwt beam="2">  1       -2 0.37356562E-02 0.27148661E+03</pdfrwt>
<totfact> 0.11511482E+04</totfact>
</mgrwt>
</event>
<event>
 9    1  0.7957670E-001  0.2725303E+03  0.7818608E-02  0.1099840E+00
         -1   -1    0    0    0  501 -0.00000000000E+00  0.00000000000E+00  0.49145046404E+02  0.49145046404E+02  0.00000000000E+00 0.  1.
          1   -1    0    0  501    0  0.00000000000E+00 -0.00000000000E+00 -0.37782433900E+03  0.37782433900E+03  0.00000000000E+00 0.  1.
         35    2    1    2    0    0  0.00000000000E+00  0.00000000000E+00 -0.32867929260E+03  0.42696938541E+03  0.27253032619E+03 0.  0.
         25    2    3    3    0    0 -0.35082995184E+02 -0.32596521436E+02 -0.21116172572E+03  0.24906047315E+03  0.12307922291E+03 0.  0.
         25    2    3    3    0    0  0.35082995184E+02  0.32596521436E+02 -0.11751756688E+03  0.17790891226E+03  0.12469102926E+03 0.  0.
          5    1    4    4  502    0 -0.79141238700E+02 -0.10536475426E+02 -0.10557488210E+03  0.13244809817E+03  0.47000000000E+01 0.  1.
         -5    1    4    4    0  502  0.44058243516E+02 -0.22060046010E+02 -0.10558684362E+03  0.11661237498E+03  0.47000000000E+01 0.  1.
          5    1    5    5  503    0  0.38323369236E+02 -0.42295123544E+02 -0.62740986528E+02  0.84947510238E+02  0.47000000000E+01 0.  1.
         -5    1    5    5    0  503 -0.32403740526E+01  0.74891644979E+02 -0.54776580347E+02  0.92961402024E+02  0.47000000000E+01 0.  1.
<mgrwt>
<rscale>  0 0.27253033E+03</rscale>
<asrwt>0</asrwt>
<pdfrwt beam="1">  1        1 0.58126822E-01 0.27253033E+03</pdfrwt>
<pdfrwt beam="2">  1       -1 0.75607764E-02 0.27253033E+03</pdfrwt>
<totfact> 0.60852954E+03</totfact>
</mgrwt>
</event>
<event>
 9    1  0.7957670E-001  0.2748091E+03  0.7818608E-02  0.1098558E+00
         -1   -1    0    0    0  501 -0.00000000000E+00  0.00000000000E+00  0.66955059442E+01  0.66955059442E+01  0.00000000000E+00 0. -1.
          1   -1    0    0  501    0  0.00000000000E+00 -0.00000000000E+00 -0.28198044125E+04  0.28198044125E+04  0.00000000000E+00 0. -1.
         35    2    1    2    0    0 -0.71054273576E-14  0.00000000000E+00 -0.28131089066E+04  0.28264999185E+04  0.27480914981E+03 0.  0.
         25    2    3    3    0    0 -0.18743759501E+02  0.42439299333E+02 -0.17761890851E+04  0.17811772007E+04  0.12486845817E+03 0.  0.
         25    2    3    3    0    0  0.18743759501E+02 -0.42439299333E+02 -0.10369198215E+04  0.10453227177E+04  0.12387269805E+03 0.  0.
          5    1    4    4  502    0 -0.88852535461E+01  0.80179374457E+02 -0.15037706413E+04  0.15059402085E+04  0.47000000000E+01 0.  1.
         -5    1    4    4    0  502 -0.98585059552E+01 -0.37740075125E+02 -0.27241844373E+03  0.27523699224E+03  0.47000000000E+01 0.  1.
          5    1    5    5  503    0 -0.28655118882E+00  0.40400600396E+02 -0.20063212482E+03  0.20471353188E+03  0.47000000000E+01 0. -1.
         -5    1    5    5    0  503  0.19030310690E+02 -0.82839899729E+02 -0.83628769667E+03  0.84060918584E+03  0.47000000000E+01 0. -1.
<mgrwt>
<rscale>  0 0.27480915E+03</rscale>
<asrwt>0</asrwt>
<pdfrwt beam="1">  1        1 0.43381592E+00 0.27480915E+03</pdfrwt>
<pdfrwt beam="2">  1       -1 0.10300782E-02 0.27480915E+03</pdfrwt>
<totfact> 0.17384929E+03</totfact>
</mgrwt>
</event>
<event>
 9    1  0.7957670E-001  0.2641134E+03  0.7818608E-02  0.1104697E+00
          2   -1    0    0  501    0  0.00000000000E+00  0.00000000000E+00  0.56784143336E+03  0.56784143336E+03  0.00000000000E+00 0.  1.
         -2   -1    0    0    0  501 -0.00000000000E+00 -0.00000000000E+00 -0.30710985302E+02  0.30710985302E+02  0.00000000000E+00 0.  1.
         35    2    1    2    0    0  0.71054273576E-14  0.35527136788E-14  0.53713044805E+03  0.59855241866E+03  0.26411338409E+03 0.  0.
         25    2    3    3    0    0  0.39449548157E+02 -0.15846505091E+02  0.28310728355E+03  0.31238137018E+03  0.12500003146E+03 0.  0.
         25    2    3    3    0    0 -0.39449548157E+02  0.15846505091E+02  0.25402316451E+03  0.28617104848E+03  0.12473460749E+03 0.  0.
          5    1    4    4  502    0 -0.58975067855E+01  0.42377623327E+02  0.18257680861E+03  0.18758204762E+03  0.47000000000E+01 0. -1.
         -5    1    4    4    0  502  0.45347054943E+02 -0.58224128418E+02  0.10053047494E+03  0.12479932257E+03  0.47000000000E+01 0. -1.
          5    1    5    5  503    0 -0.51601458931E+02 -0.19603795754E+02  0.38742573315E+02  0.67602487816E+02  0.47000000000E+01 0.  1.
         -5    1    5    5    0  503  0.12151910774E+02  0.35450300846E+02  0.21528059119E+03  0.21856856066E+03  0.47000000000E+01 0.  1.
<mgrwt>
<rscale>  0 0.26411338E+03</rscale>
<asrwt>0</asrwt>
<pdfrwt beam="1">  1        2 0.87360212E-01 0.26411338E+03</pdfrwt>
<pdfrwt beam="2">  1       -2 0.47247674E-02 0.26411338E+03</pdfrwt>
<totfact> 0.11401755E+04</totfact>
</mgrwt>
</event>
<event>
 9    1  0.7957670E-001  0.2769655E+03  0.7818608E-02  0.1097358E+00
         -1   -1    0    0    0  501 -0.00000000000E+00  0.00000000000E+00  0.10725543084E+03  0.10725543084E+03  0.00000000000E+00 0.  1.
          1   -1    0    0  501    0  0.00000000000E+00 -0.00000000000E+00 -0.17880190666E+03  0.17880190666E+03  0.00000000000E+00 0.  1.
         35    2    1    2    0    0  0.35527136788E-14 -0.71054273576E-14 -0.71546475820E+02  0.28605733749E+03  0.27696552517E+03 0.  0.
         25    2    3    3    0    0 -0.25556743070E+02  0.48943839487E+02 -0.74798823194E+02  0.15559757929E+03  0.12476816978E+03 0.  0.
         25    2    3    3    0    0  0.25556743070E+02 -0.48943839487E+02  0.32523473744E+01  0.13045975820E+03  0.11815466223E+03 0.  0.
          5    1    4    4  502    0 -0.39441741415E+02 -0.33954056211E+02 -0.28778771914E+02  0.59655985550E+02  0.47000000000E+01 0.  1.
         -5    1    4    4    0  502  0.13884998344E+02  0.82897895698E+02 -0.46020051280E+02  0.95941593743E+02  0.47000000000E+01 0.  1.
          5    1    5    5  503    0 -0.29687626601E+02  0.23186959064E+02  0.99263990776E+01  0.39237910782E+02  0.47000000000E+01 0. -1.
         -5    1    5    5    0  503  0.55244369671E+02 -0.72130798551E+02 -0.66740517032E+01  0.91221847417E+02  0.47000000000E+01 0. -1.
<mgrwt>
<rscale>  0 0.27696553E+03</rscale>
<asrwt>0</asrwt>
<pdfrwt beam="1">  1        1 0.27507985E-01 0.27696553E+03</pdfrwt>
<pdfrwt beam="2">  1       -1 0.16500836E-01 0.27696553E+03</pdfrwt>
<totfact> 0.46365983E+03</totfact>
</mgrwt>
</event>
<event>
 9    1  0.7957670E-001  0.2767211E+03  0.7818608E-02  0.1097493E+00
         -2   -1    0    0    0  501 -0.00000000000E+00  0.00000000000E+00  0.17694248276E+02  0.17694248276E+02  0.00000000000E+00 0.  1.
          2   -1    0    0  501    0  0.00000000000E+00 -0.00000000000E+00 -0.10819130443E+04  0.10819130443E+04  0.00000000000E+00 0.  1.
         35    2    1    2    0    0  0.71054273576E-14  0.00000000000E+00 -0.10642187960E+04  0.10996072925E+04  0.27672107270E+03 0.  0.
         25    2    3    3    0    0  0.32405906150E+01 -0.57099336949E+02 -0.54550884970E+03  0.56256754200E+03  0.12502599130E+03 0.  0.
         25    2    3    3    0    0 -0.32405906150E+01  0.57099336949E+02 -0.51870994628E+03  0.53703975053E+03  0.12681028971E+03 0.  0.
          5    1    4    4  502    0  0.51422556702E+02 -0.70363147054E+02 -0.35011699552E+03  0.36083133505E+03  0.47000000000E+01 0. -1.
         -5    1    4    4    0  502 -0.48181966087E+02  0.13263810106E+02 -0.19539185419E+03  0.20173620695E+03  0.47000000000E+01 0. -1.
          5    1    5    5  503    0  0.51152798596E+02  0.62388471727E+02 -0.24822581520E+03  0.26104994836E+03  0.47000000000E+01 0.  1.
         -5    1    5    5    0  503 -0.54393389211E+02 -0.52891347785E+01 -0.27048413108E+03  0.27598980217E+03  0.47000000000E+01 0.  1.
<mgrwt>
<rscale>  0 0.27672107E+03</rscale>
<asrwt>0</asrwt>
<pdfrwt beam="1">  1        2 0.16644823E+00 0.27672107E+03</pdfrwt>
<pdfrwt beam="2">  1       -2 0.27221910E-02 0.27672107E+03</pdfrwt>
<totfact> 0.11446222E+04</totfact>
</mgrwt>
</event>
<event>
 9    1  0.7957670E-001  0.2812177E+03  0.7818608E-02  0.1095026E+00
          1   -1    0    0  501    0  0.00000000000E+00  0.00000000000E+00  0.26361960604E+04  0.26361960604E+04  0.00000000000E+00 0. -1.
         -1   -1    0    0    0  501 -0.00000000000E+00 -0.00000000000E+00 -0.74997617126E+01  0.74997617126E+01  0.00000000000E+00 0. -1.
         35    2    1    2    0    0  0.00000000000E+00 -0.35527136788E-14  0.26286962987E+04  0.26436958221E+04  0.28121765436E+03 0.  0.
         25    2    3    3    0    0  0.14366994874E+02 -0.16428946028E+02  0.18254810718E+04  0.18298618752E+04  0.12464757594E+03 0.  0.
         25    2    3    3    0    0 -0.14366994874E+02  0.16428946028E+02  0.80321522689E+03  0.81383394686E+03  0.12920786180E+03 0.  0.
          5    1    4    4  502    0 -0.33191609072E+02 -0.20435246135E+02  0.15308377704E+04  0.15313411284E+04  0.47000000000E+01 0.  1.
         -5    1    4    4    0  502  0.47558603946E+02  0.40063001070E+01  0.29464330138E+03  0.29852074685E+03  0.47000000000E+01 0.  1.
          5    1    5    5  503    0 -0.47099857055E+02  0.57057461268E+02  0.36151259912E+03  0.36903577027E+03  0.47000000000E+01 0.  1.
         -5    1    5    5    0  503  0.32732862181E+02 -0.40628515240E+02  0.44170262777E+03  0.44479817659E+03  0.47000000000E+01 0.  1.
<mgrwt>
<rscale>  0 0.28121765E+03</rscale>
<asrwt>0</asrwt>
<pdfrwt beam="1">  1        1 0.40556788E+00 0.28121765E+03</pdfrwt>
<pdfrwt beam="2">  1       -1 0.11538116E-02 0.28121765E+03</pdfrwt>
<totfact> 0.19643207E+03</totfact>
</mgrwt>
</event>
<event>
 9    1  0.7957670E-001  0.2731042E+03  0.7818608E-02  0.1099516E+00
         -2   -1    0    0    0  501 -0.00000000000E+00  0.00000000000E+00  0.29275290345E+03  0.29275290345E+03  0.00000000000E+00 0.  1.
          2   -1    0    0  501    0  0.00000000000E+00 -0.00000000000E+00 -0.63693551104E+02  0.63693551104E+02  0.00000000000E+00 0.  1.
         35    2    1    2    0    0  0.00000000000E+00  0.00000000000E+00  0.22905935235E+03  0.35644645455E+03  0.27310417072E+03 0.  0.
         25    2    3    3    0    0 -0.18298158478E+02  0.41178719199E+02  0.17516328672E+03  0.22033435781E+03  0.12583537936E+03 0.  0.
         25    2    3    3    0    0  0.18298158478E+02 -0.41178719199E+02  0.53896065624E+02  0.13611209674E+03  0.11658133414E+03 0.  0.
          5    1    4    4  502    0  0.35278059899E+02 -0.20013014694E+02  0.20872728299E+02  0.45856548649E+02  0.47000000000E+01 0.  1.
         -5    1    4    4    0  502 -0.53576218377E+02  0.61191733893E+02  0.15429055842E+03  0.17447780916E+03  0.47000000000E+01 0.  1.
          5    1    5    5  503    0 -0.20888568175E+02  0.49677357549E+01  0.69934815391E+02  0.73307428564E+02  0.47000000000E+01 0.  1.
         -5    1    5    5    0  503  0.39186726653E+02 -0.46146454954E+02 -0.16038749767E+02  0.62804668176E+02  0.47000000000E+01 0.  1.
<mgrwt>
<rscale>  0 0.27310417E+03</rscale>
<asrwt>0</asrwt>
<pdfrwt beam="1">  1        2 0.97990081E-02 0.27310417E+03</pdfrwt>
<pdfrwt beam="2">  1       -2 0.45038907E-01 0.27310417E+03</pdfrwt>
<totfact> 0.30948143E+03</totfact>
</mgrwt>
</event>
<event>
 9    1  0.7957670E-001  0.2768498E+03  0.7818608E-02  0.1097422E+00
         -2   -1    0    0    0  501 -0.00000000000E+00  0.00000000000E+00  0.29589488753E+02  0.29589488753E+02  0.00000000000E+00 0. -1.
          2   -1    0    0  501    0  0.00000000000E+00 -0.00000000000E+00 -0.64757657418E+03  0.64757657418E+03  0.00000000000E+00 0. -1.
         35    2    1    2    0    0  0.35527136788E-14  0.00000000000E+00 -0.61798708543E+03  0.67716606293E+03  0.27684984926E+03 0.  0.
         25    2    3    3    0    0 -0.18190874847E+02  0.42647508008E+02 -0.21999132209E+03  0.25736858367E+03  0.12527046020E+03 0.  0.
         25    2    3    3    0    0  0.18190874847E+02 -0.42647508008E+02 -0.39799576334E+03  0.41979747926E+03  0.12521812206E+03 0.  0.
          5    1    4    4  502    0 -0.11480807173E+02  0.53602132013E+02 -0.22561091536E+02  0.59465034608E+02  0.47000000000E+01 0.  1.
         -5    1    4    4    0  502 -0.67100676740E+01 -0.10954624004E+02 -0.19743023055E+03  0.19790354906E+03  0.47000000000E+01 0.  1.
          5    1    5    5  503    0  0.68316185182E+02 -0.27814285863E+02 -0.16242659957E+03  0.17845230708E+03  0.47000000000E+01 0.  1.
         -5    1    5    5    0  503 -0.50125310335E+02 -0.14833222145E+02 -0.23556916377E+03  0.24134517218E+03  0.47000000000E+01 0.  1.
<mgrwt>
<rscale>  0 0.27684985E+03</rscale>
<asrwt>0</asrwt>
<pdfrwt beam="1">  1        2 0.99627157E-01 0.27684985E+03</pdfrwt>
<pdfrwt beam="2">  1       -2 0.45522294E-02 0.27684985E+03</pdfrwt>
<totfact> 0.10370016E+04</totfact>
</mgrwt>
</event>
<event>
 9    1  0.7957670E-001  0.2733012E+03  0.7818608E-02  0.1099405E+00
          2   -1    0    0  501    0  0.00000000000E+00  0.00000000000E+00  0.41502737948E+02  0.41502737948E+02  0.00000000000E+00 0.  1.
         -2   -1    0    0    0  501 -0.00000000000E+00 -0.00000000000E+00 -0.44993145216E+03  0.44993145216E+03  0.00000000000E+00 0.  1.
         35    2    1    2    0    0  0.71054273576E-14  0.00000000000E+00 -0.40842871421E+03  0.49143419011E+03  0.27330120493E+03 0.  0.
         25    2    3    3    0    0  0.44760893258E+02 -0.49137393603E+01 -0.25514893378E+03  0.28686142170E+03  0.12312925913E+03 0.  0.
         25    2    3    3    0    0 -0.44760893258E+02  0.49137393603E+01 -0.15327978043E+03  0.20457276840E+03  0.12777967007E+03 0.  0.
          5    1    4    4  502    0  0.82451726268E+02  0.17305428615E+02 -0.19370572704E+03  0.21128597613E+03  0.47000000000E+01 0.  1.
         -5    1    4    4    0  502 -0.37690833010E+02 -0.22219167976E+02 -0.61443206740E+02  0.75575445570E+02  0.47000000000E+01 0.  1.
          5    1    5    5  503    0  0.36557781776E+02  0.14377662542E+02 -0.97980665738E+02  0.10566687961E+03  0.47000000000E+01 0. -1.
         -5    1    5    5    0  503 -0.81318675034E+02 -0.94639231814E+01 -0.55299114694E+02  0.98905888790E+02  0.47000000000E+01 0. -1.
<mgrwt>
<rscale>  0 0.27330120E+03</rscale>
<asrwt>0</asrwt>
<pdfrwt beam="1">  1        2 0.63850365E-02 0.27330120E+03</pdfrwt>
<pdfrwt beam="2">  1       -2 0.69220224E-01 0.27330120E+03</pdfrwt>
<totfact> 0.22190457E+03</totfact>
</mgrwt>
</event>
<event>
 9    1  0.7957670E-001  0.2782449E+03  0.7818608E-02  0.1096651E+00
         -1   -1    0    0    0  501 -0.00000000000E+00  0.00000000000E+00  0.14944268693E+03  0.14944268693E+03  0.00000000000E+00 0.  1.
          1   -1    0    0  501    0  0.00000000000E+00 -0.00000000000E+00 -0.12951487743E+03  0.12951487743E+03  0.00000000000E+00 0.  1.
         35    2    1    2    0    0  0.00000000000E+00  0.00000000000E+00  0.19927809497E+02  0.27895756436E+03  0.27824486540E+03 0.  0.
         25    2    3    3    0    0  0.65531437788E+01 -0.35151180462E+02 -0.39600021932E+02  0.13568523446E+03  0.12475484733E+03 0.  0.
         25    2    3    3    0    0 -0.65531437788E+01  0.35151180462E+02  0.59527831429E+02  0.14327232990E+03  0.12531898747E+03 0.  0.
          5    1    4    4  502    0  0.26065006938E+02  0.20248043063E+02 -0.63800949589E+02  0.71986241762E+02  0.47000000000E+01 0.  1.
         -5    1    4    4    0  502 -0.19511863159E+02 -0.55399223525E+02  0.24200927657E+02  0.63698992697E+02  0.47000000000E+01 0.  1.
          5    1    5    5  503    0  0.84421159053E+01  0.17668897953E+02  0.96982943988E+02  0.99051707206E+02  0.47000000000E+01 0.  1.
         -5    1    5    5    0  503 -0.14995259684E+02  0.17482282509E+02 -0.37455112559E+02  0.44220622695E+02  0.47000000000E+01 0.  1.
<mgrwt>
<rscale>  0 0.27824487E+03</rscale>
<asrwt>0</asrwt>
<pdfrwt beam="1">  1        1 0.19925366E-01 0.27824487E+03</pdfrwt>
<pdfrwt beam="2">  1       -1 0.22991182E-01 0.27824487E+03</pdfrwt>
<totfact> 0.40875413E+03</totfact>
</mgrwt>
</event>
<event>
 9    1  0.7957670E-001  0.2733137E+03  0.7818608E-02  0.1099398E+00
         -2   -1    0    0    0  501 -0.00000000000E+00  0.00000000000E+00  0.91913331173E+01  0.91913331173E+01  0.00000000000E+00 0.  1.
          2   -1    0    0  501    0  0.00000000000E+00 -0.00000000000E+00 -0.20318156074E+04  0.20318156074E+04  0.00000000000E+00 0.  1.
         35    2    1    2    0    0  0.35527136788E-14  0.35527136788E-14 -0.20226242743E+04  0.20410069405E+04  0.27331369582E+03 0.  0.
         25    2    3    3    0    0 -0.31463162227E+01  0.23762819094E+02 -0.69913187410E+03  0.71146594634E+03  0.12970676367E+03 0.  0.
         25    2    3    3    0    0  0.31463162227E+01 -0.23762819094E+02 -0.13234924002E+04  0.13295409942E+04  0.12438870922E+03 0.  0.
          5    1    4    4  502    0 -0.64070472313E+02  0.60891156055E+01 -0.43629588573E+03  0.44104227989E+03  0.47000000000E+01 0. -1.
         -5    1    4    4    0  502  0.60924156090E+02  0.17673703488E+02 -0.26283598838E+03  0.27042366645E+03  0.47000000000E+01 0. -1.
          5    1    5    5  503    0 -0.28435712454E+02 -0.66992950808E+02 -0.75666846264E+03  0.76017491247E+03  0.47000000000E+01 0. -1.
         -5    1    5    5    0  503  0.31582028676E+02  0.43230131714E+02 -0.56682393755E+03  0.56936608171E+03  0.47000000000E+01 0. -1.
<mgrwt>
<rscale>  0 0.27331370E+03</rscale>
<asrwt>0</asrwt>
<pdfrwt beam="1">  1        2 0.31258672E+00 0.27331370E+03</pdfrwt>
<pdfrwt beam="2">  1       -2 0.14140526E-02 0.27331370E+03</pdfrwt>
<totfact> 0.91934944E+03</totfact>
</mgrwt>
</event>
<event>
 9    1  0.7957670E-001  0.2762264E+03  0.7818608E-02  0.1097768E+00
         -2   -1    0    0    0  501 -0.00000000000E+00  0.00000000000E+00  0.21527022738E+03  0.21527022738E+03  0.00000000000E+00 0.  1.
          2   -1    0    0  501    0  0.00000000000E+00 -0.00000000000E+00 -0.88610763611E+02  0.88610763611E+02  0.00000000000E+00 0.  1.
         35    2    1    2    0    0  0.00000000000E+00  0.00000000000E+00  0.12665946376E+03  0.30388099099E+03  0.27622642329E+03 0.  0.
         25    2    3    3    0    0  0.57422400035E+02  0.18586652727E+02  0.76434788290E+02  0.15841102628E+03  0.12493590637E+03 0.  0.
         25    2    3    3    0    0 -0.57422400035E+02 -0.18586652727E+02  0.50224675475E+02  0.14546996471E+03  0.12245896015E+03 0.  0.
          5    1    4    4  502    0 -0.19159825631E+02  0.17864315657E+02  0.77219547242E+02  0.81677298979E+02  0.47000000000E+01 0. -1.
         -5    1    4    4    0  502  0.76582225666E+02  0.72233706989E+00 -0.78475895253E+00  0.76733727301E+02  0.47000000000E+01 0. -1.
          5    1    5    5  503    0  0.14843145949E+02 -0.24637844780E+02  0.65069653580E+02  0.71298612848E+02  0.47000000000E+01 0. -1.
         -5    1    5    5    0  503 -0.72265545984E+02  0.60511920528E+01 -0.14844978105E+02  0.74171351859E+02  0.47000000000E+01 0. -1.
<mgrwt>
<rscale>  0 0.27622642E+03</rscale>
<asrwt>0</asrwt>
<pdfrwt beam="1">  1        2 0.13632425E-01 0.27622642E+03</pdfrwt>
<pdfrwt beam="2">  1       -2 0.33118496E-01 0.27622642E+03</pdfrwt>
<totfact> 0.37066924E+03</totfact>
</mgrwt>
</event>
<event>
 9    1  0.7957670E-001  0.2700701E+03  0.7818608E-02  0.1101239E+00
         -2   -1    0    0    0  501 -0.00000000000E+00  0.00000000000E+00  0.89857710656E+01  0.89857710656E+01  0.00000000000E+00 0.  1.
          2   -1    0    0  501    0  0.00000000000E+00 -0.00000000000E+00 -0.20292597284E+04  0.20292597284E+04  0.00000000000E+00 0.  1.
         35    2    1    2    0    0  0.35527136788E-14  0.00000000000E+00 -0.20202739573E+04  0.20382454994E+04  0.27007008981E+03 0.  0.
         25    2    3    3    0    0  0.18573072758E+02 -0.29443448465E+02 -0.72371149068E+03  0.73526441094E+03  0.12507420420E+03 0.  0.
         25    2    3    3    0    0 -0.18573072758E+02  0.29443448465E+02 -0.12965624666E+04  0.13029810885E+04  0.12439297183E+03 0.  0.
          5    1    4    4  502    0  0.41648209773E+02 -0.29917207429E+01 -0.66753545227E+03  0.66885663173E+03  0.47000000000E+01 0. -1.
         -5    1    4    4    0  502 -0.23075137015E+02 -0.26451727722E+02 -0.56176038411E+02  0.66407779207E+02  0.47000000000E+01 0. -1.
          5    1    5    5  503    0  0.35670334046E+01 -0.28706393355E+02 -0.97387121128E+03  0.97431206854E+03  0.47000000000E+01 0.  1.
         -5    1    5    5    0  503 -0.22140106162E+02  0.58149841820E+02 -0.32269125535E+03  0.32866901996E+03  0.47000000000E+01 0.  1.
<mgrwt>
<rscale>  0 0.27007009E+03</rscale>
<asrwt>0</asrwt>
<pdfrwt beam="1">  1        2 0.31219379E+00 0.27007009E+03</pdfrwt>
<pdfrwt beam="2">  1       -2 0.13824264E-02 0.27007009E+03</pdfrwt>
<totfact> 0.95306649E+03</totfact>
</mgrwt>
</event>
<event>
 9    1  0.7957670E-001  0.2748210E+03  0.7818608E-02  0.1098552E+00
          2   -1    0    0  501    0  0.00000000000E+00  0.00000000000E+00  0.21612077095E+04  0.21612077095E+04  0.00000000000E+00 0.  1.
         -2   -1    0    0    0  501 -0.00000000000E+00 -0.00000000000E+00 -0.87366206984E+01  0.87366206984E+01  0.00000000000E+00 0.  1.
         35    2    1    2    0    0  0.71054273576E-14  0.17763568394E-14  0.21524710888E+04  0.21699443302E+04  0.27482104729E+03 0.  0.
         25    2    3    3    0    0 -0.48057491557E+02 -0.78910061972E+01  0.84580734218E+03  0.85676295126E+03  0.12759664605E+03 0.  0.
         25    2    3    3    0    0  0.48057491557E+02  0.78910061972E+01  0.13066637466E+04  0.13131813789E+04  0.12125756387E+03 0.  0.
          5    1    4    4  502    0  0.39117975939E+02  0.10924234574E+02  0.40099466704E+03  0.40307365076E+03  0.47000000000E+01 0.  1.
         -5    1    4    4    0  502 -0.87175467497E+02 -0.18815240771E+02  0.44481267515E+03  0.45368930050E+03  0.47000000000E+01 0.  1.
          5    1    5    5  503    0  0.17188219645E+01 -0.11369402451E+02  0.11129117723E+04  0.11129810963E+04  0.47000000000E+01 0.  1.
         -5    1    5    5    0  503  0.46338669592E+02  0.19260408648E+02  0.19375197428E+03  0.20020028266E+03  0.47000000000E+01 0.  1.
<mgrwt>
<rscale>  0 0.27482105E+03</rscale>
<asrwt>0</asrwt>
<pdfrwt beam="1">  1        2 0.33249307E+00 0.27482105E+03</pdfrwt>
<pdfrwt beam="2">  1       -2 0.13440972E-02 0.27482105E+03</pdfrwt>
<totfact> 0.84587239E+03</totfact>
</mgrwt>
</event>
<event>
 9    1  0.7957670E-001  0.2749568E+03  0.7818608E-02  0.1098476E+00
          1   -1    0    0  501    0  0.00000000000E+00  0.00000000000E+00  0.60707910746E+02  0.60707910746E+02  0.00000000000E+00 0. -1.
         -1   -1    0    0    0  501 -0.00000000000E+00 -0.00000000000E+00 -0.31133189573E+03  0.31133189573E+03  0.00000000000E+00 0. -1.
         35    2    1    2    0    0  0.00000000000E+00  0.00000000000E+00 -0.25062398498E+03  0.37203980647E+03  0.27495678888E+03 0.  0.
         25    2    3    3    0    0 -0.55826680379E+02  0.11280412889E+02 -0.11506660810E+03  0.17907381677E+03  0.12483285463E+03 0.  0.
         25    2    3    3    0    0  0.55826680379E+02 -0.11280412889E+02 -0.13555737688E+03  0.19296598971E+03  0.12496481425E+03 0.  0.
          5    1    4    4  502    0 -0.46474627652E+01 -0.94607339412E+01  0.25492321669E+02  0.27983081691E+02  0.47000000000E+01 0.  1.
         -5    1    4    4    0  502 -0.51179217614E+02  0.20741146831E+02 -0.14055892977E+03  0.15109073508E+03  0.47000000000E+01 0.  1.
          5    1    5    5  503    0  0.89582531942E+02  0.16075512767E+02 -0.10794383544E+03  0.14127071087E+03  0.47000000000E+01 0. -1.
         -5    1    5    5    0  503 -0.33755851563E+02 -0.27355925657E+02 -0.27613541436E+02  0.51695278836E+02  0.47000000000E+01 0. -1.
<mgrwt>
<rscale>  0 0.27495679E+03</rscale>
<asrwt>0</asrwt>
<pdfrwt beam="1">  1        1 0.93396786E-02 0.27495679E+03</pdfrwt>
<pdfrwt beam="2">  1       -1 0.47897215E-01 0.27495679E+03</pdfrwt>
<totfact> 0.31196421E+03</totfact>
</mgrwt>
</event>
<event>
 9    1  0.7957670E-001  0.2772801E+03  0.7818608E-02  0.1097184E+00
         -1   -1    0    0    0  501 -0.00000000000E+00  0.00000000000E+00  0.15044395666E+03  0.15044395666E+03  0.00000000000E+00 0.  1.
          1   -1    0    0  501    0  0.00000000000E+00 -0.00000000000E+00 -0.12776229168E+03  0.12776229168E+03  0.00000000000E+00 0.  1.
         35    2    1    2    0    0  0.00000000000E+00  0.00000000000E+00  0.22681664978E+02  0.27820624834E+03  0.27728010871E+03 0.  0.
         25    2    3    3    0    0 -0.11323862936E+02 -0.77293920469E+01  0.71193141867E+02  0.14353885410E+03  0.12388287136E+03 0.  0.
         25    2    3    3    0    0  0.11323862936E+02  0.77293920469E+01 -0.48511476889E+02  0.13466739423E+03  0.12487581954E+03 0.  0.
          5    1    4    4  502    0  0.15829631464E+02  0.34370526193E+02  0.83451175896E+02  0.91750199245E+02  0.47000000000E+01 0. -1.
         -5    1    4    4    0  502 -0.27153494400E+02 -0.42099918239E+02 -0.12258034028E+02  0.51788654860E+02  0.47000000000E+01 0. -1.
          5    1    5    5  503    0  0.17008784509E+02 -0.56009792430E+02 -0.92604781524E+01  0.59449491622E+02  0.47000000000E+01 0. -1.
         -5    1    5    5    0  503 -0.56849215732E+01  0.63739184477E+02 -0.39250998737E+02  0.75217902609E+02  0.47000000000E+01 0. -1.
<mgrwt>
<rscale>  0 0.27728011E+03</rscale>
<asrwt>0</asrwt>
<pdfrwt beam="1">  1        1 0.19655737E-01 0.27728011E+03</pdfrwt>
<pdfrwt beam="2">  1       -1 0.23145224E-01 0.27728011E+03</pdfrwt>
<totfact> 0.41140121E+03</totfact>
</mgrwt>
</event>
<event>
 9    1  0.7957670E-001  0.2701130E+03  0.7818608E-02  0.1101215E+00
         -2   -1    0    0    0  501 -0.00000000000E+00  0.00000000000E+00  0.83241235492E+02  0.83241235492E+02  0.00000000000E+00 0.  1.
          2   -1    0    0  501    0  0.00000000000E+00 -0.00000000000E+00 -0.21912529521E+03  0.21912529521E+03  0.00000000000E+00 0.  1.
         35    2    1    2    0    0 -0.14210854715E-13  0.00000000000E+00 -0.13588405972E+03  0.30236653070E+03  0.27011301561E+03 0.  0.
         25    2    3    3    0    0  0.35460532629E+02  0.20137194665E+02 -0.34556156776E+02  0.13587699688E+03  0.12492187289E+03 0.  0.
         25    2    3    3    0    0 -0.35460532629E+02 -0.20137194665E+02 -0.10132790294E+03  0.16648953383E+03  0.12565215866E+03 0.  0.
          5    1    4    4  502    0  0.46985548439E+01  0.69933515918E+02 -0.31748359578E+02  0.77089697121E+02  0.47000000000E+01 0. -1.
         -5    1    4    4    0  502  0.30761977785E+02 -0.49796321253E+02 -0.28077971979E+01  0.58787299757E+02  0.47000000000E+01 0. -1.
          5    1    5    5  503    0  0.21532963531E+02 -0.42628894601E+02 -0.92767493318E+02  0.10444514824E+03  0.47000000000E+01 0.  1.
         -5    1    5    5    0  503 -0.56993496160E+02  0.22491699936E+02 -0.85604096269E+01  0.62044385593E+02  0.47000000000E+01 0.  1.
<mgrwt>
<rscale>  0 0.27011302E+03</rscale>
<asrwt>0</asrwt>
<pdfrwt beam="1">  1        2 0.33711584E-01 0.27011302E+03</pdfrwt>
<pdfrwt beam="2">  1       -2 0.12806344E-01 0.27011302E+03</pdfrwt>
<totfact> 0.67923400E+03</totfact>
</mgrwt>
</event>
<event>
 9    1  0.7957670E-001  0.2772015E+03  0.7818608E-02  0.1097227E+00
         -1   -1    0    0    0  501 -0.00000000000E+00  0.00000000000E+00  0.22325744928E+03  0.22325744928E+03  0.00000000000E+00 0. -1.
          1   -1    0    0  501    0  0.00000000000E+00 -0.00000000000E+00 -0.86044929968E+02  0.86044929968E+02  0.00000000000E+00 0. -1.
         35    2    1    2    0    0 -0.71054273576E-14 -0.35527136788E-14  0.13721251931E+03  0.30930237925E+03  0.27720152661E+03 0.  0.
         25    2    3    3    0    0 -0.41418211522E+02 -0.12622928349E+02  0.11779185403E+03  0.17692351280E+03  0.12470846779E+03 0.  0.
         25    2    3    3    0    0  0.41418211522E+02  0.12622928349E+02  0.19420665282E+02  0.13237886645E+03  0.12358072454E+03 0.  0.
          5    1    4    4  502    0 -0.65195190454E+02  0.36367010461E+02  0.84821429566E+02  0.11309172039E+03  0.47000000000E+01 0.  1.
         -5    1    4    4    0  502  0.23776978932E+02 -0.48989938810E+02  0.32970424465E+02  0.63831792402E+02  0.47000000000E+01 0.  1.
          5    1    5    5  503    0  0.82762362279E+02  0.77287832610E+01 -0.58328925699E+01  0.83459303474E+02  0.47000000000E+01 0. -1.
         -5    1    5    5    0  503 -0.41344150757E+02  0.48941450878E+01  0.25253557852E+02  0.48919562980E+02  0.47000000000E+01 0. -1.
<mgrwt>
<rscale>  0 0.27720153E+03</rscale>
<asrwt>0</asrwt>
<pdfrwt beam="1">  1        1 0.13237682E-01 0.27720153E+03</pdfrwt>
<pdfrwt beam="2">  1       -1 0.34347300E-01 0.27720153E+03</pdfrwt>
<totfact> 0.35398970E+03</totfact>
</mgrwt>
</event>
<event>
 9    1  0.7957670E-001  0.2805703E+03  0.7818608E-02  0.1095378E+00
         -4   -1    0    0    0  501 -0.00000000000E+00  0.00000000000E+00  0.21728186102E+03  0.21728186102E+03  0.00000000000E+00 0.  1.
          4   -1    0    0  501    0  0.00000000000E+00 -0.00000000000E+00 -0.90573240538E+02  0.90573240538E+02  0.00000000000E+00 0.  1.
         35    2    1    2    0    0  0.71054273576E-14 -0.71054273576E-14  0.12670862048E+03  0.30785510155E+03  0.28057029253E+03 0.  0.
         25    2    3    3    0    0  0.41324575239E+02 -0.46363609847E+02  0.75870606380E+02  0.15898809962E+03  0.12515415323E+03 0.  0.
         25    2    3    3    0    0 -0.41324575239E+02  0.46363609847E+02  0.50838014099E+02  0.14886700193E+03  0.12537773228E+03 0.  0.
          5    1    4    4  502    0  0.62571706729E+02  0.43076714636E+01 -0.27494096960E+01  0.62955728652E+02  0.47000000000E+01 0. -1.
         -5    1    4    4    0  502 -0.21247131490E+02 -0.50671281310E+02  0.78620016076E+02  0.96032370969E+02  0.47000000000E+01 0. -1.
          5    1    5    5  503    0  0.10265087447E+02  0.11202318776E+02 -0.37418524522E+02  0.40658331786E+02  0.47000000000E+01 0.  1.
         -5    1    5    5    0  503 -0.51589662686E+02  0.35161291070E+02  0.88256538621E+02  0.10820867015E+03  0.47000000000E+01 0.  1.
<mgrwt>
<rscale>  0 0.28057029E+03</rscale>
<asrwt>0</asrwt>
<pdfrwt beam="1">  1        4 0.13934345E-01 0.28057029E+03</pdfrwt>
<pdfrwt beam="2">  1       -4 0.33427979E-01 0.28057029E+03</pdfrwt>
<totfact> 0.69671481E+02</totfact>
</mgrwt>
</event>
<event>
 9    1  0.7957670E-001  0.2773010E+03  0.7818608E-02  0.1097172E+00
         -2   -1    0    0    0  501 -0.00000000000E+00  0.00000000000E+00  0.82358181664E+02  0.82358181664E+02  0.00000000000E+00 0. -1.
          2   -1    0    0  501    0  0.00000000000E+00 -0.00000000000E+00 -0.23341902593E+03  0.23341902593E+03  0.00000000000E+00 0. -1.
         35    2    1    2    0    0 -0.71054273576E-14  0.00000000000E+00 -0.15106084427E+03  0.31577720760E+03  0.27730103888E+03 0.  0.
         25    2    3    3    0    0  0.43670044321E+01  0.51944890386E+02 -0.40203075518E+02  0.14142968347E+03  0.12517478069E+03 0.  0.
         25    2    3    3    0    0 -0.43670044321E+01 -0.51944890386E+02 -0.11085776875E+03  0.17434752412E+03  0.12405753468E+03 0.  0.
          5    1    4    4  502    0  0.56630765060E+02  0.16635737312E+02 -0.49911779070E+02  0.77440732158E+02  0.47000000000E+01 0.  1.
         -5    1    4    4    0  502 -0.52263760628E+02  0.35309153074E+02  0.97087035528E+01  0.63988951316E+02  0.47000000000E+01 0.  1.
          5    1    5    5  503    0 -0.45212540588E+02  0.26945614758E+01 -0.17339954023E+01  0.45568972207E+02  0.47000000000E+01 0.  1.
         -5    1    5    5    0  503  0.40845536155E+02 -0.54639451862E+02 -0.10912377335E+03  0.12877855192E+03  0.47000000000E+01 0.  1.
<mgrwt>
<rscale>  0 0.27730104E+03</rscale>
<asrwt>0</asrwt>
<pdfrwt beam="1">  1        2 0.35910619E-01 0.27730104E+03</pdfrwt>
<pdfrwt beam="2">  1       -2 0.12670490E-01 0.27730104E+03</pdfrwt>
<totfact> 0.64589212E+03</totfact>
</mgrwt>
</event>
<event>
 9    1  0.7957670E-001  0.2717881E+03  0.7818608E-02  0.1100261E+00
         -2   -1    0    0    0  501 -0.00000000000E+00  0.00000000000E+00  0.12874150701E+02  0.12874150701E+02  0.00000000000E+00 0.  1.
          2   -1    0    0  501    0  0.00000000000E+00 -0.00000000000E+00 -0.14344395944E+04  0.14344395944E+04  0.00000000000E+00 0.  1.
         35    2    1    2    0    0  0.00000000000E+00 -0.71054273576E-14 -0.14215654437E+04  0.14473137451E+04  0.27178809032E+03 0.  0.
         25    2    3    3    0    0  0.35140884202E+02  0.27203874302E+02 -0.55846633482E+03  0.57406890863E+03  0.12528181116E+03 0.  0.
         25    2    3    3    0    0 -0.35140884202E+02 -0.27203874302E+02 -0.86309910892E+03  0.87324483651E+03  0.12506614313E+03 0.  0.
          5    1    4    4  502    0  0.58283878007E+02 -0.16721916008E+02 -0.45678478211E+03  0.46081564652E+03  0.47000000000E+01 0. -1.
         -5    1    4    4    0  502 -0.23142993805E+02  0.43925790309E+02 -0.10168155270E+03  0.11325326210E+03  0.47000000000E+01 0. -1.
          5    1    5    5  503    0 -0.20792222328E+02  0.23645778635E+02 -0.71880779467E+03  0.71951245649E+03  0.47000000000E+01 0. -1.
         -5    1    5    5    0  503 -0.14348661874E+02 -0.50849652937E+02 -0.14429131425E+03  0.15373238003E+03  0.47000000000E+01 0. -1.
<mgrwt>
<rscale>  0 0.27178809E+03</rscale>
<asrwt>0</asrwt>
<pdfrwt beam="1">  1        2 0.22068306E+00 0.27178809E+03</pdfrwt>
<pdfrwt beam="2">  1       -2 0.19806381E-02 0.27178809E+03</pdfrwt>
<totfact> 0.11601826E+04</totfact>
</mgrwt>
</event>
<event>
 9    1  0.7957670E-001  0.2730613E+03  0.7818608E-02  0.1099540E+00
         -2   -1    0    0    0  501 -0.00000000000E+00  0.00000000000E+00  0.13507916328E+02  0.13507916328E+02  0.00000000000E+00 0. -1.
          2   -1    0    0  501    0  0.00000000000E+00 -0.00000000000E+00 -0.13799769601E+04  0.13799769601E+04  0.00000000000E+00 0. -1.
         35    2    1    2    0    0  0.14210854715E-13  0.00000000000E+00 -0.13664690438E+04  0.13934848764E+04  0.27306126281E+03 0.  0.
         25    2    3    3    0    0 -0.48044878535E+02  0.30442725544E+02 -0.63787666324E+03  0.65228188103E+03  0.12389489466E+03 0.  0.
         25    2    3    3    0    0  0.48044878535E+02 -0.30442725544E+02 -0.72859238056E+03  0.74120299542E+03  0.12369298089E+03 0.  0.
          5    1    4    4  502    0 -0.84890554752E+02  0.34868902995E+02 -0.34509616415E+03  0.35712140680E+03  0.47000000000E+01 0.  1.
         -5    1    4    4    0  502  0.36845676217E+02 -0.44261774509E+01 -0.29278049908E+03  0.29516047423E+03  0.47000000000E+01 0.  1.
          5    1    5    5  503    0  0.77331033296E+02  0.64032574875E+01 -0.58198496907E+03  0.58715388497E+03  0.47000000000E+01 0. -1.
         -5    1    5    5    0  503 -0.29286154761E+02 -0.36845983032E+02 -0.14660741149E+03  0.15404911045E+03  0.47000000000E+01 0. -1.
<mgrwt>
<rscale>  0 0.27306126E+03</rscale>
<asrwt>0</asrwt>
<pdfrwt beam="1">  1        2 0.21230409E+00 0.27306126E+03</pdfrwt>
<pdfrwt beam="2">  1       -2 0.20781415E-02 0.27306126E+03</pdfrwt>
<totfact> 0.11571695E+04</totfact>
</mgrwt>
</event>
<event>
 9    1  0.7957670E-001  0.2749407E+03  0.7818608E-02  0.1098485E+00
         -3   -1    0    0    0  501 -0.00000000000E+00  0.00000000000E+00  0.31213009941E+03  0.31213009941E+03  0.00000000000E+00 0. -1.
          3   -1    0    0  501    0  0.00000000000E+00 -0.00000000000E+00 -0.60545591125E+02  0.60545591125E+02  0.00000000000E+00 0. -1.
         35    2    1    2    0    0  0.71054273576E-14  0.00000000000E+00  0.25158450828E+03  0.37267569053E+03  0.27494073090E+03 0.  0.
         25    2    3    3    0    0  0.34188890846E+02 -0.27147937855E+02  0.17906665491E+03  0.22188667065E+03  0.12354325932E+03 0.  0.
         25    2    3    3    0    0 -0.34188890846E+02  0.27147937855E+02  0.72517853375E+02  0.15078901988E+03  0.12479021866E+03 0.  0.
          5    1    4    4  502    0  0.15177276922E+02  0.34706848825E+02  0.80969186161E+01  0.39020061266E+02  0.47000000000E+01 0.  1.
         -5    1    4    4    0  502  0.19011613923E+02 -0.61854786680E+02  0.17096973629E+03  0.18286660938E+03  0.47000000000E+01 0.  1.
          5    1    5    5  503    0 -0.72907587739E+02  0.31242580418E+02  0.77815196837E+02  0.11121560160E+03  0.47000000000E+01 0.  1.
         -5    1    5    5    0  503  0.38718696893E+02 -0.40946425624E+01 -0.52973434617E+01  0.39573418283E+02  0.47000000000E+01 0.  1.
<mgrwt>
<rscale>  0 0.27494073E+03</rscale>
<asrwt>0</asrwt>
<pdfrwt beam="1">  1        3 0.93147065E-02 0.27494073E+03</pdfrwt>
<pdfrwt beam="2">  1       -3 0.48020014E-01 0.27494073E+03</pdfrwt>
<totfact> 0.91433322E+02</totfact>
</mgrwt>
</event>
<event>
 9    1  0.7957670E-001  0.2762749E+03  0.7818608E-02  0.1097741E+00
         -2   -1    0    0    0  501 -0.00000000000E+00  0.00000000000E+00  0.37593185039E+02  0.37593185039E+02  0.00000000000E+00 0.  1.
          2   -1    0    0  501    0  0.00000000000E+00 -0.00000000000E+00 -0.50759067179E+03  0.50759067179E+03  0.00000000000E+00 0.  1.
         35    2    1    2    0    0  0.00000000000E+00  0.00000000000E+00 -0.46999748675E+03  0.54518385683E+03  0.27627486349E+03 0.  0.
         25    2    3    3    0    0 -0.55884317335E+01  0.28863556687E+02 -0.13686297158E+03  0.18794168149E+03  0.12540441450E+03 0.  0.
         25    2    3    3    0    0  0.55884317335E+01 -0.28863556687E+02 -0.33313451517E+03  0.35724217534E+03  0.12561461369E+03 0.  0.
          5    1    4    4  502    0 -0.32289442258E+02 -0.21786842754E+02 -0.12263187787E+03  0.12875535744E+03  0.47000000000E+01 0. -1.
         -5    1    4    4    0  502  0.26701010524E+02  0.50650399441E+02 -0.14231093714E+02  0.59186324052E+02  0.47000000000E+01 0. -1.
          5    1    5    5  503    0 -0.36158693418E+02 -0.64193428942E+02 -0.20281871213E+03  0.21583736335E+03  0.47000000000E+01 0. -1.
         -5    1    5    5    0  503  0.41747125151E+02  0.35329872255E+02 -0.13031580304E+03  0.14140481199E+03  0.47000000000E+01 0. -1.
<mgrwt>
<rscale>  0 0.27627486E+03</rscale>
<asrwt>0</asrwt>
<pdfrwt beam="1">  1        2 0.78090877E-01 0.27627486E+03</pdfrwt>
<pdfrwt beam="2">  1       -2 0.57835666E-02 0.27627486E+03</pdfrwt>
<totfact> 0.95331843E+03</totfact>
</mgrwt>
</event>
<event>
 9    1  0.7957670E-001  0.2759459E+03  0.7818608E-02  0.1097924E+00
         -1   -1    0    0    0  501 -0.00000000000E+00  0.00000000000E+00  0.44492397693E+02  0.44492397693E+02  0.00000000000E+00 0. -1.
          1   -1    0    0  501    0  0.00000000000E+00 -0.00000000000E+00 -0.42786030071E+03  0.42786030071E+03  0.00000000000E+00 0. -1.
         35    2    1    2    0    0  0.00000000000E+00  0.00000000000E+00 -0.38336790302E+03  0.47235269840E+03  0.27594586901E+03 0.  0.
         25    2    3    3    0    0  0.94740932169E+01  0.34872097795E+02 -0.26765673760E+03  0.29887880259E+03  0.12799448349E+03 0.  0.
         25    2    3    3    0    0 -0.94740932169E+01 -0.34872097795E+02 -0.11571116541E+03  0.17347389582E+03  0.12408987502E+03 0.  0.
          5    1    4    4  502    0 -0.49021420187E+02  0.50180708749E+02 -0.16941320489E+03  0.18342335500E+03  0.47000000000E+01 0.  1.
         -5    1    4    4    0  502  0.58495513404E+02 -0.15308610954E+02 -0.98243532715E+02  0.11545544759E+03  0.47000000000E+01 0.  1.
          5    1    5    5  503    0 -0.20142740219E+02 -0.58081011833E+02 -0.12996479646E+03  0.14384739218E+03  0.47000000000E+01 0. -1.
         -5    1    5    5    0  503  0.10668647002E+02  0.23208914038E+02  0.14253631045E+02  0.29626503635E+02  0.47000000000E+01 0. -1.
<mgrwt>
<rscale>  0 0.27594587E+03</rscale>
<asrwt>0</asrwt>
<pdfrwt beam="1">  1        1 0.65824659E-01 0.27594587E+03</pdfrwt>
<pdfrwt beam="2">  1       -1 0.68449846E-02 0.27594587E+03</pdfrwt>
<totfact> 0.60362269E+03</totfact>
</mgrwt>
</event>
<event>
 9    1  0.7957670E-001  0.2649351E+03  0.7818608E-02  0.1104214E+00
         -1   -1    0    0    0  501 -0.00000000000E+00  0.00000000000E+00  0.15383400423E+03  0.15383400423E+03  0.00000000000E+00 0.  1.
          1   -1    0    0  501    0  0.00000000000E+00 -0.00000000000E+00 -0.11406871281E+03  0.11406871281E+03  0.00000000000E+00 0.  1.
         35    2    1    2    0    0  0.35527136788E-14  0.00000000000E+00  0.39765291420E+02  0.26790271704E+03  0.26493506260E+03 0.  0.
         25    2    3    3    0    0 -0.26861853003E+02 -0.31357765364E+02  0.92715408631E+01  0.13248772044E+03  0.12554746513E+03 0.  0.
         25    2    3    3    0    0  0.26861853003E+02  0.31357765364E+02  0.30493750557E+02  0.13541499660E+03  0.12530955226E+03 0.  0.
          5    1    4    4  502    0 -0.59493644942E+02 -0.43606293311E+02 -0.30000505769E+02  0.79769185474E+02  0.47000000000E+01 0. -1.
         -5    1    4    4    0  502  0.32631791939E+02  0.12248527947E+02  0.39272046632E+02  0.52718534963E+02  0.47000000000E+01 0. -1.
          5    1    5    5  503    0  0.60475390698E+01 -0.79235329937E+01 -0.45735830949E+02  0.47044780119E+02  0.47000000000E+01 0. -1.
         -5    1    5    5    0  503  0.20814313934E+02  0.39281298357E+02  0.76229581506E+02  0.88370216486E+02  0.47000000000E+01 0. -1.
<mgrwt>
<rscale>  0 0.26493506E+03</rscale>
<asrwt>0</asrwt>
<pdfrwt beam="1">  1        1 0.17549033E-01 0.26493506E+03</pdfrwt>
<pdfrwt beam="2">  1       -1 0.23666770E-01 0.26493506E+03</pdfrwt>
<totfact> 0.45855476E+03</totfact>
</mgrwt>
</event>
<event>
 9    1  0.7957670E-001  0.2753249E+03  0.7818608E-02  0.1098270E+00
          1   -1    0    0  501    0  0.00000000000E+00  0.00000000000E+00  0.10864933675E+04  0.10864933675E+04  0.00000000000E+00 0.  1.
         -1   -1    0    0    0  501 -0.00000000000E+00 -0.00000000000E+00 -0.17442308333E+02  0.17442308333E+02  0.00000000000E+00 0.  1.
         35    2    1    2    0    0  0.00000000000E+00 -0.14210854715E-13  0.10690510592E+04  0.11039356759E+04  0.27532491582E+03 0.  0.
         25    2    3    3    0    0 -0.64904332532E+01 -0.57813702558E+02  0.52428606720E+03  0.54213843215E+03  0.12511454525E+03 0.  0.
         25    2    3    3    0    0  0.64904332532E+01  0.57813702558E+02  0.54476499199E+03  0.56179724370E+03  0.12434909169E+03 0.  0.
          5    1    4    4  502    0 -0.80759931898E+01 -0.90684593161E+02  0.25496065279E+03  0.27076916659E+03  0.47000000000E+01 0. -1.
         -5    1    4    4    0  502  0.15855599366E+01  0.32870890603E+02  0.26932541440E+03  0.27136926556E+03  0.47000000000E+01 0. -1.
          5    1    5    5  503    0 -0.23840780561E+01 -0.10963886432E+02  0.40984668206E+03  0.41002717401E+03  0.47000000000E+01 0.  1.
         -5    1    5    5    0  503  0.88745113092E+01  0.68777588990E+02  0.13491830993E+03  0.15177006969E+03  0.47000000000E+01 0.  1.
<mgrwt>
<rscale>  0 0.27532492E+03</rscale>
<asrwt>0</asrwt>
<pdfrwt beam="1">  1        1 0.16715277E+00 0.27532492E+03</pdfrwt>
<pdfrwt beam="2">  1       -1 0.26834329E-02 0.27532492E+03</pdfrwt>
<totfact> 0.61368133E+03</totfact>
</mgrwt>
</event>
<event>
 9    1  0.7957670E-001  0.2814406E+03  0.7818608E-02  0.1094905E+00
          2   -1    0    0  501    0  0.00000000000E+00  0.00000000000E+00  0.13605304874E+04  0.13605304874E+04  0.00000000000E+00 0.  1.
         -2   -1    0    0    0  501 -0.00000000000E+00 -0.00000000000E+00 -0.14554760934E+02  0.14554760934E+02  0.00000000000E+00 0.  1.
         35    2    1    2    0    0  0.00000000000E+00  0.00000000000E+00  0.13459757265E+04  0.13750852484E+04  0.28144055137E+03 0.  0.
         25    2    3    3    0    0  0.41985319962E+02  0.20810273913E+02  0.45693454951E+03  0.47607945205E+03  0.12516639939E+03 0.  0.
         25    2    3    3    0    0 -0.41985319962E+02 -0.20810273913E+02  0.88904117700E+03  0.89900579633E+03  0.12498549051E+03 0.  0.
          5    1    4    4  502    0  0.21387273050E+02  0.64777566268E+02  0.37114488935E+03  0.37739126570E+03  0.47000000000E+01 0. -1.
         -5    1    4    4    0  502  0.20598046913E+02 -0.43967292355E+02  0.85789660161E+02  0.98688186346E+02  0.47000000000E+01 0. -1.
          5    1    5    5  503    0 -0.25897272077E+02 -0.52449101786E+02  0.18564761286E+03  0.19470157457E+03  0.47000000000E+01 0. -1.
         -5    1    5    5    0  503 -0.16088047886E+02  0.31638827873E+02  0.70339356414E+03  0.70430422176E+03  0.47000000000E+01 0. -1.
<mgrwt>
<rscale>  0 0.28144055E+03</rscale>
<asrwt>0</asrwt>
<pdfrwt beam="1">  1        2 0.20931228E+00 0.28144055E+03</pdfrwt>
<pdfrwt beam="2">  1       -2 0.22391951E-02 0.28144055E+03</pdfrwt>
<totfact> 0.10629789E+04</totfact>
</mgrwt>
</event>
<event>
 9    1  0.7957670E-001  0.2744159E+03  0.7818608E-02  0.1098779E+00
          1   -1    0    0  501    0  0.00000000000E+00  0.00000000000E+00  0.81380438290E+02  0.81380438290E+02  0.00000000000E+00 0. -1.
         -1   -1    0    0    0  501 -0.00000000000E+00 -0.00000000000E+00 -0.23133358180E+03  0.23133358180E+03  0.00000000000E+00 0. -1.
         35    2    1    2    0    0  0.00000000000E+00 -0.71054273576E-14 -0.14995314351E+03  0.31271402009E+03  0.27441594909E+03 0.  0.
         25    2    3    3    0    0  0.16034106905E+02 -0.53091403427E+02 -0.89414973881E+02  0.16322363057E+03  0.12478431921E+03 0.  0.
         25    2    3    3    0    0 -0.16034106905E+02  0.53091403427E+02 -0.60538169633E+02  0.14949038952E+03  0.12492684609E+03 0.  0.
          5    1    4    4  502    0 -0.48860258801E+02 -0.16278804965E+02 -0.73846109921E+01  0.52239322935E+02  0.47000000000E+01 0.  1.
         -5    1    4    4    0  502  0.64894365706E+02 -0.36812598462E+02 -0.82030362888E+02  0.11098430764E+03  0.47000000000E+01 0.  1.
          5    1    5    5  503    0  0.21923099164E+02 -0.29427206111E+02 -0.43243355242E+02  0.56909230438E+02  0.47000000000E+01 0. -1.
         -5    1    5    5    0  503 -0.37957206069E+02  0.82518609538E+02 -0.17294814391E+02  0.92581159084E+02  0.47000000000E+01 0. -1.
<mgrwt>
<rscale>  0 0.27441595E+03</rscale>
<asrwt>0</asrwt>
<pdfrwt beam="1">  1        1 0.12520067E-01 0.27441595E+03</pdfrwt>
<pdfrwt beam="2">  1       -1 0.35589782E-01 0.27441595E+03</pdfrwt>
<totfact> 0.35818963E+03</totfact>
</mgrwt>
</event>
<event>
 9    1  0.7957670E-001  0.2801464E+03  0.7818608E-02  0.1095609E+00
         -4   -1    0    0    0  501 -0.00000000000E+00  0.00000000000E+00  0.50970243707E+02  0.50970243707E+02  0.00000000000E+00 0.  1.
          4   -1    0    0  501    0  0.00000000000E+00 -0.00000000000E+00 -0.38494026033E+03  0.38494026033E+03  0.00000000000E+00 0.  1.
         35    2    1    2    0    0 -0.14210854715E-13  0.35527136788E-14 -0.33397001662E+03  0.43591050403E+03  0.28014638232E+03 0.  0.
         25    2    3    3    0    0  0.55199588739E+02  0.50712057731E+01 -0.21451360568E+03  0.25433947830E+03  0.12489904513E+03 0.  0.
         25    2    3    3    0    0 -0.55199588739E+02 -0.50712057731E+01 -0.11945641094E+03  0.18157102574E+03  0.12500196617E+03 0.  0.
          5    1    4    4  502    0  0.87090887818E+02 -0.16269839666E+02 -0.18671656070E+03  0.20672371529E+03  0.47000000000E+01 0.  1.
         -5    1    4    4    0  502 -0.31891299079E+02  0.21341045439E+02 -0.27797044978E+02  0.47615763008E+02  0.47000000000E+01 0.  1.
          5    1    5    5  503    0  0.59106495402E+00 -0.32281614083E+02  0.13073802892E+02  0.35149200385E+02  0.47000000000E+01 0.  1.
         -5    1    5    5    0  503 -0.55790653693E+02  0.27210408310E+02 -0.13253021384E+03  0.14642182535E+03  0.47000000000E+01 0.  1.
<mgrwt>
<rscale>  0 0.28014638E+03</rscale>
<asrwt>0</asrwt>
<pdfrwt beam="1">  1        4 0.59221577E-01 0.28014638E+03</pdfrwt>
<pdfrwt beam="2">  1       -4 0.78415761E-02 0.28014638E+03</pdfrwt>
<totfact> 0.58484393E+02</totfact>
</mgrwt>
</event>
<event>
 9    1  0.7957670E-001  0.2817808E+03  0.7818608E-02  0.1094720E+00
          4   -1    0    0  501    0  0.00000000000E+00  0.00000000000E+00  0.36959759277E+03  0.36959759277E+03  0.00000000000E+00 0. -1.
         -4   -1    0    0    0  501 -0.00000000000E+00 -0.00000000000E+00 -0.53707345743E+02  0.53707345743E+02  0.00000000000E+00 0. -1.
         35    2    1    2    0    0  0.00000000000E+00  0.00000000000E+00  0.31589024703E+03  0.42330493852E+03  0.28178080631E+03 0.  0.
         25    2    3    3    0    0 -0.33012854010E+02 -0.55062087599E+02  0.14661686342E+03  0.20328127808E+03  0.12531995594E+03 0.  0.
         25    2    3    3    0    0  0.33012854010E+02  0.55062087599E+02  0.16927338360E+03  0.22002366043E+03  0.12504099621E+03 0.  0.
          5    1    4    4  502    0  0.27892197673E+02  0.33653762362E+01  0.10550776744E+03  0.10928531209E+03  0.47000000000E+01 0. -1.
         -5    1    4    4    0  502 -0.60905051683E+02 -0.58427463836E+02  0.41109095988E+02  0.93995965997E+02  0.47000000000E+01 0. -1.
          5    1    5    5  503    0 -0.62072146347E+01 -0.21212426984E+02 -0.72336979583E+01  0.23725786778E+02  0.47000000000E+01 0.  1.
         -5    1    5    5    0  503  0.39220068645E+02  0.76274514583E+02  0.17650708156E+03  0.19629787365E+03  0.47000000000E+01 0.  1.
<mgrwt>
<rscale>  0 0.28178081E+03</rscale>
<asrwt>0</asrwt>
<pdfrwt beam="1">  1        4 0.56861167E-01 0.28178081E+03</pdfrwt>
<pdfrwt beam="2">  1       -4 0.82626688E-02 0.28178081E+03</pdfrwt>
<totfact> 0.58432146E+02</totfact>
</mgrwt>
</event>
<event>
 9    1  0.7957670E-001  0.2758162E+03  0.7818608E-02  0.1097996E+00
          3   -1    0    0  501    0  0.00000000000E+00  0.00000000000E+00  0.48990077626E+02  0.48990077626E+02  0.00000000000E+00 0. -1.
         -3   -1    0    0    0  501 -0.00000000000E+00 -0.00000000000E+00 -0.38821432225E+03  0.38821432225E+03  0.00000000000E+00 0. -1.
         35    2    1    2    0    0  0.14210854715E-13 -0.71054273576E-14 -0.33922424463E+03  0.43720439988E+03  0.27581624160E+03 0.  0.
         25    2    3    3    0    0 -0.45206493634E+02 -0.35611588190E+02 -0.16732737106E+03  0.21679348444E+03  0.12525635118E+03 0.  0.
         25    2    3    3    0    0  0.45206493634E+02  0.35611588190E+02 -0.17189687357E+03  0.22041091544E+03  0.12538191346E+03 0.  0.
          5    1    4    4  502    0 -0.68574332384E+02  0.74503448801E+01 -0.14902553586E+03  0.16428221766E+03  0.47000000000E+01 0. -1.
         -5    1    4    4    0  502  0.23367838750E+02 -0.43061933070E+02 -0.18301835205E+02  0.52511266786E+02  0.47000000000E+01 0. -1.
          5    1    5    5  503    0  0.40169727679E+02 -0.28709574629E+02 -0.13951672947E+03  0.14807043763E+03  0.47000000000E+01 0. -1.
         -5    1    5    5    0  503  0.50367659549E+01  0.64321162820E+02 -0.32380144092E+02  0.72340477806E+02  0.47000000000E+01 0. -1.
<mgrwt>
<rscale>  0 0.27581624E+03</rscale>
<asrwt>0</asrwt>
<pdfrwt beam="1">  1        3 0.75369351E-02 0.27581624E+03</pdfrwt>
<pdfrwt beam="2">  1       -3 0.59725280E-01 0.27581624E+03</pdfrwt>
<totfact> 0.83081865E+02</totfact>
</mgrwt>
</event>
<event>
 9    1  0.7957670E-001  0.2741159E+03  0.7818608E-02  0.1098947E+00
         -2   -1    0    0    0  501 -0.00000000000E+00  0.00000000000E+00  0.99883162254E+02  0.99883162254E+02  0.00000000000E+00 0.  1.
          2   -1    0    0  501    0  0.00000000000E+00 -0.00000000000E+00 -0.18806852122E+03  0.18806852122E+03  0.00000000000E+00 0.  1.
         35    2    1    2    0    0  0.00000000000E+00 -0.14210854715E-13 -0.88185358963E+02  0.28795168347E+03  0.27411587783E+03 0.  0.
         25    2    3    3    0    0 -0.17924058125E+01  0.43880892990E+02 -0.83536094783E+02  0.15709108520E+03  0.12558098753E+03 0.  0.
         25    2    3    3    0    0  0.17924058125E+01 -0.43880892990E+02 -0.46492641800E+01  0.13086059827E+03  0.12318333911E+03 0.  0.
          5    1    4    4  502    0 -0.57002376517E+02 -0.27963505022E+01 -0.19783575229E+02  0.60585232141E+02  0.47000000000E+01 0.  1.
         -5    1    4    4    0  502  0.55209970705E+02  0.46677243492E+02 -0.63752519554E+02  0.96505853059E+02  0.47000000000E+01 0.  1.
          5    1    5    5  503    0 -0.42698849149E+02  0.20375238487E+02 -0.19107509539E+02  0.51239915913E+02  0.47000000000E+01 0.  1.
         -5    1    5    5    0  503  0.44491254961E+02 -0.64256131477E+02  0.14458245359E+02  0.79620682358E+02  0.47000000000E+01 0.  1.
<mgrwt>
<rscale>  0 0.27411588E+03</rscale>
<asrwt>0</asrwt>
<pdfrwt beam="1">  1        2 0.28933619E-01 0.27411588E+03</pdfrwt>
<pdfrwt beam="2">  1       -2 0.15366640E-01 0.27411588E+03</pdfrwt>
<totfact> 0.59571696E+03</totfact>
</mgrwt>
</event>
<event>
 9    1  0.7957670E-001  0.2737740E+03  0.7818608E-02  0.1099139E+00
          2   -1    0    0  501    0  0.00000000000E+00  0.00000000000E+00  0.57679063413E+03  0.57679063413E+03  0.00000000000E+00 0. -1.
         -2   -1    0    0    0  501 -0.00000000000E+00 -0.00000000000E+00 -0.32486737904E+02  0.32486737904E+02  0.00000000000E+00 0. -1.
         35    2    1    2    0    0 -0.35527136788E-14  0.14210854715E-13  0.54430389623E+03  0.60927737204E+03  0.27377396631E+03 0.  0.
         25    2    3    3    0    0  0.21861297697E+02 -0.51911314795E+02  0.26865649035E+03  0.30130355168E+03  0.12423694905E+03 0.  0.
         25    2    3    3    0    0 -0.21861297697E+02  0.51911314795E+02  0.27564740588E+03  0.30797382036E+03  0.12527442164E+03 0.  0.
          5    1    4    4  502    0  0.44138961680E+02 -0.89404399722E+01  0.22823565495E+02  0.50706849113E+02  0.47000000000E+01 0. -1.
         -5    1    4    4    0  502 -0.22277663984E+02 -0.42970874823E+02  0.24583292485E+03  0.25059670257E+03  0.47000000000E+01 0. -1.
          5    1    5    5  503    0  0.89951490323E+01  0.81872739948E+02  0.23320027325E+03  0.24736312517E+03  0.47000000000E+01 0. -1.
         -5    1    5    5    0  503 -0.30856446729E+02 -0.29961425153E+02  0.42447132633E+02  0.60610695184E+02  0.47000000000E+01 0. -1.
<mgrwt>
<rscale>  0 0.27377397E+03</rscale>
<asrwt>0</asrwt>
<pdfrwt beam="1">  1        2 0.88737013E-01 0.27377397E+03</pdfrwt>
<pdfrwt beam="2">  1       -2 0.49979601E-02 0.27377397E+03</pdfrwt>
<totfact> 0.10298400E+04</totfact>
</mgrwt>
</event>
<event>
 9    1  0.7957670E-001  0.2756677E+03  0.7818608E-02  0.1098079E+00
         -1   -1    0    0    0  501 -0.00000000000E+00  0.00000000000E+00  0.74806886982E+02  0.74806886982E+02  0.00000000000E+00 0. -1.
          1   -1    0    0  501    0  0.00000000000E+00 -0.00000000000E+00 -0.25396279247E+03  0.25396279247E+03  0.00000000000E+00 0. -1.
         35    2    1    2    0    0  0.00000000000E+00  0.00000000000E+00 -0.17915590548E+03  0.32876967945E+03  0.27566766886E+03 0.  0.
         25    2    3    3    0    0  0.52498340486E+02  0.27986121219E+02 -0.83556780481E+02  0.16031293202E+03  0.12320390365E+03 0.  0.
         25    2    3    3    0    0 -0.52498340486E+02 -0.27986121219E+02 -0.95599125004E+02  0.16845674743E+03  0.12529638589E+03 0.  0.
          5    1    4    4  502    0 -0.21051001879E+01 -0.29365146957E+01  0.29949385059E+02  0.30530480356E+02  0.47000000000E+01 0.  1.
         -5    1    4    4    0  502  0.54603440674E+02  0.30922635914E+02 -0.11350616554E+03  0.12978245167E+03  0.47000000000E+01 0.  1.
          5    1    5    5  503    0 -0.62960814728E+02  0.33502432399E+02 -0.29122742006E+02  0.77179668760E+02  0.47000000000E+01 0.  1.
         -5    1    5    5    0  503  0.10462474243E+02 -0.61488553618E+02 -0.66476382998E+02  0.91277078666E+02  0.47000000000E+01 0.  1.
<mgrwt>
<rscale>  0 0.27566767E+03</rscale>
<asrwt>0</asrwt>
<pdfrwt beam="1">  1        1 0.39071198E-01 0.27566767E+03</pdfrwt>
<pdfrwt beam="2">  1       -1 0.11508752E-01 0.27566767E+03</pdfrwt>
<totfact> 0.52608243E+03</totfact>
</mgrwt>
</event>
<event>
 9    1  0.7957670E-001  0.2752618E+03  0.7818608E-02  0.1098305E+00
         -1   -1    0    0    0  501 -0.00000000000E+00  0.00000000000E+00  0.14844595616E+02  0.14844595616E+02  0.00000000000E+00 0. -1.
          1   -1    0    0  501    0  0.00000000000E+00 -0.00000000000E+00 -0.12760373472E+04  0.12760373472E+04  0.00000000000E+00 0. -1.
         35    2    1    2    0    0  0.71054273576E-14 -0.35527136788E-14 -0.12611927516E+04  0.12908819428E+04  0.27526175477E+03 0.  0.
         25    2    3    3    0    0  0.46628047897E+02  0.22919172234E+02 -0.74885242722E+03  0.76098660545E+03  0.12498476956E+03 0.  0.
         25    2    3    3    0    0 -0.46628047897E+02 -0.22919172234E+02 -0.51234032433E+03  0.52989533733E+03  0.12488793889E+03 0.  0.
          5    1    4    4  502    0  0.59912126908E+02 -0.58807795048E+01 -0.15616385148E+03  0.16743143381E+03  0.47000000000E+01 0.  1.
         -5    1    4    4    0  502 -0.13284079011E+02  0.28799951738E+02 -0.59268857574E+03  0.59355517165E+03  0.47000000000E+01 0.  1.
          5    1    5    5  503    0  0.36644658997E+02  0.17780019207E+02 -0.12327549512E+03  0.12991496377E+03  0.47000000000E+01 0. -1.
         -5    1    5    5    0  503 -0.83272706894E+02 -0.40699191440E+02 -0.38906482922E+03  0.39998037356E+03  0.47000000000E+01 0. -1.
<mgrwt>
<rscale>  0 0.27526175E+03</rscale>
<asrwt>0</asrwt>
<pdfrwt beam="1">  1        1 0.19631340E+00 0.27526175E+03</pdfrwt>
<pdfrwt beam="2">  1       -1 0.22837844E-02 0.27526175E+03</pdfrwt>
<totfact> 0.57195324E+03</totfact>
</mgrwt>
</event>
<event>
 9    1  0.7957670E-001  0.2576454E+03  0.7818608E-02  0.1108566E+00
          2   -1    0    0  501    0  0.00000000000E+00  0.00000000000E+00  0.75123692132E+03  0.75123692132E+03  0.00000000000E+00 0.  1.
         -2   -1    0    0    0  501 -0.00000000000E+00 -0.00000000000E+00 -0.22090615196E+02  0.22090615196E+02  0.00000000000E+00 0.  1.
         35    2    1    2    0    0  0.00000000000E+00  0.00000000000E+00  0.72914630612E+03  0.77332753651E+03  0.25764538226E+03 0.  0.
         25    2    3    3    0    0 -0.21531336824E+02 -0.22851093792E+02  0.33982477134E+03  0.36313519664E+03  0.12409885119E+03 0.  0.
         25    2    3    3    0    0  0.21531336824E+02  0.22851093792E+02  0.38932153478E+03  0.41019233987E+03  0.12530254306E+03 0.  0.
          5    1    4    4  502    0  0.36217833952E+02 -0.44847484691E+01  0.26108396449E+03  0.26366412532E+03  0.47000000000E+01 0. -1.
         -5    1    4    4    0  502 -0.57749170776E+02 -0.18366345323E+02  0.78740806848E+02  0.99471071317E+02  0.47000000000E+01 0. -1.
          5    1    5    5  503    0  0.27146702658E+02 -0.93634396739E+00  0.89145986016E+01  0.28972060221E+02  0.47000000000E+01 0. -1.
         -5    1    5    5    0  503 -0.56153658334E+01  0.23787437760E+02  0.38040693618E+03  0.38122027965E+03  0.47000000000E+01 0. -1.
<mgrwt>
<rscale>  0 0.25764538E+03</rscale>
<asrwt>0</asrwt>
<pdfrwt beam="1">  1        2 0.11557489E+00 0.25764538E+03</pdfrwt>
<pdfrwt beam="2">  1       -2 0.33985568E-02 0.25764538E+03</pdfrwt>
<totfact> 0.13401097E+04</totfact>
</mgrwt>
</event>
<event>
 9    1  0.7957670E-001  0.2743971E+03  0.7818608E-02  0.1098789E+00
          2   -1    0    0  501    0  0.00000000000E+00  0.00000000000E+00  0.10713324038E+04  0.10713324038E+04  0.00000000000E+00 0.  1.
         -2   -1    0    0    0  501 -0.00000000000E+00 -0.00000000000E+00 -0.17570120186E+02  0.17570120186E+02  0.00000000000E+00 0.  1.
         35    2    1    2    0    0  0.53290705182E-14 -0.71054273576E-14  0.10537622836E+04  0.10889025240E+04  0.27439707793E+03 0.  0.
         25    2    3    3    0    0  0.14757224403E+02  0.16190299906E+02  0.33180345105E+03  0.35578563447E+03  0.12653057371E+03 0.  0.
         25    2    3    3    0    0 -0.14757224403E+02 -0.16190299906E+02  0.72195883254E+03  0.73311688949E+03  0.12552257285E+03 0.  0.
          5    1    4    4  502    0 -0.16503744808E+02 -0.96023503054E+01 -0.17542402899E+01  0.19741987820E+02  0.47000000000E+01 0. -1.
         -5    1    4    4    0  502  0.31260969211E+02  0.25792650211E+02  0.33355769134E+03  0.33604364665E+03  0.47000000000E+01 0. -1.
          5    1    5    5  503    0 -0.11231376218E+02 -0.65278682066E+02  0.55598087824E+03  0.55993238620E+03  0.47000000000E+01 0.  1.
         -5    1    5    5    0  503 -0.35258481852E+01  0.49088382160E+02  0.16597795430E+03  0.17318450329E+03  0.47000000000E+01 0.  1.
<mgrwt>
<rscale>  0 0.27439708E+03</rscale>
<asrwt>0</asrwt>
<pdfrwt beam="1">  1        2 0.16482032E+00 0.27439708E+03</pdfrwt>
<pdfrwt beam="2">  1       -2 0.27030963E-02 0.27439708E+03</pdfrwt>
<totfact> 0.11731654E+04</totfact>
</mgrwt>
</event>
<event>
 9    1  0.7957670E-001  0.2870808E+03  0.7818608E-02  0.1091883E+00
         -2   -1    0    0    0  501 -0.00000000000E+00  0.00000000000E+00  0.90145109132E+01  0.90145109132E+01  0.00000000000E+00 0. -1.
          2   -1    0    0  501    0  0.00000000000E+00 -0.00000000000E+00 -0.22856307347E+04  0.22856307347E+04  0.00000000000E+00 0. -1.
         35    2    1    2    0    0  0.00000000000E+00  0.00000000000E+00 -0.22766162238E+04  0.22946452456E+04  0.28708077749E+03 0.  0.
         25    2    3    3    0    0  0.38246910967E+02  0.35670810566E+02 -0.15442532708E+04  0.15501511659E+04  0.12456018480E+03 0.  0.
         25    2    3    3    0    0 -0.38246910967E+02 -0.35670810566E+02 -0.73236295295E+03  0.74449407975E+03  0.12321001174E+03 0.  0.
          5    1    4    4  502    0  0.55237536992E+02 -0.31792644344E+02 -0.62570891247E+03  0.62896398217E+03  0.47000000000E+01 0. -1.
         -5    1    4    4    0  502 -0.16990626026E+02  0.67463454911E+02 -0.91854435837E+03  0.92118718370E+03  0.47000000000E+01 0. -1.
          5    1    5    5  503    0 -0.59223238462E+02  0.22008967935E+02 -0.50452545491E+03  0.50848776907E+03  0.47000000000E+01 0. -1.
         -5    1    5    5    0  503  0.20976327495E+02 -0.57679778501E+02 -0.22783749804E+03  0.23600631067E+03  0.47000000000E+01 0. -1.
<mgrwt>
<rscale>  0 0.28708078E+03</rscale>
<asrwt>0</asrwt>
<pdfrwt beam="1">  1        2 0.35163563E+00 0.28708078E+03</pdfrwt>
<pdfrwt beam="2">  1       -2 0.13868473E-02 0.28708078E+03</pdfrwt>
<totfact> 0.69360117E+03</totfact>
</mgrwt>
</event>
<event>
 9    1  0.7957670E-001  0.2726213E+03  0.7818608E-02  0.1099789E+00
         -1   -1    0    0    0  501 -0.00000000000E+00  0.00000000000E+00  0.29568593832E+02  0.29568593832E+02  0.00000000000E+00 0.  1.
          1   -1    0    0  501    0  0.00000000000E+00 -0.00000000000E+00 -0.62838941452E+03  0.62838941452E+03  0.00000000000E+00 0.  1.
         35    2    1    2    0    0  0.00000000000E+00 -0.35527136788E-14 -0.59882082069E+03  0.65795800835E+03  0.27262128579E+03 0.  0.
         25    2    3    3    0    0  0.46772535655E+02  0.11899594373E+02 -0.23641951173E+03  0.27173422951E+03  0.12496413694E+03 0.  0.
         25    2    3    3    0    0 -0.46772535655E+02 -0.11899594373E+02 -0.36240130895E+03  0.38622377884E+03  0.12451838488E+03 0.  0.
          5    1    4    4  502    0 -0.56277233736E+01  0.15430013957E+02 -0.21359534422E+03  0.21427743155E+03  0.47000000000E+01 0.  1.
         -5    1    4    4    0  502  0.52400259029E+02 -0.35304195831E+01 -0.22824167514E+02  0.57456797957E+02  0.47000000000E+01 0.  1.
          5    1    5    5  503    0  0.97496270307E+01  0.49009018914E+02 -0.12823916049E+03  0.13771097068E+03  0.47000000000E+01 0. -1.
         -5    1    5    5    0  503 -0.56522162686E+02 -0.60908613287E+02 -0.23416214846E+03  0.24851280816E+03  0.47000000000E+01 0. -1.
<mgrwt>
<rscale>  0 0.27262129E+03</rscale>
<asrwt>0</asrwt>
<pdfrwt beam="1">  1        1 0.96675295E-01 0.27262129E+03</pdfrwt>
<pdfrwt beam="2">  1       -1 0.45490144E-02 0.27262129E+03</pdfrwt>
<totfact> 0.66590311E+03</totfact>
</mgrwt>
</event>
<event>
 9    1  0.7957670E-001  0.2889123E+03  0.7818608E-02  0.1090918E+00
         -2   -1    0    0    0  501 -0.00000000000E+00  0.00000000000E+00  0.69135357997E+02  0.69135357997E+02  0.00000000000E+00 0. -1.
          2   -1    0    0  501    0  0.00000000000E+00 -0.00000000000E+00 -0.30183665593E+03  0.30183665593E+03  0.00000000000E+00 0. -1.
         35    2    1    2    0    0  0.35527136788E-14  0.14210854715E-13 -0.23270129794E+03  0.37097201393E+03  0.28891234148E+03 0.  0.
         25    2    3    3    0    0  0.25429593572E+02  0.63785148254E+02 -0.10038752827E+03  0.17424597320E+03  0.12477497337E+03 0.  0.
         25    2    3    3    0    0 -0.25429593572E+02 -0.63785148254E+02 -0.13231376967E+03  0.19672604073E+03  0.12837052656E+03 0.  0.
          5    1    4    4  502    0  0.31975190580E+02 -0.30955683742E+02 -0.17314838947E+02  0.47985006162E+02  0.47000000000E+01 0.  1.
         -5    1    4    4    0  502 -0.65455970078E+01  0.94740831996E+02 -0.83072689318E+02  0.12626096704E+03  0.47000000000E+01 0.  1.
          5    1    5    5  503    0 -0.69346012632E+01 -0.10104974536E+03 -0.10873718515E+03  0.14867752071E+03  0.47000000000E+01 0.  1.
         -5    1    5    5    0  503 -0.18494992309E+02  0.37264597104E+02 -0.23576584524E+02  0.48048520015E+02  0.47000000000E+01 0.  1.
<mgrwt>
<rscale>  0 0.28891234E+03</rscale>
<asrwt>0</asrwt>
<pdfrwt beam="1">  1        2 0.46436408E-01 0.28891234E+03</pdfrwt>
<pdfrwt beam="2">  1       -2 0.10636209E-01 0.28891234E+03</pdfrwt>
<totfact> 0.64973757E+03</totfact>
</mgrwt>
</event>
<event>
 9    1  0.7957670E-001  0.2790860E+03  0.7818608E-02  0.1096189E+00
         -1   -1    0    0    0  501 -0.00000000000E+00  0.00000000000E+00  0.45950643225E+02  0.45950643225E+02  0.00000000000E+00 0. -1.
          1   -1    0    0  501    0  0.00000000000E+00 -0.00000000000E+00 -0.42376452798E+03  0.42376452798E+03  0.00000000000E+00 0. -1.
         35    2    1    2    0    0  0.35527136788E-14 -0.14210854715E-13 -0.37781388475E+03  0.46971517120E+03  0.27908602714E+03 0.  0.
         25    2    3    3    0    0  0.27835455444E+02 -0.42195129988E+02 -0.13708369841E+03  0.19372937880E+03  0.12721591986E+03 0.  0.
         25    2    3    3    0    0 -0.27835455444E+02  0.42195129988E+02 -0.24073018634E+03  0.27598579241E+03  0.12514748667E+03 0.  0.
          5    1    4    4  502    0  0.13284119597E+02  0.38247383735E+02 -0.90535382311E+01  0.41753883059E+02  0.47000000000E+01 0. -1.
         -5    1    4    4    0  502  0.14551335847E+02 -0.80442513723E+02 -0.12803016018E+03  0.15197549574E+03  0.47000000000E+01 0. -1.
          5    1    5    5  503    0  0.24433734287E+02 -0.11811113817E+02 -0.17148782959E+03  0.17368556497E+03  0.47000000000E+01 0. -1.
         -5    1    5    5    0  503 -0.52269189731E+02  0.54006243805E+02 -0.69242356748E+02  0.10230022743E+03  0.47000000000E+01 0. -1.
<mgrwt>
<rscale>  0 0.27908603E+03</rscale>
<asrwt>0</asrwt>
<pdfrwt beam="1">  1        1 0.65194542E-01 0.27908603E+03</pdfrwt>
<pdfrwt beam="2">  1       -1 0.70693298E-02 0.27908603E+03</pdfrwt>
<totfact> 0.58218161E+03</totfact>
</mgrwt>
</event>
<event>
 9    1  0.7957670E-001  0.2749958E+03  0.7818608E-02  0.1098454E+00
          1   -1    0    0  501    0  0.00000000000E+00  0.00000000000E+00  0.39711224487E+03  0.39711224487E+03  0.00000000000E+00 0. -1.
         -1   -1    0    0    0  501 -0.00000000000E+00 -0.00000000000E+00 -0.47607864451E+02  0.47607864451E+02  0.00000000000E+00 0. -1.
         35    2    1    2    0    0  0.00000000000E+00  0.00000000000E+00  0.34950438042E+03  0.44472010932E+03  0.27499575215E+03 0.  0.
         25    2    3    3    0    0 -0.26417061367E+02 -0.33157443660E+02  0.23535220108E+03  0.26953574270E+03  0.12434460518E+03 0.  0.
         25    2    3    3    0    0  0.26417061367E+02  0.33157443660E+02  0.11415217934E+03  0.17518436662E+03  0.12594270547E+03 0.  0.
          5    1    4    4  502    0 -0.57067945198E+01  0.43448942058E+02  0.13189436952E+03  0.13906326898E+03  0.47000000000E+01 0. -1.
         -5    1    4    4    0  502 -0.20710266847E+02 -0.76606385718E+02  0.10345783156E+03  0.13047247372E+03  0.47000000000E+01 0. -1.
          5    1    5    5  503    0  0.57959056310E+02  0.55090456730E+02  0.35685722011E+02  0.87691341571E+02  0.47000000000E+01 0. -1.
         -5    1    5    5    0  503 -0.31541994943E+02 -0.21933013070E+02  0.78466457328E+02  0.87493025053E+02  0.47000000000E+01 0. -1.
<mgrwt>
<rscale>  0 0.27499575E+03</rscale>
<asrwt>0</asrwt>
<pdfrwt beam="1">  1        1 0.61094189E-01 0.27499575E+03</pdfrwt>
<pdfrwt beam="2">  1       -1 0.73242871E-02 0.27499575E+03</pdfrwt>
<totfact> 0.59948256E+03</totfact>
</mgrwt>
</event>
<event>
 9    1  0.7957670E-001  0.2591372E+03  0.7818608E-02  0.1107663E+00
          2   -1    0    0  501    0  0.00000000000E+00  0.00000000000E+00  0.44845288526E+03  0.44845288526E+03  0.00000000000E+00 0.  1.
         -2   -1    0    0    0  501 -0.00000000000E+00 -0.00000000000E+00 -0.37435426103E+02  0.37435426103E+02  0.00000000000E+00 0.  1.
         35    2    1    2    0    0  0.00000000000E+00  0.00000000000E+00  0.41101745915E+03  0.48588831136E+03  0.25913722115E+03 0.  0.
         25    2    3    3    0    0 -0.15824432309E+01 -0.12739258531E+02  0.14604889256E+03  0.19266454745E+03  0.12499822395E+03 0.  0.
         25    2    3    3    0    0  0.15824432309E+01  0.12739258531E+02  0.26496856659E+03  0.29322376391E+03  0.12492814577E+03 0.  0.
          5    1    4    4  502    0 -0.40153276285E+02 -0.54397508393E+02  0.90813866667E+02  0.11331647230E+03  0.47000000000E+01 0.  1.
         -5    1    4    4    0  502  0.38570833055E+02  0.41658249862E+02  0.55235025895E+02  0.79348075148E+02  0.47000000000E+01 0.  1.
          5    1    5    5  503    0 -0.53159907662E+02 -0.22799669426E+02  0.98049141715E+02  0.11393649503E+03  0.47000000000E+01 0.  1.
         -5    1    5    5    0  503  0.54742350893E+02  0.35538927957E+02  0.16691942488E+03  0.17928726888E+03  0.47000000000E+01 0.  1.
<mgrwt>
<rscale>  0 0.25913722E+03</rscale>
<asrwt>0</asrwt>
<pdfrwt beam="1">  1        2 0.68992748E-01 0.25913722E+03</pdfrwt>
<pdfrwt beam="2">  1       -2 0.57592966E-02 0.25913722E+03</pdfrwt>
<totfact> 0.10979856E+04</totfact>
</mgrwt>
</event>
<event>
 9    1  0.7957670E-001  0.2767941E+03  0.7818608E-02  0.1097453E+00
         -2   -1    0    0    0  501 -0.00000000000E+00  0.00000000000E+00  0.20188353040E+02  0.20188353040E+02  0.00000000000E+00 0.  1.
          2   -1    0    0  501    0  0.00000000000E+00 -0.00000000000E+00 -0.94875212344E+03  0.94875212344E+03  0.00000000000E+00 0.  1.
         35    2    1    2    0    0  0.00000000000E+00  0.00000000000E+00 -0.92856377040E+03  0.96894047648E+03  0.27679409542E+03 0.  0.
         25    2    3    3    0    0  0.67743878633E+01 -0.57270860377E+02 -0.41275783732E+03  0.43504601762E+03  0.12478045279E+03 0.  0.
         25    2    3    3    0    0 -0.67743878633E+01  0.57270860377E+02 -0.51580593308E+03  0.53389445887E+03  0.12514666924E+03 0.  0.
          5    1    4    4  502    0 -0.47253652645E+01 -0.92328681374E+02 -0.35055713392E+03  0.36257317692E+03  0.47000000000E+01 0.  1.
         -5    1    4    4    0  502  0.11499753128E+02  0.35057820998E+02 -0.62200703395E+02  0.72472840692E+02  0.47000000000E+01 0.  1.
          5    1    5    5  503    0 -0.22773755222E+02  0.66435254999E+02 -0.50875696750E+03  0.51360298774E+03  0.47000000000E+01 0. -1.
         -5    1    5    5    0  503  0.15999367359E+02 -0.91643946219E+01 -0.70489655838E+01  0.20291471126E+02  0.47000000000E+01 0. -1.
<mgrwt>
<rscale>  0 0.27679410E+03</rscale>
<asrwt>0</asrwt>
<pdfrwt beam="1">  1        2 0.14596189E+00 0.27679410E+03</pdfrwt>
<pdfrwt beam="2">  1       -2 0.31059000E-02 0.27679410E+03</pdfrwt>
<totfact> 0.11339605E+04</totfact>
</mgrwt>
</event>
<event>
 9    1  0.7957670E-001  0.2732508E+03  0.7818608E-02  0.1099433E+00
         -2   -1    0    0    0  501 -0.00000000000E+00  0.00000000000E+00  0.54351589898E+03  0.54351589898E+03  0.00000000000E+00 0.  1.
          2   -1    0    0  501    0  0.00000000000E+00 -0.00000000000E+00 -0.34343977632E+02  0.34343977632E+02  0.00000000000E+00 0.  1.
         35    2    1    2    0    0  0.00000000000E+00  0.00000000000E+00  0.50917192135E+03  0.57785987661E+03  0.27325078501E+03 0.  0.
         25    2    3    3    0    0 -0.52490747887E+02 -0.26292962621E+02  0.27021007564E+03  0.30332261845E+03  0.12467769402E+03 0.  0.
         25    2    3    3    0    0  0.52490747887E+02  0.26292962621E+02  0.23896184571E+03  0.27453725817E+03  0.12174294197E+03 0.  0.
          5    1    4    4  502    0  0.27008827180E+02  0.19933341494E+02  0.13868699395E+03  0.14276899923E+03  0.47000000000E+01 0.  1.
         -5    1    4    4    0  502 -0.79499575066E+02 -0.46226304114E+02  0.13152308169E+03  0.16055361922E+03  0.47000000000E+01 0.  1.
          5    1    5    5  503    0 -0.41079305612E+00  0.25400976983E+02  0.21451320360E+03  0.21606337704E+03  0.47000000000E+01 0.  1.
         -5    1    5    5    0  503  0.52901540943E+02  0.89198563742E+00  0.24448642114E+02  0.58473881124E+02  0.47000000000E+01 0.  1.
<mgrwt>
<rscale>  0 0.27325079E+03</rscale>
<asrwt>0</asrwt>
<pdfrwt beam="1">  1        2 0.52836893E-02 0.27325079E+03</pdfrwt>
<pdfrwt beam="2">  1       -2 0.83617824E-01 0.27325079E+03</pdfrwt>
<totfact> 0.18820179E+03</totfact>
</mgrwt>
</event>
<event>
 9    1  0.7957670E-001  0.2725861E+03  0.7818608E-02  0.1099809E+00
         -1   -1    0    0    0  501 -0.00000000000E+00  0.00000000000E+00  0.99374983795E+01  0.99374983795E+01  0.00000000000E+00 0. -1.
          1   -1    0    0  501    0  0.00000000000E+00 -0.00000000000E+00 -0.18692621422E+04  0.18692621422E+04  0.00000000000E+00 0. -1.
         35    2    1    2    0    0  0.00000000000E+00  0.00000000000E+00 -0.18593246438E+04  0.18791996406E+04  0.27258605620E+03 0.  0.
         25    2    3    3    0    0 -0.16008608110E+02 -0.39107308050E+02 -0.69630056955E+03  0.70862542840E+03  0.12461884908E+03 0.  0.
         25    2    3    3    0    0  0.16008608110E+02  0.39107308050E+02 -0.11630240743E+04  0.11705742122E+04  0.12583056785E+03 0.  0.
          5    1    4    4  502    0  0.46174044616E+02  0.15019517979E+02 -0.27922613718E+03  0.28345538274E+03  0.47000000000E+01 0.  1.
         -5    1    4    4    0  502 -0.62182652726E+02 -0.54126826030E+02 -0.41707443236E+03  0.42517004566E+03  0.47000000000E+01 0.  1.
          5    1    5    5  503    0  0.11292048738E+02 -0.35799063229E+02 -0.14766269888E+03  0.15243177468E+03  0.47000000000E+01 0. -1.
         -5    1    5    5    0  503  0.47165593722E+01  0.74906371280E+02 -0.10153613754E+04  0.10181424375E+04  0.47000000000E+01 0. -1.
<mgrwt>
<rscale>  0 0.27258606E+03</rscale>
<asrwt>0</asrwt>
<pdfrwt beam="1">  1        1 0.28757899E+00 0.27258606E+03</pdfrwt>
<pdfrwt beam="2">  1       -1 0.15288449E-02 0.27258606E+03</pdfrwt>
<totfact> 0.41642921E+03</totfact>
</mgrwt>
</event>
<event>
 9    1  0.7957670E-001  0.2760324E+03  0.7818608E-02  0.1097876E+00
          1   -1    0    0  501    0  0.00000000000E+00  0.00000000000E+00  0.30141349891E+03  0.30141349891E+03  0.00000000000E+00 0. -1.
         -1   -1    0    0    0  501 -0.00000000000E+00 -0.00000000000E+00 -0.63197123264E+02  0.63197123264E+02  0.00000000000E+00 0. -1.
         35    2    1    2    0    0  0.35527136788E-14  0.71054273576E-14  0.23821637565E+03  0.36461062218E+03  0.27603236074E+03 0.  0.
         25    2    3    3    0    0  0.13693897840E+02 -0.32297702220E+02  0.57456639422E+02  0.14227857509E+03  0.12534457750E+03 0.  0.
         25    2    3    3    0    0 -0.13693897840E+02  0.32297702220E+02  0.18075973623E+03  0.22233204709E+03  0.12460655085E+03 0.  0.
          5    1    4    4  502    0 -0.47335792685E+02  0.17300223445E+02  0.30052063502E+02  0.58865877391E+02  0.47000000000E+01 0.  1.
         -5    1    4    4    0  502  0.61029690525E+02 -0.49597925664E+02  0.27404575921E+02  0.83412697697E+02  0.47000000000E+01 0.  1.
          5    1    5    5  503    0 -0.43144913467E+02 -0.25793758550E+02  0.31744680875E+02  0.59637373367E+02  0.47000000000E+01 0.  1.
         -5    1    5    5    0  503  0.29451015626E+02  0.58091460770E+02  0.14901505535E+03  0.16269467372E+03  0.47000000000E+01 0.  1.
<mgrwt>
<rscale>  0 0.27603236E+03</rscale>
<asrwt>0</asrwt>
<pdfrwt beam="1">  1        1 0.46371307E-01 0.27603236E+03</pdfrwt>
<pdfrwt beam="2">  1       -1 0.97226345E-02 0.27603236E+03</pdfrwt>
<totfact> 0.55110715E+03</totfact>
</mgrwt>
</event>
<event>
 9    1  0.7957670E-001  0.2818942E+03  0.7818608E-02  0.1094659E+00
          2   -1    0    0  501    0  0.00000000000E+00  0.00000000000E+00  0.23439885408E+03  0.23439885408E+03  0.00000000000E+00 0.  1.
         -2   -1    0    0    0  501 -0.00000000000E+00 -0.00000000000E+00 -0.84753356677E+02  0.84753356677E+02  0.00000000000E+00 0.  1.
         35    2    1    2    0    0  0.71054273576E-14  0.14210854715E-13  0.14964549741E+03  0.31915221076E+03  0.28189423325E+03 0.  0.
         25    2    3    3    0    0  0.35382610578E+02 -0.54388525095E+02  0.62871241381E+02  0.15464336284E+03  0.12550591972E+03 0.  0.
         25    2    3    3    0    0 -0.35382610578E+02  0.54388525095E+02  0.86774256027E+02  0.16450884792E+03  0.12378751448E+03 0.  0.
          5    1    4    4  502    0  0.45449299634E+02 -0.18332756364E+02  0.93749046890E+02  0.10589004951E+03  0.47000000000E+01 0. -1.
         -5    1    4    4    0  502 -0.10066689056E+02 -0.36055768731E+02 -0.30877805509E+02  0.48753313327E+02  0.47000000000E+01 0. -1.
          5    1    5    5  503    0 -0.66232212570E+02 -0.90401974379E+01  0.28192701201E+02  0.72700409577E+02  0.47000000000E+01 0.  1.
         -5    1    5    5    0  503  0.30849601992E+02  0.63428722533E+02  0.58581554826E+02  0.91808438344E+02  0.47000000000E+01 0.  1.
<mgrwt>
<rscale>  0 0.28189423E+03</rscale>
<asrwt>0</asrwt>
<pdfrwt beam="1">  1        2 0.36061362E-01 0.28189423E+03</pdfrwt>
<pdfrwt beam="2">  1       -2 0.13038978E-01 0.28189423E+03</pdfrwt>
<totfact> 0.61403762E+03</totfact>
</mgrwt>
</event>
<event>
 9    1  0.7957670E-001  0.2736132E+03  0.7818608E-02  0.1099229E+00
          2   -1    0    0  501    0  0.00000000000E+00  0.00000000000E+00  0.25090197712E+03  0.25090197712E+03  0.00000000000E+00 0.  1.
         -2   -1    0    0    0  501 -0.00000000000E+00 -0.00000000000E+00 -0.74595075855E+02  0.74595075855E+02  0.00000000000E+00 0.  1.
         35    2    1    2    0    0 -0.17763568394E-14 -0.35527136788E-14  0.17630690126E+03  0.32549705297E+03  0.27361324541E+03 0.  0.
         25    2    3    3    0    0  0.11546558753E+02 -0.25465913245E+02  0.14486091061E+03  0.19348081079E+03  0.12517310000E+03 0.  0.
         25    2    3    3    0    0 -0.11546558753E+02  0.25465913245E+02  0.31445990649E+02  0.13201624219E+03  0.12513034051E+03 0.  0.
          5    1    4    4  502    0 -0.41485662814E+02  0.14384327206E+02  0.10970210570E+03  0.11825654774E+03  0.47000000000E+01 0.  1.
         -5    1    4    4    0  502  0.53032221567E+02 -0.39850240452E+02  0.35158804917E+02  0.75224263052E+02  0.47000000000E+01 0.  1.
          5    1    5    5  503    0  0.14864746899E+01 -0.25229111197E+02  0.64840085976E+02  0.69749870310E+02  0.47000000000E+01 0.  1.
         -5    1    5    5    0  503 -0.13033033443E+02  0.50695024443E+02 -0.33394095327E+02  0.62266371877E+02  0.47000000000E+01 0.  1.
<mgrwt>
<rscale>  0 0.27361325E+03</rscale>
<asrwt>0</asrwt>
<pdfrwt beam="1">  1        2 0.38600304E-01 0.27361325E+03</pdfrwt>
<pdfrwt beam="2">  1       -2 0.11476166E-01 0.27361325E+03</pdfrwt>
<totfact> 0.70057015E+03</totfact>
</mgrwt>
</event>
<event>
 9    1  0.7957670E-001  0.2847016E+03  0.7818608E-02  0.1093148E+00
          1   -1    0    0  501    0  0.00000000000E+00  0.00000000000E+00  0.89951832653E+02  0.89951832653E+02  0.00000000000E+00 0. -1.
         -1   -1    0    0    0  501 -0.00000000000E+00 -0.00000000000E+00 -0.22527330429E+03  0.22527330429E+03  0.00000000000E+00 0. -1.
         35    2    1    2    0    0 -0.71054273576E-14 -0.53290705182E-14 -0.13532147164E+03  0.31522513694E+03  0.28470157406E+03 0.  0.
         25    2    3    3    0    0  0.36277709040E+02  0.66074854431E+01 -0.13174130541E+03  0.18553526158E+03  0.12533088487E+03 0.  0.
         25    2    3    3    0    0 -0.36277709040E+02 -0.66074854431E+01 -0.35801662303E+01  0.12968987536E+03  0.12428561922E+03 0.  0.
          5    1    4    4  502    0  0.22575282094E+02 -0.51532470621E+02 -0.10645848371E+03  0.12050202340E+03  0.47000000000E+01 0. -1.
         -5    1    4    4    0  502  0.13702426946E+02  0.58139956064E+02 -0.25282821704E+02  0.65033238184E+02  0.47000000000E+01 0. -1.
          5    1    5    5  503    0  0.37351280233E+02  0.41349177153E+01  0.29615597892E+02  0.48076910446E+02  0.47000000000E+01 0. -1.
         -5    1    5    5    0  503 -0.73628989274E+02 -0.10742403158E+02 -0.33195764122E+02  0.81612964918E+02  0.47000000000E+01 0. -1.
<mgrwt>
<rscale>  0 0.28470157E+03</rscale>
<asrwt>0</asrwt>
<pdfrwt beam="1">  1        1 0.13838744E-01 0.28470157E+03</pdfrwt>
<pdfrwt beam="2">  1       -1 0.34657431E-01 0.28470157E+03</pdfrwt>
<totfact> 0.32888000E+03</totfact>
</mgrwt>
</event>
<event>
 9    1  0.7957670E-001  0.2725133E+03  0.7818608E-02  0.1099850E+00
         -2   -1    0    0    0  501 -0.00000000000E+00  0.00000000000E+00  0.76846646565E+01  0.76846646565E+01  0.00000000000E+00 0. -1.
          2   -1    0    0  501    0  0.00000000000E+00 -0.00000000000E+00 -0.24159650209E+04  0.24159650209E+04  0.00000000000E+00 0. -1.
         35    2    1    2    0    0  0.00000000000E+00  0.00000000000E+00 -0.24082803562E+04  0.24236496856E+04  0.27251334652E+03 0.  0.
         25    2    3    3    0    0 -0.13644201746E+02  0.33212741400E+02 -0.83376504945E+03  0.84377542590E+03  0.12451329741E+03 0.  0.
         25    2    3    3    0    0  0.13644201746E+02 -0.33212741400E+02 -0.15745153068E+04  0.15798742597E+04  0.12495989185E+03 0.  0.
          5    1    4    4  502    0 -0.63523854734E+02 -0.44783888626E+01 -0.32972525113E+03  0.33585140661E+03  0.47000000000E+01 0.  1.
         -5    1    4    4    0  502  0.49879652989E+02  0.37691130262E+02 -0.50403979832E+03  0.50792401929E+03  0.47000000000E+01 0.  1.
          5    1    5    5  503    0  0.50213695013E+02  0.69624714420E+01 -0.12314803749E+04  0.12325323099E+04  0.47000000000E+01 0. -1.
         -5    1    5    5    0  503 -0.36569493267E+02 -0.40175212842E+02 -0.34303493187E+03  0.34734194974E+03  0.47000000000E+01 0. -1.
<mgrwt>
<rscale>  0 0.27251335E+03</rscale>
<asrwt>0</asrwt>
<pdfrwt beam="1">  1        2 0.37168682E+00 0.27251335E+03</pdfrwt>
<pdfrwt beam="2">  1       -2 0.11822565E-02 0.27251335E+03</pdfrwt>
<totfact> 0.74471040E+03</totfact>
</mgrwt>
</event>
<event>
 9    1  0.7957670E-001  0.2749115E+03  0.7818608E-02  0.1098501E+00
         -2   -1    0    0    0  501 -0.00000000000E+00  0.00000000000E+00  0.10883818407E+02  0.10883818407E+02  0.00000000000E+00 0.  1.
          2   -1    0    0  501    0  0.00000000000E+00 -0.00000000000E+00 -0.17359792325E+04  0.17359792325E+04  0.00000000000E+00 0.  1.
         35    2    1    2    0    0 -0.71054273576E-14  0.35527136788E-14 -0.17250954141E+04  0.17468630509E+04  0.27491149649E+03 0.  0.
         25    2    3    3    0    0  0.53838176608E+02  0.92244198067E+01 -0.89831973524E+03  0.90874423053E+03  0.12591302794E+03 0.  0.
         25    2    3    3    0    0 -0.53838176608E+02 -0.92244198067E+01 -0.82677567884E+03  0.83811882037E+03  0.12610112910E+03 0.  0.
          5    1    4    4  502    0  0.59463256606E+02 -0.29949566785E+02 -0.79817206316E+03  0.80095791889E+03  0.47000000000E+01 0. -1.
         -5    1    4    4    0  502 -0.56250799982E+01  0.39173986592E+02 -0.10014767209E+03  0.10778631163E+03  0.47000000000E+01 0. -1.
          5    1    5    5  503    0 -0.73878622446E+02 -0.13181185760E+02 -0.80262895813E+03  0.80614336749E+03  0.47000000000E+01 0. -1.
         -5    1    5    5    0  503  0.20040445838E+02  0.39567659529E+01 -0.24146720704E+02  0.31975452881E+02  0.47000000000E+01 0. -1.
<mgrwt>
<rscale>  0 0.27491150E+03</rscale>
<asrwt>0</asrwt>
<pdfrwt beam="1">  1        2 0.26707370E+00 0.27491150E+03</pdfrwt>
<pdfrwt beam="2">  1       -2 0.16744338E-02 0.27491150E+03</pdfrwt>
<totfact> 0.10268179E+04</totfact>
</mgrwt>
</event>
<event>
 9    1  0.7957670E-001  0.2759409E+03  0.7818608E-02  0.1097927E+00
         -2   -1    0    0    0  501 -0.00000000000E+00  0.00000000000E+00  0.67055345724E+02  0.67055345724E+02  0.00000000000E+00 0.  1.
          2   -1    0    0  501    0  0.00000000000E+00 -0.00000000000E+00 -0.28388250542E+03  0.28388250542E+03  0.00000000000E+00 0.  1.
         35    2    1    2    0    0  0.00000000000E+00  0.00000000000E+00 -0.21682715970E+03  0.35093785114E+03  0.27594085994E+03 0.  0.
         25    2    3    3    0    0 -0.36634228817E+02  0.26407031476E+02 -0.16048233352E+03  0.20843326274E+03  0.12510174904E+03 0.  0.
         25    2    3    3    0    0  0.36634228817E+02 -0.26407031476E+02 -0.56344826181E+02  0.14250458840E+03  0.12285528172E+03 0.  0.
          5    1    4    4  502    0 -0.25162316088E+02  0.63490160534E+02 -0.34769181709E+02  0.76779741027E+02  0.47000000000E+01 0. -1.
         -5    1    4    4    0  502 -0.11471912729E+02 -0.37083129058E+02 -0.12571315181E+03  0.13165352171E+03  0.47000000000E+01 0. -1.
          5    1    5    5  503    0 -0.25763603466E+02 -0.55450544215E+02 -0.33232273701E+02  0.69749552921E+02  0.47000000000E+01 0. -1.
         -5    1    5    5    0  503  0.62397832283E+02  0.29043512739E+02 -0.23112552480E+02  0.72755035482E+02  0.47000000000E+01 0. -1.
<mgrwt>
<rscale>  0 0.27594086E+03</rscale>
<asrwt>0</asrwt>
<pdfrwt beam="1">  1        2 0.43674232E-01 0.27594086E+03</pdfrwt>
<pdfrwt beam="2">  1       -2 0.10316207E-01 0.27594086E+03</pdfrwt>
<totfact> 0.72759561E+03</totfact>
</mgrwt>
</event>
<event>
 9    1  0.7957670E-001  0.2732793E+03  0.7818608E-02  0.1099417E+00
          2   -1    0    0  501    0  0.00000000000E+00  0.00000000000E+00  0.43163894840E+03  0.43163894840E+03  0.00000000000E+00 0. -1.
         -2   -1    0    0    0  501 -0.00000000000E+00 -0.00000000000E+00 -0.43254661294E+02  0.43254661294E+02  0.00000000000E+00 0. -1.
         35    2    1    2    0    0  0.35527136788E-14  0.00000000000E+00  0.38838428710E+03  0.47489360969E+03  0.27327931875E+03 0.  0.
         25    2    3    3    0    0  0.11764171388E+02  0.18749803743E+02  0.10447830478E+03  0.16432757339E+03  0.12489149026E+03 0.  0.
         25    2    3    3    0    0 -0.11764171388E+02 -0.18749803743E+02  0.28390598233E+03  0.31056603630E+03  0.12393024341E+03 0.  0.
          5    1    4    4  502    0  0.43208011159E+02 -0.32917374265E+02  0.15582677473E+02  0.56704458326E+02  0.47000000000E+01 0.  1.
         -5    1    4    4    0  502 -0.31443839771E+02  0.51667178008E+02  0.88895627303E+02  0.10762311507E+03  0.47000000000E+01 0.  1.
          5    1    5    5  503    0 -0.69780865941E+01 -0.21948364265E+02 -0.28821239661E+01  0.23681660098E+02  0.47000000000E+01 0. -1.
         -5    1    5    5    0  503 -0.47860847934E+01  0.31985605220E+01  0.28678810629E+03  0.28688437620E+03  0.47000000000E+01 0. -1.
<mgrwt>
<rscale>  0 0.27327932E+03</rscale>
<asrwt>0</asrwt>
<pdfrwt beam="1">  1        2 0.66405989E-01 0.27327932E+03</pdfrwt>
<pdfrwt beam="2">  1       -2 0.66545636E-02 0.27327932E+03</pdfrwt>
<totfact> 0.91910856E+03</totfact>
</mgrwt>
</event>
<event>
 9    1  0.7957670E-001  0.3001618E+03  0.7818608E-02  0.1085160E+00
          2   -1    0    0  501    0  0.00000000000E+00  0.00000000000E+00  0.30423586599E+02  0.30423586599E+02  0.00000000000E+00 0. -1.
         -2   -1    0    0    0  501 -0.00000000000E+00 -0.00000000000E+00 -0.74035559505E+03  0.74035559505E+03  0.00000000000E+00 0. -1.
         35    2    1    2    0    0  0.28421709430E-13 -0.71054273576E-14 -0.70993200845E+03  0.77077918164E+03  0.30016177345E+03 0.  0.
         25    2    3    3    0    0 -0.69913461611E+02  0.37900451718E+02 -0.34017689978E+03  0.37108180241E+03  0.12512811269E+03 0.  0.
         25    2    3    3    0    0  0.69913461611E+02 -0.37900451718E+02 -0.36975510867E+03  0.39969737923E+03  0.12928580054E+03 0.  0.
          5    1    4    4  502    0 -0.74679939721E+02  0.47913997530E+02 -0.11377426166E+03  0.14435898716E+03  0.47000000000E+01 0. -1.
         -5    1    4    4    0  502  0.47664781091E+01 -0.10013545812E+02 -0.22640263811E+03  0.22672281526E+03  0.47000000000E+01 0. -1.
          5    1    5    5  503    0 -0.29279115611E+02 -0.23639674215E+02 -0.40439154221E+02  0.55439300159E+02  0.47000000000E+01 0.  1.
         -5    1    5    5    0  503  0.99192577223E+02 -0.14260777503E+02 -0.32931595445E+03  0.34425807907E+03  0.47000000000E+01 0.  1.
<mgrwt>
<rscale>  0 0.30016177E+03</rscale>
<asrwt>0</asrwt>
<pdfrwt beam="1">  1        2 0.46805521E-02 0.30016177E+03</pdfrwt>
<pdfrwt beam="2">  1       -2 0.11390085E+00 0.30016177E+03</pdfrwt>
<totfact> 0.10840529E+03</totfact>
</mgrwt>
</event>
<event>
 9    1  0.7957670E-001  0.2718892E+03  0.7818608E-02  0.1100203E+00
         -2   -1    0    0    0  501 -0.00000000000E+00  0.00000000000E+00  0.90919693347E+02  0.90919693347E+02  0.00000000000E+00 0.  1.
          2   -1    0    0  501    0  0.00000000000E+00 -0.00000000000E+00 -0.20326653214E+03  0.20326653214E+03  0.00000000000E+00 0.  1.
         35    2    1    2    0    0 -0.71054273576E-14  0.00000000000E+00 -0.11234683880E+03  0.29418622549E+03  0.27188917426E+03 0.  0.
         25    2    3    3    0    0  0.41328723810E+02  0.32084029567E+02 -0.14371046477E+02  0.12643071332E+03  0.11419610295E+03 0.  0.
         25    2    3    3    0    0 -0.41328723810E+02 -0.32084029567E+02 -0.97975792321E+02  0.16775551217E+03  0.12571876398E+03 0.  0.
          5    1    4    4  502    0 -0.14227077019E+01  0.60755026873E+02 -0.35559016645E+02  0.70567209469E+02  0.47000000000E+01 0.  1.
         -5    1    4    4    0  502  0.42751431512E+02 -0.28670997306E+02  0.21187970169E+02  0.55863503853E+02  0.47000000000E+01 0.  1.
          5    1    5    5  503    0 -0.20739962559E+02 -0.19368784736E+02  0.27551583456E+02  0.39830586489E+02  0.47000000000E+01 0.  1.
         -5    1    5    5    0  503 -0.20588761251E+02 -0.12715244830E+02 -0.12552737578E+03  0.12792492568E+03  0.47000000000E+01 0.  1.
<mgrwt>
<rscale>  0 0.27188917E+03</rscale>
<asrwt>0</asrwt>
<pdfrwt beam="1">  1        2 0.31271774E-01 0.27188917E+03</pdfrwt>
<pdfrwt beam="2">  1       -2 0.13987645E-01 0.27188917E+03</pdfrwt>
<totfact> 0.63851518E+03</totfact>
</mgrwt>
</event>
<event>
 9    1  0.7957670E-001  0.2734394E+03  0.7818608E-02  0.1099327E+00
          1   -1    0    0  501    0  0.00000000000E+00  0.00000000000E+00  0.41196103713E+02  0.41196103713E+02  0.00000000000E+00 0. -1.
         -1   -1    0    0    0  501 -0.00000000000E+00 -0.00000000000E+00 -0.45373894364E+03  0.45373894364E+03  0.00000000000E+00 0. -1.
         35    2    1    2    0    0  0.35527136788E-14 -0.71054273576E-14 -0.41254283992E+03  0.49493504735E+03  0.27343940156E+03 0.  0.
         25    2    3    3    0    0  0.10745389942E+02  0.41887321821E+02 -0.14165680937E+03  0.19396992241E+03  0.12525042126E+03 0.  0.
         25    2    3    3    0    0 -0.10745389942E+02 -0.41887321821E+02 -0.27088603056E+03  0.30096512494E+03  0.12381742100E+03 0.  0.
          5    1    4    4  502    0 -0.42693430508E+02 -0.19778595882E+02 -0.74235301764E+02  0.88016429669E+02  0.47000000000E+01 0.  1.
         -5    1    4    4    0  502  0.53438820450E+02  0.61665917703E+02 -0.67421507602E+02  0.10595349274E+03  0.47000000000E+01 0.  1.
          5    1    5    5  503    0  0.10558455873E+02  0.56259456721E+00  0.10460888916E+02  0.15598644171E+02  0.47000000000E+01 0. -1.
         -5    1    5    5    0  503 -0.21303845815E+02 -0.42449916388E+02 -0.28134691947E+03  0.28536648077E+03  0.47000000000E+01 0. -1.
<mgrwt>
<rscale>  0 0.27343940E+03</rscale>
<asrwt>0</asrwt>
<pdfrwt beam="1">  1        1 0.63378621E-02 0.27343940E+03</pdfrwt>
<pdfrwt beam="2">  1       -1 0.69805991E-01 0.27343940E+03</pdfrwt>
<totfact> 0.25758229E+03</totfact>
</mgrwt>
</event>
<event>
 9    1  0.7957670E-001  0.2738251E+03  0.7818608E-02  0.1099110E+00
          1   -1    0    0  501    0  0.00000000000E+00  0.00000000000E+00  0.12449300176E+03  0.12449300176E+03  0.00000000000E+00 0.  1.
         -1   -1    0    0    0  501 -0.00000000000E+00 -0.00000000000E+00 -0.15057103134E+03  0.15057103134E+03  0.00000000000E+00 0.  1.
         35    2    1    2    0    0  0.35527136788E-14  0.71054273576E-14 -0.26078029578E+02  0.27506403310E+03  0.27382505123E+03 0.  0.
         25    2    3    3    0    0  0.19686279104E+02 -0.49516505857E+02  0.27489977608E+01  0.13630683158E+03  0.12542950773E+03 0.  0.
         25    2    3    3    0    0 -0.19686279104E+02  0.49516505857E+02 -0.28827027339E+02  0.13875720152E+03  0.12483240577E+03 0.  0.
          5    1    4    4  502    0  0.11045141401E+02 -0.86276892756E+02 -0.23325623856E+02  0.90176893385E+02  0.47000000000E+01 0.  1.
         -5    1    4    4    0  502  0.86411377023E+01  0.36760386899E+02  0.26074621617E+02  0.46129938199E+02  0.47000000000E+01 0.  1.
          5    1    5    5  503    0 -0.17779800031E+02  0.79662764477E+02  0.17157176776E+02  0.83538829583E+02  0.47000000000E+01 0.  1.
         -5    1    5    5    0  503 -0.19064790726E+01 -0.30146258620E+02 -0.45984204115E+02  0.55218371936E+02  0.47000000000E+01 0.  1.
<mgrwt>
<rscale>  0 0.27382505E+03</rscale>
<asrwt>0</asrwt>
<pdfrwt beam="1">  1        1 0.19152769E-01 0.27382505E+03</pdfrwt>
<pdfrwt beam="2">  1       -1 0.23164774E-01 0.27382505E+03</pdfrwt>
<totfact> 0.42464881E+03</totfact>
</mgrwt>
</event>
<event>
 9    1  0.7957670E-001  0.2733522E+03  0.7818608E-02  0.1099376E+00
          2   -1    0    0  501    0  0.00000000000E+00  0.00000000000E+00  0.95063729462E+02  0.95063729462E+02  0.00000000000E+00 0.  1.
         -2   -1    0    0    0  501 -0.00000000000E+00 -0.00000000000E+00 -0.19650357665E+03  0.19650357665E+03  0.00000000000E+00 0.  1.
         35    2    1    2    0    0  0.00000000000E+00  0.00000000000E+00 -0.10143984719E+03  0.29156730611E+03  0.27335224783E+03 0.  0.
         25    2    3    3    0    0 -0.49219719627E+01  0.40764906659E+02 -0.10866691918E+03  0.17069320606E+03  0.12506665363E+03 0.  0.
         25    2    3    3    0    0  0.49219719627E+01 -0.40764906659E+02  0.72270719919E+01  0.12087410005E+03  0.11345622094E+03 0.  0.
          5    1    4    4  502    0 -0.23048060797E+01  0.18214529183E+02  0.27040066322E+02  0.33020242142E+02  0.47000000000E+01 0.  1.
         -5    1    4    4    0  502 -0.26171658830E+01  0.22550377476E+02 -0.13570698550E+03  0.13767296392E+03  0.47000000000E+01 0.  1.
          5    1    5    5  503    0  0.17186464650E+01 -0.35955008228E+02  0.58616789080E+02  0.68947330075E+02  0.47000000000E+01 0. -1.
         -5    1    5    5    0  503  0.32033254978E+01 -0.48098984307E+01 -0.51389717088E+02  0.51926769971E+02  0.47000000000E+01 0. -1.
<mgrwt>
<rscale>  0 0.27335225E+03</rscale>
<asrwt>0</asrwt>
<pdfrwt beam="1">  1        2 0.14625189E-01 0.27335225E+03</pdfrwt>
<pdfrwt beam="2">  1       -2 0.30231319E-01 0.27335225E+03</pdfrwt>
<totfact> 0.40269341E+03</totfact>
</mgrwt>
</event>
<event>
 9    1  0.7957670E-001  0.2839363E+03  0.7818608E-02  0.1093558E+00
          4   -1    0    0  501    0  0.00000000000E+00  0.00000000000E+00  0.10769873346E+04  0.10769873346E+04  0.00000000000E+00 0. -1.
         -4   -1    0    0    0  501 -0.00000000000E+00 -0.00000000000E+00 -0.18714198351E+02  0.18714198351E+02  0.00000000000E+00 0. -1.
         35    2    1    2    0    0  0.00000000000E+00  0.00000000000E+00  0.10582731363E+04  0.10957015330E+04  0.28393629287E+03 0.  0.
         25    2    3    3    0    0  0.23603360158E+02 -0.15316610748E+02  0.29096633076E+03  0.31780299520E+03  0.12468207950E+03 0.  0.
         25    2    3    3    0    0 -0.23603360158E+02  0.15316610748E+02  0.76730680550E+03  0.77789853776E+03  0.12479857413E+03 0.  0.
          5    1    4    4  502    0 -0.36647525422E+01  0.35193342149E+02  0.20270928936E+02  0.41048779553E+02  0.47000000000E+01 0.  1.
         -5    1    4    4    0  502  0.27268112700E+02 -0.50509952898E+02  0.27069540182E+03  0.27675421565E+03  0.47000000000E+01 0.  1.
          5    1    5    5  503    0 -0.17179421982E+02 -0.54631132645E+02  0.33199246424E+03  0.33692844865E+03  0.47000000000E+01 0. -1.
         -5    1    5    5    0  503 -0.64239381755E+01  0.69947743393E+02  0.43531434126E+03  0.44097008912E+03  0.47000000000E+01 0. -1.
<mgrwt>
<rscale>  0 0.28393629E+03</rscale>
<asrwt>0</asrwt>
<pdfrwt beam="1">  1        4 0.16569031E+00 0.28393629E+03</pdfrwt>
<pdfrwt beam="2">  1       -4 0.28791083E-02 0.28393629E+03</pdfrwt>
<totfact> 0.26294413E+02</totfact>
</mgrwt>
</event>
<event>
 9    1  0.7957670E-001  0.2733706E+03  0.7818608E-02  0.1099366E+00
          2   -1    0    0  501    0  0.00000000000E+00  0.00000000000E+00  0.17519415197E+03  0.17519415197E+03  0.00000000000E+00 0. -1.
         -2   -1    0    0    0  501 -0.00000000000E+00 -0.00000000000E+00 -0.10664093391E+03  0.10664093391E+03  0.00000000000E+00 0. -1.
         35    2    1    2    0    0  0.00000000000E+00  0.00000000000E+00  0.68553218061E+02  0.28183508588E+03  0.27337057619E+03 0.  0.
         25    2    3    3    0    0  0.46581346446E+02  0.19488915877E+02  0.56110278375E+02  0.14653739959E+03  0.12559938877E+03 0.  0.
         25    2    3    3    0    0 -0.46581346446E+02 -0.19488915877E+02  0.12442939686E+02  0.13529768629E+03  0.12490395306E+03 0.  0.
          5    1    4    4  502    0  0.25259487198E+02  0.43666335860E+02 -0.26900576608E+02  0.57363068283E+02  0.47000000000E+01 0.  1.
         -5    1    4    4    0  502  0.21321859248E+02 -0.24177419983E+02  0.83010854983E+02  0.89174331306E+02  0.47000000000E+01 0.  1.
          5    1    5    5  503    0 -0.51784792215E+02 -0.36510106374E+02 -0.43105862635E+02  0.76777978391E+02  0.47000000000E+01 0.  1.
         -5    1    5    5    0  503  0.52034457690E+01  0.17021190497E+02  0.55548802321E+02  0.58519707903E+02  0.47000000000E+01 0.  1.
<mgrwt>
<rscale>  0 0.27337058E+03</rscale>
<asrwt>0</asrwt>
<pdfrwt beam="1">  1        2 0.26952946E-01 0.27337058E+03</pdfrwt>
<pdfrwt beam="2">  1       -2 0.16406298E-01 0.27337058E+03</pdfrwt>
<totfact> 0.57775581E+03</totfact>
</mgrwt>
</event>
<event>
 9    1  0.7957670E-001  0.2700771E+03  0.7818608E-02  0.1101235E+00
         -1   -1    0    0    0  501 -0.00000000000E+00  0.00000000000E+00  0.96987708833E+01  0.96987708833E+01  0.00000000000E+00 0.  1.
          1   -1    0    0  501    0  0.00000000000E+00 -0.00000000000E+00 -0.18801778057E+04  0.18801778057E+04  0.00000000000E+00 0.  1.
         35    2    1    2    0    0 -0.35527136788E-14  0.35527136788E-14 -0.18704790348E+04  0.18898765766E+04  0.27007712793E+03 0.  0.
         25    2    3    3    0    0 -0.77053243142E+01  0.63254475468E+01 -0.12767847123E+04  0.12830537797E+04  0.12628704053E+03 0.  0.
         25    2    3    3    0    0  0.77053243142E+01 -0.63254475468E+01 -0.59369432251E+03  0.60682279693E+03  0.12514621440E+03 0.  0.
          5    1    4    4  502    0 -0.25717314038E+02 -0.14554905397E+02 -0.72337001291E+02  0.78281270226E+02  0.47000000000E+01 0.  1.
         -5    1    4    4    0  502  0.18011989724E+02  0.20880352944E+02 -0.12044477110E+04  0.12047725094E+04  0.47000000000E+01 0.  1.
          5    1    5    5  503    0  0.31791244717E+02  0.52148817423E+02 -0.32746803644E+03  0.33314799608E+03  0.47000000000E+01 0. -1.
         -5    1    5    5    0  503 -0.24085920403E+02 -0.58474264969E+02 -0.26622628607E+03  0.27367480085E+03  0.47000000000E+01 0. -1.
<mgrwt>
<rscale>  0 0.27007713E+03</rscale>
<asrwt>0</asrwt>
<pdfrwt beam="1">  1        1 0.28925816E+00 0.27007713E+03</pdfrwt>
<pdfrwt beam="2">  1       -1 0.14921184E-02 0.27007713E+03</pdfrwt>
<totfact> 0.42444708E+03</totfact>
</mgrwt>
</event>
<event>
 9    1  0.7957670E-001  0.2767334E+03  0.7818608E-02  0.1097487E+00
          1   -1    0    0  501    0  0.00000000000E+00  0.00000000000E+00  0.23665534431E+03  0.23665534431E+03  0.00000000000E+00 0. -1.
         -1   -1    0    0    0  501 -0.00000000000E+00 -0.00000000000E+00 -0.80899662459E+02  0.80899662459E+02  0.00000000000E+00 0. -1.
         35    2    1    2    0    0  0.00000000000E+00  0.71054273576E-14  0.15575568185E+03  0.31755500677E+03  0.27673335523E+03 0.  0.
         25    2    3    3    0    0  0.29174853197E+02  0.51579854523E+02  0.95883791955E+02  0.16697397663E+03  0.12318666268E+03 0.  0.
         25    2    3    3    0    0 -0.29174853197E+02 -0.51579854523E+02  0.59871889898E+02  0.15058103014E+03  0.12481326045E+03 0.  0.
          5    1    4    4  502    0 -0.29401219870E+02  0.15771116488E+02  0.92083377520E+02  0.98054057848E+02  0.47000000000E+01 0. -1.
         -5    1    4    4    0  502  0.58576073067E+02  0.35808738035E+02  0.38004144349E+01  0.68919918786E+02  0.47000000000E+01 0. -1.
          5    1    5    5  503    0 -0.11719238188E+02  0.19680202837E+02 -0.27694466059E+02  0.36245335945E+02  0.47000000000E+01 0. -1.
         -5    1    5    5    0  503 -0.17455615009E+02 -0.71260057360E+02  0.87566355957E+02  0.11433569419E+03  0.47000000000E+01 0. -1.
<mgrwt>
<rscale>  0 0.27673336E+03</rscale>
<asrwt>0</asrwt>
<pdfrwt beam="1">  1        1 0.36408514E-01 0.27673336E+03</pdfrwt>
<pdfrwt beam="2">  1       -1 0.12446102E-01 0.27673336E+03</pdfrwt>
<totfact> 0.50872963E+03</totfact>
</mgrwt>
</event>
<event>
 9    1  0.7957670E-001  0.2752199E+03  0.7818608E-02  0.1098329E+00
         -2   -1    0    0    0  501 -0.00000000000E+00  0.00000000000E+00  0.10133089155E+02  0.10133089155E+02  0.00000000000E+00 0. -1.
          2   -1    0    0  501    0  0.00000000000E+00 -0.00000000000E+00 -0.18687777747E+04  0.18687777747E+04  0.00000000000E+00 0. -1.
         35    2    1    2    0    0  0.00000000000E+00  0.00000000000E+00 -0.18586446855E+04  0.18789108638E+04  0.27521985249E+03 0.  0.
         25    2    3    3    0    0 -0.11978482731E+02  0.48826625651E+02 -0.74749146000E+03  0.75956398934E+03  0.12516568103E+03 0.  0.
         25    2    3    3    0    0  0.11978482731E+02 -0.48826625651E+02 -0.11111532255E+04  0.11193468745E+04  0.12549267480E+03 0.  0.
          5    1    4    4  502    0  0.18044472015E+02 -0.11514197541E+02 -0.22419748815E+02  0.31351472888E+02  0.47000000000E+01 0.  1.
         -5    1    4    4    0  502 -0.30022954745E+02  0.60340823193E+02 -0.72507171119E+03  0.72821251645E+03  0.47000000000E+01 0.  1.
          5    1    5    5  503    0  0.34473097469E+02  0.10587802285E+02 -0.10389402397E+03  0.11007522075E+03  0.47000000000E+01 0. -1.
         -5    1    5    5    0  503 -0.22494614738E+02 -0.59414427936E+02 -0.10072592016E+04  0.10092716537E+04  0.47000000000E+01 0. -1.
<mgrwt>
<rscale>  0 0.27521985E+03</rscale>
<asrwt>0</asrwt>
<pdfrwt beam="1">  1        2 0.28750419E+00 0.27521985E+03</pdfrwt>
<pdfrwt beam="2">  1       -2 0.15589372E-02 0.27521985E+03</pdfrwt>
<totfact> 0.97102192E+03</totfact>
</mgrwt>
</event>
<event>
 9    1  0.7957670E-001  0.2739075E+03  0.7818608E-02  0.1099064E+00
          1   -1    0    0  501    0  0.00000000000E+00  0.00000000000E+00  0.37415830778E+03  0.37415830778E+03  0.00000000000E+00 0. -1.
         -1   -1    0    0    0  501 -0.00000000000E+00 -0.00000000000E+00 -0.50129377951E+02  0.50129377951E+02  0.00000000000E+00 0. -1.
         35    2    1    2    0    0  0.00000000000E+00  0.71054273576E-14  0.32402892982E+03  0.42428768573E+03  0.27390745316E+03 0.  0.
         25    2    3    3    0    0 -0.32438789872E+02 -0.21832995240E+02  0.99258953177E+02  0.16428428388E+03  0.12493210706E+03 0.  0.
         25    2    3    3    0    0  0.32438789872E+02  0.21832995240E+02  0.22476997665E+03  0.26000340185E+03  0.12470473849E+03 0.  0.
          5    1    4    4  502    0 -0.42588890761E+02  0.42654639618E+02  0.70275028491E+02  0.92703298359E+02  0.47000000000E+01 0.  1.
         -5    1    4    4    0  502  0.10150100889E+02 -0.64487634858E+02  0.28983924686E+02  0.71580985519E+02  0.47000000000E+01 0.  1.
          5    1    5    5  503    0  0.43107195819E+02  0.33916256115E+02  0.23431131811E+03  0.24069155896E+03  0.47000000000E+01 0. -1.
         -5    1    5    5    0  503 -0.10668405947E+02 -0.12083260875E+02 -0.95413414627E+01  0.19311842888E+02  0.47000000000E+01 0. -1.
<mgrwt>
<rscale>  0 0.27390745E+03</rscale>
<asrwt>0</asrwt>
<pdfrwt beam="1">  1        1 0.57562815E-01 0.27390745E+03</pdfrwt>
<pdfrwt beam="2">  1       -1 0.77122122E-02 0.27390745E+03</pdfrwt>
<totfact> 0.59789460E+03</totfact>
</mgrwt>
</event>
<event>
 9    1  0.7957670E-001  0.2709504E+03  0.7818608E-02  0.1100737E+00
          1   -1    0    0  501    0  0.00000000000E+00  0.00000000000E+00  0.52692131298E+02  0.52692131298E+02  0.00000000000E+00 0.  1.
         -1   -1    0    0    0  501 -0.00000000000E+00 -0.00000000000E+00 -0.34831645764E+03  0.34831645764E+03  0.00000000000E+00 0.  1.
         35    2    1    2    0    0  0.71054273576E-14  0.88817841970E-15 -0.29562432634E+03  0.40100858893E+03  0.27095044948E+03 0.  0.
         25    2    3    3    0    0 -0.24727171553E+02 -0.71285121264E+01 -0.81895413233E+02  0.15215845255E+03  0.12563075769E+03 0.  0.
         25    2    3    3    0    0  0.24727171553E+02  0.71285121264E+01 -0.21372891311E+03  0.24885013638E+03  0.12483626629E+03 0.  0.
          5    1    4    4  502    0 -0.89059744987E+01 -0.90780500841E+01 -0.11463938063E+03  0.11543831672E+03  0.47000000000E+01 0. -1.
         -5    1    4    4    0  502 -0.15821197055E+02  0.19495379577E+01  0.32743967400E+02  0.36720135833E+02  0.47000000000E+01 0. -1.
          5    1    5    5  503    0  0.69372384446E+02 -0.18604352310E+02 -0.93791567915E+02  0.11822689144E+03  0.47000000000E+01 0. -1.
         -5    1    5    5    0  503 -0.44645212893E+02  0.25732864437E+02 -0.11993734519E+03  0.13062324494E+03  0.47000000000E+01 0. -1.
<mgrwt>
<rscale>  0 0.27095045E+03</rscale>
<asrwt>0</asrwt>
<pdfrwt beam="1">  1        1 0.81064816E-02 0.27095045E+03</pdfrwt>
<pdfrwt beam="2">  1       -1 0.53587148E-01 0.27095045E+03</pdfrwt>
<totfact> 0.30677259E+03</totfact>
</mgrwt>
</event>
<event>
 9    1  0.7957670E-001  0.2749693E+03  0.7818608E-02  0.1098469E+00
          1   -1    0    0  501    0  0.00000000000E+00  0.00000000000E+00  0.18807678772E+03  0.18807678772E+03  0.00000000000E+00 0. -1.
         -1   -1    0    0    0  501 -0.00000000000E+00 -0.00000000000E+00 -0.10050165929E+03  0.10050165929E+03  0.00000000000E+00 0. -1.
         35    2    1    2    0    0  0.00000000000E+00 -0.35527136788E-14  0.87575128436E+02  0.28857844701E+03  0.27496930184E+03 0.  0.
         25    2    3    3    0    0  0.50992376436E+02  0.10069481440E+02  0.31325766879E+02  0.13893901245E+03  0.12498451344E+03 0.  0.
         25    2    3    3    0    0 -0.50992376436E+02 -0.10069481440E+02  0.56249361557E+02  0.14963943456E+03  0.12855486295E+03 0.  0.
          5    1    4    4  502    0 -0.17790734762E+02  0.29264856099E+02 -0.29168446393E+02  0.45230855739E+02  0.47000000000E+01 0.  1.
         -5    1    4    4    0  502  0.68783111199E+02 -0.19195374659E+02  0.60494213273E+02  0.93708156710E+02  0.47000000000E+01 0.  1.
          5    1    5    5  503    0 -0.29851505134E+02  0.31063463121E+02 -0.29274403525E+02  0.52298487565E+02  0.47000000000E+01 0. -1.
         -5    1    5    5    0  503 -0.21140871302E+02 -0.41132944561E+02  0.85523765082E+02  0.97340946993E+02  0.47000000000E+01 0. -1.
<mgrwt>
<rscale>  0 0.27496930E+03</rscale>
<asrwt>0</asrwt>
<pdfrwt beam="1">  1        1 0.28934891E-01 0.27496930E+03</pdfrwt>
<pdfrwt beam="2">  1       -1 0.15461794E-01 0.27496930E+03</pdfrwt>
<totfact> 0.48234359E+03</totfact>
</mgrwt>
</event>
<event>
 9    1  0.7957670E-001  0.2666831E+03  0.7818608E-02  0.1103193E+00
         -2   -1    0    0    0  501 -0.00000000000E+00  0.00000000000E+00  0.85222623285E+01  0.85222623285E+01  0.00000000000E+00 0.  1.
          2   -1    0    0  501    0  0.00000000000E+00 -0.00000000000E+00 -0.20862974806E+04  0.20862974806E+04  0.00000000000E+00 0.  1.
         35    2    1    2    0    0  0.35527136788E-14  0.71054273576E-14 -0.20777752182E+04  0.20948197429E+04  0.26668314101E+03 0.  0.
         25    2    3    3    0    0  0.14573689195E+02  0.42637986466E+02 -0.93912625536E+03  0.94847240880E+03  0.12494557395E+03 0.  0.
         25    2    3    3    0    0 -0.14573689195E+02 -0.42637986466E+02 -0.11386489629E+04  0.11463473341E+04  0.12474116966E+03 0.  0.
          5    1    4    4  502    0  0.46335470507E+02  0.54733209055E+02 -0.30239866333E+03  0.31082107648E+03  0.47000000000E+01 0. -1.
         -5    1    4    4    0  502 -0.31761781312E+02 -0.12095222589E+02 -0.63672759203E+03  0.63765133233E+03  0.47000000000E+01 0. -1.
          5    1    5    5  503    0  0.24191604718E+01 -0.58190133642E+02 -0.22712889889E+03  0.23452413671E+03  0.47000000000E+01 0. -1.
         -5    1    5    5    0  503 -0.16992849667E+02  0.15552147176E+02 -0.91152006400E+03  0.91182319739E+03  0.47000000000E+01 0. -1.
<mgrwt>
<rscale>  0 0.26668314E+03</rscale>
<asrwt>0</asrwt>
<pdfrwt beam="1">  1        2 0.32096906E+00 0.26668314E+03</pdfrwt>
<pdfrwt beam="2">  1       -2 0.13111164E-02 0.26668314E+03</pdfrwt>
<totfact> 0.96065900E+03</totfact>
</mgrwt>
</event>
<event>
 9    1  0.7957670E-001  0.2724014E+03  0.7818608E-02  0.1099913E+00
         -2   -1    0    0    0  501 -0.00000000000E+00  0.00000000000E+00  0.59010773745E+02  0.59010773745E+02  0.00000000000E+00 0.  1.
          2   -1    0    0  501    0  0.00000000000E+00 -0.00000000000E+00 -0.31435995038E+03  0.31435995038E+03  0.00000000000E+00 0.  1.
         35    2    1    2    0    0  0.00000000000E+00  0.35527136788E-14 -0.25534917663E+03  0.37337072412E+03  0.27240135026E+03 0.  0.
         25    2    3    3    0    0 -0.12799791695E+02 -0.24181662016E+02 -0.18997422898E+03  0.22977916293E+03  0.12633158195E+03 0.  0.
         25    2    3    3    0    0  0.12799791695E+02  0.24181662016E+02 -0.65374947655E+02  0.14359156119E+03  0.12488420724E+03 0.  0.
          5    1    4    4  502    0  0.70964645679E+01 -0.61860446812E+02 -0.40856052482E+02  0.74621590130E+02  0.47000000000E+01 0. -1.
         -5    1    4    4    0  502 -0.19896256262E+02  0.37678784796E+02 -0.14911817649E+03  0.15515757280E+03  0.47000000000E+01 0. -1.
          5    1    5    5  503    0 -0.29738751500E+02  0.20597982988E+02 -0.87847131425E+02  0.95120338222E+02  0.47000000000E+01 0.  1.
         -5    1    5    5    0  503  0.42538543195E+02  0.35836790283E+01  0.22472183770E+02  0.48471222967E+02  0.47000000000E+01 0.  1.
<mgrwt>
<rscale>  0 0.27240135E+03</rscale>
<asrwt>0</asrwt>
<pdfrwt beam="1">  1        2 0.48363069E-01 0.27240135E+03</pdfrwt>
<pdfrwt beam="2">  1       -2 0.90785805E-02 0.27240135E+03</pdfrwt>
<totfact> 0.79804446E+03</totfact>
</mgrwt>
</event>
<event>
 9    1  0.7957670E-001  0.2728660E+03  0.7818608E-02  0.1099650E+00
          1   -1    0    0  501    0  0.00000000000E+00  0.00000000000E+00  0.23092619299E+02  0.23092619299E+02  0.00000000000E+00 0. -1.
         -1   -1    0    0    0  501 -0.00000000000E+00 -0.00000000000E+00 -0.80605702216E+03  0.80605702216E+03  0.00000000000E+00 0. -1.
         35    2    1    2    0    0  0.00000000000E+00  0.00000000000E+00 -0.78296440287E+03  0.82914964146E+03  0.27286603267E+03 0.  0.
         25    2    3    3    0    0 -0.57352719079E+02  0.10820567421E+02 -0.46458867240E+03  0.48473929482E+03  0.12539190704E+03 0.  0.
         25    2    3    3    0    0  0.57352719079E+02 -0.10820567421E+02 -0.31837573046E+03  0.34441034665E+03  0.11768161311E+03 0.  0.
          5    1    4    4  502    0 -0.30898968297E+02  0.29185648621E+02 -0.44437530934E+03  0.44642810605E+03  0.47000000000E+01 0.  1.
         -5    1    4    4    0  502 -0.26453750782E+02 -0.18365081200E+02 -0.20213363064E+02  0.38311188761E+02  0.47000000000E+01 0.  1.
          5    1    5    5  503    0 -0.21273250478E+02 -0.41450744895E+02 -0.11065013702E+03  0.12015098111E+03  0.47000000000E+01 0.  1.
         -5    1    5    5    0  503  0.78625969558E+02  0.30630177473E+02 -0.20772559344E+03  0.22425936554E+03  0.47000000000E+01 0.  1.
<mgrwt>
<rscale>  0 0.27286603E+03</rscale>
<asrwt>0</asrwt>
<pdfrwt beam="1">  1        1 0.35527102E-02 0.27286603E+03</pdfrwt>
<pdfrwt beam="2">  1       -1 0.12400879E+00 0.27286603E+03</pdfrwt>
<totfact> 0.16397569E+03</totfact>
</mgrwt>
</event>
<event>
 9    1  0.7957670E-001  0.3171960E+03  0.7818608E-02  0.1076947E+00
         -2   -1    0    0    0  501 -0.00000000000E+00  0.00000000000E+00  0.20688212176E+02  0.20688212176E+02  0.00000000000E+00 0.  1.
          2   -1    0    0  501    0  0.00000000000E+00 -0.00000000000E+00 -0.12158290858E+04  0.12158290858E+04  0.00000000000E+00 0.  1.
         35    2    1    2    0    0 -0.35527136788E-14  0.00000000000E+00 -0.11951408736E+04  0.12365172979E+04  0.31719602832E+03 0.  0.
         25    2    3    3    0    0  0.26114797274E+02 -0.92748873152E+02 -0.57172700900E+03  0.59352135468E+03  0.12693104246E+03 0.  0.
         25    2    3    3    0    0 -0.26114797274E+02  0.92748873152E+02 -0.62341386460E+03  0.64299594326E+03  0.12455761869E+03 0.  0.
          5    1    4    4  502    0  0.32594780836E+02 -0.38993951767E+02 -0.50449441220E+03  0.50706966973E+03  0.47000000000E+01 0. -1.
         -5    1    4    4    0  502 -0.64799835622E+01 -0.53754921385E+02 -0.67232596797E+02  0.86451684959E+02  0.47000000000E+01 0. -1.
          5    1    5    5  503    0 -0.48239877845E+02  0.38774575487E+02 -0.11037851105E+03  0.12663356277E+03  0.47000000000E+01 0. -1.
         -5    1    5    5    0  503  0.22125080571E+02  0.53974297666E+02 -0.51303535354E+03  0.51636238049E+03  0.47000000000E+01 0. -1.
<mgrwt>
<rscale>  0 0.31719603E+03</rscale>
<asrwt>0</asrwt>
<pdfrwt beam="1">  1        2 0.18705061E+00 0.31719603E+03</pdfrwt>
<pdfrwt beam="2">  1       -2 0.31828023E-02 0.31719603E+03</pdfrwt>
<totfact> 0.76065687E+03</totfact>
</mgrwt>
</event>
<event>
 9    1  0.7957670E-001  0.2697837E+03  0.7818608E-02  0.1101403E+00
          1   -1    0    0  501    0  0.00000000000E+00  0.00000000000E+00  0.56113588831E+03  0.56113588831E+03  0.00000000000E+00 0.  1.
         -1   -1    0    0    0  501 -0.00000000000E+00 -0.00000000000E+00 -0.32426747919E+02  0.32426747919E+02  0.00000000000E+00 0.  1.
         35    2    1    2    0    0  0.35527136788E-14  0.88817841970E-15  0.52870914039E+03  0.59356263623E+03  0.26978370595E+03 0.  0.
         25    2    3    3    0    0  0.16503866180E+02 -0.65186147015E+01  0.15910362824E+03  0.20282007876E+03  0.12452770733E+03 0.  0.
         25    2    3    3    0    0 -0.16503866180E+02  0.65186147015E+01  0.36960551215E+03  0.39074255747E+03  0.12552546224E+03 0.  0.
          5    1    4    4  502    0 -0.31016658718E+02 -0.14318899978E+02  0.14958374765E+03  0.15350717108E+03  0.47000000000E+01 0.  1.
         -5    1    4    4    0  502  0.47520524899E+02  0.78002852764E+01  0.95198805985E+01  0.49312907678E+02  0.47000000000E+01 0.  1.
          5    1    5    5  503    0  0.39679336679E+02  0.23482619933E+02  0.61206147179E+02  0.76773469706E+02  0.47000000000E+01 0. -1.
         -5    1    5    5    0  503 -0.56183202859E+02 -0.16964005232E+02  0.30839936497E+03  0.31396908776E+03  0.47000000000E+01 0. -1.
<mgrwt>
<rscale>  0 0.26978371E+03</rscale>
<asrwt>0</asrwt>
<pdfrwt beam="1">  1        1 0.86328591E-01 0.26978371E+03</pdfrwt>
<pdfrwt beam="2">  1       -1 0.49887309E-02 0.26978371E+03</pdfrwt>
<totfact> 0.67830183E+03</totfact>
</mgrwt>
</event>
<event>
 9    1  0.7957670E-001  0.2746759E+03  0.7818608E-02  0.1098633E+00
          1   -1    0    0  501    0  0.00000000000E+00  0.00000000000E+00  0.33835145301E+03  0.33835145301E+03  0.00000000000E+00 0.  1.
         -1   -1    0    0    0  501 -0.00000000000E+00 -0.00000000000E+00 -0.55745903551E+02  0.55745903551E+02  0.00000000000E+00 0.  1.
         35    2    1    2    0    0  0.00000000000E+00  0.71054273576E-14  0.28260554946E+03  0.39409735657E+03  0.27467586327E+03 0.  0.
         25    2    3    3    0    0 -0.44181522488E+02  0.28326333616E+02  0.15689082653E+03  0.20745623534E+03  0.12517575655E+03 0.  0.
         25    2    3    3    0    0  0.44181522488E+02 -0.28326333616E+02  0.12571472294E+03  0.18664112122E+03  0.12757871478E+03 0.  0.
          5    1    4    4  502    0  0.13830789861E+02  0.65044459290E+02  0.70894216258E+02  0.97314707682E+02  0.47000000000E+01 0.  1.
         -5    1    4    4    0  502 -0.58012312349E+02 -0.36718125673E+02  0.85996610271E+02  0.11014152766E+03  0.47000000000E+01 0.  1.
          5    1    5    5  503    0 -0.20416810809E+01 -0.69521895168E+02  0.38668969095E+02  0.79717259990E+02  0.47000000000E+01 0. -1.
         -5    1    5    5    0  503  0.46223203569E+02  0.41195561552E+02  0.87045753840E+02  0.10692386123E+03  0.47000000000E+01 0. -1.
<mgrwt>
<rscale>  0 0.27467586E+03</rscale>
<asrwt>0</asrwt>
<pdfrwt beam="1">  1        1 0.52054069E-01 0.27467586E+03</pdfrwt>
<pdfrwt beam="2">  1       -1 0.85762930E-02 0.27467586E+03</pdfrwt>
<totfact> 0.57761236E+03</totfact>
</mgrwt>
</event>
<event>
 9    1  0.7957670E-001  0.2778564E+03  0.7818608E-02  0.1096866E+00
         -2   -1    0    0    0  501 -0.00000000000E+00  0.00000000000E+00  0.44006138518E+02  0.44006138518E+02  0.00000000000E+00 0. -1.
          2   -1    0    0  501    0  0.00000000000E+00 -0.00000000000E+00 -0.43859891909E+03  0.43859891909E+03  0.00000000000E+00 0. -1.
         35    2    1    2    0    0 -0.14210854715E-13 -0.14210854715E-13 -0.39459278057E+03  0.48260505761E+03  0.27785640023E+03 0.  0.
         25    2    3    3    0    0  0.39413310891E+02  0.37952264981E+02 -0.15924028779E+03  0.21047081725E+03  0.12628029207E+03 0.  0.
         25    2    3    3    0    0 -0.39413310891E+02 -0.37952264981E+02 -0.23535249279E+03  0.27213424036E+03  0.12518971772E+03 0.  0.
          5    1    4    4  502    0 -0.21500667489E+02  0.65301004425E+02 -0.97603970329E+02  0.11947855417E+03  0.47000000000E+01 0. -1.
         -5    1    4    4    0  502  0.60913978380E+02 -0.27348739444E+02 -0.61636317458E+02  0.90992263083E+02  0.47000000000E+01 0. -1.
          5    1    5    5  503    0 -0.23318614666E+02  0.13693046233E+02 -0.21073610178E+03  0.21251600386E+03  0.47000000000E+01 0. -1.
         -5    1    5    5    0  503 -0.16094696225E+02 -0.51645311213E+02 -0.24616391007E+02  0.59618236498E+02  0.47000000000E+01 0. -1.
<mgrwt>
<rscale>  0 0.27785640E+03</rscale>
<asrwt>0</asrwt>
<pdfrwt beam="1">  1        2 0.67476756E-01 0.27785640E+03</pdfrwt>
<pdfrwt beam="2">  1       -2 0.67701752E-02 0.27785640E+03</pdfrwt>
<totfact> 0.87997909E+03</totfact>
</mgrwt>
</event>
<event>
 9    1  0.7957670E-001  0.3045607E+03  0.7818608E-02  0.1082983E+00
         -2   -1    0    0    0  501 -0.00000000000E+00  0.00000000000E+00  0.23739671727E+02  0.23739671727E+02  0.00000000000E+00 0. -1.
          2   -1    0    0  501    0  0.00000000000E+00 -0.00000000000E+00 -0.97681649933E+03  0.97681649933E+03  0.00000000000E+00 0. -1.
         35    2    1    2    0    0  0.35527136788E-14  0.00000000000E+00 -0.95307682760E+03  0.10005561711E+04  0.30456068710E+03 0.  0.
         25    2    3    3    0    0  0.15803180722E+02  0.52185496389E+02 -0.25316847055E+03  0.28752654353E+03  0.12491666102E+03 0.  0.
         25    2    3    3    0    0 -0.15803180722E+02 -0.52185496389E+02 -0.69990835705E+03  0.71302962752E+03  0.12476567999E+03 0.  0.
          5    1    4    4  502    0 -0.17904852269E+02  0.33018953144E+02 -0.24463364115E+03  0.24754503305E+03  0.47000000000E+01 0.  1.
         -5    1    4    4    0  502  0.33708032990E+02  0.19166543245E+02 -0.85348293987E+01  0.39981510488E+02  0.47000000000E+01 0.  1.
          5    1    5    5  503    0  0.11411178657E+02 -0.73479689887E+01 -0.59930609367E+03  0.59947818272E+03  0.47000000000E+01 0.  1.
         -5    1    5    5    0  503 -0.27214359379E+02 -0.44837527400E+02 -0.10060226338E+03  0.11355144481E+03  0.47000000000E+01 0.  1.
<mgrwt>
<rscale>  0 0.30456069E+03</rscale>
<asrwt>0</asrwt>
<pdfrwt beam="1">  1        2 0.15027946E+00 0.30456069E+03</pdfrwt>
<pdfrwt beam="2">  1       -2 0.36522572E-02 0.30456069E+03</pdfrwt>
<totfact> 0.85676493E+03</totfact>
</mgrwt>
</event>
<event>
 9    1  0.7957670E-001  0.2776948E+03  0.7818608E-02  0.1096955E+00
         -2   -1    0    0    0  501 -0.00000000000E+00  0.00000000000E+00  0.82393036093E+02  0.82393036093E+02  0.00000000000E+00 0.  1.
          2   -1    0    0  501    0  0.00000000000E+00 -0.00000000000E+00 -0.23398332159E+03  0.23398332159E+03  0.00000000000E+00 0.  1.
         35    2    1    2    0    0 -0.14210854715E-13 -0.35527136788E-14 -0.15159028549E+03  0.31637635768E+03  0.27769476956E+03 0.  0.
         25    2    3    3    0    0 -0.56016444587E+02  0.11063010841E+02 -0.46643122909E+02  0.14520238164E+03  0.12509164019E+03 0.  0.
         25    2    3    3    0    0  0.56016444587E+02 -0.11063010841E+02 -0.10494716258E+03  0.17117397604E+03  0.12258218005E+03 0.  0.
          5    1    4    4  502    0 -0.32980287033E+02 -0.55957256366E+02 -0.32504912384E+02  0.72784429667E+02  0.47000000000E+01 0. -1.
         -5    1    4    4    0  502 -0.23036157554E+02  0.67020267207E+02 -0.14138210525E+02  0.72417951974E+02  0.47000000000E+01 0. -1.
          5    1    5    5  503    0 -0.33715989891E+02 -0.26883910711E+02 -0.26373087017E+02  0.50765562622E+02  0.47000000000E+01 0. -1.
         -5    1    5    5    0  503  0.89732434478E+02  0.15820899870E+02 -0.78574075566E+02  0.12040841342E+03  0.47000000000E+01 0. -1.
<mgrwt>
<rscale>  0 0.27769477E+03</rscale>
<asrwt>0</asrwt>
<pdfrwt beam="1">  1        2 0.35997433E-01 0.27769477E+03</pdfrwt>
<pdfrwt beam="2">  1       -2 0.12675852E-01 0.27769477E+03</pdfrwt>
<totfact> 0.64379398E+03</totfact>
</mgrwt>
</event>
<event>
 9    1  0.7957670E-001  0.2743195E+03  0.7818608E-02  0.1098833E+00
         -4   -1    0    0    0  501 -0.00000000000E+00  0.00000000000E+00  0.73359567035E+03  0.73359567035E+03  0.00000000000E+00 0. -1.
          4   -1    0    0  501    0  0.00000000000E+00 -0.00000000000E+00 -0.25644641463E+02  0.25644641463E+02  0.00000000000E+00 0. -1.
         35    2    1    2    0    0  0.00000000000E+00  0.71054273576E-14  0.70795102888E+03  0.75924031181E+03  0.27431950674E+03 0.  0.
         25    2    3    3    0    0  0.71659127285E+01 -0.55301188920E+02  0.37784657791E+03  0.40189513573E+03  0.12506834886E+03 0.  0.
         25    2    3    3    0    0 -0.71659127285E+01  0.55301188920E+02  0.33010445098E+03  0.35734517608E+03  0.12496821401E+03 0.  0.
          5    1    4    4  502    0  0.59560444168E+01 -0.76314904689E+02  0.11537208980E+03  0.13853609005E+03  0.47000000000E+01 0. -1.
         -5    1    4    4    0  502  0.12098683117E+01  0.21013715768E+02  0.26247448811E+03  0.26335904568E+03  0.47000000000E+01 0. -1.
          5    1    5    5  503    0  0.12011201828E+02 -0.38338647990E+02  0.11522352176E+03  0.12211744702E+03  0.47000000000E+01 0.  1.
         -5    1    5    5    0  503 -0.19177114557E+02  0.93639836910E+02  0.21488092921E+03  0.23522772906E+03  0.47000000000E+01 0.  1.
<mgrwt>
<rscale>  0 0.27431951E+03</rscale>
<asrwt>0</asrwt>
<pdfrwt beam="1">  1        4 0.39453300E-02 0.27431951E+03</pdfrwt>
<pdfrwt beam="2">  1       -4 0.11286086E+00 0.27431951E+03</pdfrwt>
<totfact> 0.41942560E+02</totfact>
</mgrwt>
</event>
<event>
 9    1  0.7957670E-001  0.2587216E+03  0.7818608E-02  0.1107914E+00
          1   -1    0    0  501    0  0.00000000000E+00  0.00000000000E+00  0.15029182022E+03  0.15029182022E+03  0.00000000000E+00 0.  1.
         -1   -1    0    0    0  501 -0.00000000000E+00 -0.00000000000E+00 -0.11134485457E+03  0.11134485457E+03  0.00000000000E+00 0.  1.
         35    2    1    2    0    0  0.00000000000E+00  0.71054273576E-14  0.38946965648E+02  0.26163667479E+03  0.25872163316E+03 0.  0.
         25    2    3    3    0    0  0.39546318550E+01  0.30644796167E+02  0.30485599257E+02  0.13282044614E+03  0.12552751294E+03 0.  0.
         25    2    3    3    0    0 -0.39546318550E+01 -0.30644796167E+02  0.84613663911E+01  0.12881622866E+03  0.12476892000E+03 0.  0.
          5    1    4    4  502    0 -0.52067391098E+02  0.13605766832E+02 -0.17695282740E+02  0.56844904240E+02  0.47000000000E+01 0. -1.
         -5    1    4    4    0  502  0.56022022953E+02  0.17039029335E+02  0.48180881997E+02  0.75975541896E+02  0.47000000000E+01 0. -1.
          5    1    5    5  503    0  0.18183362660E+02 -0.73872076445E+02 -0.95218643322E+01  0.76814544562E+02  0.47000000000E+01 0.  1.
         -5    1    5    5    0  503 -0.22137994515E+02  0.43227280278E+02  0.17983230723E+02  0.52001684094E+02  0.47000000000E+01 0.  1.
<mgrwt>
<rscale>  0 0.25872163E+03</rscale>
<asrwt>0</asrwt>
<pdfrwt beam="1">  1        1 0.23121818E-01 0.25872163E+03</pdfrwt>
<pdfrwt beam="2">  1       -1 0.17129978E-01 0.25872163E+03</pdfrwt>
<totfact> 0.54340073E+03</totfact>
</mgrwt>
</event>
<event>
 9    1  0.7957670E-001  0.2773847E+03  0.7818608E-02  0.1097126E+00
         -2   -1    0    0    0  501 -0.00000000000E+00  0.00000000000E+00  0.11196342842E+02  0.11196342842E+02  0.00000000000E+00 0.  1.
          2   -1    0    0  501    0  0.00000000000E+00 -0.00000000000E+00 -0.17180221214E+04  0.17180221214E+04  0.00000000000E+00 0.  1.
         35    2    1    2    0    0  0.00000000000E+00  0.00000000000E+00 -0.17068257786E+04  0.17292184642E+04  0.27738467644E+03 0.  0.
         25    2    3    3    0    0 -0.25916638191E+02 -0.49933402004E+02 -0.70120513856E+03  0.71452836442E+03  0.12528814965E+03 0.  0.
         25    2    3    3    0    0  0.25916638191E+02  0.49933402004E+02 -0.10056206400E+04  0.10146900998E+04  0.12311827777E+03 0.  0.
          5    1    4    4  502    0 -0.25458070202E+02  0.13874135461E+01 -0.60356276511E+03  0.60411930914E+03  0.47000000000E+01 0. -1.
         -5    1    4    4    0  502 -0.45856798880E+00 -0.51320815550E+02 -0.97642373453E+02  0.11040905528E+03  0.47000000000E+01 0. -1.
          5    1    5    5  503    0  0.33413957025E+02  0.18522938208E+01 -0.69366174159E+02  0.77160090940E+02  0.47000000000E+01 0.  1.
         -5    1    5    5    0  503 -0.74973188344E+01  0.48081108183E+02 -0.93625446584E+03  0.93753000889E+03  0.47000000000E+01 0.  1.
<mgrwt>
<rscale>  0 0.27738468E+03</rscale>
<asrwt>0</asrwt>
<pdfrwt beam="1">  1        2 0.26431119E+00 0.27738468E+03</pdfrwt>
<pdfrwt beam="2">  1       -2 0.17225137E-02 0.27738468E+03</pdfrwt>
<totfact> 0.10068692E+04</totfact>
</mgrwt>
</event>
<event>
 9    1  0.7957670E-001  0.2684440E+03  0.7818608E-02  0.1102173E+00
         -2   -1    0    0    0  501 -0.00000000000E+00  0.00000000000E+00  0.10048783235E+03  0.10048783235E+03  0.00000000000E+00 0.  1.
          2   -1    0    0  501    0  0.00000000000E+00 -0.00000000000E+00 -0.17928084751E+03  0.17928084751E+03  0.00000000000E+00 0.  1.
         35    2    1    2    0    0  0.00000000000E+00  0.17763568394E-14 -0.78793015153E+02  0.27976867986E+03  0.26844398856E+03 0.  0.
         25    2    3    3    0    0  0.28160106933E+02 -0.30782456206E+01 -0.21759290928E+01  0.12790083964E+03  0.12470534429E+03 0.  0.
         25    2    3    3    0    0 -0.28160106933E+02  0.30782456206E+01 -0.76617086060E+02  0.15186784022E+03  0.12802810550E+03 0.  0.
          5    1    4    4  502    0 -0.70127785649E+01  0.41911435297E+02  0.38578336270E+02  0.57585809895E+02  0.47000000000E+01 0. -1.
         -5    1    4    4    0  502  0.35172885498E+02 -0.44989680917E+02 -0.40754265363E+02  0.70315029749E+02  0.47000000000E+01 0. -1.
          5    1    5    5  503    0 -0.24722175061E+02 -0.87374740870E+01  0.32463912775E+02  0.41994345165E+02  0.47000000000E+01 0.  1.
         -5    1    5    5    0  503 -0.34379318720E+01  0.11815719708E+02 -0.10908099884E+03  0.10987349505E+03  0.47000000000E+01 0.  1.
<mgrwt>
<rscale>  0 0.26844399E+03</rscale>
<asrwt>0</asrwt>
<pdfrwt beam="1">  1        2 0.27581669E-01 0.26844399E+03</pdfrwt>
<pdfrwt beam="2">  1       -2 0.15459667E-01 0.26844399E+03</pdfrwt>
<totfact> 0.62126855E+03</totfact>
</mgrwt>
</event>
<event>
 9    1  0.7957670E-001  0.2763298E+03  0.7818608E-02  0.1097711E+00
         -3   -1    0    0    0  501 -0.00000000000E+00  0.00000000000E+00  0.91640970726E+03  0.91640970726E+03  0.00000000000E+00 0.  1.
          3   -1    0    0  501    0  0.00000000000E+00 -0.00000000000E+00 -0.20830785123E+02  0.20830785123E+02  0.00000000000E+00 0.  1.
         35    2    1    2    0    0  0.00000000000E+00  0.00000000000E+00  0.89557892214E+03  0.93724049238E+03  0.27632975733E+03 0.  0.
         25    2    3    3    0    0 -0.55125418808E+02 -0.15345073937E+02  0.49062301003E+03  0.50954378572E+03  0.12509855516E+03 0.  0.
         25    2    3    3    0    0  0.55125418808E+02  0.15345073937E+02  0.40495591211E+03  0.42769670666E+03  0.12514351380E+03 0.  0.
          5    1    4    4  502    0 -0.59524275826E+02 -0.45297145460E+02  0.15134769712E+03  0.16888808786E+03  0.47000000000E+01 0. -1.
         -5    1    4    4    0  502  0.43988570176E+01  0.29952071524E+02  0.33927531291E+03  0.34065569786E+03  0.47000000000E+01 0. -1.
          5    1    5    5  503    0 -0.22367033106E+02 -0.19883955633E+02  0.24103332528E+03  0.24292963952E+03  0.47000000000E+01 0. -1.
         -5    1    5    5    0  503  0.77492451914E+02  0.35229029570E+02  0.16392258683E+03  0.18476706714E+03  0.47000000000E+01 0. -1.
<mgrwt>
<rscale>  0 0.27632976E+03</rscale>
<asrwt>0</asrwt>
<pdfrwt beam="1">  1        3 0.32047369E-02 0.27632976E+03</pdfrwt>
<pdfrwt beam="2">  1       -3 0.14098608E+00 0.27632976E+03</pdfrwt>
<totfact> 0.46567865E+02</totfact>
</mgrwt>
</event>
<event>
 9    1  0.7957670E-001  0.2759676E+03  0.7818608E-02  0.1097912E+00
          2   -1    0    0  501    0  0.00000000000E+00  0.00000000000E+00  0.30053678035E+04  0.30053678035E+04  0.00000000000E+00 0. -1.
         -2   -1    0    0    0  501 -0.00000000000E+00 -0.00000000000E+00 -0.63351732501E+01  0.63351732501E+01  0.00000000000E+00 0. -1.
         35    2    1    2    0    0  0.00000000000E+00  0.71054273576E-14  0.29990326302E+04  0.30117029767E+04  0.27596757574E+03 0.  0.
         25    2    3    3    0    0 -0.53173266837E+02  0.11283752053E+02  0.15181558395E+04  0.15241677800E+04  0.12383678431E+03 0.  0.
         25    2    3    3    0    0  0.53173266837E+02 -0.11283752053E+02  0.14808767907E+04  0.14875351967E+04  0.12965405079E+03 0.  0.
          5    1    4    4  502    0 -0.61074128993E+02  0.52096855799E+02  0.64240830065E+03  0.64742153684E+03  0.47000000000E+01 0. -1.
         -5    1    4    4    0  502  0.79008621554E+01 -0.40813103746E+02  0.87574753886E+03  0.87674624315E+03  0.47000000000E+01 0. -1.
          5    1    5    5  503    0  0.22759862459E+02 -0.69465654221E+00  0.14022003728E+04  0.14023931223E+04  0.47000000000E+01 0. -1.
         -5    1    5    5    0  503  0.30413404378E+02 -0.10589095511E+02  0.78676417883E+02  0.85142074443E+02  0.47000000000E+01 0. -1.
<mgrwt>
<rscale>  0 0.27596758E+03</rscale>
<asrwt>0</asrwt>
<pdfrwt beam="1">  1        2 0.46236314E+00 0.27596758E+03</pdfrwt>
<pdfrwt beam="2">  1       -2 0.97464444E-03 0.27596758E+03</pdfrwt>
<totfact> 0.45774099E+03</totfact>
</mgrwt>
</event>
<event>
 9    1  0.7957670E-001  0.2788304E+03  0.7818608E-02  0.1096329E+00
         -4   -1    0    0    0  501 -0.00000000000E+00  0.00000000000E+00  0.36355048034E+02  0.36355048034E+02  0.00000000000E+00 0.  1.
          4   -1    0    0  501    0  0.00000000000E+00 -0.00000000000E+00 -0.53463280237E+03  0.53463280237E+03  0.00000000000E+00 0.  1.
         35    2    1    2    0    0  0.00000000000E+00 -0.14210854715E-13 -0.49827775434E+03  0.57098785041E+03  0.27883042310E+03 0.  0.
         25    2    3    3    0    0  0.33105104938E+02  0.46280093905E+02 -0.29240460615E+03  0.32299623475E+03  0.12485318939E+03 0.  0.
         25    2    3    3    0    0 -0.33105104938E+02 -0.46280093905E+02 -0.20587314819E+03  0.24799161566E+03  0.12600909978E+03 0.  0.
          5    1    4    4  502    0 -0.22181140389E+01  0.79372412918E+02 -0.23312612475E+03  0.24632251218E+03  0.47000000000E+01 0.  1.
         -5    1    4    4    0  502  0.35323218977E+02 -0.33092319013E+02 -0.59278481397E+02  0.76673722574E+02  0.47000000000E+01 0.  1.
          5    1    5    5  503    0 -0.27920894351E+02 -0.87231120976E+02 -0.10812595584E+03  0.14178207621E+03  0.47000000000E+01 0. -1.
         -5    1    5    5    0  503 -0.51842105876E+01  0.40951027071E+02 -0.97747192350E+02  0.10620953945E+03  0.47000000000E+01 0. -1.
<mgrwt>
<rscale>  0 0.27883042E+03</rscale>
<asrwt>0</asrwt>
<pdfrwt beam="1">  1        4 0.82251198E-01 0.27883042E+03</pdfrwt>
<pdfrwt beam="2">  1       -4 0.55930845E-02 0.27883042E+03</pdfrwt>
<totfact> 0.49868231E+02</totfact>
</mgrwt>
</event>
<event>
 9    1  0.7957670E-001  0.2733934E+03  0.7818608E-02  0.1099353E+00
          2   -1    0    0  501    0  0.00000000000E+00  0.00000000000E+00  0.15053692912E+04  0.15053692912E+04  0.00000000000E+00 0.  1.
         -2   -1    0    0    0  501 -0.00000000000E+00 -0.00000000000E+00 -0.12412890920E+02  0.12412890920E+02  0.00000000000E+00 0.  1.
         35    2    1    2    0    0  0.00000000000E+00  0.71054273576E-14  0.14929564003E+04  0.15177821821E+04  0.27339337816E+03 0.  0.
         25    2    3    3    0    0  0.43308439928E+02 -0.35551337336E+02  0.75258504421E+03  0.76489345215E+03  0.12465242000E+03 0.  0.
         25    2    3    3    0    0 -0.43308439928E+02  0.35551337336E+02  0.74037135608E+03  0.75288872998E+03  0.12470836490E+03 0.  0.
          5    1    4    4  502    0  0.61758358985E+02 -0.71039112383E+02  0.58459137289E+03  0.59214002875E+03  0.47000000000E+01 0. -1.
         -5    1    4    4    0  502 -0.18449919057E+02  0.35487775047E+02  0.16799367132E+03  0.17275342340E+03  0.47000000000E+01 0. -1.
          5    1    5    5  503    0 -0.78461100133E+02  0.53600133029E+02  0.46262715222E+03  0.47230825789E+03  0.47000000000E+01 0.  1.
         -5    1    5    5    0  503  0.35152660205E+02 -0.18048795693E+02  0.27774420385E+03  0.28058047209E+03  0.47000000000E+01 0.  1.
<mgrwt>
<rscale>  0 0.27339338E+03</rscale>
<asrwt>0</asrwt>
<pdfrwt beam="1">  1        2 0.23159513E+00 0.27339338E+03</pdfrwt>
<pdfrwt beam="2">  1       -2 0.19096767E-02 0.27339338E+03</pdfrwt>
<totfact> 0.11214243E+04</totfact>
</mgrwt>
</event>
<event>
 9    1  0.7957670E-001  0.2770064E+03  0.7818608E-02  0.1097335E+00
          1   -1    0    0  501    0  0.00000000000E+00  0.00000000000E+00  0.22458992695E+03  0.22458992695E+03  0.00000000000E+00 0.  1.
         -1   -1    0    0    0  501 -0.00000000000E+00 -0.00000000000E+00 -0.85414030417E+02  0.85414030417E+02  0.00000000000E+00 0.  1.
         35    2    1    2    0    0 -0.17763568394E-14 -0.71054273576E-14  0.13917589653E+03  0.31000395736E+03  0.27700635987E+03 0.  0.
         25    2    3    3    0    0  0.12352569654E+02  0.59859105626E+02  0.69274617848E+02  0.15565137509E+03  0.12527042502E+03 0.  0.
         25    2    3    3    0    0 -0.12352569654E+02 -0.59859105626E+02  0.69901278683E+02  0.15435258228E+03  0.12329976638E+03 0.  0.
          5    1    4    4  502    0  0.29907994268E+01 -0.10559372390E+02  0.82398123970E+02  0.83258549472E+02  0.47000000000E+01 0. -1.
         -5    1    4    4    0  502  0.93617702270E+01  0.70418478016E+02 -0.13123506122E+02  0.72392825616E+02  0.47000000000E+01 0. -1.
          5    1    5    5  503    0  0.35950515191E+02 -0.55379532372E+02  0.80759758168E+02  0.10442011630E+03  0.47000000000E+01 0. -1.
         -5    1    5    5    0  503 -0.48303084844E+02 -0.44795732537E+01 -0.10858479485E+02  0.49932465979E+02  0.47000000000E+01 0. -1.
<mgrwt>
<rscale>  0 0.27700636E+03</rscale>
<asrwt>0</asrwt>
<pdfrwt beam="1">  1        1 0.34552296E-01 0.27700636E+03</pdfrwt>
<pdfrwt beam="2">  1       -1 0.13140620E-01 0.27700636E+03</pdfrwt>
<totfact> 0.49895429E+03</totfact>
</mgrwt>
</event>
<event>
 9    1  0.7957670E-001  0.2766606E+03  0.7818608E-02  0.1097527E+00
         -2   -1    0    0    0  501 -0.00000000000E+00  0.00000000000E+00  0.22663746890E+03  0.22663746890E+03  0.00000000000E+00 0.  1.
          2   -1    0    0  501    0  0.00000000000E+00 -0.00000000000E+00 -0.84431183386E+02  0.84431183386E+02  0.00000000000E+00 0.  1.
         35    2    1    2    0    0  0.00000000000E+00  0.71054273576E-14  0.14220628551E+03  0.31106865228E+03  0.27666058410E+03 0.  0.
         25    2    3    3    0    0 -0.52798945226E+02  0.19364818431E+02  0.85052401158E+02  0.16131851924E+03  0.12500811532E+03 0.  0.
         25    2    3    3    0    0  0.52798945226E+02 -0.19364818431E+02  0.57153884353E+02  0.14975013305E+03  0.12647454701E+03 0.  0.
          5    1    4    4  502    0  0.17668922258E+02  0.54556755843E+02  0.43557778956E+02  0.72166477878E+02  0.47000000000E+01 0.  1.
         -5    1    4    4    0  502 -0.70467867484E+02 -0.35191937411E+02  0.41494622203E+02  0.89152041358E+02  0.47000000000E+01 0.  1.
          5    1    5    5  503    0  0.35350343526E+02  0.47860463169E+02  0.62409608556E-02  0.59685515505E+02  0.47000000000E+01 0. -1.
         -5    1    5    5    0  503  0.17448601700E+02 -0.67225281600E+02  0.57147643392E+02  0.90064617541E+02  0.47000000000E+01 0. -1.
<mgrwt>
<rscale>  0 0.27666058E+03</rscale>
<asrwt>0</asrwt>
<pdfrwt beam="1">  1        2 0.12989413E-01 0.27666058E+03</pdfrwt>
<pdfrwt beam="2">  1       -2 0.34867303E-01 0.27666058E+03</pdfrwt>
<totfact> 0.35709990E+03</totfact>
</mgrwt>
</event>
<event>
 9    1  0.7957670E-001  0.2762327E+03  0.7818608E-02  0.1097765E+00
          2   -1    0    0  501    0  0.00000000000E+00  0.00000000000E+00  0.81967627245E+02  0.81967627245E+02  0.00000000000E+00 0. -1.
         -2   -1    0    0    0  501 -0.00000000000E+00 -0.00000000000E+00 -0.23272748824E+03  0.23272748824E+03  0.00000000000E+00 0. -1.
         35    2    1    2    0    0 -0.71054273576E-14 -0.35527136788E-14 -0.15075986099E+03  0.31469511548E+03  0.27623265560E+03 0.  0.
         25    2    3    3    0    0  0.52564939833E+02  0.25953101828E+02 -0.55474462204E+02  0.14972494668E+03  0.12610910874E+03 0.  0.
         25    2    3    3    0    0 -0.52564939833E+02 -0.25953101828E+02 -0.95285398789E+02  0.16497016880E+03  0.12124031086E+03 0.  0.
          5    1    4    4  502    0 -0.41730877112E+02  0.69200149989E+01 -0.20691843147E+02  0.47324360376E+02  0.47000000000E+01 0. -1.
         -5    1    4    4    0  502  0.94295816946E+02  0.19033086829E+02 -0.34782619057E+02  0.10240058631E+03  0.47000000000E+01 0. -1.
          5    1    5    5  503    0 -0.86370054785E+02 -0.15504728663E+02 -0.34352316587E+02  0.94352290005E+02  0.47000000000E+01 0.  1.
         -5    1    5    5    0  503  0.33805114951E+02 -0.10448373165E+02 -0.60933082202E+02  0.70617878794E+02  0.47000000000E+01 0.  1.
<mgrwt>
<rscale>  0 0.27623266E+03</rscale>
<asrwt>0</asrwt>
<pdfrwt beam="1">  1        2 0.12610404E-01 0.27623266E+03</pdfrwt>
<pdfrwt beam="2">  1       -2 0.35804228E-01 0.27623266E+03</pdfrwt>
<totfact> 0.35221069E+03</totfact>
</mgrwt>
</event>
<event>
 9    1  0.7957670E-001  0.2731681E+03  0.7818608E-02  0.1099480E+00
          2   -1    0    0  501    0  0.00000000000E+00  0.00000000000E+00  0.75147349197E+02  0.75147349197E+02  0.00000000000E+00 0. -1.
         -2   -1    0    0    0  501 -0.00000000000E+00 -0.00000000000E+00 -0.24824839954E+03  0.24824839954E+03  0.00000000000E+00 0. -1.
         35    2    1    2    0    0  0.00000000000E+00  0.71054273576E-14 -0.17310105034E+03  0.32339574874E+03  0.27316814725E+03 0.  0.
         25    2    3    3    0    0 -0.14947818296E+02 -0.34929558529E+02 -0.39237229550E+02  0.13638537625E+03  0.12497159413E+03 0.  0.
         25    2    3    3    0    0  0.14947818296E+02  0.34929558529E+02 -0.13386382079E+03  0.18701037249E+03  0.12493936758E+03 0.  0.
          5    1    4    4  502    0  0.20025151472E+02 -0.74673230702E+02 -0.22205321674E+02  0.80574588957E+02  0.47000000000E+01 0. -1.
         -5    1    4    4    0  502 -0.34972969768E+02  0.39743672172E+02 -0.17031907876E+02  0.55810787291E+02  0.47000000000E+01 0. -1.
          5    1    5    5  503    0 -0.46764558058E+02 -0.16009477652E+02 -0.41476107047E+02  0.64696095097E+02  0.47000000000E+01 0.  1.
         -5    1    5    5    0  503  0.61712376354E+02  0.50939036182E+02 -0.92387713746E+02  0.12231427739E+03  0.47000000000E+01 0.  1.
<mgrwt>
<rscale>  0 0.27316815E+03</rscale>
<asrwt>0</asrwt>
<pdfrwt beam="1">  1        2 0.11561131E-01 0.27316815E+03</pdfrwt>
<pdfrwt beam="2">  1       -2 0.38192061E-01 0.27316815E+03</pdfrwt>
<totfact> 0.34654609E+03</totfact>
</mgrwt>
</event>
<event>
 9    1  0.7957670E-001  0.2691682E+03  0.7818608E-02  0.1101757E+00
         -1   -1    0    0    0  501 -0.00000000000E+00  0.00000000000E+00  0.45390037016E+02  0.45390037016E+02  0.00000000000E+00 0. -1.
          1   -1    0    0  501    0  0.00000000000E+00 -0.00000000000E+00 -0.39904969284E+03  0.39904969284E+03  0.00000000000E+00 0. -1.
         35    2    1    2    0    0  0.00000000000E+00  0.00000000000E+00 -0.35365965582E+03  0.44443972985E+03  0.26916820265E+03 0.  0.
         25    2    3    3    0    0 -0.47136052771E+02  0.14734250641E+02 -0.16321529679E+03  0.21132886194E+03  0.12482687679E+03 0.  0.
         25    2    3    3    0    0  0.47136052771E+02 -0.14734250641E+02 -0.19044435903E+03  0.23311086791E+03  0.12503086515E+03 0.  0.
          5    1    4    4  502    0  0.35384411857E+02  0.24992674567E+02 -0.91792589950E+02  0.10161033389E+03  0.47000000000E+01 0.  1.
         -5    1    4    4    0  502 -0.82520464629E+02 -0.10258423926E+02 -0.71422706838E+02  0.10971852804E+03  0.47000000000E+01 0.  1.
          5    1    5    5  503    0  0.31616436959E+02  0.45631694352E+01 -0.20257908754E+03  0.20513604830E+03  0.47000000000E+01 0.  1.
         -5    1    5    5    0  503  0.15519615812E+02 -0.19297420076E+02  0.12134728510E+02  0.27974819616E+02  0.47000000000E+01 0.  1.
<mgrwt>
<rscale>  0 0.26916820E+03</rscale>
<asrwt>0</asrwt>
<pdfrwt beam="1">  1        1 0.61392261E-01 0.26916820E+03</pdfrwt>
<pdfrwt beam="2">  1       -1 0.69830825E-02 0.26916820E+03</pdfrwt>
<totfact> 0.64008734E+03</totfact>
</mgrwt>
</event>
<event>
 9    1  0.7957670E-001  0.2863606E+03  0.7818608E-02  0.1092265E+00
          2   -1    0    0  501    0  0.00000000000E+00  0.00000000000E+00  0.30181394154E+03  0.30181394154E+03  0.00000000000E+00 0. -1.
         -2   -1    0    0    0  501 -0.00000000000E+00 -0.00000000000E+00 -0.67924625176E+02  0.67924625176E+02  0.00000000000E+00 0. -1.
         35    2    1    2    0    0  0.14210854715E-13  0.00000000000E+00  0.23388931636E+03  0.36973856671E+03  0.28636060380E+03 0.  0.
         25    2    3    3    0    0  0.60876088644E+02  0.28879260942E+02  0.87794946980E+02  0.16704240788E+03  0.12512115502E+03 0.  0.
         25    2    3    3    0    0 -0.60876088644E+02 -0.28879260942E+02  0.14609436938E+03  0.20269615883E+03  0.12329743777E+03 0.  0.
          5    1    4    4  502    0  0.35898786629E+02 -0.45530568648E+02  0.15434658955E+02  0.60183671040E+02  0.47000000000E+01 0.  1.
         -5    1    4    4    0  502  0.24977302015E+02  0.74409829589E+02  0.72360288025E+02  0.10685873684E+03  0.47000000000E+01 0.  1.
          5    1    5    5  503    0 -0.64684500711E+02 -0.53846278074E+02  0.15421870755E+03  0.17575268434E+03  0.47000000000E+01 0.  1.
         -5    1    5    5    0  503  0.38084120667E+01  0.24967017132E+02 -0.81243381722E+01  0.26943474492E+02  0.47000000000E+01 0.  1.
<mgrwt>
<rscale>  0 0.28636060E+03</rscale>
<asrwt>0</asrwt>
<pdfrwt beam="1">  1        2 0.46432913E-01 0.28636060E+03</pdfrwt>
<pdfrwt beam="2">  1       -2 0.10449943E-01 0.28636060E+03</pdfrwt>
<totfact> 0.66820529E+03</totfact>
</mgrwt>
</event>
<event>
 9    1  0.7957670E-001  0.2747878E+03  0.7818608E-02  0.1098570E+00
         -1   -1    0    0    0  501 -0.00000000000E+00  0.00000000000E+00  0.97557967719E+02  0.97557967719E+02  0.00000000000E+00 0.  1.
          1   -1    0    0  501    0  0.00000000000E+00 -0.00000000000E+00 -0.19349612041E+03  0.19349612041E+03  0.00000000000E+00 0.  1.
         35    2    1    2    0    0 -0.71054273576E-14  0.00000000000E+00 -0.95938152694E+02  0.29105408813E+03  0.27478783284E+03 0.  0.
         25    2    3    3    0    0 -0.42880534867E+02 -0.24776904829E+02 -0.77111497292E+02  0.15511682800E+03  0.12514955865E+03 0.  0.
         25    2    3    3    0    0  0.42880534867E+02  0.24776904829E+02 -0.18826655402E+02  0.13593726013E+03  0.12518730149E+03 0.  0.
          5    1    4    4  502    0  0.24057327791E+02 -0.33382734589E+02  0.12107161000E+02  0.43148989983E+02  0.47000000000E+01 0.  1.
         -5    1    4    4    0  502 -0.66937862658E+02  0.86058297605E+01 -0.89218658291E+02  0.11196783802E+03  0.47000000000E+01 0.  1.
          5    1    5    5  503    0  0.19294351969E+02 -0.23454946526E+02 -0.60467615422E+02  0.67829411388E+02  0.47000000000E+01 0.  1.
         -5    1    5    5    0  503  0.23586182898E+02  0.48231851355E+02  0.41640960020E+02  0.68107848742E+02  0.47000000000E+01 0.  1.
<mgrwt>
<rscale>  0 0.27478783E+03</rscale>
<asrwt>0</asrwt>
<pdfrwt beam="1">  1        1 0.29768634E-01 0.27478783E+03</pdfrwt>
<pdfrwt beam="2">  1       -1 0.15008918E-01 0.27478783E+03</pdfrwt>
<totfact> 0.48783942E+03</totfact>
</mgrwt>
</event>
<event>
 9    1  0.7957670E-001  0.2745459E+03  0.7818608E-02  0.1098706E+00
          2   -1    0    0  501    0  0.00000000000E+00  0.00000000000E+00  0.10300019345E+04  0.10300019345E+04  0.00000000000E+00 0. -1.
         -2   -1    0    0    0  501 -0.00000000000E+00 -0.00000000000E+00 -0.18294976196E+02  0.18294976196E+02  0.00000000000E+00 0. -1.
         35    2    1    2    0    0  0.00000000000E+00 -0.71054273576E-14  0.10117069583E+04  0.10482969107E+04  0.27454588595E+03 0.  0.
         25    2    3    3    0    0  0.37317214841E+02  0.40183236029E+02  0.47037693732E+03  0.48998146998E+03  0.12577802183E+03 0.  0.
         25    2    3    3    0    0 -0.37317214841E+02 -0.40183236029E+02  0.54133002098E+03  0.55831544071E+03  0.12518255767E+03 0.  0.
          5    1    4    4  502    0  0.23513748581E+02 -0.40551886210E+02  0.98826647798E+02  0.10948126855E+03  0.47000000000E+01 0.  1.
         -5    1    4    4    0  502  0.13803466260E+02  0.80735122239E+02  0.37155028952E+03  0.38050020143E+03  0.47000000000E+01 0.  1.
          5    1    5    5  503    0 -0.36277126817E+02 -0.35342690826E+02  0.67913415672E+02  0.84849618462E+02  0.47000000000E+01 0.  1.
         -5    1    5    5    0  503 -0.10400880243E+01 -0.48405452033E+01  0.47341660531E+03  0.47346582225E+03  0.47000000000E+01 0.  1.
<mgrwt>
<rscale>  0 0.27454589E+03</rscale>
<asrwt>0</asrwt>
<pdfrwt beam="1">  1        2 0.15846179E+00 0.27454589E+03</pdfrwt>
<pdfrwt beam="2">  1       -2 0.28146125E-02 0.27454589E+03</pdfrwt>
<totfact> 0.11696728E+04</totfact>
</mgrwt>
</event>
<event>
 9    1  0.7957670E-001  0.2792668E+03  0.7818608E-02  0.1096090E+00
         -2   -1    0    0    0  501 -0.00000000000E+00  0.00000000000E+00  0.50338374297E+02  0.50338374297E+02  0.00000000000E+00 0.  1.
          2   -1    0    0  501    0  0.00000000000E+00 -0.00000000000E+00 -0.38732843748E+03  0.38732843748E+03  0.00000000000E+00 0.  1.
         35    2    1    2    0    0 -0.71054273576E-14  0.00000000000E+00 -0.33699006319E+03  0.43766681178E+03  0.27926678186E+03 0.  0.
         25    2    3    3    0    0 -0.22872691280E+02  0.57612422359E+02 -0.20311023492E+03  0.24729360119E+03  0.12672018957E+03 0.  0.
         25    2    3    3    0    0  0.22872691280E+02 -0.57612422359E+02 -0.13387982826E+03  0.19037321059E+03  0.12031541745E+03 0.  0.
          5    1    4    4  502    0 -0.56442184586E+02  0.76527887689E+02 -0.10475464309E+03  0.14155515901E+03  0.47000000000E+01 0.  1.
         -5    1    4    4    0  502  0.33569493305E+02 -0.18915465330E+02 -0.98355591834E+02  0.10573844218E+03  0.47000000000E+01 0.  1.
          5    1    5    5  503    0  0.64028296187E+02 -0.51007561033E+00 -0.54894119979E+02  0.84470925755E+02  0.47000000000E+01 0. -1.
         -5    1    5    5    0  503 -0.41155604907E+02 -0.57102346749E+02 -0.78985708285E+02  0.10590228483E+03  0.47000000000E+01 0. -1.
<mgrwt>
<rscale>  0 0.27926678E+03</rscale>
<asrwt>0</asrwt>
<pdfrwt beam="1">  1        2 0.59588993E-01 0.27926678E+03</pdfrwt>
<pdfrwt beam="2">  1       -2 0.77443650E-02 0.27926678E+03</pdfrwt>
<totfact> 0.81809372E+03</totfact>
</mgrwt>
</event>
<event>
 9    1  0.7957670E-001  0.2770547E+03  0.7818608E-02  0.1097309E+00
          1   -1    0    0  501    0  0.00000000000E+00  0.00000000000E+00  0.73021201198E+03  0.73021201198E+03  0.00000000000E+00 0. -1.
         -1   -1    0    0    0  501 -0.00000000000E+00 -0.00000000000E+00 -0.26279795631E+02  0.26279795631E+02  0.00000000000E+00 0. -1.
         35    2    1    2    0    0  0.00000000000E+00  0.00000000000E+00  0.70393221635E+03  0.75649180761E+03  0.27705466928E+03 0.  0.
         25    2    3    3    0    0 -0.16238691874E+02 -0.42382998979E+02  0.45330503875E+03  0.47252626633E+03  0.12544162186E+03 0.  0.
         25    2    3    3    0    0  0.16238691874E+02  0.42382998979E+02  0.25062717760E+03  0.28396554129E+03  0.12554852755E+03 0.  0.
          5    1    4    4  502    0  0.12095188652E+02 -0.29450798339E+02  0.19605309817E+02  0.37684231242E+02  0.47000000000E+01 0. -1.
         -5    1    4    4    0  502 -0.28333880526E+02 -0.12932200640E+02  0.43369972894E+03  0.43484203509E+03  0.47000000000E+01 0. -1.
          5    1    5    5  503    0 -0.35546239005E+02 -0.19823313651E+02  0.14577805439E+03  0.15142598857E+03  0.47000000000E+01 0.  1.
         -5    1    5    5    0  503  0.51784930879E+02  0.62206312630E+02  0.10484912321E+03  0.13253955272E+03  0.47000000000E+01 0.  1.
<mgrwt>
<rscale>  0 0.27705467E+03</rscale>
<asrwt>0</asrwt>
<pdfrwt beam="1">  1        1 0.11234029E+00 0.27705467E+03</pdfrwt>
<pdfrwt beam="2">  1       -1 0.40430460E-02 0.27705467E+03</pdfrwt>
<totfact> 0.63940535E+03</totfact>
</mgrwt>
</event>
<event>
 9    1  0.7957670E-001  0.2733537E+03  0.7818608E-02  0.1099375E+00
         -1   -1    0    0    0  501 -0.00000000000E+00  0.00000000000E+00  0.50514298630E+03  0.50514298630E+03  0.00000000000E+00 0.  1.
          1   -1    0    0  501    0  0.00000000000E+00 -0.00000000000E+00 -0.36980735456E+02  0.36980735456E+02  0.00000000000E+00 0.  1.
         35    2    1    2    0    0  0.35527136788E-14  0.71054273576E-14  0.46816225084E+03  0.54212372175E+03  0.27335368403E+03 0.  0.
         25    2    3    3    0    0  0.10031566300E+02  0.45451530625E+02  0.17490277888E+03  0.21981564004E+03  0.12474557944E+03 0.  0.
         25    2    3    3    0    0 -0.10031566300E+02 -0.45451530625E+02  0.29325947196E+03  0.32230808171E+03  0.12535911487E+03 0.  0.
          5    1    4    4  502    0 -0.11868049577E+02 -0.26937126155E+01 -0.16585327710E+02  0.21101416627E+02  0.47000000000E+01 0.  1.
         -5    1    4    4    0  502  0.21899615878E+02  0.48145243240E+02  0.19148810659E+03  0.19871422342E+03  0.47000000000E+01 0.  1.
          5    1    5    5  503    0  0.35333206345E+02 -0.30186174960E+02  0.31905637486E+02  0.56565893723E+02  0.47000000000E+01 0. -1.
         -5    1    5    5    0  503 -0.45364772646E+02 -0.15265355665E+02  0.26135383447E+03  0.26574218799E+03  0.47000000000E+01 0. -1.
<mgrwt>
<rscale>  0 0.27335368E+03</rscale>
<asrwt>0</asrwt>
<pdfrwt beam="1">  1        1 0.56893443E-02 0.27335368E+03</pdfrwt>
<pdfrwt beam="2">  1       -1 0.77714300E-01 0.27335368E+03</pdfrwt>
<totfact> 0.24044851E+03</totfact>
</mgrwt>
</event>
<event>
 9    1  0.7957670E-001  0.2739302E+03  0.7818608E-02  0.1099051E+00
          2   -1    0    0  501    0  0.00000000000E+00  0.00000000000E+00  0.74043365579E+03  0.74043365579E+03  0.00000000000E+00 0. -1.
         -2   -1    0    0    0  501 -0.00000000000E+00 -0.00000000000E+00 -0.25335749616E+02  0.25335749616E+02  0.00000000000E+00 0. -1.
         35    2    1    2    0    0 -0.71054273576E-14  0.71054273576E-14  0.71509790617E+03  0.76576940540E+03  0.27393022258E+03 0.  0.
         25    2    3    3    0    0  0.43847119276E+01 -0.42031749789E+02  0.32796175666E+03  0.35346124574E+03  0.12486010061E+03 0.  0.
         25    2    3    3    0    0 -0.43847119276E+01  0.42031749789E+02  0.38713614952E+03  0.41230815966E+03  0.13541686221E+03 0.  0.
          5    1    4    4  502    0 -0.36342547557E+02 -0.17159430685E+02  0.28859961226E+03  0.29142246485E+03  0.47000000000E+01 0.  1.
         -5    1    4    4    0  502  0.40727259485E+02 -0.24872319104E+02  0.39362144395E+02  0.62038780888E+02  0.47000000000E+01 0.  1.
          5    1    5    5  503    0  0.35741927114E+02  0.48316911941E+02  0.69291509432E+02  0.91844502354E+02  0.47000000000E+01 0. -1.
         -5    1    5    5    0  503 -0.40126639042E+02 -0.62851621526E+01  0.31784464008E+03  0.32046365731E+03  0.47000000000E+01 0. -1.
<mgrwt>
<rscale>  0 0.27393022E+03</rscale>
<asrwt>0</asrwt>
<pdfrwt beam="1">  1        2 0.11391285E+00 0.27393022E+03</pdfrwt>
<pdfrwt beam="2">  1       -2 0.38978082E-02 0.27393022E+03</pdfrwt>
<totfact> 0.11138381E+04</totfact>
</mgrwt>
</event>
<event>
 9    1  0.7957670E-001  0.2706014E+03  0.7818608E-02  0.1100936E+00
          1   -1    0    0  501    0  0.00000000000E+00  0.00000000000E+00  0.16667904833E+03  0.16667904833E+03  0.00000000000E+00 0. -1.
         -1   -1    0    0    0  501 -0.00000000000E+00 -0.00000000000E+00 -0.10982950048E+03  0.10982950048E+03  0.00000000000E+00 0. -1.
         35    2    1    2    0    0  0.00000000000E+00  0.00000000000E+00  0.56849547844E+02  0.27650854881E+03  0.27060137929E+03 0.  0.
         25    2    3    3    0    0  0.26696277994E+02 -0.10534494296E+02 -0.16615671501E+02  0.12949157636E+03  0.12517316398E+03 0.  0.
         25    2    3    3    0    0 -0.26696277994E+02  0.10534494296E+02  0.73465219345E+02  0.14701697245E+03  0.12406927463E+03 0.  0.
          5    1    4    4  502    0  0.66981605656E+01 -0.49804027165E+02 -0.52233593937E+02  0.72634322550E+02  0.47000000000E+01 0. -1.
         -5    1    4    4    0  502  0.19998117428E+02  0.39269532869E+02  0.35617922436E+02  0.56857253812E+02  0.47000000000E+01 0. -1.
          5    1    5    5  503    0  0.18079519295E+02  0.43577692623E+01  0.94866389257E+02  0.96786264426E+02  0.47000000000E+01 0.  1.
         -5    1    5    5    0  503 -0.44775797288E+02  0.61767250336E+01 -0.21401169912E+02  0.50230708024E+02  0.47000000000E+01 0.  1.
<mgrwt>
<rscale>  0 0.27060138E+03</rscale>
<asrwt>0</asrwt>
<pdfrwt beam="1">  1        1 0.25642930E-01 0.27060138E+03</pdfrwt>
<pdfrwt beam="2">  1       -1 0.16896846E-01 0.27060138E+03</pdfrwt>
<totfact> 0.48762584E+03</totfact>
</mgrwt>
</event>
<event>
 9    1  0.7957670E-001  0.2755877E+03  0.7818608E-02  0.1098124E+00
         -2   -1    0    0    0  501 -0.00000000000E+00  0.00000000000E+00  0.36385285561E+02  0.36385285561E+02  0.00000000000E+00 0.  1.
          2   -1    0    0  501    0  0.00000000000E+00 -0.00000000000E+00 -0.52183579816E+03  0.52183579816E+03  0.00000000000E+00 0.  1.
         35    2    1    2    0    0 -0.14210854715E-13  0.00000000000E+00 -0.48545051260E+03  0.55822108372E+03  0.27558769590E+03 0.  0.
         25    2    3    3    0    0 -0.54978506642E+02 -0.12524807906E+02 -0.26231558838E+03  0.29596788476E+03  0.12493203711E+03 0.  0.
         25    2    3    3    0    0  0.54978506642E+02  0.12524807906E+02 -0.22313492422E+03  0.26225319896E+03  0.12573002407E+03 0.  0.
          5    1    4    4  502    0 -0.90988688470E+02 -0.24651610850E+02 -0.14920122008E+03  0.17654953249E+03  0.47000000000E+01 0.  1.
         -5    1    4    4    0  502  0.36010181828E+02  0.12126802944E+02 -0.11311436829E+03  0.11941835227E+03  0.47000000000E+01 0.  1.
          5    1    5    5  503    0 -0.35847591768E+02  0.23977315482E+02 -0.97653340463E+02  0.10685610135E+03  0.47000000000E+01 0.  1.
         -5    1    5    5    0  503  0.90826098410E+02 -0.11452507576E+02 -0.12548158376E+03  0.15539709761E+03  0.47000000000E+01 0.  1.
<mgrwt>
<rscale>  0 0.27558770E+03</rscale>
<asrwt>0</asrwt>
<pdfrwt beam="1">  1        2 0.80282435E-01 0.27558770E+03</pdfrwt>
<pdfrwt beam="2">  1       -2 0.55977360E-02 0.27558770E+03</pdfrwt>
<totfact> 0.97134956E+03</totfact>
</mgrwt>
</event>
<event>
 9    1  0.7957670E-001  0.2735081E+03  0.7818608E-02  0.1099288E+00
         -1   -1    0    0    0  501 -0.00000000000E+00  0.00000000000E+00  0.24054186146E+02  0.24054186146E+02  0.00000000000E+00 0. -1.
          1   -1    0    0  501    0  0.00000000000E+00 -0.00000000000E+00 -0.77748092237E+03  0.77748092237E+03  0.00000000000E+00 0. -1.
         35    2    1    2    0    0  0.71054273576E-14 -0.35527136788E-14 -0.75342673623E+03  0.80153510852E+03  0.27350810468E+03 0.  0.
         25    2    3    3    0    0  0.45420128266E+02 -0.26581997877E+02 -0.42181777280E+03  0.44308181696E+03  0.12498668892E+03 0.  0.
         25    2    3    3    0    0 -0.45420128266E+02  0.26581997877E+02 -0.33160896343E+03  0.35845329156E+03  0.12551759615E+03 0.  0.
          5    1    4    4  502    0  0.82501818278E+02  0.78002481036E+01 -0.29552225730E+03  0.30695747010E+03  0.47000000000E+01 0.  1.
         -5    1    4    4    0  502 -0.37081690011E+02 -0.34382245981E+02 -0.12629551550E+03  0.13612434686E+03  0.47000000000E+01 0.  1.
          5    1    5    5  503    0 -0.70999248858E+02 -0.12246145402E+02 -0.27851620514E+03  0.28772248425E+03  0.47000000000E+01 0. -1.
         -5    1    5    5    0  503  0.25579120591E+02  0.38828143279E+02 -0.53092758288E+02  0.70730807314E+02  0.47000000000E+01 0. -1.
<mgrwt>
<rscale>  0 0.27350810E+03</rscale>
<asrwt>0</asrwt>
<pdfrwt beam="1">  1        1 0.11961243E+00 0.27350810E+03</pdfrwt>
<pdfrwt beam="2">  1       -1 0.37006448E-02 0.27350810E+03</pdfrwt>
<totfact> 0.66349704E+03</totfact>
</mgrwt>
</event>
<event>
 9    1  0.7957670E-001  0.2732123E+03  0.7818608E-02  0.1099455E+00
          1   -1    0    0  501    0  0.00000000000E+00  0.00000000000E+00  0.55153685346E+03  0.55153685346E+03  0.00000000000E+00 0.  1.
         -1   -1    0    0    0  501 -0.00000000000E+00 -0.00000000000E+00 -0.33834978156E+02  0.33834978156E+02  0.00000000000E+00 0.  1.
         35    2    1    2    0    0  0.00000000000E+00  0.35527136788E-14  0.51770187530E+03  0.58537183161E+03  0.27321227929E+03 0.  0.
         25    2    3    3    0    0  0.40165668061E+02 -0.18426198467E+02  0.18435102591E+03  0.22718149123E+03  0.12519314488E+03 0.  0.
         25    2    3    3    0    0 -0.40165668061E+02  0.18426198467E+02  0.33335084939E+03  0.35819034038E+03  0.12338851434E+03 0.  0.
          5    1    4    4  502    0  0.88917971175E+01  0.50228924300E+02  0.10906849816E+03  0.12049911279E+03  0.47000000000E+01 0. -1.
         -5    1    4    4    0  502  0.31273870944E+02 -0.68655122767E+02  0.75282527746E+02  0.10668237844E+03  0.47000000000E+01 0. -1.
          5    1    5    5  503    0 -0.29782802019E+02  0.34279085100E+02  0.30938692026E+02  0.55148559688E+02  0.47000000000E+01 0. -1.
         -5    1    5    5    0  503 -0.10382866043E+02 -0.15852886633E+02  0.30241215737E+03  0.30304178069E+03  0.47000000000E+01 0. -1.
<mgrwt>
<rscale>  0 0.27321228E+03</rscale>
<asrwt>0</asrwt>
<pdfrwt beam="1">  1        1 0.84851817E-01 0.27321228E+03</pdfrwt>
<pdfrwt beam="2">  1       -1 0.52053817E-02 0.27321228E+03</pdfrwt>
<totfact> 0.65180665E+03</totfact>
</mgrwt>
</event>
<event>
 9    1  0.7957670E-001  0.2723247E+03  0.7818608E-02  0.1099956E+00
         -1   -1    0    0    0  501 -0.00000000000E+00  0.00000000000E+00  0.27903429684E+02  0.27903429684E+02  0.00000000000E+00 0.  1.
          1   -1    0    0  501    0  0.00000000000E+00 -0.00000000000E+00 -0.66444103309E+03  0.66444103309E+03  0.00000000000E+00 0.  1.
         35    2    1    2    0    0  0.00000000000E+00  0.00000000000E+00 -0.63653760341E+03  0.69234446278E+03  0.27232468596E+03 0.  0.
         25    2    3    3    0    0 -0.10774208448E+02 -0.39106709585E+02 -0.24718224523E+03  0.28011794250E+03  0.12538572905E+03 0.  0.
         25    2    3    3    0    0  0.10774208448E+02  0.39106709585E+02 -0.38935535818E+03  0.41222652028E+03  0.12918084525E+03 0.  0.
          5    1    4    4  502    0  0.79766427763E+01  0.29141000634E+01 -0.23086681813E+03  0.23107076086E+03  0.47000000000E+01 0.  1.
         -5    1    4    4    0  502 -0.18750851224E+02 -0.42020809649E+02 -0.16315427097E+02  0.49047181637E+02  0.47000000000E+01 0.  1.
          5    1    5    5  503    0  0.69317487321E+00  0.27379889191E+02 -0.58719018942E+01  0.28402606489E+02  0.47000000000E+01 0. -1.
         -5    1    5    5    0  503  0.10081033575E+02  0.11726820394E+02 -0.38348345628E+03  0.38382391379E+03  0.47000000000E+01 0. -1.
<mgrwt>
<rscale>  0 0.27232469E+03</rscale>
<asrwt>0</asrwt>
<pdfrwt beam="1">  1        1 0.10222169E+00 0.27232469E+03</pdfrwt>
<pdfrwt beam="2">  1       -1 0.42928359E-02 0.27232469E+03</pdfrwt>
<totfact> 0.67072339E+03</totfact>
</mgrwt>
</event>
<event>
 9    1  0.7957670E-001  0.2746206E+03  0.7818608E-02  0.1098664E+00
          4   -1    0    0  501    0  0.00000000000E+00  0.00000000000E+00  0.43500740462E+03  0.43500740462E+03  0.00000000000E+00 0. -1.
         -4   -1    0    0    0  501 -0.00000000000E+00 -0.00000000000E+00 -0.43342049816E+02  0.43342049816E+02  0.00000000000E+00 0. -1.
         35    2    1    2    0    0  0.00000000000E+00  0.71054273576E-14  0.39166535481E+03  0.47834945444E+03  0.27462055714E+03 0.  0.
         25    2    3    3    0    0  0.23310558572E+02  0.42758707532E+02  0.24541203166E+03  0.27989309404E+03  0.12546469463E+03 0.  0.
         25    2    3    3    0    0 -0.23310558572E+02 -0.42758707532E+02  0.14625332314E+03  0.19845636039E+03  0.12499281275E+03 0.  0.
          5    1    4    4  502    0  0.52217281559E+02  0.73808411454E+02  0.14728461027E+03  0.17288485335E+03  0.47000000000E+01 0.  1.
         -5    1    4    4    0  502 -0.28906722987E+02 -0.31049703922E+02  0.98127421395E+02  0.10700824070E+03  0.47000000000E+01 0.  1.
          5    1    5    5  503    0 -0.35876277271E+02 -0.25552570246E+02  0.16428454575E+03  0.17015152979E+03  0.47000000000E+01 0.  1.
         -5    1    5    5    0  503  0.12565718699E+02 -0.17206137286E+02 -0.18031222609E+02  0.28304830604E+02  0.47000000000E+01 0.  1.
<mgrwt>
<rscale>  0 0.27462056E+03</rscale>
<asrwt>0</asrwt>
<pdfrwt beam="1">  1        4 0.66924213E-01 0.27462056E+03</pdfrwt>
<pdfrwt beam="2">  1       -4 0.66680080E-02 0.27462056E+03</pdfrwt>
<totfact> 0.58762379E+02</totfact>
</mgrwt>
</event>
<event>
 9    1  0.7957670E-001  0.2781321E+03  0.7818608E-02  0.1096714E+00
          1   -1    0    0  501    0  0.00000000000E+00  0.00000000000E+00  0.43039156781E+03  0.43039156781E+03  0.00000000000E+00 0. -1.
         -1   -1    0    0    0  501 -0.00000000000E+00 -0.00000000000E+00 -0.44934343031E+02  0.44934343031E+02  0.00000000000E+00 0. -1.
         35    2    1    2    0    0 -0.71054273576E-14  0.00000000000E+00  0.38545722478E+03  0.47532591084E+03  0.27813207183E+03 0.  0.
         25    2    3    3    0    0  0.36826231017E+02  0.56041942864E+00  0.28041968770E+03  0.30937273945E+03  0.12537864771E+03 0.  0.
         25    2    3    3    0    0 -0.36826231017E+02 -0.56041942864E+00  0.10503753708E+03  0.16595317139E+03  0.12308974587E+03 0.  0.
          5    1    4    4  502    0 -0.38220338806E+02 -0.17150950053E+02  0.16633496365E+03  0.17159358822E+03  0.47000000000E+01 0. -1.
         -5    1    4    4    0  502  0.75046569824E+02  0.17711369482E+02  0.11408472405E+03  0.13777915123E+03  0.47000000000E+01 0. -1.
          5    1    5    5  503    0 -0.98111729544E+01 -0.32356938077E+02  0.11733681017E+03  0.12220166766E+03  0.47000000000E+01 0.  1.
         -5    1    5    5    0  503 -0.27015058063E+02  0.31796518648E+02 -0.12299273096E+02  0.43751503734E+02  0.47000000000E+01 0.  1.
<mgrwt>
<rscale>  0 0.27813207E+03</rscale>
<asrwt>0</asrwt>
<pdfrwt beam="1">  1        1 0.66214085E-01 0.27813207E+03</pdfrwt>
<pdfrwt beam="2">  1       -1 0.69129761E-02 0.27813207E+03</pdfrwt>
<totfact> 0.59025801E+03</totfact>
</mgrwt>
</event>
<event>
 9    1  0.7957670E-001  0.2772670E+03  0.7818608E-02  0.1097191E+00
         -2   -1    0    0    0  501 -0.00000000000E+00  0.00000000000E+00  0.11007677095E+02  0.11007677095E+02  0.00000000000E+00 0.  1.
          2   -1    0    0  501    0  0.00000000000E+00 -0.00000000000E+00 -0.17459854688E+04  0.17459854688E+04  0.00000000000E+00 0.  1.
         35    2    1    2    0    0  0.00000000000E+00  0.35527136788E-14 -0.17349777917E+04  0.17569931459E+04  0.27726697786E+03 0.  0.
         25    2    3    3    0    0 -0.55169300399E+02  0.12669734529E+01 -0.71008130610E+03  0.72307976744E+03  0.12483441782E+03 0.  0.
         25    2    3    3    0    0  0.55169300399E+02 -0.12669734529E+01 -0.10248964856E+04  0.10339133785E+04  0.12457451997E+03 0.  0.
          5    1    4    4  502    0 -0.45971000463E+02  0.59439823907E+02 -0.45950174322E+03  0.46562900207E+03  0.47000000000E+01 0. -1.
         -5    1    4    4    0  502 -0.91982999362E+01 -0.58172850454E+02 -0.25057956288E+03  0.25745076536E+03  0.47000000000E+01 0. -1.
          5    1    5    5  503    0  0.96199778098E+00 -0.18324270805E+02 -0.84465096114E+03  0.84486332652E+03  0.47000000000E+01 0.  1.
         -5    1    5    5    0  503  0.54207302618E+02  0.17057297352E+02 -0.18024552448E+03  0.18905005196E+03  0.47000000000E+01 0.  1.
<mgrwt>
<rscale>  0 0.27726698E+03</rscale>
<asrwt>0</asrwt>
<pdfrwt beam="1">  1        2 0.26861319E+00 0.27726698E+03</pdfrwt>
<pdfrwt beam="2">  1       -2 0.16934885E-02 0.27726698E+03</pdfrwt>
<totfact> 0.99789042E+03</totfact>
</mgrwt>
</event>
<event>
 9    1  0.7957670E-001  0.2728694E+03  0.7818608E-02  0.1099648E+00
          3   -1    0    0  501    0  0.00000000000E+00  0.00000000000E+00  0.49647027449E+02  0.49647027449E+02  0.00000000000E+00 0.  1.
         -3   -1    0    0    0  501 -0.00000000000E+00 -0.00000000000E+00 -0.37493547258E+03  0.37493547258E+03  0.00000000000E+00 0.  1.
         35    2    1    2    0    0  0.00000000000E+00 -0.71054273576E-14 -0.32528844513E+03  0.42458250003E+03  0.27286943177E+03 0.  0.
         25    2    3    3    0    0 -0.25684526916E+01 -0.54024457110E+02 -0.17002921603E+03  0.21769238438E+03  0.12471888789E+03 0.  0.
         25    2    3    3    0    0  0.25684526916E+01  0.54024457110E+02 -0.15525922910E+03  0.20689011565E+03  0.12559001878E+03 0.  0.
          5    1    4    4  502    0  0.52356901828E+02 -0.50863243950E+02 -0.60081329050E+02  0.94658179015E+02  0.47000000000E+01 0.  1.
         -5    1    4    4    0  502 -0.54925354520E+02 -0.31612131606E+01 -0.10994788698E+03  0.12303420536E+03  0.47000000000E+01 0.  1.
          5    1    5    5  503    0  0.35288739694E+02  0.40008225887E+02 -0.16176602939E+03  0.17040038601E+03  0.47000000000E+01 0. -1.
         -5    1    5    5    0  503 -0.32720287002E+02  0.14016231224E+02  0.65068002889E+01  0.36489729640E+02  0.47000000000E+01 0. -1.
<mgrwt>
<rscale>  0 0.27286943E+03</rscale>
<asrwt>0</asrwt>
<pdfrwt beam="1">  1        3 0.76380045E-02 0.27286943E+03</pdfrwt>
<pdfrwt beam="2">  1       -3 0.57682378E-01 0.27286943E+03</pdfrwt>
<totfact> 0.87273177E+02</totfact>
</mgrwt>
</event>
<event>
 9    1  0.7957670E-001  0.2805394E+03  0.7818608E-02  0.1095395E+00
         -1   -1    0    0    0  501 -0.00000000000E+00  0.00000000000E+00  0.84895490426E+02  0.84895490426E+02  0.00000000000E+00 0.  1.
          1   -1    0    0  501    0  0.00000000000E+00 -0.00000000000E+00 -0.23176254308E+03  0.23176254308E+03  0.00000000000E+00 0.  1.
         35    2    1    2    0    0 -0.71054273576E-14  0.00000000000E+00 -0.14686705265E+03  0.31665803350E+03  0.28053944291E+03 0.  0.
         25    2    3    3    0    0  0.28446855242E+02  0.56659939326E+02 -0.73902894135E+02  0.15845101151E+03  0.12500205193E+03 0.  0.
         25    2    3    3    0    0 -0.28446855242E+02 -0.56659939326E+02 -0.72964158515E+02  0.15820702200E+03  0.12524424571E+03 0.  0.
          5    1    4    4  502    0  0.11910180324E+02  0.54411325092E+02  0.22680589941E+02  0.60323659154E+02  0.47000000000E+01 0.  1.
         -5    1    4    4    0  502  0.16536674918E+02  0.22486142344E+01 -0.96583484076E+02  0.98127352352E+02  0.47000000000E+01 0.  1.
          5    1    5    5  503    0 -0.37112051448E+02  0.32086267499E+00  0.24613865165E+02  0.44781019125E+02  0.47000000000E+01 0.  1.
         -5    1    5    5    0  503  0.86651962064E+01 -0.56980802001E+02 -0.97578023680E+02  0.11342600287E+03  0.47000000000E+01 0.  1.
<mgrwt>
<rscale>  0 0.28053944E+03</rscale>
<asrwt>0</asrwt>
<pdfrwt beam="1">  1        1 0.35655775E-01 0.28053944E+03</pdfrwt>
<pdfrwt beam="2">  1       -1 0.13060845E-01 0.28053944E+03</pdfrwt>
<totfact> 0.48442582E+03</totfact>
</mgrwt>
</event>
<event>
 9    1  0.7957670E-001  0.2752907E+03  0.7818608E-02  0.1098289E+00
          2   -1    0    0  501    0  0.00000000000E+00  0.00000000000E+00  0.10988857618E+04  0.10988857618E+04  0.00000000000E+00 0. -1.
         -2   -1    0    0    0  501 -0.00000000000E+00 -0.00000000000E+00 -0.17241324309E+02  0.17241324309E+02  0.00000000000E+00 0. -1.
         35    2    1    2    0    0 -0.35527136788E-14  0.71054273576E-14  0.10816444374E+04  0.11161270861E+04  0.27529072485E+03 0.  0.
         25    2    3    3    0    0 -0.64659815711E+01 -0.55815364494E+02  0.58775349979E+03  0.60354557470E+03  0.12512362043E+03 0.  0.
         25    2    3    3    0    0  0.64659815711E+01  0.55815364494E+02  0.49389093765E+03  0.51258151136E+03  0.12511747946E+03 0.  0.
          5    1    4    4  502    0  0.24474427440E+02  0.33741162919E+02  0.16099733365E+03  0.16637215847E+03  0.47000000000E+01 0. -1.
         -5    1    4    4    0  502 -0.30940409011E+02 -0.89556527413E+02  0.42675616614E+03  0.43717341623E+03  0.47000000000E+01 0. -1.
          5    1    5    5  503    0  0.20037835749E+02 -0.35366787343E+02  0.10060523971E+03  0.10860860355E+03  0.47000000000E+01 0.  1.
         -5    1    5    5    0  503 -0.13571854178E+02  0.91182151837E+02  0.39328569794E+03  0.40397290781E+03  0.47000000000E+01 0.  1.
<mgrwt>
<rscale>  0 0.27529072E+03</rscale>
<asrwt>0</asrwt>
<pdfrwt beam="1">  1        2 0.16905929E+00 0.27529072E+03</pdfrwt>
<pdfrwt beam="2">  1       -2 0.26525123E-02 0.27529072E+03</pdfrwt>
<totfact> 0.11622261E+04</totfact>
</mgrwt>
</event>
<event>
 9    1  0.7957670E-001  0.2785548E+03  0.7818608E-02  0.1096481E+00
          1   -1    0    0  501    0  0.00000000000E+00  0.00000000000E+00  0.42969239550E+03  0.42969239550E+03  0.00000000000E+00 0.  1.
         -1   -1    0    0    0  501 -0.00000000000E+00 -0.00000000000E+00 -0.45144362220E+02  0.45144362220E+02  0.00000000000E+00 0.  1.
         35    2    1    2    0    0  0.26645352591E-14  0.00000000000E+00  0.38454803328E+03  0.47483675772E+03  0.27855476406E+03 0.  0.
         25    2    3    3    0    0 -0.78974394115E+01 -0.55004196526E+02  0.16061128398E+03  0.21090719432E+03  0.12489206895E+03 0.  0.
         25    2    3    3    0    0  0.78974394115E+01  0.55004196526E+02  0.22393674930E+03  0.26392956340E+03  0.12815348441E+03 0.  0.
          5    1    4    4  502    0 -0.35677918341E+01  0.26870810717E+02 -0.31665842792E+01  0.27692722206E+02  0.47000000000E+01 0. -1.
         -5    1    4    4    0  502 -0.43296475775E+01 -0.81875007243E+02  0.16377786826E+03  0.18321447211E+03  0.47000000000E+01 0. -1.
          5    1    5    5  503    0 -0.20847305725E+01 -0.12165053081E+02 -0.12320690313E+02  0.18061672896E+02  0.47000000000E+01 0. -1.
         -5    1    5    5    0  503  0.99821699841E+01  0.67169249607E+02  0.23625743961E+03  0.24586789051E+03  0.47000000000E+01 0. -1.
<mgrwt>
<rscale>  0 0.27855476E+03</rscale>
<asrwt>0</asrwt>
<pdfrwt beam="1">  1        1 0.66106520E-01 0.27855476E+03</pdfrwt>
<pdfrwt beam="2">  1       -1 0.69452868E-02 0.27855476E+03</pdfrwt>
<totfact> 0.58735773E+03</totfact>
</mgrwt>
</event>
<event>
 9    1  0.7957670E-001  0.2743576E+03  0.7818608E-02  0.1098811E+00
          2   -1    0    0  501    0  0.00000000000E+00  0.00000000000E+00  0.24490458745E+04  0.24490458745E+04  0.00000000000E+00 0. -1.
         -2   -1    0    0    0  501 -0.00000000000E+00 -0.00000000000E+00 -0.76838160189E+01  0.76838160189E+01  0.00000000000E+00 0. -1.
         35    2    1    2    0    0  0.35527136788E-14  0.00000000000E+00  0.24413620585E+04  0.24567296905E+04  0.27435756174E+03 0.  0.
         25    2    3    3    0    0 -0.22651329171E+02  0.39011636707E+02  0.15501710668E+04  0.15556568245E+04  0.12248603525E+03 0.  0.
         25    2    3    3    0    0  0.22651329171E+02 -0.39011636707E+02  0.89119099168E+03  0.90107286600E+03  0.12520357690E+03 0.  0.
          5    1    4    4  502    0 -0.21613752195E+02  0.13449182746E+02  0.61087906701E+02  0.66346493092E+02  0.47000000000E+01 0. -1.
         -5    1    4    4    0  502 -0.10375769757E+01  0.25562453961E+02  0.14890831601E+04  0.14893103314E+04  0.47000000000E+01 0. -1.
          5    1    5    5  503    0  0.15666372912E+02 -0.84571841499E+02  0.53709016669E+03  0.54395382963E+03  0.47000000000E+01 0.  1.
         -5    1    5    5    0  503  0.69849562588E+01  0.45560204792E+02  0.35410082500E+03  0.35711903637E+03  0.47000000000E+01 0.  1.
<mgrwt>
<rscale>  0 0.27435756E+03</rscale>
<asrwt>0</asrwt>
<pdfrwt beam="1">  1        2 0.37677567E+00 0.27435756E+03</pdfrwt>
<pdfrwt beam="2">  1       -2 0.11821275E-02 0.27435756E+03</pdfrwt>
<totfact> 0.71460697E+03</totfact>
</mgrwt>
</event>
<event>
 9    1  0.7957670E-001  0.2797505E+03  0.7818608E-02  0.1095825E+00
         -1   -1    0    0    0  501 -0.00000000000E+00  0.00000000000E+00  0.32639110800E+02  0.32639110800E+02  0.00000000000E+00 0. -1.
          1   -1    0    0  501    0  0.00000000000E+00 -0.00000000000E+00 -0.59943677693E+03  0.59943677693E+03  0.00000000000E+00 0. -1.
         35    2    1    2    0    0 -0.71054273576E-14  0.17763568394E-14 -0.56679766613E+03  0.63207588773E+03  0.27975048439E+03 0.  0.
         25    2    3    3    0    0  0.30707601766E+02  0.99440942595E+01 -0.39306188178E+03  0.41363067433E+03  0.12470304735E+03 0.  0.
         25    2    3    3    0    0 -0.30707601766E+02 -0.99440942595E+01 -0.17373578434E+03  0.21844521340E+03  0.12842253181E+03 0.  0.
          5    1    4    4  502    0  0.78836007918E+02  0.91147307755E+01 -0.26798723049E+03  0.27953074995E+03  0.47000000000E+01 0.  1.
         -5    1    4    4    0  502 -0.48128406151E+02  0.82936348397E+00 -0.12507465129E+03  0.13409992438E+03  0.47000000000E+01 0.  1.
          5    1    5    5  503    0  0.46194977221E+02 -0.26704308737E+02 -0.71112899131E+02  0.89029379692E+02  0.47000000000E+01 0. -1.
         -5    1    5    5    0  503 -0.76902578987E+02  0.16760214477E+02 -0.10262288521E+03  0.12941583370E+03  0.47000000000E+01 0. -1.
<mgrwt>
<rscale>  0 0.27975048E+03</rscale>
<asrwt>0</asrwt>
<pdfrwt beam="1">  1        1 0.92221040E-01 0.27975048E+03</pdfrwt>
<pdfrwt beam="2">  1       -1 0.50214018E-02 0.27975048E+03</pdfrwt>
<totfact> 0.61401824E+03</totfact>
</mgrwt>
</event>
<event>
 9    1  0.7957670E-001  0.2750029E+03  0.7818608E-02  0.1098450E+00
         -2   -1    0    0    0  501 -0.00000000000E+00  0.00000000000E+00  0.18790611080E+03  0.18790611080E+03  0.00000000000E+00 0. -1.
          2   -1    0    0  501    0  0.00000000000E+00 -0.00000000000E+00 -0.10061752229E+03  0.10061752229E+03  0.00000000000E+00 0. -1.
         35    2    1    2    0    0 -0.14210854715E-13  0.35527136788E-14  0.87288588501E+02  0.28852363309E+03  0.27500288938E+03 0.  0.
         25    2    3    3    0    0 -0.56493530882E+02  0.25608187809E+01  0.56442923737E+02  0.14849097493E+03  0.12516265087E+03 0.  0.
         25    2    3    3    0    0  0.56493530882E+02 -0.25608187809E+01  0.30845664763E+02  0.14003265816E+03  0.12433669407E+03 0.  0.
          5    1    4    4  502    0  0.64946962500E+01 -0.33263093025E+02 -0.22716842511E+02  0.41070176170E+02  0.47000000000E+01 0.  1.
         -5    1    4    4    0  502 -0.62988227132E+02  0.35823911806E+02  0.79159766249E+02  0.10742079876E+03  0.47000000000E+01 0.  1.
          5    1    5    5  503    0  0.34903971177E+02 -0.25053856204E+02  0.74531530738E+02  0.86156961348E+02  0.47000000000E+01 0. -1.
         -5    1    5    5    0  503  0.21589559705E+02  0.22493037423E+02 -0.43685865975E+02  0.53875696809E+02  0.47000000000E+01 0. -1.
<mgrwt>
<rscale>  0 0.27500289E+03</rscale>
<asrwt>0</asrwt>
<pdfrwt beam="1">  1        2 0.15479619E-01 0.27500289E+03</pdfrwt>
<pdfrwt beam="2">  1       -2 0.28908632E-01 0.27500289E+03</pdfrwt>
<totfact> 0.40835964E+03</totfact>
</mgrwt>
</event>
<event>
 9    1  0.7957670E-001  0.2757212E+03  0.7818608E-02  0.1098049E+00
         -2   -1    0    0    0  501 -0.00000000000E+00  0.00000000000E+00  0.12492440112E+02  0.12492440112E+02  0.00000000000E+00 0.  1.
          2   -1    0    0  501    0  0.00000000000E+00 -0.00000000000E+00 -0.15213634190E+04  0.15213634190E+04  0.00000000000E+00 0.  1.
         35    2    1    2    0    0  0.71054273576E-14  0.00000000000E+00 -0.15088709789E+04  0.15338558592E+04  0.27572117366E+03 0.  0.
         25    2    3    3    0    0  0.32261019025E+02  0.46723764795E+02 -0.83643808700E+03  0.84749848318E+03  0.12410125728E+03 0.  0.
         25    2    3    3    0    0 -0.32261019025E+02 -0.46723764795E+02 -0.67243289193E+03  0.68635737598E+03  0.12528595239E+03 0.  0.
          5    1    4    4  502    0  0.41305627324E+02 -0.30776902992E+02 -0.21355945204E+03  0.21973416249E+03  0.47000000000E+01 0.  1.
         -5    1    4    4    0  502 -0.90446082989E+01  0.77500667787E+02 -0.62287863496E+03  0.62776432069E+03  0.47000000000E+01 0.  1.
          5    1    5    5  503    0  0.43678354187E+02 -0.41837802884E+02 -0.33130008429E+03  0.33680860474E+03  0.47000000000E+01 0. -1.
         -5    1    5    5    0  503 -0.75939373212E+02 -0.48859619117E+01 -0.34113280763E+03  0.34954877124E+03  0.47000000000E+01 0. -1.
<mgrwt>
<rscale>  0 0.27572117E+03</rscale>
<asrwt>0</asrwt>
<pdfrwt beam="1">  1        2 0.23405575E+00 0.27572117E+03</pdfrwt>
<pdfrwt beam="2">  1       -2 0.19219152E-02 0.27572117E+03</pdfrwt>
<totfact> 0.10894864E+04</totfact>
</mgrwt>
</event>
<event>
 9    1  0.7957670E-001  0.2734341E+03  0.7818608E-02  0.1099330E+00
         -1   -1    0    0    0  501 -0.00000000000E+00  0.00000000000E+00  0.86419211051E+01  0.86419211051E+01  0.00000000000E+00 0.  1.
          1   -1    0    0  501    0  0.00000000000E+00 -0.00000000000E+00 -0.21628936509E+04  0.21628936509E+04  0.00000000000E+00 0.  1.
         35    2    1    2    0    0  0.35527136788E-14  0.00000000000E+00 -0.21542517298E+04  0.21715355720E+04  0.27343413313E+03 0.  0.
         25    2    3    3    0    0  0.54498799928E+00  0.34233729880E+02 -0.13960307354E+04  0.14021161574E+04  0.12591925773E+03 0.  0.
         25    2    3    3    0    0 -0.54498799928E+00 -0.34233729880E+02 -0.75822099446E+03  0.76941941465E+03  0.12623356889E+03 0.  0.
          5    1    4    4  502    0  0.35567541614E+02  0.67329919959E+01 -0.12177966366E+04  0.12183435974E+04  0.47000000000E+01 0. -1.
         -5    1    4    4    0  502 -0.35022553615E+02  0.27500737884E+02 -0.17823409875E+03  0.18377255999E+03  0.47000000000E+01 0. -1.
          5    1    5    5  503    0 -0.13563702969E+02 -0.66410228992E+02 -0.22464687870E+03  0.23469683139E+03  0.47000000000E+01 0.  1.
         -5    1    5    5    0  503  0.13018714970E+02  0.32176499112E+02 -0.53357411576E+03  0.53472258325E+03  0.47000000000E+01 0.  1.
<mgrwt>
<rscale>  0 0.27343413E+03</rscale>
<asrwt>0</asrwt>
<pdfrwt beam="1">  1        1 0.33275299E+00 0.27343413E+03</pdfrwt>
<pdfrwt beam="2">  1       -1 0.13295259E-02 0.27343413E+03</pdfrwt>
<totfact> 0.32882822E+03</totfact>
</mgrwt>
</event>
<event>
 9    1  0.7957670E-001  0.2754274E+03  0.7818608E-02  0.1098213E+00
          1   -1    0    0  501    0  0.00000000000E+00  0.00000000000E+00  0.19744496187E+03  0.19744496187E+03  0.00000000000E+00 0.  1.
         -1   -1    0    0    0  501 -0.00000000000E+00 -0.00000000000E+00 -0.96052394862E+02  0.96052394862E+02  0.00000000000E+00 0.  1.
         35    2    1    2    0    0  0.14210854715E-13 -0.35527136788E-14  0.10139256700E+03  0.29349735673E+03  0.27542738746E+03 0.  0.
         25    2    3    3    0    0 -0.53931141645E+02 -0.11052385539E+02  0.31951132280E+02  0.13987501511E+03  0.12455288729E+03 0.  0.
         25    2    3    3    0    0  0.53931141645E+02  0.11052385539E+02  0.69441434723E+02  0.15362234162E+03  0.12548700221E+03 0.  0.
          5    1    4    4  502    0 -0.71730879459E+02 -0.53691267213E+02  0.20219702475E+02  0.91972809086E+02  0.47000000000E+01 0.  1.
         -5    1    4    4    0  502  0.17799737814E+02  0.42638881674E+02  0.11731429806E+02  0.47902206024E+02  0.47000000000E+01 0.  1.
          5    1    5    5  503    0 -0.26369631625E+02  0.38048628827E+02  0.44489593096E+01  0.46743329648E+02  0.47000000000E+01 0. -1.
         -5    1    5    5    0  503  0.80300773270E+02 -0.26996243288E+02  0.64992475413E+02  0.10687901197E+03  0.47000000000E+01 0. -1.
<mgrwt>
<rscale>  0 0.27542739E+03</rscale>
<asrwt>0</asrwt>
<pdfrwt beam="1">  1        1 0.30376148E-01 0.27542739E+03</pdfrwt>
<pdfrwt beam="2">  1       -1 0.14777292E-01 0.27542739E+03</pdfrwt>
<totfact> 0.48747364E+03</totfact>
</mgrwt>
</event>
<event>
 9    1  0.7957670E-001  0.2782191E+03  0.7818608E-02  0.1096666E+00
          2   -1    0    0  501    0  0.00000000000E+00  0.00000000000E+00  0.21903168128E+04  0.21903168128E+04  0.00000000000E+00 0. -1.
         -2   -1    0    0    0  501 -0.00000000000E+00 -0.00000000000E+00 -0.88350077730E+01  0.88350077730E+01  0.00000000000E+00 0. -1.
         35    2    1    2    0    0  0.00000000000E+00  0.35527136788E-14  0.21814818050E+04  0.21991518206E+04  0.27821909400E+03 0.  0.
         25    2    3    3    0    0  0.98546839690E+01  0.11674437435E+02  0.60965723758E+03  0.62248056608E+03  0.12476658416E+03 0.  0.
         25    2    3    3    0    0 -0.98546839690E+01 -0.11674437435E+02  0.15718245674E+04  0.15766712545E+04  0.12258208124E+03 0.  0.
          5    1    4    4  502    0  0.28514252831E+02  0.25156613172E+02  0.53378985865E+02  0.65706346214E+02  0.47000000000E+01 0. -1.
         -5    1    4    4    0  502 -0.18659568862E+02 -0.13482175737E+02  0.55627825172E+03  0.55677421987E+03  0.47000000000E+01 0. -1.
          5    1    5    5  503    0  0.40006705095E+01  0.49637170490E+02  0.10261083181E+04  0.10273267370E+04  0.47000000000E+01 0. -1.
         -5    1    5    5    0  503 -0.13855354479E+02 -0.61311607925E+02  0.54571624935E+03  0.54934451751E+03  0.47000000000E+01 0. -1.
<mgrwt>
<rscale>  0 0.27821909E+03</rscale>
<asrwt>0</asrwt>
<pdfrwt beam="1">  1        2 0.33697138E+00 0.27821909E+03</pdfrwt>
<pdfrwt beam="2">  1       -2 0.13592337E-02 0.27821909E+03</pdfrwt>
<totfact> 0.80308833E+03</totfact>
</mgrwt>
</event>
<event>
 9    1  0.7957670E-001  0.2771591E+03  0.7818608E-02  0.1097251E+00
          1   -1    0    0  501    0  0.00000000000E+00  0.00000000000E+00  0.74684616453E+02  0.74684616453E+02  0.00000000000E+00 0. -1.
         -1   -1    0    0    0  501 -0.00000000000E+00 -0.00000000000E+00 -0.25713855253E+03  0.25713855253E+03  0.00000000000E+00 0. -1.
         35    2    1    2    0    0  0.00000000000E+00 -0.71054273576E-14 -0.18245393608E+03  0.33182316899E+03  0.27715911799E+03 0.  0.
         25    2    3    3    0    0  0.26582837646E+02 -0.41895535783E+02 -0.12895329221E+03  0.18663864373E+03  0.12547170432E+03 0.  0.
         25    2    3    3    0    0 -0.26582837646E+02  0.41895535783E+02 -0.53500643869E+02  0.14518452526E+03  0.12551631091E+03 0.  0.
          5    1    4    4  502    0  0.12783288378E+02  0.83496741074E+01  0.21821855769E+02  0.27044646581E+02  0.47000000000E+01 0.  1.
         -5    1    4    4    0  502  0.13799549268E+02 -0.50245209891E+02 -0.15077514798E+03  0.15959399715E+03  0.47000000000E+01 0.  1.
          5    1    5    5  503    0  0.50597951867E+02  0.13507076930E+02 -0.19725369613E+02  0.56158472796E+02  0.47000000000E+01 0.  1.
         -5    1    5    5    0  503 -0.77180789513E+02  0.28388458853E+02 -0.33775274255E+02  0.89026052462E+02  0.47000000000E+01 0.  1.
<mgrwt>
<rscale>  0 0.27715912E+03</rscale>
<asrwt>0</asrwt>
<pdfrwt beam="1">  1        1 0.11489941E-01 0.27715912E+03</pdfrwt>
<pdfrwt beam="2">  1       -1 0.39559777E-01 0.27715912E+03</pdfrwt>
<totfact> 0.33355237E+03</totfact>
</mgrwt>
</event>
<event>
 9    1  0.7957670E-001  0.2751410E+03  0.7818608E-02  0.1098373E+00
         -2   -1    0    0    0  501 -0.00000000000E+00  0.00000000000E+00  0.30496320257E+02  0.30496320257E+02  0.00000000000E+00 0. -1.
          2   -1    0    0  501    0  0.00000000000E+00 -0.00000000000E+00 -0.62058753267E+03  0.62058753267E+03  0.00000000000E+00 0. -1.
         35    2    1    2    0    0  0.71054273576E-14  0.71054273576E-14 -0.59009121241E+03  0.65108385293E+03  0.27514095401E+03 0.  0.
         25    2    3    3    0    0 -0.37397724989E+02 -0.23266810296E+02 -0.20963933873E+03  0.24822782741E+03  0.12541318775E+03 0.  0.
         25    2    3    3    0    0  0.37397724989E+02  0.23266810296E+02 -0.38045187368E+03  0.40285602551E+03  0.12493764369E+03 0.  0.
          5    1    4    4  502    0 -0.25499693106E+01 -0.72312508517E+02 -0.11824442590E+03  0.13870629217E+03  0.47000000000E+01 0. -1.
         -5    1    4    4    0  502 -0.34847755679E+02  0.49045698221E+02 -0.91394912831E+02  0.10952153524E+03  0.47000000000E+01 0. -1.
          5    1    5    5  503    0  0.43359034779E+02 -0.32162664369E+02 -0.76204771790E+02  0.93507754330E+02  0.47000000000E+01 0.  1.
         -5    1    5    5    0  503 -0.59613097897E+01  0.55429474665E+02 -0.30424710189E+03  0.30934827118E+03  0.47000000000E+01 0.  1.
<mgrwt>
<rscale>  0 0.27514095E+03</rscale>
<asrwt>0</asrwt>
<pdfrwt beam="1">  1        2 0.95474997E-01 0.27514095E+03</pdfrwt>
<pdfrwt beam="2">  1       -2 0.46917420E-02 0.27514095E+03</pdfrwt>
<totfact> 0.10414029E+04</totfact>
</mgrwt>
</event>
<event>
 9    1  0.7957670E-001  0.2810508E+03  0.7818608E-02  0.1095116E+00
          1   -1    0    0  501    0  0.00000000000E+00  0.00000000000E+00  0.12882843987E+02  0.12882843987E+02  0.00000000000E+00 0. -1.
         -1   -1    0    0    0  501 -0.00000000000E+00 -0.00000000000E+00 -0.15328440286E+04  0.15328440286E+04  0.00000000000E+00 0. -1.
         35    2    1    2    0    0 -0.71054273576E-14  0.71054273576E-14 -0.15199611846E+04  0.15457268726E+04  0.28105081730E+03 0.  0.
         25    2    3    3    0    0 -0.40436519941E+02  0.31648564353E+02 -0.93059040114E+03  0.94094067656E+03  0.12936042033E+03 0.  0.
         25    2    3    3    0    0  0.40436519941E+02 -0.31648564353E+02 -0.58937078351E+03  0.60478619606E+03  0.12558534436E+03 0.  0.
          5    1    4    4  502    0  0.22648634530E+01 -0.47310026192E+02 -0.39534487825E+03  0.39819973750E+03  0.47000000000E+01 0. -1.
         -5    1    4    4    0  502 -0.42701383394E+02  0.78958590545E+02 -0.53524552288E+03  0.54274093906E+03  0.47000000000E+01 0. -1.
          5    1    5    5  503    0  0.84804783164E+02 -0.31155437720E+02 -0.42033982538E+03  0.42996531412E+03  0.47000000000E+01 0.  1.
         -5    1    5    5    0  503 -0.44368263223E+02 -0.49312663249E+00 -0.16903095814E+03  0.17482088194E+03  0.47000000000E+01 0.  1.
<mgrwt>
<rscale>  0 0.28105082E+03</rscale>
<asrwt>0</asrwt>
<pdfrwt beam="1">  1        1 0.19819772E-02 0.28105082E+03</pdfrwt>
<pdfrwt beam="2">  1       -1 0.23582202E+00 0.28105082E+03</pdfrwt>
<totfact> 0.59794617E+02</totfact>
</mgrwt>
</event>
<event>
 9    1  0.7957670E-001  0.2747691E+03  0.7818608E-02  0.1098581E+00
         -2   -1    0    0    0  501 -0.00000000000E+00  0.00000000000E+00  0.18403102736E+03  0.18403102736E+03  0.00000000000E+00 0.  1.
          2   -1    0    0  501    0  0.00000000000E+00 -0.00000000000E+00 -0.10256160751E+03  0.10256160751E+03  0.00000000000E+00 0.  1.
         35    2    1    2    0    0  0.00000000000E+00  0.00000000000E+00  0.81469419848E+02  0.28659263488E+03  0.27476912489E+03 0.  0.
         25    2    3    3    0    0 -0.26884912708E+02 -0.45805648931E+02  0.54119487047E+02  0.14648516556E+03  0.12533167535E+03 0.  0.
         25    2    3    3    0    0  0.26884912708E+02  0.45805648931E+02  0.27349932801E+02  0.14010746931E+03  0.12673250620E+03 0.  0.
          5    1    4    4  502    0  0.20487965972E+02 -0.76463135331E+02  0.27662932641E+02  0.83986282551E+02  0.47000000000E+01 0. -1.
         -5    1    4    4    0  502 -0.47372878681E+02  0.30657486400E+02  0.26456554405E+02  0.62498883013E+02  0.47000000000E+01 0. -1.
          5    1    5    5  503    0 -0.38644007157E+02  0.58576634145E+02  0.10715137090E+02  0.71144117956E+02  0.47000000000E+01 0. -1.
         -5    1    5    5    0  503  0.65528919865E+02 -0.12770985214E+02  0.16634795711E+02  0.68963351357E+02  0.47000000000E+01 0. -1.
<mgrwt>
<rscale>  0 0.27476912E+03</rscale>
<asrwt>0</asrwt>
<pdfrwt beam="1">  1        2 0.15778709E-01 0.27476912E+03</pdfrwt>
<pdfrwt beam="2">  1       -2 0.28312466E-01 0.27476912E+03</pdfrwt>
<totfact> 0.41451180E+03</totfact>
</mgrwt>
</event>
<event>
 9    1  0.7957670E-001  0.2765032E+03  0.7818608E-02  0.1097614E+00
          2   -1    0    0  501    0  0.00000000000E+00  0.00000000000E+00  0.21857803174E+04  0.21857803174E+04  0.00000000000E+00 0.  1.
         -2   -1    0    0    0  501 -0.00000000000E+00 -0.00000000000E+00 -0.87444748452E+01  0.87444748452E+01  0.00000000000E+00 0.  1.
         35    2    1    2    0    0  0.00000000000E+00 -0.71054273576E-14  0.21770358425E+04  0.21945247922E+04  0.27650317179E+03 0.  0.
         25    2    3    3    0    0 -0.33133309239E+02 -0.21337071211E+02  0.14080344926E+04  0.14141527395E+04  0.12535450328E+03 0.  0.
         25    2    3    3    0    0  0.33133309239E+02  0.21337071211E+02  0.76900134996E+03  0.78037205275E+03  0.12674532609E+03 0.  0.
          5    1    4    4  502    0 -0.38919257520E+02  0.44799306209E+02  0.86674505974E+03  0.86878695607E+03  0.47000000000E+01 0. -1.
         -5    1    4    4    0  502  0.57859482816E+01 -0.66136377420E+02  0.54128943283E+03  0.54536578340E+03  0.47000000000E+01 0. -1.
          5    1    5    5  503    0  0.43907090789E+01 -0.39085591557E+02  0.54765865778E+03  0.54908929805E+03  0.47000000000E+01 0.  1.
         -5    1    5    5    0  503  0.28742600160E+02  0.60422662769E+02  0.22134269218E+03  0.23128275470E+03  0.47000000000E+01 0.  1.
<mgrwt>
<rscale>  0 0.27650317E+03</rscale>
<asrwt>0</asrwt>
<pdfrwt beam="1">  1        2 0.33627346E+00 0.27650317E+03</pdfrwt>
<pdfrwt beam="2">  1       -2 0.13453056E-02 0.27650317E+03</pdfrwt>
<totfact> 0.81978211E+03</totfact>
</mgrwt>
</event>
<event>
 9    1  0.7957670E-001  0.2736375E+03  0.7818608E-02  0.1099216E+00
          1   -1    0    0  501    0  0.00000000000E+00  0.00000000000E+00  0.21039623576E+03  0.21039623576E+03  0.00000000000E+00 0. -1.
         -1   -1    0    0    0  501 -0.00000000000E+00 -0.00000000000E+00 -0.88971961405E+02  0.88971961405E+02  0.00000000000E+00 0. -1.
         35    2    1    2    0    0  0.35527136788E-14  0.00000000000E+00  0.12142427435E+03  0.29936819716E+03  0.27363746650E+03 0.  0.
         25    2    3    3    0    0 -0.92724679566E+01 -0.52733481870E+02  0.74840333778E+02  0.15540625555E+03  0.12523270312E+03 0.  0.
         25    2    3    3    0    0  0.92724679566E+01  0.52733481870E+02  0.46583940575E+02  0.14396194162E+03  0.12525245843E+03 0.  0.
          5    1    4    4  502    0  0.13508209397E+02 -0.89041776345E+02  0.65030507348E+02  0.11118438084E+03  0.47000000000E+01 0. -1.
         -5    1    4    4    0  502 -0.22780677354E+02  0.36308294475E+02  0.98098264301E+01  0.44221874711E+02  0.47000000000E+01 0. -1.
          5    1    5    5  503    0  0.67176821554E+02  0.26830073022E+02  0.27816764365E+02  0.77643032863E+02  0.47000000000E+01 0. -1.
         -5    1    5    5    0  503 -0.57904353597E+02  0.25903408848E+02  0.18767176210E+02  0.66318908754E+02  0.47000000000E+01 0. -1.
<mgrwt>
<rscale>  0 0.27363747E+03</rscale>
<asrwt>0</asrwt>
<pdfrwt beam="1">  1        1 0.32368651E-01 0.27363747E+03</pdfrwt>
<pdfrwt beam="2">  1       -1 0.13687994E-01 0.27363747E+03</pdfrwt>
<totfact> 0.50775605E+03</totfact>
</mgrwt>
</event>
<event>
 9    1  0.7957670E-001  0.2803795E+03  0.7818608E-02  0.1095482E+00
          1   -1    0    0  501    0  0.00000000000E+00  0.00000000000E+00  0.10878345341E+02  0.10878345341E+02  0.00000000000E+00 0. -1.
         -1   -1    0    0    0  501 -0.00000000000E+00 -0.00000000000E+00 -0.18066322191E+04  0.18066322191E+04  0.00000000000E+00 0. -1.
         35    2    1    2    0    0  0.71054273576E-14  0.35527136788E-14 -0.17957538738E+04  0.18175105645E+04  0.28037952268E+03 0.  0.
         25    2    3    3    0    0 -0.58729006843E+02 -0.26277602185E+02 -0.89057114198E+03  0.90149271440E+03  0.12422780108E+03 0.  0.
         25    2    3    3    0    0  0.58729006843E+02  0.26277602185E+02 -0.90518273181E+03  0.91601785008E+03  0.12487319595E+03 0.  0.
          5    1    4    4  502    0  0.28099519545E+02 -0.29297578106E+02 -0.13843841989E+03  0.14434409300E+03  0.47000000000E+01 0.  1.
         -5    1    4    4    0  502 -0.86828526389E+02  0.30199759218E+01 -0.75213272209E+03  0.75714862140E+03  0.47000000000E+01 0.  1.
          5    1    5    5  503    0  0.76860344658E+01 -0.14650251283E+02 -0.13339004558E+02  0.21765202298E+02  0.47000000000E+01 0. -1.
         -5    1    5    5    0  503  0.51042972378E+02  0.40927853467E+02 -0.89184372726E+03  0.89425264778E+03  0.47000000000E+01 0. -1.
<mgrwt>
<rscale>  0 0.28037952E+03</rscale>
<asrwt>0</asrwt>
<pdfrwt beam="1">  1        1 0.16735907E-02 0.28037952E+03</pdfrwt>
<pdfrwt beam="2">  1       -1 0.27794356E+00 0.28037952E+03</pdfrwt>
<totfact> 0.41292971E+02</totfact>
</mgrwt>
</event>
<event>
 9    1  0.7957670E-001  0.2692486E+03  0.7818608E-02  0.1101710E+00
         -1   -1    0    0    0  501 -0.00000000000E+00  0.00000000000E+00  0.13275232683E+04  0.13275232683E+04  0.00000000000E+00 0.  1.
          1   -1    0    0  501    0  0.00000000000E+00 -0.00000000000E+00 -0.13652264461E+02  0.13652264461E+02  0.00000000000E+00 0.  1.
         35    2    1    2    0    0  0.00000000000E+00  0.00000000000E+00  0.13138710038E+04  0.13411755327E+04  0.26924857464E+03 0.  0.
         25    2    3    3    0    0 -0.14292066807E+02 -0.42874404192E+02  0.54215149371E+03  0.55816260369E+03  0.12479892758E+03 0.  0.
         25    2    3    3    0    0  0.14292066807E+02  0.42874404192E+02  0.77171951009E+03  0.78301292903E+03  0.12456230192E+03 0.  0.
          5    1    4    4  502    0 -0.62425836717E+02 -0.11420361268E+02  0.16911562255E+03  0.18069198525E+03  0.47000000000E+01 0.  1.
         -5    1    4    4    0  502  0.48133769910E+02 -0.31454042924E+02  0.37303587116E+03  0.37747061845E+03  0.47000000000E+01 0.  1.
          5    1    5    5  503    0 -0.51863047678E+02  0.19009807381E+02  0.22311405814E+03  0.22989806748E+03  0.47000000000E+01 0.  1.
         -5    1    5    5    0  503  0.66155114485E+02  0.23864596811E+02  0.54860545196E+03  0.55311486155E+03  0.47000000000E+01 0.  1.
<mgrwt>
<rscale>  0 0.26924857E+03</rscale>
<asrwt>0</asrwt>
<pdfrwt beam="1">  1        1 0.21003494E-02 0.26924857E+03</pdfrwt>
<pdfrwt beam="2">  1       -1 0.20423425E+00 0.26924857E+03</pdfrwt>
<totfact> 0.88277026E+02</totfact>
</mgrwt>
</event>
<event>
 9    1  0.7957670E-001  0.2727039E+03  0.7818608E-02  0.1099742E+00
         -2   -1    0    0    0  501 -0.00000000000E+00  0.00000000000E+00  0.34692823476E+02  0.34692823476E+02  0.00000000000E+00 0.  1.
          2   -1    0    0  501    0  0.00000000000E+00 -0.00000000000E+00 -0.53589931689E+03  0.53589931689E+03  0.00000000000E+00 0.  1.
         35    2    1    2    0    0  0.14210854715E-13  0.71054273576E-14 -0.50120649342E+03  0.57059214037E+03  0.27270394498E+03 0.  0.
         25    2    3    3    0    0  0.46840529275E+02  0.23849268159E+02 -0.31731019788E+03  0.34522488586E+03  0.12542582414E+03 0.  0.
         25    2    3    3    0    0 -0.46840529275E+02 -0.23849268159E+02 -0.18389629554E+03  0.22536725451E+03  0.11920456837E+03 0.  0.
          5    1    4    4  502    0 -0.52848682841E+01  0.65993716001E+02 -0.12524786240E+03  0.14174701908E+03  0.47000000000E+01 0.  1.
         -5    1    4    4    0  502  0.52125397559E+02 -0.42144447842E+02 -0.19206233548E+03  0.20347786677E+03  0.47000000000E+01 0.  1.
          5    1    5    5  503    0  0.12685881602E+02 -0.43560821852E+02 -0.14362946579E+03  0.15069834184E+03  0.47000000000E+01 0.  1.
         -5    1    5    5    0  503 -0.59526410878E+02  0.19711553693E+02 -0.40266829752E+02  0.74668912670E+02  0.47000000000E+01 0.  1.
<mgrwt>
<rscale>  0 0.27270394E+03</rscale>
<asrwt>0</asrwt>
<pdfrwt beam="1">  1        2 0.82446046E-01 0.27270394E+03</pdfrwt>
<pdfrwt beam="2">  1       -2 0.53373576E-02 0.27270394E+03</pdfrwt>
<totfact> 0.10132602E+04</totfact>
</mgrwt>
</event>
<event>
 9    1  0.7957670E-001  0.2987570E+03  0.7818608E-02  0.1085864E+00
         -2   -1    0    0    0  501 -0.00000000000E+00  0.00000000000E+00  0.30460502464E+02  0.30460502464E+02  0.00000000000E+00 0. -1.
          2   -1    0    0  501    0  0.00000000000E+00 -0.00000000000E+00 -0.73255298512E+03  0.73255298512E+03  0.00000000000E+00 0. -1.
         35    2    1    2    0    0  0.71054273576E-14 -0.35527136788E-14 -0.70209248266E+03  0.76301348759E+03  0.29875697152E+03 0.  0.
         25    2    3    3    0    0  0.53960984623E+02  0.26226089249E+02 -0.48489864407E+03  0.50430215264E+03  0.12487742194E+03 0.  0.
         25    2    3    3    0    0 -0.53960984623E+02 -0.26226089249E+02 -0.21719383859E+03  0.25871133495E+03  0.12711725176E+03 0.  0.
          5    1    4    4  502    0 -0.23549693232E+01  0.25807137156E+02 -0.40811217225E+03  0.40896110982E+03  0.47000000000E+01 0.  1.
         -5    1    4    4    0  502  0.56315953946E+02  0.41895209323E+00 -0.76786471824E+02  0.95341042814E+02  0.47000000000E+01 0.  1.
          5    1    5    5  503    0 -0.49100870133E+02  0.46343228053E+02 -0.10433832778E+03  0.12436706508E+03  0.47000000000E+01 0.  1.
         -5    1    5    5    0  503 -0.48601144902E+01 -0.72569317302E+02 -0.11285551081E+03  0.13434426987E+03  0.47000000000E+01 0.  1.
<mgrwt>
<rscale>  0 0.29875697E+03</rscale>
<asrwt>0</asrwt>
<pdfrwt beam="1">  1        2 0.11270046E+00 0.29875697E+03</pdfrwt>
<pdfrwt beam="2">  1       -2 0.46862313E-02 0.29875697E+03</pdfrwt>
<totfact> 0.85693999E+03</totfact>
</mgrwt>
</event>
<event>
 9    1  0.7957670E-001  0.2797920E+03  0.7818608E-02  0.1095803E+00
          2   -1    0    0  501    0  0.00000000000E+00  0.00000000000E+00  0.41965849946E+03  0.41965849946E+03  0.00000000000E+00 0. -1.
         -2   -1    0    0    0  501 -0.00000000000E+00 -0.00000000000E+00 -0.46635267546E+02  0.46635267546E+02  0.00000000000E+00 0. -1.
         35    2    1    2    0    0  0.00000000000E+00 -0.71054273576E-14  0.37302323192E+03  0.46629376701E+03  0.27979196844E+03 0.  0.
         25    2    3    3    0    0 -0.64950286942E+01 -0.41539384176E+02  0.26635091496E+03  0.29720066022E+03  0.12497086340E+03 0.  0.
         25    2    3    3    0    0  0.64950286942E+01  0.41539384176E+02  0.10667231696E+03  0.16909310679E+03  0.12428109158E+03 0.  0.
          5    1    4    4  502    0  0.45235364167E+01  0.29750947062E+02  0.11932923320E+02  0.32711861637E+02  0.47000000000E+01 0. -1.
         -5    1    4    4    0  502 -0.11018565111E+02 -0.71290331238E+02  0.25441799164E+03  0.26448879858E+03  0.47000000000E+01 0. -1.
          5    1    5    5  503    0 -0.24331182771E+02  0.54120682587E+02  0.24432247963E+01  0.59574441551E+02  0.47000000000E+01 0.  1.
         -5    1    5    5    0  503  0.30826211466E+02 -0.12581298410E+02  0.10422909217E+03  0.10951866524E+03  0.47000000000E+01 0.  1.
<mgrwt>
<rscale>  0 0.27979197E+03</rscale>
<asrwt>0</asrwt>
<pdfrwt beam="1">  1        2 0.64562844E-01 0.27979197E+03</pdfrwt>
<pdfrwt beam="2">  1       -2 0.71746568E-02 0.27979197E+03</pdfrwt>
<totfact> 0.84441302E+03</totfact>
</mgrwt>
</event>
<event>
 9    1  0.7957670E-001  0.2734730E+03  0.7818608E-02  0.1099308E+00
          1   -1    0    0  501    0  0.00000000000E+00  0.00000000000E+00  0.25308601585E+03  0.25308601585E+03  0.00000000000E+00 0. -1.
         -1   -1    0    0    0  501 -0.00000000000E+00 -0.00000000000E+00 -0.73875568709E+02  0.73875568709E+02  0.00000000000E+00 0. -1.
         35    2    1    2    0    0  0.00000000000E+00 -0.14210854715E-13  0.17921044714E+03  0.32696158456E+03  0.27347302136E+03 0.  0.
         25    2    3    3    0    0 -0.80721095408E+01 -0.56636356825E+02  0.83560275880E+02  0.15905041636E+03  0.12264533979E+03 0.  0.
         25    2    3    3    0    0  0.80721095408E+01  0.56636356825E+02  0.95650171262E+02  0.16791116820E+03  0.12558809369E+03 0.  0.
          5    1    4    4  502    0  0.35442920292E+02  0.21593771067E+02  0.45206869227E+02  0.61548700823E+02  0.47000000000E+01 0.  1.
         -5    1    4    4    0  502 -0.43515029833E+02 -0.78230127892E+02  0.38353406654E+02  0.97501715541E+02  0.47000000000E+01 0.  1.
          5    1    5    5  503    0  0.36040819555E+02 -0.24664035483E+02  0.60832587714E+02  0.75032986402E+02  0.47000000000E+01 0. -1.
         -5    1    5    5    0  503 -0.27968710014E+02  0.81300392308E+02  0.34817583548E+02  0.92878181795E+02  0.47000000000E+01 0. -1.
<mgrwt>
<rscale>  0 0.27347302E+03</rscale>
<asrwt>0</asrwt>
<pdfrwt beam="1">  1        1 0.38936310E-01 0.27347302E+03</pdfrwt>
<pdfrwt beam="2">  1       -1 0.11365472E-01 0.27347302E+03</pdfrwt>
<totfact> 0.53864135E+03</totfact>
</mgrwt>
</event>
<event>
 9    1  0.7957670E-001  0.2755581E+03  0.7818608E-02  0.1098140E+00
          1   -1    0    0  501    0  0.00000000000E+00  0.00000000000E+00  0.15025847064E+03  0.15025847064E+03  0.00000000000E+00 0. -1.
         -1   -1    0    0    0  501 -0.00000000000E+00 -0.00000000000E+00 -0.12633608082E+03  0.12633608082E+03  0.00000000000E+00 0. -1.
         35    2    1    2    0    0 -0.71054273576E-14  0.00000000000E+00  0.23922389823E+02  0.27659455146E+03  0.27555809762E+03 0.  0.
         25    2    3    3    0    0  0.34882299918E+02  0.41708498943E+02  0.28680338855E+02  0.13974364609E+03  0.12549641849E+03 0.  0.
         25    2    3    3    0    0 -0.34882299918E+02 -0.41708498943E+02 -0.47579490318E+01  0.13685090537E+03  0.12549565128E+03 0.  0.
          5    1    4    4  502    0 -0.31817693476E+02  0.14719419161E+01 -0.28500287438E+02  0.42998704808E+02  0.47000000000E+01 0.  1.
         -5    1    4    4    0  502  0.66699993394E+02  0.40236557027E+02  0.57180626293E+02  0.96744941281E+02  0.47000000000E+01 0.  1.
          5    1    5    5  503    0 -0.59351598174E+02  0.20679253413E+02  0.18621101243E+02  0.65719701301E+02  0.47000000000E+01 0.  1.
         -5    1    5    5    0  503  0.24469298256E+02 -0.62387752356E+02 -0.23379050275E+02  0.71131204073E+02  0.47000000000E+01 0.  1.
<mgrwt>
<rscale>  0 0.27555810E+03</rscale>
<asrwt>0</asrwt>
<pdfrwt beam="1">  1        1 0.23116688E-01 0.27555810E+03</pdfrwt>
<pdfrwt beam="2">  1       -1 0.19436320E-01 0.27555810E+03</pdfrwt>
<totfact> 0.44440422E+03</totfact>
</mgrwt>
</event>
<event>
 9    1  0.7957670E-001  0.2742040E+03  0.7818608E-02  0.1098897E+00
         -3   -1    0    0    0  501 -0.00000000000E+00  0.00000000000E+00  0.20097204043E+03  0.20097204043E+03  0.00000000000E+00 0. -1.
          3   -1    0    0  501    0  0.00000000000E+00 -0.00000000000E+00 -0.93530222313E+02  0.93530222313E+02  0.00000000000E+00 0. -1.
         35    2    1    2    0    0 -0.71054273576E-14  0.71054273576E-14  0.10744181812E+03  0.29450226275E+03  0.27420400887E+03 0.  0.
         25    2    3    3    0    0  0.32304707172E+02  0.19446952381E+02  0.97224330095E+02  0.16362165586E+03  0.12608607315E+03 0.  0.
         25    2    3    3    0    0 -0.32304707172E+02 -0.19446952381E+02  0.10217488026E+02  0.13088060689E+03  0.12491420310E+03 0.  0.
          5    1    4    4  502    0  0.72692055829E+02  0.42807707302E+02  0.57950691843E+02  0.10245490457E+03  0.47000000000E+01 0. -1.
         -5    1    4    4    0  502 -0.40387348657E+02 -0.23360754920E+02  0.39273638252E+02  0.61166751291E+02  0.47000000000E+01 0. -1.
          5    1    5    5  503    0 -0.37662557140E+02  0.47368003108E+02 -0.80954806716E+01  0.61235796199E+02  0.47000000000E+01 0.  1.
         -5    1    5    5    0  503  0.53578499683E+01 -0.66814955489E+02  0.18312968698E+02  0.69644810689E+02  0.47000000000E+01 0.  1.
<mgrwt>
<rscale>  0 0.27420401E+03</rscale>
<asrwt>0</asrwt>
<pdfrwt beam="1">  1        3 0.14389265E-01 0.27420401E+03</pdfrwt>
<pdfrwt beam="2">  1       -3 0.30918775E-01 0.27420401E+03</pdfrwt>
<totfact> 0.10286420E+03</totfact>
</mgrwt>
</event>
<event>
 9    1  0.7957670E-001  0.2750664E+03  0.7818608E-02  0.1098415E+00
          1   -1    0    0  501    0  0.00000000000E+00  0.00000000000E+00  0.53486704685E+02  0.53486704685E+02  0.00000000000E+00 0.  1.
         -1   -1    0    0    0  501 -0.00000000000E+00 -0.00000000000E+00 -0.35364630640E+03  0.35364630640E+03  0.00000000000E+00 0.  1.
         35    2    1    2    0    0  0.00000000000E+00  0.00000000000E+00 -0.30015960171E+03  0.40713301108E+03  0.27506635965E+03 0.  0.
         25    2    3    3    0    0  0.20049344543E+02  0.45414885515E+02 -0.18122134924E+03  0.22759905407E+03  0.12843544663E+03 0.  0.
         25    2    3    3    0    0 -0.20049344543E+02 -0.45414885515E+02 -0.11893825248E+03  0.17953395701E+03  0.12498658238E+03 0.  0.
          5    1    4    4  502    0 -0.28603993854E+00 -0.15820091645E+02  0.14183764691E+02  0.21762957044E+02  0.47000000000E+01 0. -1.
         -5    1    4    4    0  502  0.20335384482E+02  0.61234977160E+02 -0.19540511393E+03  0.20583609703E+03  0.47000000000E+01 0. -1.
          5    1    5    5  503    0 -0.38628984750E+02  0.34499385283E+02 -0.51992519978E+02  0.73537189104E+02  0.47000000000E+01 0. -1.
         -5    1    5    5    0  503  0.18579640206E+02 -0.79914270798E+02 -0.66945732499E+02  0.10599676791E+03  0.47000000000E+01 0. -1.
<mgrwt>
<rscale>  0 0.27506636E+03</rscale>
<asrwt>0</asrwt>
<pdfrwt beam="1">  1        1 0.82287236E-02 0.27506636E+03</pdfrwt>
<pdfrwt beam="2">  1       -1 0.54407125E-01 0.27506636E+03</pdfrwt>
<totfact> 0.29226529E+03</totfact>
</mgrwt>
</event>
<event>
 9    1  0.7957670E-001  0.2756800E+03  0.7818608E-02  0.1098072E+00
          2   -1    0    0  501    0  0.00000000000E+00  0.00000000000E+00  0.65938909243E+03  0.65938909243E+03  0.00000000000E+00 0. -1.
         -2   -1    0    0    0  501 -0.00000000000E+00 -0.00000000000E+00 -0.28814346914E+02  0.28814346914E+02  0.00000000000E+00 0. -1.
         35    2    1    2    0    0  0.00000000000E+00  0.00000000000E+00  0.63057474551E+03  0.68820343934E+03  0.27568000334E+03 0.  0.
         25    2    3    3    0    0 -0.17624740104E+02 -0.26099049533E+02  0.20003002936E+03  0.23857565720E+03  0.12615284266E+03 0.  0.
         25    2    3    3    0    0  0.17624740104E+02  0.26099049533E+02  0.43054471615E+03  0.44962778214E+03  0.12571633950E+03 0.  0.
          5    1    4    4  502    0 -0.99410452617E+01  0.30217141551E+02  0.17208824648E+03  0.17506671472E+03  0.47000000000E+01 0.  1.
         -5    1    4    4    0  502 -0.76836948419E+01 -0.56316191084E+02  0.27941782879E+02  0.63508942482E+02  0.47000000000E+01 0.  1.
          5    1    5    5  503    0  0.51411399137E+02  0.51889693378E+02  0.16291647816E+03  0.17860442630E+03  0.47000000000E+01 0.  1.
         -5    1    5    5    0  503 -0.33786659033E+02 -0.25790643845E+02  0.26762823799E+03  0.27102335583E+03  0.47000000000E+01 0.  1.
<mgrwt>
<rscale>  0 0.27568000E+03</rscale>
<asrwt>0</asrwt>
<pdfrwt beam="1">  1        2 0.10144446E+00 0.27568000E+03</pdfrwt>
<pdfrwt beam="2">  1       -2 0.44329770E-02 0.27568000E+03</pdfrwt>
<totfact> 0.10563639E+04</totfact>
</mgrwt>
</event>
<event>
 9    1  0.7957670E-001  0.2757155E+03  0.7818608E-02  0.1098052E+00
         -2   -1    0    0    0  501 -0.00000000000E+00  0.00000000000E+00  0.15550176840E+03  0.15550176840E+03  0.00000000000E+00 0. -1.
          2   -1    0    0  501    0  0.00000000000E+00 -0.00000000000E+00 -0.12221571585E+03  0.12221571585E+03  0.00000000000E+00 0. -1.
         35    2    1    2    0    0  0.35527136788E-14  0.71054273576E-14  0.33286052555E+02  0.27771748425E+03  0.27571550512E+03 0.  0.
         25    2    3    3    0    0  0.20805330442E+02 -0.59057050693E+02  0.25197377505E+02  0.13740141168E+03  0.11968142331E+03 0.  0.
         25    2    3    3    0    0 -0.20805330442E+02  0.59057050693E+02  0.80886750495E+01  0.14031607257E+03  0.12530992198E+03 0.  0.
          5    1    4    4  502    0  0.51625223200E+02 -0.59282739921E+02  0.53572160525E+02  0.95245332202E+02  0.47000000000E+01 0. -1.
         -5    1    4    4    0  502 -0.30819892759E+02  0.22568922783E+00 -0.28374783019E+02  0.42156079475E+02  0.47000000000E+01 0. -1.
          5    1    5    5  503    0  0.16280415433E+02  0.87246217216E+02  0.21836502329E+02  0.91519818504E+02  0.47000000000E+01 0. -1.
         -5    1    5    5    0  503 -0.37085745874E+02 -0.28189166523E+02 -0.13747827279E+02  0.48796254069E+02  0.47000000000E+01 0. -1.
<mgrwt>
<rscale>  0 0.27571551E+03</rscale>
<asrwt>0</asrwt>
<pdfrwt beam="1">  1        2 0.18802418E-01 0.27571551E+03</pdfrwt>
<pdfrwt beam="2">  1       -2 0.23923349E-01 0.27571551E+03</pdfrwt>
<totfact> 0.45570596E+03</totfact>
</mgrwt>
</event>
<event>
 9    1  0.7957670E-001  0.2774311E+03  0.7818608E-02  0.1097100E+00
         -4   -1    0    0    0  501 -0.00000000000E+00  0.00000000000E+00  0.32775535679E+02  0.32775535679E+02  0.00000000000E+00 0. -1.
          4   -1    0    0  501    0  0.00000000000E+00 -0.00000000000E+00 -0.58708446747E+03  0.58708446747E+03  0.00000000000E+00 0. -1.
         35    2    1    2    0    0  0.71054273576E-14  0.00000000000E+00 -0.55430893179E+03  0.61986000314E+03  0.27743112954E+03 0.  0.
         25    2    3    3    0    0  0.55147753882E+02  0.22093600538E+02 -0.29241590899E+03  0.32369826314E+03  0.12547549477E+03 0.  0.
         25    2    3    3    0    0 -0.55147753882E+02 -0.22093600538E+02 -0.26189302280E+03  0.29616174000E+03  0.12487761572E+03 0.  0.
          5    1    4    4  502    0  0.34756472504E+02 -0.49653818148E+02 -0.96965099883E+02  0.11444577158E+03  0.47000000000E+01 0.  1.
         -5    1    4    4    0  502  0.20391281379E+02  0.71747418686E+02 -0.19545080910E+03  0.20925249156E+03  0.47000000000E+01 0.  1.
          5    1    5    5  503    0  0.22522008624E+02  0.23289839061E+02 -0.20790960709E+02  0.38781587424E+02  0.47000000000E+01 0. -1.
         -5    1    5    5    0  503 -0.77669762506E+02 -0.45383439599E+02 -0.24110206209E+03  0.25738015258E+03  0.47000000000E+01 0. -1.
<mgrwt>
<rscale>  0 0.27743113E+03</rscale>
<asrwt>0</asrwt>
<pdfrwt beam="1">  1        4 0.90320693E-01 0.27743113E+03</pdfrwt>
<pdfrwt beam="2">  1       -4 0.50423898E-02 0.27743113E+03</pdfrwt>
<totfact> 0.47710828E+02</totfact>
</mgrwt>
</event>
<event>
 9    1  0.7957670E-001  0.2679317E+03  0.7818608E-02  0.1102469E+00
         -1   -1    0    0    0  501 -0.00000000000E+00  0.00000000000E+00  0.95049459102E+02  0.95049459102E+02  0.00000000000E+00 0. -1.
          1   -1    0    0  501    0  0.00000000000E+00 -0.00000000000E+00 -0.18881589581E+03  0.18881589581E+03  0.00000000000E+00 0. -1.
         35    2    1    2    0    0 -0.71054273576E-14  0.00000000000E+00 -0.93766436704E+02  0.28386535491E+03  0.26793169851E+03 0.  0.
         25    2    3    3    0    0  0.25046880193E+02 -0.30463015304E+02 -0.46669210602E+02  0.13929520750E+03  0.12517906416E+03 0.  0.
         25    2    3    3    0    0 -0.25046880193E+02  0.30463015304E+02 -0.47097226102E+02  0.14457014741E+03  0.13087030720E+03 0.  0.
          5    1    4    4  502    0 -0.50949459192E+01  0.16928927797E+02 -0.74304518734E+02  0.76523189783E+02  0.47000000000E+01 0.  1.
         -5    1    4    4    0  502  0.30141826112E+02 -0.47391943101E+02  0.27635308132E+02  0.62772017714E+02  0.47000000000E+01 0.  1.
          5    1    5    5  503    0 -0.17740879141E+01  0.78967311023E+02 -0.11669114301E+02  0.79982759559E+02  0.47000000000E+01 0. -1.
         -5    1    5    5    0  503 -0.23272792279E+02 -0.48504295719E+02 -0.35428111801E+02  0.64587387851E+02  0.47000000000E+01 0. -1.
<mgrwt>
<rscale>  0 0.26793170E+03</rscale>
<asrwt>0</asrwt>
<pdfrwt beam="1">  1        1 0.29048599E-01 0.26793170E+03</pdfrwt>
<pdfrwt beam="2">  1       -1 0.14622994E-01 0.26793170E+03</pdfrwt>
<totfact> 0.52392118E+03</totfact>
</mgrwt>
</event>
<event>
 9    1  0.7957670E-001  0.2759759E+03  0.7818608E-02  0.1097907E+00
         -1   -1    0    0    0  501 -0.00000000000E+00  0.00000000000E+00  0.58081853129E+03  0.58081853129E+03  0.00000000000E+00 0. -1.
          1   -1    0    0  501    0  0.00000000000E+00 -0.00000000000E+00 -0.32782477401E+02  0.32782477401E+02  0.00000000000E+00 0. -1.
         35    2    1    2    0    0  0.00000000000E+00  0.00000000000E+00  0.54803605389E+03  0.61360100869E+03  0.27597587124E+03 0.  0.
         25    2    3    3    0    0  0.32355922262E+02 -0.44348894701E+02  0.22645014186E+03  0.26406702621E+03  0.12424973809E+03 0.  0.
         25    2    3    3    0    0 -0.32355922262E+02  0.44348894701E+02  0.32158591203E+03  0.34953398248E+03  0.12547021928E+03 0.  0.
          5    1    4    4  502    0 -0.35536021996E+01 -0.49663566993E+02  0.22156446415E+03  0.22713872358E+03  0.47000000000E+01 0.  1.
         -5    1    4    4    0  502  0.35909524462E+02  0.53146722917E+01  0.48856777114E+01  0.36928302633E+02  0.47000000000E+01 0.  1.
          5    1    5    5  503    0 -0.78241283400E+02  0.12300812710E+02  0.21268401557E+03  0.22700129713E+03  0.47000000000E+01 0.  1.
         -5    1    5    5    0  503  0.45885361138E+02  0.32048081991E+02  0.10890189647E+03  0.12253268535E+03  0.47000000000E+01 0.  1.
<mgrwt>
<rscale>  0 0.27597587E+03</rscale>
<asrwt>0</asrwt>
<pdfrwt beam="1">  1        1 0.50434585E-02 0.27597587E+03</pdfrwt>
<pdfrwt beam="2">  1       -1 0.89356689E-01 0.27597587E+03</pdfrwt>
<totfact> 0.21193561E+03</totfact>
</mgrwt>
</event>
<event>
 9    1  0.7957670E-001  0.2734721E+03  0.7818608E-02  0.1099309E+00
          1   -1    0    0  501    0  0.00000000000E+00  0.00000000000E+00  0.18044794608E+03  0.18044794608E+03  0.00000000000E+00 0. -1.
         -1   -1    0    0    0  501 -0.00000000000E+00 -0.00000000000E+00 -0.10361293697E+03  0.10361293697E+03  0.00000000000E+00 0. -1.
         35    2    1    2    0    0  0.71054273576E-14  0.00000000000E+00  0.76835009116E+02  0.28406088305E+03  0.27347205827E+03 0.  0.
         25    2    3    3    0    0 -0.34665509987E+02  0.21186751680E+02 -0.45697272759E+00  0.13048360174E+03  0.12399671556E+03 0.  0.
         25    2    3    3    0    0  0.34665509987E+02 -0.21186751680E+02  0.77291981844E+02  0.15357728132E+03  0.12633825569E+03 0.  0.
          5    1    4    4  502    0  0.21346445920E+02 -0.27834796780E+02  0.33320849857E+02  0.48608802705E+02  0.47000000000E+01 0. -1.
         -5    1    4    4    0  502 -0.56011955906E+02  0.49021548460E+02 -0.33777822585E+02  0.81874799031E+02  0.47000000000E+01 0. -1.
          5    1    5    5  503    0  0.63343789831E+02 -0.49096680183E+02  0.18636224427E+02  0.82415523878E+02  0.47000000000E+01 0.  1.
         -5    1    5    5    0  503 -0.28678279844E+02  0.27909928503E+02  0.58655757417E+02  0.71161757440E+02  0.47000000000E+01 0.  1.
<mgrwt>
<rscale>  0 0.27347206E+03</rscale>
<asrwt>0</asrwt>
<pdfrwt beam="1">  1        1 0.27761222E-01 0.27347206E+03</pdfrwt>
<pdfrwt beam="2">  1       -1 0.15940452E-01 0.27347206E+03</pdfrwt>
<totfact> 0.48410429E+03</totfact>
</mgrwt>
</event>
<event>
 9    1  0.7957670E-001  0.2733096E+03  0.7818608E-02  0.1099400E+00
         -1   -1    0    0    0  501 -0.00000000000E+00  0.00000000000E+00  0.17836276419E+03  0.17836276419E+03  0.00000000000E+00 0. -1.
          1   -1    0    0  501    0  0.00000000000E+00 -0.00000000000E+00 -0.10469972481E+03  0.10469972481E+03  0.00000000000E+00 0. -1.
         35    2    1    2    0    0  0.00000000000E+00 -0.35527136788E-14  0.73663039379E+02  0.28306248900E+03  0.27330958510E+03 0.  0.
         25    2    3    3    0    0 -0.47042632393E+02 -0.28450377131E+02  0.25496657037E+02  0.13868253914E+03  0.12474106750E+03 0.  0.
         25    2    3    3    0    0  0.47042632393E+02  0.28450377131E+02  0.48166382342E+02  0.14437994986E+03  0.12451159107E+03 0.  0.
          5    1    4    4  502    0 -0.80223219378E+02  0.77992516327E+01  0.35689151455E+02  0.88274564768E+02  0.47000000000E+01 0.  1.
         -5    1    4    4    0  502  0.33180586985E+02 -0.36249628764E+02 -0.10192494417E+02  0.50407974376E+02  0.47000000000E+01 0.  1.
          5    1    5    5  503    0 -0.26706571217E+02  0.49304874874E+02  0.55024437385E+01  0.56538292507E+02  0.47000000000E+01 0.  1.
         -5    1    5    5    0  503  0.73749203610E+02 -0.20854497742E+02  0.42663938603E+02  0.87841657352E+02  0.47000000000E+01 0.  1.
<mgrwt>
<rscale>  0 0.27330959E+03</rscale>
<asrwt>0</asrwt>
<pdfrwt beam="1">  1        1 0.16107650E-01 0.27330959E+03</pdfrwt>
<pdfrwt beam="2">  1       -1 0.27440425E-01 0.27330959E+03</pdfrwt>
<totfact> 0.40106881E+03</totfact>
</mgrwt>
</event>
<event>
 9    1  0.7957670E-001  0.2781700E+03  0.7818608E-02  0.1096693E+00
          2   -1    0    0  501    0  0.00000000000E+00  0.00000000000E+00  0.13954335408E+04  0.13954335408E+04  0.00000000000E+00 0.  1.
         -2   -1    0    0    0  501 -0.00000000000E+00 -0.00000000000E+00 -0.13862813974E+02  0.13862813974E+02  0.00000000000E+00 0.  1.
         35    2    1    2    0    0 -0.53290705182E-14  0.71054273576E-14  0.13815707268E+04  0.14092963547E+04  0.27816998824E+03 0.  0.
         25    2    3    3    0    0  0.79425230073E+01 -0.50904640541E+02  0.53392054584E+03  0.55081474800E+03  0.12518534756E+03 0.  0.
         25    2    3    3    0    0 -0.79425230073E+01  0.50904640541E+02  0.84765018095E+03  0.85848160673E+03  0.12579933920E+03 0.  0.
          5    1    4    4  502    0 -0.27435341452E+02 -0.76472282630E+02  0.43561588143E+03  0.44315233738E+03  0.47000000000E+01 0.  1.
         -5    1    4    4    0  502  0.35377864460E+02  0.25567642090E+02  0.98304664405E+02  0.10766241062E+03  0.47000000000E+01 0.  1.
          5    1    5    5  503    0 -0.17478620654E+02  0.13957093022E+02  0.78249557354E+03  0.78282930147E+03  0.47000000000E+01 0. -1.
         -5    1    5    5    0  503  0.95360976467E+01  0.36947547518E+02  0.65154607400E+02  0.75652305262E+02  0.47000000000E+01 0. -1.
<mgrwt>
<rscale>  0 0.27816999E+03</rscale>
<asrwt>0</asrwt>
<pdfrwt beam="1">  1        2 0.21468197E+00 0.27816999E+03</pdfrwt>
<pdfrwt beam="2">  1       -2 0.21327417E-02 0.27816999E+03</pdfrwt>
<totfact> 0.10928943E+04</totfact>
</mgrwt>
</event>
<event>
 9    1  0.7957670E-001  0.2680286E+03  0.7818608E-02  0.1102413E+00
          2   -1    0    0  501    0  0.00000000000E+00  0.00000000000E+00  0.31326787332E+04  0.31326787332E+04  0.00000000000E+00 0. -1.
         -2   -1    0    0    0  501 -0.00000000000E+00 -0.00000000000E+00 -0.57330585299E+01  0.57330585299E+01  0.00000000000E+00 0. -1.
         35    2    1    2    0    0  0.00000000000E+00  0.71054273576E-14  0.31269456747E+04  0.31384117917E+04  0.26802858454E+03 0.  0.
         25    2    3    3    0    0  0.42086115058E+02 -0.25921168561E+02  0.15793887529E+04  0.15850261926E+04  0.12408082174E+03 0.  0.
         25    2    3    3    0    0 -0.42086115058E+02  0.25921168561E+02  0.15475569218E+04  0.15533855992E+04  0.12502497935E+03 0.  0.
          5    1    4    4  502    0  0.10652835901E+02 -0.25329851541E+02  0.70631054338E+02  0.75933656100E+02  0.47000000000E+01 0. -1.
         -5    1    4    4    0  502  0.31433279157E+02 -0.59131702006E+00  0.15087576986E+04  0.15090925365E+04  0.47000000000E+01 0. -1.
          5    1    5    5  503    0 -0.13231847971E+02 -0.40994118243E+02  0.24640086202E+03  0.25018208236E+03  0.47000000000E+01 0. -1.
         -5    1    5    5    0  503 -0.28854267087E+02  0.66915286804E+02  0.13011560598E+04  0.13032035168E+04  0.47000000000E+01 0. -1.
<mgrwt>
<rscale>  0 0.26802858E+03</rscale>
<asrwt>0</asrwt>
<pdfrwt beam="1">  1        2 0.48194921E+00 0.26802858E+03</pdfrwt>
<pdfrwt beam="2">  1       -2 0.88201151E-03 0.26802858E+03</pdfrwt>
<totfact> 0.44396480E+03</totfact>
</mgrwt>
</event>
<event>
 9    1  0.7957670E-001  0.2751554E+03  0.7818608E-02  0.1098365E+00
         -1   -1    0    0    0  501 -0.00000000000E+00  0.00000000000E+00  0.19800435152E+02  0.19800435152E+02  0.00000000000E+00 0. -1.
          1   -1    0    0  501    0  0.00000000000E+00 -0.00000000000E+00 -0.95591930465E+03  0.95591930465E+03  0.00000000000E+00 0. -1.
         35    2    1    2    0    0  0.00000000000E+00  0.00000000000E+00 -0.93611886949E+03  0.97571973980E+03  0.27515536122E+03 0.  0.
         25    2    3    3    0    0 -0.48512571802E+02  0.16152136386E+02 -0.37959160839E+03  0.40277951993E+03  0.12460815137E+03 0.  0.
         25    2    3    3    0    0  0.48512571802E+02 -0.16152136386E+02 -0.55652726111E+03  0.57294021987E+03  0.12618851790E+03 0.  0.
          5    1    4    4  502    0  0.34798115596E+02  0.37844169233E+01 -0.42329073128E+02  0.55127770610E+02  0.47000000000E+01 0.  1.
         -5    1    4    4    0  502 -0.83310687398E+02  0.12367719463E+02 -0.33726253526E+03  0.34765174932E+03  0.47000000000E+01 0.  1.
          5    1    5    5  503    0 -0.61356728736E+01  0.29656919382E+02 -0.34925308372E+02  0.46465541143E+02  0.47000000000E+01 0. -1.
         -5    1    5    5    0  503  0.54648244676E+02 -0.45809055769E+02 -0.52160195274E+03  0.52647467872E+03  0.47000000000E+01 0. -1.
<mgrwt>
<rscale>  0 0.27515536E+03</rscale>
<asrwt>0</asrwt>
<pdfrwt beam="1">  1        1 0.14706448E+00 0.27515536E+03</pdfrwt>
<pdfrwt beam="2">  1       -1 0.30462215E-02 0.27515536E+03</pdfrwt>
<totfact> 0.63642987E+03</totfact>
</mgrwt>
</event>
<event>
 9    1  0.7957670E-001  0.2777512E+03  0.7818608E-02  0.1096924E+00
         -2   -1    0    0    0  501 -0.00000000000E+00  0.00000000000E+00  0.90892388600E+02  0.90892388600E+02  0.00000000000E+00 0.  1.
          2   -1    0    0  501    0  0.00000000000E+00 -0.00000000000E+00 -0.21218970840E+03  0.21218970840E+03  0.00000000000E+00 0.  1.
         35    2    1    2    0    0 -0.35527136788E-14  0.17763568394E-14 -0.12129731980E+03  0.30308209700E+03  0.27775117953E+03 0.  0.
         25    2    3    3    0    0  0.39070242957E+00  0.15647390878E+02 -0.12481845527E+03  0.17764181887E+03  0.12542717228E+03 0.  0.
         25    2    3    3    0    0 -0.39070242957E+00 -0.15647390878E+02  0.35211354695E+01  0.12544027813E+03  0.12441009401E+03 0.  0.
          5    1    4    4  502    0 -0.17764707436E+02  0.62550104764E+02 -0.33531866581E+02  0.73311503277E+02  0.47000000000E+01 0.  1.
         -5    1    4    4    0  502  0.18155409866E+02 -0.46902713886E+02 -0.91286588689E+02  0.10433031559E+03  0.47000000000E+01 0.  1.
          5    1    5    5  503    0  0.54817655233E+02  0.67420468688E+01  0.26468106366E+02  0.61425411483E+02  0.47000000000E+01 0. -1.
         -5    1    5    5    0  503 -0.55208357663E+02 -0.22389437747E+02 -0.22946970897E+02  0.64014866646E+02  0.47000000000E+01 0. -1.
<mgrwt>
<rscale>  0 0.27775118E+03</rscale>
<asrwt>0</asrwt>
<pdfrwt beam="1">  1        2 0.32644571E-01 0.27775118E+03</pdfrwt>
<pdfrwt beam="2">  1       -2 0.13983444E-01 0.27775118E+03</pdfrwt>
<totfact> 0.61002297E+03</totfact>
</mgrwt>
</event>
<event>
 9    1  0.7957670E-001  0.2749377E+03  0.7818608E-02  0.1098486E+00
          1   -1    0    0  501    0  0.00000000000E+00  0.00000000000E+00  0.20238987410E+04  0.20238987410E+04  0.00000000000E+00 0. -1.
         -1   -1    0    0    0  501 -0.00000000000E+00 -0.00000000000E+00 -0.93372657395E+01  0.93372657395E+01  0.00000000000E+00 0. -1.
         35    2    1    2    0    0  0.00000000000E+00  0.71054273576E-14  0.20145614753E+04  0.20332360067E+04  0.27493766839E+03 0.  0.
         25    2    3    3    0    0  0.22622260562E+02  0.47765499180E+02  0.12178908750E+04  0.12254113501E+04  0.12482581459E+03 0.  0.
         25    2    3    3    0    0 -0.22622260562E+02 -0.47765499180E+02  0.79667060028E+03  0.80782465664E+03  0.12289556930E+03 0.  0.
          5    1    4    4  502    0 -0.31886910293E+02  0.58560874065E+01  0.87762424823E+03  0.87823543534E+03  0.47000000000E+01 0. -1.
         -5    1    4    4    0  502  0.54509170855E+02  0.41909411774E+02  0.34026662675E+03  0.34717591475E+03  0.47000000000E+01 0. -1.
          5    1    5    5  503    0 -0.61564605874E+02 -0.33959520828E+02  0.68582617311E+03  0.68943678425E+03  0.47000000000E+01 0. -1.
         -5    1    5    5    0  503  0.38942345312E+02 -0.13805978352E+02  0.11084442716E+03  0.11838787239E+03  0.47000000000E+01 0. -1.
<mgrwt>
<rscale>  0 0.27493767E+03</rscale>
<asrwt>0</asrwt>
<pdfrwt beam="1">  1        1 0.31136869E+00 0.27493767E+03</pdfrwt>
<pdfrwt beam="2">  1       -1 0.14365040E-02 0.27493767E+03</pdfrwt>
<totfact> 0.36185330E+03</totfact>
</mgrwt>
</event>
<event>
 9    1  0.7957670E-001  0.2716167E+03  0.7818608E-02  0.1100358E+00
          2   -1    0    0  501    0  0.00000000000E+00  0.00000000000E+00  0.21283054074E+03  0.21283054074E+03  0.00000000000E+00 0.  1.
         -2   -1    0    0    0  501 -0.00000000000E+00 -0.00000000000E+00 -0.86660080678E+02  0.86660080678E+02  0.00000000000E+00 0.  1.
         35    2    1    2    0    0 -0.35527136788E-14  0.17763568394E-14  0.12617046006E+03  0.29949062141E+03  0.27161672873E+03 0.  0.
         25    2    3    3    0    0 -0.14772935462E+02 -0.10266212089E+02  0.12277574672E+02  0.12666200265E+03  0.12477535551E+03 0.  0.
         25    2    3    3    0    0  0.14772935462E+02  0.10266212089E+02  0.11389288539E+03  0.17282861876E+03  0.12874201874E+03 0.  0.
          5    1    4    4  502    0  0.53419800527E+02 -0.81324815685E+01 -0.91289272870E+01  0.55002178668E+02  0.47000000000E+01 0.  1.
         -5    1    4    4    0  502 -0.68192735989E+02 -0.21337305204E+01  0.21406501959E+02  0.71659823986E+02  0.47000000000E+01 0.  1.
          5    1    5    5  503    0 -0.27416802772E+02 -0.33908086532E+02  0.10115435686E+03  0.11025304221E+03  0.47000000000E+01 0. -1.
         -5    1    5    5    0  503  0.42189738234E+02  0.44174298621E+02  0.12738528530E+02  0.62575576546E+02  0.47000000000E+01 0. -1.
<mgrwt>
<rscale>  0 0.27161673E+03</rscale>
<asrwt>0</asrwt>
<pdfrwt beam="1">  1        2 0.32743160E-01 0.27161673E+03</pdfrwt>
<pdfrwt beam="2">  1       -2 0.13332320E-01 0.27161673E+03</pdfrwt>
<totfact> 0.65680458E+03</totfact>
</mgrwt>
</event>
<event>
 9    1  0.7957670E-001  0.2963948E+03  0.7818608E-02  0.1087057E+00
          4   -1    0    0  501    0  0.00000000000E+00  0.00000000000E+00  0.27903375035E+03  0.27903375035E+03  0.00000000000E+00 0.  1.
         -4   -1    0    0    0  501 -0.00000000000E+00 -0.00000000000E+00 -0.78709013229E+02  0.78709013229E+02  0.00000000000E+00 0.  1.
         35    2    1    2    0    0 -0.35527136788E-14  0.14210854715E-13  0.20032473712E+03  0.35774276358E+03  0.29639481202E+03 0.  0.
         25    2    3    3    0    0  0.96876487050E+01  0.75658073890E+02  0.11245205111E+03  0.18427390562E+03  0.12447254240E+03 0.  0.
         25    2    3    3    0    0 -0.96876487050E+01 -0.75658073890E+02  0.87872686009E+02  0.17346885796E+03  0.12865395856E+03 0.  0.
          5    1    4    4  502    0  0.16104548158E+02 -0.17199300913E+02  0.83190831207E+02  0.86590858757E+02  0.47000000000E+01 0. -1.
         -5    1    4    4    0  502 -0.64168994535E+01  0.92857374803E+02  0.29261219905E+02  0.97683046862E+02  0.47000000000E+01 0. -1.
          5    1    5    5  503    0  0.17586735688E+02  0.29288610316E+02  0.45185487720E+02  0.56841307752E+02  0.47000000000E+01 0. -1.
         -5    1    5    5    0  503 -0.27274384393E+02 -0.10494668421E+03  0.42687198288E+02  0.11662755021E+03  0.47000000000E+01 0. -1.
<mgrwt>
<rscale>  0 0.29639481E+03</rscale>
<asrwt>0</asrwt>
<pdfrwt beam="1">  1        4 0.42928269E-01 0.29639481E+03</pdfrwt>
<pdfrwt beam="2">  1       -4 0.12109079E-01 0.29639481E+03</pdfrwt>
<totfact> 0.54686070E+02</totfact>
</mgrwt>
</event>
<event>
 9    1  0.7957670E-001  0.2752993E+03  0.7818608E-02  0.1098284E+00
         -2   -1    0    0    0  501 -0.00000000000E+00  0.00000000000E+00  0.74651660839E+01  0.74651660839E+01  0.00000000000E+00 0.  1.
          2   -1    0    0  501    0  0.00000000000E+00 -0.00000000000E+00 -0.25381124171E+04  0.25381124171E+04  0.00000000000E+00 0.  1.
         35    2    1    2    0    0  0.00000000000E+00 -0.71054273576E-14 -0.25306472510E+04  0.25455775832E+04  0.27529933333E+03 0.  0.
         25    2    3    3    0    0 -0.48611740459E+02 -0.35297641787E+02 -0.12956732576E+04  0.13027132263E+04  0.12117563597E+03 0.  0.
         25    2    3    3    0    0  0.48611740459E+02  0.35297641787E+02 -0.12349739934E+04  0.12428643569E+04  0.12626171357E+03 0.  0.
          5    1    4    4  502    0  0.40017270268E+02 -0.10103873683E+02 -0.49567816902E+03  0.49741572897E+03  0.47000000000E+01 0.  1.
         -5    1    4    4    0  502 -0.88629010727E+02 -0.25193768103E+02 -0.79999508857E+03  0.80529749735E+03  0.47000000000E+01 0.  1.
          5    1    5    5  503    0  0.68795731623E+02 -0.13666288529E+02 -0.97375787829E+03  0.97629202377E+03  0.47000000000E+01 0. -1.
         -5    1    5    5    0  503 -0.20183991164E+02  0.48963930316E+02 -0.26121611515E+03  0.26657233312E+03  0.47000000000E+01 0. -1.
<mgrwt>
<rscale>  0 0.27529933E+03</rscale>
<asrwt>0</asrwt>
<pdfrwt beam="1">  1        2 0.39047853E+00 0.27529933E+03</pdfrwt>
<pdfrwt beam="2">  1       -2 0.11484880E-02 0.27529933E+03</pdfrwt>
<totfact> 0.66610106E+03</totfact>
</mgrwt>
</event>
<event>
 9    1  0.7957670E-001  0.2771524E+03  0.7818608E-02  0.1097255E+00
         -1   -1    0    0    0  501 -0.00000000000E+00  0.00000000000E+00  0.48068877540E+02  0.48068877540E+02  0.00000000000E+00 0. -1.
          1   -1    0    0  501    0  0.00000000000E+00 -0.00000000000E+00 -0.39949668921E+03  0.39949668921E+03  0.00000000000E+00 0. -1.
         35    2    1    2    0    0 -0.35527136788E-14  0.17763568394E-14 -0.35142781167E+03  0.44756556675E+03  0.27715235832E+03 0.  0.
         25    2    3    3    0    0  0.19952502863E+02 -0.10513601654E+02 -0.86705680822E+02  0.15417723317E+03  0.12547551934E+03 0.  0.
         25    2    3    3    0    0 -0.19952502863E+02  0.10513601654E+02 -0.26472213085E+03  0.29338833358E+03  0.12445991132E+03 0.  0.
          5    1    4    4  502    0 -0.21824636459E+02 -0.63573120597E+01  0.25380171123E+02  0.34394378311E+02  0.47000000000E+01 0. -1.
         -5    1    4    4    0  502  0.41777139322E+02 -0.41562895941E+01 -0.11208585194E+03  0.11978285486E+03  0.47000000000E+01 0. -1.
          5    1    5    5  503    0 -0.15653866000E+02  0.32156886711E+02 -0.26815263271E+03  0.27056798279E+03  0.47000000000E+01 0.  1.
         -5    1    5    5    0  503 -0.42986368633E+01 -0.21643285058E+02  0.34305018574E+01  0.22820350785E+02  0.47000000000E+01 0.  1.
<mgrwt>
<rscale>  0 0.27715236E+03</rscale>
<asrwt>0</asrwt>
<pdfrwt beam="1">  1        1 0.61461028E-01 0.27715236E+03</pdfrwt>
<pdfrwt beam="2">  1       -1 0.73952121E-02 0.27715236E+03</pdfrwt>
<totfact> 0.58638260E+03</totfact>
</mgrwt>
</event>
<event>
 9    1  0.7957670E-001  0.2739678E+03  0.7818608E-02  0.1099030E+00
         -1   -1    0    0    0  501 -0.00000000000E+00  0.00000000000E+00  0.28417948801E+02  0.28417948801E+02  0.00000000000E+00 0.  1.
          1   -1    0    0  501    0  0.00000000000E+00 -0.00000000000E+00 -0.66030744374E+03  0.66030744374E+03  0.00000000000E+00 0.  1.
         35    2    1    2    0    0 -0.71054273576E-14 -0.35527136788E-14 -0.63188949494E+03  0.68872539254E+03  0.27396775817E+03 0.  0.
         25    2    3    3    0    0 -0.33676585978E+02  0.87689514311E+01 -0.42051926323E+03  0.44021119758E+03  0.12545294245E+03 0.  0.
         25    2    3    3    0    0  0.33676585978E+02 -0.87689514311E+01 -0.21137023171E+03  0.24851419496E+03  0.12597985273E+03 0.  0.
          5    1    4    4  502    0 -0.71056120430E+02 -0.27568756129E+02 -0.21601878070E+03  0.22911833663E+03  0.47000000000E+01 0. -1.
         -5    1    4    4    0  502  0.37379534453E+02  0.36337707560E+02 -0.20450048253E+03  0.21109286094E+03  0.47000000000E+01 0. -1.
          5    1    5    5  503    0  0.59917586749E+01 -0.29529276292E+02 -0.21140421740E+03  0.21359239796E+03  0.47000000000E+01 0. -1.
         -5    1    5    5    0  503  0.27684827303E+02  0.20760324861E+02  0.33985694035E-01  0.34921797006E+02  0.47000000000E+01 0. -1.
<mgrwt>
<rscale>  0 0.27396776E+03</rscale>
<asrwt>0</asrwt>
<pdfrwt beam="1">  1        1 0.10158577E+00 0.27396776E+03</pdfrwt>
<pdfrwt beam="2">  1       -1 0.43719919E-02 0.27396776E+03</pdfrwt>
<totfact> 0.65867143E+03</totfact>
</mgrwt>
</event>
<event>
 9    1  0.7957670E-001  0.2736661E+03  0.7818608E-02  0.1099200E+00
         -1   -1    0    0    0  501 -0.00000000000E+00  0.00000000000E+00  0.30518631477E+03  0.30518631477E+03  0.00000000000E+00 0. -1.
          1   -1    0    0  501    0  0.00000000000E+00 -0.00000000000E+00 -0.61350332280E+02  0.61350332280E+02  0.00000000000E+00 0. -1.
         35    2    1    2    0    0 -0.35527136788E-14  0.00000000000E+00  0.24383598249E+03  0.36653664705E+03  0.27366608718E+03 0.  0.
         25    2    3    3    0    0 -0.18651078337E+02  0.14200667811E+02  0.18886412370E+03  0.22806824073E+03  0.12568191405E+03 0.  0.
         25    2    3    3    0    0  0.18651078337E+02 -0.14200667811E+02  0.54971858792E+02  0.13846840632E+03  0.12490825674E+03 0.  0.
          5    1    4    4  502    0 -0.21650961962E+02  0.32081674289E+02  0.20165359153E+03  0.20538806917E+03  0.47000000000E+01 0. -1.
         -5    1    4    4    0  502  0.29998836249E+01 -0.17881006479E+02 -0.12789467834E+02  0.22680171559E+02  0.47000000000E+01 0. -1.
          5    1    5    5  503    0  0.59871113397E+02 -0.40433934666E+02  0.52294979413E+02  0.89310179508E+02  0.47000000000E+01 0.  1.
         -5    1    5    5    0  503 -0.41220035060E+02  0.26233266856E+02  0.26768793798E+01  0.49158226814E+02  0.47000000000E+01 0.  1.
<mgrwt>
<rscale>  0 0.27366609E+03</rscale>
<asrwt>0</asrwt>
<pdfrwt beam="1">  1        1 0.94385129E-02 0.27366609E+03</pdfrwt>
<pdfrwt beam="2">  1       -1 0.46951740E-01 0.27366609E+03</pdfrwt>
<totfact> 0.31895525E+03</totfact>
</mgrwt>
</event>
<event>
 9    1  0.7957670E-001  0.2796639E+03  0.7818608E-02  0.1095873E+00
          2   -1    0    0  501    0  0.00000000000E+00  0.00000000000E+00  0.23505668893E+03  0.23505668893E+03  0.00000000000E+00 0.  1.
         -2   -1    0    0    0  501 -0.00000000000E+00 -0.00000000000E+00 -0.83184071725E+02  0.83184071725E+02  0.00000000000E+00 0.  1.
         35    2    1    2    0    0  0.00000000000E+00  0.14210854715E-13  0.15187261720E+03  0.31824076065E+03  0.27966388735E+03 0.  0.
         25    2    3    3    0    0  0.22663160177E+02 -0.51456790083E+02  0.10092052237E+03  0.16932975450E+03  0.12379900585E+03 0.  0.
         25    2    3    3    0    0 -0.22663160177E+02  0.51456790083E+02  0.50952094830E+02  0.14891100615E+03  0.12812865296E+03 0.  0.
          5    1    4    4  502    0 -0.48705091950E+02 -0.21216724384E+01  0.33220026772E+02  0.59180635807E+02  0.47000000000E+01 0. -1.
         -5    1    4    4    0  502  0.71368252127E+02 -0.49335117645E+02  0.67700495601E+02  0.11014911869E+03  0.47000000000E+01 0. -1.
          5    1    5    5  503    0 -0.63794874312E+02  0.67839995763E+02  0.46418213365E+02  0.10415753235E+03  0.47000000000E+01 0.  1.
         -5    1    5    5    0  503  0.41131714135E+02 -0.16383205679E+02  0.45338814653E+01  0.44753473800E+02  0.47000000000E+01 0.  1.
<mgrwt>
<rscale>  0 0.27966389E+03</rscale>
<asrwt>0</asrwt>
<pdfrwt beam="1">  1        2 0.36162567E-01 0.27966389E+03</pdfrwt>
<pdfrwt beam="2">  1       -2 0.12797550E-01 0.27966389E+03</pdfrwt>
<totfact> 0.63090247E+03</totfact>
</mgrwt>
</event>
<event>
 9    1  0.7957670E-001  0.2783025E+03  0.7818608E-02  0.1096620E+00
         -2   -1    0    0    0  501 -0.00000000000E+00  0.00000000000E+00  0.50603737566E+01  0.50603737566E+01  0.00000000000E+00 0. -1.
          2   -1    0    0  501    0  0.00000000000E+00 -0.00000000000E+00 -0.38264112143E+04  0.38264112143E+04  0.00000000000E+00 0. -1.
         35    2    1    2    0    0  0.00000000000E+00  0.35527136788E-14 -0.38213508406E+04  0.38314715881E+04  0.27830250370E+03 0.  0.
         25    2    3    3    0    0  0.17722191517E+02 -0.75508737579E+01 -0.11103001951E+04  0.11174199649E+04  0.12445787646E+03 0.  0.
         25    2    3    3    0    0 -0.17722191517E+02  0.75508737579E+01 -0.27110506455E+04  0.27140516232E+04  0.12613294209E+03 0.  0.
          5    1    4    4  502    0  0.64598686643E+02 -0.10909097922E+02 -0.38327488812E+03  0.38886209457E+03  0.47000000000E+01 0.  1.
         -5    1    4    4    0  502 -0.46876495126E+02  0.33582241639E+01 -0.72702530693E+03  0.72855787031E+03  0.47000000000E+01 0.  1.
          5    1    5    5  503    0  0.45093098610E+02  0.28797350122E+02 -0.77439323138E+03  0.77625359369E+03  0.47000000000E+01 0.  1.
         -5    1    5    5    0  503 -0.62815290127E+02 -0.21246476364E+02 -0.19366574142E+04  0.19377980295E+04  0.47000000000E+01 0.  1.
<mgrwt>
<rscale>  0 0.27830250E+03</rscale>
<asrwt>0</asrwt>
<pdfrwt beam="1">  1        2 0.58868023E+00 0.27830250E+03</pdfrwt>
<pdfrwt beam="2">  1       -2 0.77851695E-03 0.27830250E+03</pdfrwt>
<totfact> 0.18461095E+03</totfact>
</mgrwt>
</event>
<event>
 9    1  0.7957670E-001  0.2723783E+03  0.7818608E-02  0.1099926E+00
         -1   -1    0    0    0  501 -0.00000000000E+00  0.00000000000E+00  0.23173656192E+02  0.23173656192E+02  0.00000000000E+00 0. -1.
          1   -1    0    0  501    0  0.00000000000E+00 -0.00000000000E+00 -0.80036963866E+03  0.80036963866E+03  0.00000000000E+00 0. -1.
         35    2    1    2    0    0 -0.35527136788E-14  0.00000000000E+00 -0.77719598247E+03  0.82354329485E+03  0.27237834593E+03 0.  0.
         25    2    3    3    0    0  0.10098219375E+02  0.52276053945E+02 -0.36528848235E+03  0.38960909385E+03  0.12459859879E+03 0.  0.
         25    2    3    3    0    0 -0.10098219375E+02 -0.52276053945E+02 -0.41190750012E+03  0.43393420101E+03  0.12568350050E+03 0.  0.
          5    1    4    4  502    0 -0.36607311003E+02  0.26114807132E+02 -0.41434975679E+02  0.61327200979E+02  0.47000000000E+01 0.  1.
         -5    1    4    4    0  502  0.46705530378E+02  0.26161246813E+02 -0.32385350667E+03  0.32828189287E+03  0.47000000000E+01 0.  1.
          5    1    5    5  503    0 -0.32447087771E+02 -0.30505112208E+01 -0.35026466588E+03  0.35180896135E+03  0.47000000000E+01 0.  1.
         -5    1    5    5    0  503  0.22348868396E+02 -0.49225542724E+02 -0.61642834239E+02  0.82125239653E+02  0.47000000000E+01 0.  1.
<mgrwt>
<rscale>  0 0.27237835E+03</rscale>
<asrwt>0</asrwt>
<pdfrwt beam="1">  1        1 0.12313379E+00 0.27237835E+03</pdfrwt>
<pdfrwt beam="2">  1       -1 0.35651780E-02 0.27237835E+03</pdfrwt>
<totfact> 0.67069080E+03</totfact>
</mgrwt>
</event>
<event>
 9    1  0.7957670E-001  0.2836957E+03  0.7818608E-02  0.1093687E+00
          2   -1    0    0  501    0  0.00000000000E+00  0.00000000000E+00  0.80603885828E+03  0.80603885828E+03  0.00000000000E+00 0.  1.
         -2   -1    0    0    0  501 -0.00000000000E+00 -0.00000000000E+00 -0.24962591819E+02  0.24962591819E+02  0.00000000000E+00 0.  1.
         35    2    1    2    0    0  0.88817841970E-15  0.00000000000E+00  0.78107626646E+03  0.83100145010E+03  0.28369574554E+03 0.  0.
         25    2    3    3    0    0 -0.46667130209E+00  0.25468043923E+01  0.19289022760E+03  0.22942213004E+03  0.12418200294E+03 0.  0.
         25    2    3    3    0    0  0.46667130209E+00 -0.25468043923E+01  0.58818603886E+03  0.60157932006E+03  0.12620680654E+03 0.  0.
          5    1    4    4  502    0 -0.29959262536E+01  0.62338802804E+02  0.80103758794E+02  0.10165531999E+03  0.47000000000E+01 0.  1.
         -5    1    4    4    0  502  0.25292549515E+01 -0.59791998412E+02  0.11278646881E+03  0.12776681005E+03  0.47000000000E+01 0.  1.
          5    1    5    5  503    0  0.13430793668E+02  0.48900779446E+02  0.11982091376E+03  0.13019529109E+03  0.47000000000E+01 0. -1.
         -5    1    5    5    0  503 -0.12964122366E+02 -0.51447583838E+02  0.46836512510E+03  0.47138402897E+03  0.47000000000E+01 0. -1.
<mgrwt>
<rscale>  0 0.28369575E+03</rscale>
<asrwt>0</asrwt>
<pdfrwt beam="1">  1        2 0.12400596E+00 0.28369575E+03</pdfrwt>
<pdfrwt beam="2">  1       -2 0.38403994E-02 0.28369575E+03</pdfrwt>
<totfact> 0.10249064E+04</totfact>
</mgrwt>
</event>
<event>
 9    1  0.7957670E-001  0.2746576E+03  0.7818608E-02  0.1098643E+00
         -2   -1    0    0    0  501 -0.00000000000E+00  0.00000000000E+00  0.21354427794E+03  0.21354427794E+03  0.00000000000E+00 0.  1.
          2   -1    0    0  501    0  0.00000000000E+00 -0.00000000000E+00 -0.88315139146E+02  0.88315139146E+02  0.00000000000E+00 0.  1.
         35    2    1    2    0    0 -0.71054273576E-14  0.00000000000E+00  0.12522913879E+03  0.30185941709E+03  0.27465755129E+03 0.  0.
         25    2    3    3    0    0 -0.29313629554E+02  0.32445131677E+02  0.23073334922E+02  0.13475665901E+03  0.12535949471E+03 0.  0.
         25    2    3    3    0    0  0.29313629554E+02 -0.32445131677E+02  0.10215580387E+03  0.16710275808E+03  0.12480203543E+03 0.  0.
          5    1    4    4  502    0  0.16637368359E+02  0.43610993531E+02  0.58859538298E+02  0.75267895090E+02  0.47000000000E+01 0. -1.
         -5    1    4    4    0  502 -0.45950997913E+02 -0.11165861854E+02 -0.35786203376E+02  0.59488763915E+02  0.47000000000E+01 0. -1.
          5    1    5    5  503    0  0.26721002557E+02 -0.75660446699E+02  0.36403186085E+02  0.88237164106E+02  0.47000000000E+01 0.  1.
         -5    1    5    5    0  503  0.25926269963E+01  0.43215315022E+02  0.65752617785E+02  0.78865593974E+02  0.47000000000E+01 0.  1.
<mgrwt>
<rscale>  0 0.27465755E+03</rscale>
<asrwt>0</asrwt>
<pdfrwt beam="1">  1        2 0.13586945E-01 0.27465755E+03</pdfrwt>
<pdfrwt beam="2">  1       -2 0.32852966E-01 0.27465755E+03</pdfrwt>
<totfact> 0.37765877E+03</totfact>
</mgrwt>
</event>
<event>
 9    1  0.7957670E-001  0.2744325E+03  0.7818608E-02  0.1098769E+00
         -2   -1    0    0    0  501 -0.00000000000E+00  0.00000000000E+00  0.12093414567E+02  0.12093414567E+02  0.00000000000E+00 0. -1.
          2   -1    0    0  501    0  0.00000000000E+00 -0.00000000000E+00 -0.15569054779E+04  0.15569054779E+04  0.00000000000E+00 0. -1.
         35    2    1    2    0    0  0.00000000000E+00  0.00000000000E+00 -0.15448120633E+04  0.15689988924E+04  0.27443253004E+03 0.  0.
         25    2    3    3    0    0 -0.37371424878E+02 -0.24043530050E+02 -0.56434764224E+03  0.57948214583E+03  0.12384095162E+03 0.  0.
         25    2    3    3    0    0  0.37371424878E+02  0.24043530050E+02 -0.98046442107E+03  0.98951674661E+03  0.12592932984E+03 0.  0.
          5    1    4    4  502    0 -0.77265060269E+02 -0.40012588581E+02 -0.41239695128E+03  0.42150235137E+03  0.47000000000E+01 0.  1.
         -5    1    4    4    0  502  0.39893635391E+02  0.15969058531E+02 -0.15195069097E+03  0.15797979447E+03  0.47000000000E+01 0.  1.
          5    1    5    5  503    0  0.74078297931E+02  0.47982552614E+02 -0.59235067820E+03  0.59890845339E+03  0.47000000000E+01 0. -1.
         -5    1    5    5    0  503 -0.36706873054E+02 -0.23939022564E+02 -0.38811374287E+03  0.39060829322E+03  0.47000000000E+01 0. -1.
<mgrwt>
<rscale>  0 0.27443253E+03</rscale>
<asrwt>0</asrwt>
<pdfrwt beam="1">  1        2 0.23952375E+00 0.27443253E+03</pdfrwt>
<pdfrwt beam="2">  1       -2 0.18605266E-02 0.27443253E+03</pdfrwt>
<totfact> 0.10938410E+04</totfact>
</mgrwt>
</event>
<event>
 9    1  0.7957670E-001  0.2756121E+03  0.7818608E-02  0.1098110E+00
          1   -1    0    0  501    0  0.00000000000E+00  0.00000000000E+00  0.24180675110E+02  0.24180675110E+02  0.00000000000E+00 0.  1.
         -1   -1    0    0    0  501 -0.00000000000E+00 -0.00000000000E+00 -0.78535907296E+03  0.78535907296E+03  0.00000000000E+00 0.  1.
         35    2    1    2    0    0  0.00000000000E+00  0.00000000000E+00 -0.76117839785E+03  0.80953974807E+03  0.27561213753E+03 0.  0.
         25    2    3    3    0    0 -0.16236835866E+02 -0.74463035932E+01 -0.20914924777E+03  0.24312597656E+03  0.12266927227E+03 0.  0.
         25    2    3    3    0    0  0.16236835866E+02  0.74463035932E+01 -0.55202915007E+03  0.56641377150E+03  0.12557585652E+03 0.  0.
          5    1    4    4  502    0  0.22177342105E+02  0.31690685075E+02 -0.15716130965E+02  0.42014530771E+02  0.47000000000E+01 0.  1.
         -5    1    4    4    0  502 -0.38414177971E+02 -0.39136988668E+02 -0.19343311681E+03  0.20111144579E+03  0.47000000000E+01 0.  1.
          5    1    5    5  503    0  0.18477076731E+01  0.61308854311E+02 -0.39398338699E+03  0.39875705494E+03  0.47000000000E+01 0.  1.
         -5    1    5    5    0  503  0.14389128193E+02 -0.53862550718E+02 -0.15804576308E+03  0.16765671656E+03  0.47000000000E+01 0.  1.
<mgrwt>
<rscale>  0 0.27561214E+03</rscale>
<asrwt>0</asrwt>
<pdfrwt beam="1">  1        1 0.37201037E-02 0.27561214E+03</pdfrwt>
<pdfrwt beam="2">  1       -1 0.12082448E+00 0.27561214E+03</pdfrwt>
<totfact> 0.16369930E+03</totfact>
</mgrwt>
</event>
<event>
 9    1  0.7957670E-001  0.2801406E+03  0.7818608E-02  0.1095612E+00
          1   -1    0    0  501    0  0.00000000000E+00  0.00000000000E+00  0.15276424892E+02  0.15276424892E+02  0.00000000000E+00 0. -1.
         -1   -1    0    0    0  501 -0.00000000000E+00 -0.00000000000E+00 -0.12843115426E+04  0.12843115426E+04  0.00000000000E+00 0. -1.
         35    2    1    2    0    0  0.00000000000E+00 -0.71054273576E-14 -0.12690351177E+04  0.12995879675E+04  0.28014059911E+03 0.  0.
         25    2    3    3    0    0 -0.24287571394E+02  0.54678737670E+02 -0.56571219187E+03  0.58278383144E+03  0.12659802400E+03 0.  0.
         25    2    3    3    0    0  0.24287571394E+02 -0.54678737670E+02 -0.70332292581E+03  0.71680413602E+03  0.12476129597E+03 0.  0.
          5    1    4    4  502    0 -0.55676476437E+02  0.81031262490E+00 -0.42688584336E+03  0.43052774579E+03  0.47000000000E+01 0.  1.
         -5    1    4    4    0  502  0.31388905044E+02  0.53868425045E+02 -0.13882634851E+03  0.15225608565E+03  0.47000000000E+01 0.  1.
          5    1    5    5  503    0  0.56816786905E+02 -0.78181488310E+02 -0.45064129150E+03  0.46091230836E+03  0.47000000000E+01 0.  1.
         -5    1    5    5    0  503 -0.32529215511E+02  0.23502750640E+02 -0.25268163431E+03  0.25589182767E+03  0.47000000000E+01 0.  1.
<mgrwt>
<rscale>  0 0.28014060E+03</rscale>
<asrwt>0</asrwt>
<pdfrwt beam="1">  1        1 0.23502188E-02 0.28014060E+03</pdfrwt>
<pdfrwt beam="2">  1       -1 0.19758643E+00 0.28014060E+03</pdfrwt>
<totfact> 0.83434587E+02</totfact>
</mgrwt>
</event>
<event>
 9    1  0.7957670E-001  0.2705266E+03  0.7818608E-02  0.1100979E+00
          2   -1    0    0  501    0  0.00000000000E+00  0.00000000000E+00  0.64468374434E+03  0.64468374434E+03  0.00000000000E+00 0.  1.
         -2   -1    0    0    0  501 -0.00000000000E+00 -0.00000000000E+00 -0.28380060303E+02  0.28380060303E+02  0.00000000000E+00 0.  1.
         35    2    1    2    0    0 -0.71054273576E-14 -0.71054273576E-14  0.61630368404E+03  0.67306380464E+03  0.27052662376E+03 0.  0.
         25    2    3    3    0    0  0.38908002928E+02  0.33948059986E+02  0.30114246646E+03  0.33021348235E+03  0.12525116908E+03 0.  0.
         25    2    3    3    0    0 -0.38908002928E+02 -0.33948059986E+02  0.31516121758E+03  0.34285032229E+03  0.12471345941E+03 0.  0.
          5    1    4    4  502    0 -0.45586337807E+02  0.76277732165E+01  0.11582556901E+03  0.12479563115E+03  0.47000000000E+01 0.  1.
         -5    1    4    4    0  502  0.84494340735E+02  0.26320286769E+02  0.18531689745E+03  0.20541785120E+03  0.47000000000E+01 0.  1.
          5    1    5    5  503    0 -0.13050635796E+02  0.26068127068E+02  0.24530922228E+03  0.24708009001E+03  0.47000000000E+01 0. -1.
         -5    1    5    5    0  503 -0.25857367132E+02 -0.60016187054E+02  0.69851995304E+02  0.95770232282E+02  0.47000000000E+01 0. -1.
<mgrwt>
<rscale>  0 0.27052662E+03</rscale>
<asrwt>0</asrwt>
<pdfrwt beam="1">  1        2 0.99182103E-01 0.27052662E+03</pdfrwt>
<pdfrwt beam="2">  1       -2 0.43661636E-02 0.27052662E+03</pdfrwt>
<totfact> 0.11094229E+04</totfact>
</mgrwt>
</event>
<event>
 9    1  0.7957670E-001  0.2742917E+03  0.7818608E-02  0.1098848E+00
          4   -1    0    0  501    0  0.00000000000E+00  0.00000000000E+00  0.55798961699E+02  0.55798961699E+02  0.00000000000E+00 0.  1.
         -4   -1    0    0    0  501 -0.00000000000E+00 -0.00000000000E+00 -0.33708479546E+03  0.33708479546E+03  0.00000000000E+00 0.  1.
         35    2    1    2    0    0  0.35527136788E-14  0.71054273576E-14 -0.28128583376E+03  0.39288375716E+03  0.27429168118E+03 0.  0.
         25    2    3    3    0    0  0.31434595524E+02  0.37940963569E+02 -0.18159464892E+03  0.22561840024E+03  0.12449656822E+03 0.  0.
         25    2    3    3    0    0 -0.31434595524E+02 -0.37940963569E+02 -0.99691184845E+02  0.16726535692E+03  0.12494685581E+03 0.  0.
          5    1    4    4  502    0  0.71489524759E+02  0.12892074649E+02 -0.15490075595E+03  0.17115283209E+03  0.47000000000E+01 0. -1.
         -5    1    4    4    0  502 -0.40054929236E+02  0.25048888920E+02 -0.26693892969E+02  0.54465568151E+02  0.47000000000E+01 0. -1.
          5    1    5    5  503    0 -0.54441633445E+02 -0.42466293712E+02 -0.11823782369E+03  0.13700200913E+03  0.47000000000E+01 0. -1.
         -5    1    5    5    0  503  0.23007037921E+02  0.45253301429E+01  0.18546638849E+02  0.30263347789E+02  0.47000000000E+01 0. -1.
<mgrwt>
<rscale>  0 0.27429168E+03</rscale>
<asrwt>0</asrwt>
<pdfrwt beam="1">  1        4 0.85844556E-02 0.27429168E+03</pdfrwt>
<pdfrwt beam="2">  1       -4 0.51859200E-01 0.27429168E+03</pdfrwt>
<totfact> 0.66167082E+02</totfact>
</mgrwt>
</event>
<event>
 9    1  0.7957670E-001  0.2732996E+03  0.7818608E-02  0.1099406E+00
          2   -1    0    0  501    0  0.00000000000E+00  0.00000000000E+00  0.72493683559E+03  0.72493683559E+03  0.00000000000E+00 0.  1.
         -2   -1    0    0    0  501 -0.00000000000E+00 -0.00000000000E+00 -0.25758344295E+02  0.25758344295E+02  0.00000000000E+00 0.  1.
         35    2    1    2    0    0  0.00000000000E+00  0.00000000000E+00  0.69917849130E+03  0.75069517989E+03  0.27329963485E+03 0.  0.
         25    2    3    3    0    0  0.24873485283E+01 -0.53343754085E+02  0.35793792884E+03  0.38297182080E+03  0.12528412359E+03 0.  0.
         25    2    3    3    0    0 -0.24873485283E+01  0.53343754085E+02  0.34124056246E+03  0.36772335909E+03  0.12618876474E+03 0.  0.
          5    1    4    4  502    0 -0.30428110500E+02 -0.59119064778E+02  0.85308019238E+02  0.10826117437E+03  0.47000000000E+01 0.  1.
         -5    1    4    4    0  502  0.32915459028E+02  0.57753106927E+01  0.27262990960E+03  0.27471064643E+03  0.47000000000E+01 0.  1.
          5    1    5    5  503    0 -0.49904964121E+02  0.66226078406E+02  0.25698444308E+03  0.27007312508E+03  0.47000000000E+01 0. -1.
         -5    1    5    5    0  503  0.47417615593E+02 -0.12882324320E+02  0.84256119375E+02  0.97650234001E+02  0.47000000000E+01 0. -1.
<mgrwt>
<rscale>  0 0.27329963E+03</rscale>
<asrwt>0</asrwt>
<pdfrwt beam="1">  1        2 0.11152873E+00 0.27329963E+03</pdfrwt>
<pdfrwt beam="2">  1       -2 0.39628228E-02 0.27329963E+03</pdfrwt>
<totfact> 0.11150742E+04</totfact>
</mgrwt>
</event>
<event>
 9    1  0.7957670E-001  0.2739021E+03  0.7818608E-02  0.1099067E+00
          1   -1    0    0  501    0  0.00000000000E+00  0.00000000000E+00  0.16714200870E+03  0.16714200870E+03  0.00000000000E+00 0. -1.
         -1   -1    0    0    0  501 -0.00000000000E+00 -0.00000000000E+00 -0.11221347376E+03  0.11221347376E+03  0.00000000000E+00 0. -1.
         35    2    1    2    0    0  0.00000000000E+00 -0.71054273576E-14  0.54928534933E+02  0.27935548246E+03  0.27390206577E+03 0.  0.
         25    2    3    3    0    0  0.81150491163E+01 -0.45946646565E+02  0.59938855292E+02  0.14572126607E+03  0.12435864529E+03 0.  0.
         25    2    3    3    0    0 -0.81150491163E+01  0.45946646565E+02 -0.50103203585E+01  0.13363421639E+03  0.12512414686E+03 0.  0.
          5    1    4    4  502    0 -0.19236184646E+02  0.90043084016E+01 -0.29800885028E+02  0.36895678853E+02  0.47000000000E+01 0.  1.
         -5    1    4    4    0  502  0.27351233763E+02 -0.54950954966E+02  0.89739740320E+02  0.10882558721E+03  0.47000000000E+01 0.  1.
          5    1    5    5  503    0  0.17428420987E+02  0.72721813289E+02 -0.37841035807E+02  0.83941920261E+02  0.47000000000E+01 0. -1.
         -5    1    5    5    0  503 -0.25543470104E+02 -0.26775166724E+02  0.32830715449E+02  0.49692296132E+02  0.47000000000E+01 0. -1.
<mgrwt>
<rscale>  0 0.27390207E+03</rscale>
<asrwt>0</asrwt>
<pdfrwt beam="1">  1        1 0.25714155E-01 0.27390207E+03</pdfrwt>
<pdfrwt beam="2">  1       -1 0.17263611E-01 0.27390207E+03</pdfrwt>
<totfact> 0.46965669E+03</totfact>
</mgrwt>
</event>
<event>
 9    1  0.7957670E-001  0.2718423E+03  0.7818608E-02  0.1100230E+00
         -2   -1    0    0    0  501 -0.00000000000E+00  0.00000000000E+00  0.15872305072E+02  0.15872305072E+02  0.00000000000E+00 0. -1.
          2   -1    0    0  501    0  0.00000000000E+00 -0.00000000000E+00 -0.11639491771E+04  0.11639491771E+04  0.00000000000E+00 0. -1.
         35    2    1    2    0    0  0.00000000000E+00  0.00000000000E+00 -0.11480768721E+04  0.11798214822E+04  0.27184228095E+03 0.  0.
         25    2    3    3    0    0  0.51217818098E+02  0.17955733215E+02 -0.56107189823E+03  0.57705606610E+03  0.12347613209E+03 0.  0.
         25    2    3    3    0    0 -0.51217818098E+02 -0.17955733215E+02 -0.58700497383E+03  0.60276541610E+03  0.12572046095E+03 0.  0.
          5    1    4    4  502    0  0.46860657356E+02  0.56207558717E+02 -0.18521220358E+03  0.19920055527E+03  0.47000000000E+01 0.  1.
         -5    1    4    4    0  502  0.43571607420E+01 -0.38251825501E+02 -0.37585969465E+03  0.37785551083E+03  0.47000000000E+01 0.  1.
          5    1    5    5  503    0 -0.50201627871E+02 -0.58089443092E+02 -0.21080449147E+03  0.22439966681E+03  0.47000000000E+01 0. -1.
         -5    1    5    5    0  503 -0.10161902272E+01  0.40133709877E+02 -0.37620048235E+03  0.37836574929E+03  0.47000000000E+01 0. -1.
<mgrwt>
<rscale>  0 0.27184228E+03</rscale>
<asrwt>0</asrwt>
<pdfrwt beam="1">  1        2 0.17906910E+00 0.27184228E+03</pdfrwt>
<pdfrwt beam="2">  1       -2 0.24418931E-02 0.27184228E+03</pdfrwt>
<totfact> 0.12037509E+04</totfact>
</mgrwt>
</event>
<event>
 9    1  0.7957670E-001  0.2737701E+03  0.7818608E-02  0.1099141E+00
          1   -1    0    0  501    0  0.00000000000E+00  0.00000000000E+00  0.19721281674E+03  0.19721281674E+03  0.00000000000E+00 0. -1.
         -1   -1    0    0    0  501 -0.00000000000E+00 -0.00000000000E+00 -0.95011659512E+02  0.95011659512E+02  0.00000000000E+00 0. -1.
         35    2    1    2    0    0 -0.71054273576E-14  0.17763568394E-14  0.10220115723E+03  0.29222447626E+03  0.27377010060E+03 0.  0.
         25    2    3    3    0    0 -0.52756645259E+02 -0.15526117236E+02  0.43201222416E+02  0.14346528199E+03  0.12526618691E+03 0.  0.
         25    2    3    3    0    0  0.52756645259E+02  0.15526117236E+02  0.58999934815E+02  0.14875919427E+03  0.12499592648E+03 0.  0.
          5    1    4    4  502    0 -0.64889972688E+01 -0.13636363355E+02 -0.42826466584E+02  0.45653627799E+02  0.47000000000E+01 0. -1.
         -5    1    4    4    0  502 -0.46267647990E+02 -0.18897538810E+01  0.86027689001E+02  0.97811654188E+02  0.47000000000E+01 0. -1.
          5    1    5    5  503    0  0.74482445291E+02  0.32920207005E+02  0.79478822378E+02  0.11388743518E+03  0.47000000000E+01 0.  1.
         -5    1    5    5    0  503 -0.21725800032E+02 -0.17394089769E+02 -0.20478887563E+02  0.34871759086E+02  0.47000000000E+01 0.  1.
<mgrwt>
<rscale>  0 0.27377010E+03</rscale>
<asrwt>0</asrwt>
<pdfrwt beam="1">  1        1 0.30340433E-01 0.27377010E+03</pdfrwt>
<pdfrwt beam="2">  1       -1 0.14617178E-01 0.27377010E+03</pdfrwt>
<totfact> 0.49660000E+03</totfact>
</mgrwt>
</event>
<event>
 9    1  0.7957670E-001  0.2742539E+03  0.7818608E-02  0.1098869E+00
         -2   -1    0    0    0  501 -0.00000000000E+00  0.00000000000E+00  0.10773588838E+02  0.10773588838E+02  0.00000000000E+00 0. -1.
          2   -1    0    0  501    0  0.00000000000E+00 -0.00000000000E+00 -0.17453612998E+04  0.17453612998E+04  0.00000000000E+00 0. -1.
         35    2    1    2    0    0  0.00000000000E+00  0.35527136788E-14 -0.17345877110E+04  0.17561348887E+04  0.27425393356E+03 0.  0.
         25    2    3    3    0    0  0.48112225479E+02 -0.29724787338E+02 -0.10288247226E+04  0.10377597923E+04  0.12355859894E+03 0.  0.
         25    2    3    3    0    0 -0.48112225479E+02  0.29724787338E+02 -0.70576298840E+03  0.71837509642E+03  0.12150322685E+03 0.  0.
          5    1    4    4  502    0  0.28875125457E+01  0.25822473710E+02 -0.52180173283E+02  0.58480752056E+02  0.47000000000E+01 0.  1.
         -5    1    4    4    0  502  0.45224712933E+02 -0.55547261048E+02 -0.97664454932E+03  0.97927904020E+03  0.47000000000E+01 0.  1.
          5    1    5    5  503    0  0.19707779486E+02 -0.18859930619E+02 -0.41284713935E+03  0.41377402531E+03  0.47000000000E+01 0. -1.
         -5    1    5    5    0  503 -0.67820004965E+02  0.48584717958E+02 -0.29291584905E+03  0.30460107110E+03  0.47000000000E+01 0. -1.
<mgrwt>
<rscale>  0 0.27425393E+03</rscale>
<asrwt>0</asrwt>
<pdfrwt beam="1">  1        2 0.26851745E+00 0.27425393E+03</pdfrwt>
<pdfrwt beam="2">  1       -2 0.16574732E-02 0.27425393E+03</pdfrwt>
<totfact> 0.10304412E+04</totfact>
</mgrwt>
</event>
<event>
 9    1  0.7957670E-001  0.2699478E+03  0.7818608E-02  0.1101310E+00
         -2   -1    0    0    0  501 -0.00000000000E+00  0.00000000000E+00  0.10808790712E+02  0.10808790712E+02  0.00000000000E+00 0. -1.
          2   -1    0    0  501    0  0.00000000000E+00 -0.00000000000E+00 -0.16854752374E+04  0.16854752374E+04  0.00000000000E+00 0. -1.
         35    2    1    2    0    0  0.17763568394E-14 -0.17763568394E-14 -0.16746664467E+04  0.16962840281E+04  0.26994776600E+03 0.  0.
         25    2    3    3    0    0 -0.12893463876E+02 -0.14243509588E+02 -0.54739785322E+03  0.56178156013E+03  0.12483986790E+03 0.  0.
         25    2    3    3    0    0  0.12893463876E+02  0.14243509588E+02 -0.11272685935E+04  0.11345024680E+04  0.12646046442E+03 0.  0.
          5    1    4    4  502    0 -0.18417662609E+02 -0.22140633153E+02 -0.22689819270E+02  0.36963980182E+02  0.47000000000E+01 0. -1.
         -5    1    4    4    0  502  0.55241987335E+01  0.78971235647E+01 -0.52470803395E+03  0.52481757995E+03  0.47000000000E+01 0. -1.
          5    1    5    5  503    0  0.39414484210E+02  0.33165388636E+02 -0.10391512471E+04  0.10404378159E+04  0.47000000000E+01 0.  1.
         -5    1    5    5    0  503 -0.26521020334E+02 -0.18921879048E+02 -0.88117346439E+02  0.94064652073E+02  0.47000000000E+01 0.  1.
<mgrwt>
<rscale>  0 0.26994777E+03</rscale>
<asrwt>0</asrwt>
<pdfrwt beam="1">  1        2 0.25930377E+00 0.26994777E+03</pdfrwt>
<pdfrwt beam="2">  1       -2 0.16628916E-02 0.26994777E+03</pdfrwt>
<totfact> 0.11023947E+04</totfact>
</mgrwt>
</event>
<event>
 9    1  0.7957670E-001  0.2757096E+03  0.7818608E-02  0.1098056E+00
          4   -1    0    0  501    0  0.00000000000E+00  0.00000000000E+00  0.45670018204E+03  0.45670018204E+03  0.00000000000E+00 0. -1.
         -4   -1    0    0    0  501 -0.00000000000E+00 -0.00000000000E+00 -0.41611439148E+02  0.41611439148E+02  0.00000000000E+00 0. -1.
         35    2    1    2    0    0  0.71054273576E-14  0.71054273576E-14  0.41508874289E+03  0.49831162118E+03  0.27570964316E+03 0.  0.
         25    2    3    3    0    0 -0.33678014348E+02  0.18360201572E+02  0.23696798020E+03  0.27182002538E+03  0.12751861395E+03 0.  0.
         25    2    3    3    0    0  0.33678014348E+02 -0.18360201572E+02  0.17812076268E+03  0.22649159580E+03  0.13453672814E+03 0.  0.
          5    1    4    4  502    0 -0.16251467786E+02  0.65206836810E+02  0.19525256210E+03  0.20654707642E+03  0.47000000000E+01 0. -1.
         -5    1    4    4    0  502 -0.17426546562E+02 -0.46846635239E+02  0.41715418105E+02  0.65272948960E+02  0.47000000000E+01 0. -1.
          5    1    5    5  503    0 -0.19439581044E+02 -0.38408635029E+02  0.16141584901E+03  0.16712356766E+03  0.47000000000E+01 0.  1.
         -5    1    5    5    0  503  0.53117595393E+02  0.20048433458E+02  0.16704913672E+02  0.59368028140E+02  0.47000000000E+01 0.  1.
<mgrwt>
<rscale>  0 0.27570964E+03</rscale>
<asrwt>0</asrwt>
<pdfrwt beam="1">  1        4 0.70261563E-01 0.27570964E+03</pdfrwt>
<pdfrwt beam="2">  1       -4 0.64017602E-02 0.27570964E+03</pdfrwt>
<totfact> 0.56570232E+02</totfact>
</mgrwt>
</event>
<event>
 9    1  0.7957670E-001  0.2684879E+03  0.7818608E-02  0.1102148E+00
          1   -1    0    0  501    0  0.00000000000E+00  0.00000000000E+00  0.17269243601E+04  0.17269243601E+04  0.00000000000E+00 0.  1.
         -1   -1    0    0    0  501 -0.00000000000E+00 -0.00000000000E+00 -0.10435570853E+02  0.10435570853E+02  0.00000000000E+00 0.  1.
         35    2    1    2    0    0  0.00000000000E+00  0.00000000000E+00  0.17164887892E+04  0.17373599309E+04  0.26848792536E+03 0.  0.
         25    2    3    3    0    0  0.20805645215E+01  0.47135887438E+02  0.92602048470E+03  0.93563044852E+03  0.12515701131E+03 0.  0.
         25    2    3    3    0    0 -0.20805645215E+01 -0.47135887438E+02  0.79046830452E+03  0.80172948241E+03  0.12531521007E+03 0.  0.
          5    1    4    4  502    0  0.25912697508E+02 -0.28411102099E+02  0.12959749610E+03  0.13526366700E+03  0.47000000000E+01 0.  1.
         -5    1    4    4    0  502 -0.23832132986E+02  0.75546989538E+02  0.79642298860E+03  0.80036678152E+03  0.47000000000E+01 0.  1.
          5    1    5    5  503    0  0.52962655211E+02 -0.56291503086E+02  0.49151123856E+03  0.49757327480E+03  0.47000000000E+01 0.  1.
         -5    1    5    5    0  503 -0.55043219732E+02  0.91556156478E+01  0.29895706596E+03  0.30415620761E+03  0.47000000000E+01 0.  1.
<mgrwt>
<rscale>  0 0.26848793E+03</rscale>
<asrwt>0</asrwt>
<pdfrwt beam="1">  1        1 0.26568044E+00 0.26848793E+03</pdfrwt>
<pdfrwt beam="2">  1       -1 0.16054738E-02 0.26848793E+03</pdfrwt>
<totfact> 0.47985541E+03</totfact>
</mgrwt>
</event>
<event>
 9    1  0.7957670E-001  0.2769648E+03  0.7818608E-02  0.1097358E+00
          1   -1    0    0  501    0  0.00000000000E+00  0.00000000000E+00  0.12108615926E+03  0.12108615926E+03  0.00000000000E+00 0.  1.
         -1   -1    0    0    0  501 -0.00000000000E+00 -0.00000000000E+00 -0.15837789991E+03  0.15837789991E+03  0.00000000000E+00 0.  1.
         35    2    1    2    0    0  0.71054273576E-14  0.00000000000E+00 -0.37291740646E+02  0.27946405917E+03  0.27696477474E+03 0.  0.
         25    2    3    3    0    0 -0.15073249000E+02  0.30059879623E+02  0.32288238622E+02  0.13330803607E+03  0.12489076399E+03 0.  0.
         25    2    3    3    0    0  0.15073249000E+02 -0.30059879623E+02 -0.69579979268E+02  0.14615602309E+03  0.12405406230E+03 0.  0.
          5    1    4    4  502    0 -0.58943422107E+02  0.14845029926E+02  0.54360039881E+02  0.81681123028E+02  0.47000000000E+01 0. -1.
         -5    1    4    4    0  502  0.43870173107E+02  0.15214849697E+02 -0.22071801259E+02  0.51626913045E+02  0.47000000000E+01 0. -1.
          5    1    5    5  503    0  0.55756837322E+02  0.13534118274E+02 -0.44686539372E+01  0.57741286213E+02  0.47000000000E+01 0.  1.
         -5    1    5    5    0  503 -0.40683588322E+02 -0.43593997897E+02 -0.65111325331E+02  0.88414736881E+02  0.47000000000E+01 0.  1.
<mgrwt>
<rscale>  0 0.27696477E+03</rscale>
<asrwt>0</asrwt>
<pdfrwt beam="1">  1        1 0.18628640E-01 0.27696477E+03</pdfrwt>
<pdfrwt beam="2">  1       -1 0.24365831E-01 0.27696477E+03</pdfrwt>
<totfact> 0.40499466E+03</totfact>
</mgrwt>
</event>
<event>
 9    1  0.7957670E-001  0.2778322E+03  0.7818608E-02  0.1096879E+00
         -3   -1    0    0    0  501 -0.00000000000E+00  0.00000000000E+00  0.61231126644E+03  0.61231126644E+03  0.00000000000E+00 0.  1.
          3   -1    0    0  501    0  0.00000000000E+00 -0.00000000000E+00 -0.31516129652E+02  0.31516129652E+02  0.00000000000E+00 0.  1.
         35    2    1    2    0    0  0.00000000000E+00 -0.71054273576E-14  0.58079513678E+03  0.64382739609E+03  0.27783218863E+03 0.  0.
         25    2    3    3    0    0  0.34147233377E+02 -0.48818045265E+02  0.31979258512E+03  0.34813895546E+03  0.12403305899E+03 0.  0.
         25    2    3    3    0    0 -0.34147233377E+02  0.48818045265E+02  0.26100255167E+03  0.29568844063E+03  0.12553918453E+03 0.  0.
          5    1    4    4  502    0  0.19742131851E+02  0.59402141812E+01 -0.21195666277E+01  0.21251364127E+02  0.47000000000E+01 0. -1.
         -5    1    4    4    0  502  0.14405101525E+02 -0.54758259446E+02  0.32191215175E+03  0.32688759134E+03  0.47000000000E+01 0. -1.
          5    1    5    5  503    0  0.34647309461E+02  0.40356430911E+02  0.48559921946E+02  0.72175020528E+02  0.47000000000E+01 0.  1.
         -5    1    5    5    0  503 -0.68794542838E+02  0.84616143541E+01  0.21244262972E+03  0.22351342010E+03  0.47000000000E+01 0.  1.
<mgrwt>
<rscale>  0 0.27783219E+03</rscale>
<asrwt>0</asrwt>
<pdfrwt beam="1">  1        3 0.48486358E-02 0.27783219E+03</pdfrwt>
<pdfrwt beam="2">  1       -3 0.94201724E-01 0.27783219E+03</pdfrwt>
<totfact> 0.63057753E+02</totfact>
</mgrwt>
</event>
<event>
 9    1  0.7957670E-001  0.3028577E+03  0.7818608E-02  0.1083821E+00
         -1   -1    0    0    0  501 -0.00000000000E+00  0.00000000000E+00  0.13979909675E+03  0.13979909675E+03  0.00000000000E+00 0. -1.
          1   -1    0    0  501    0  0.00000000000E+00 -0.00000000000E+00 -0.16402608787E+03  0.16402608787E+03  0.00000000000E+00 0. -1.
         35    2    1    2    0    0  0.00000000000E+00  0.00000000000E+00 -0.24226991124E+02  0.30382518462E+03  0.30285771529E+03 0.  0.
         25    2    3    3    0    0 -0.68665319032E+02  0.21829032631E+02  0.40786581437E+02  0.14543529650E+03  0.11956775293E+03 0.  0.
         25    2    3    3    0    0  0.68665319032E+02 -0.21829032631E+02 -0.65013572560E+02  0.15838988812E+03  0.12517651272E+03 0.  0.
          5    1    4    4  502    0 -0.77529890095E+02  0.61084882249E+02  0.24812264543E+02  0.10188221223E+03  0.47000000000E+01 0.  1.
         -5    1    4    4    0  502  0.88645710633E+01 -0.39255849618E+02  0.15974316893E+02  0.43553084271E+02  0.47000000000E+01 0.  1.
          5    1    5    5  503    0  0.24026584493E+02 -0.64107649180E+02 -0.68063031525E+02  0.96652644589E+02  0.47000000000E+01 0.  1.
         -5    1    5    5    0  503  0.44638734539E+02  0.42278616549E+02  0.30494589649E+01  0.61737243529E+02  0.47000000000E+01 0.  1.
<mgrwt>
<rscale>  0 0.30285772E+03</rscale>
<asrwt>0</asrwt>
<pdfrwt beam="1">  1        1 0.25234783E-01 0.30285772E+03</pdfrwt>
<pdfrwt beam="2">  1       -1 0.21507553E-01 0.30285772E+03</pdfrwt>
<totfact> 0.33765903E+03</totfact>
</mgrwt>
</event>
<event>
 8    1  0.7957670E-001  0.3701276E+03  0.7818608E-02  0.1054644E+00
         -2   -1    0    0    0  501 -0.00000000000E+00  0.00000000000E+00  0.15199929831E+02  0.15199929831E+02  0.00000000000E+00 0.  1.
          2   -1    0    0  501    0  0.00000000000E+00 -0.00000000000E+00 -0.22532088287E+04  0.22532088287E+04  0.00000000000E+00 0.  1.
         25    2    1    2    0    0 -0.11777892238E+03 -0.47217641138E+02 -0.79813916283E+03  0.81753427865E+03  0.12342930503E+03 0.  0.
         25    2    1    2    0    0  0.11777892238E+03  0.47217641138E+02 -0.14398697360E+04  0.14508744798E+04  0.12534161082E+03 0.  0.
          5    1    3    3  502    0 -0.99756756572E+02 -0.41167804561E+01 -0.28061551265E+03  0.29788506895E+03  0.47000000000E+01 0. -1.
         -5    1    3    3    0  502 -0.18022165810E+02 -0.43100860682E+02 -0.51752365018E+03  0.51964920970E+03  0.47000000000E+01 0. -1.
          5    1    4    4  503    0  0.13239767285E+03  0.24067134218E+02 -0.13527008529E+04  0.13593859122E+04  0.47000000000E+01 0. -1.
         -5    1    4    4    0  503 -0.14618750465E+02  0.23150506920E+02 -0.87168883071E+02  0.91488567656E+02  0.47000000000E+01 0. -1.
<mgrwt>
<rscale>  0 0.37012763E+03</rscale>
<asrwt>0</asrwt>
<pdfrwt beam="1">  1        2 0.34664745E+00 0.37012763E+03</pdfrwt>
<pdfrwt beam="2">  1       -2 0.23384512E-02 0.37012763E+03</pdfrwt>
<totfact> 0.33313544E+03</totfact>
</mgrwt>
</event>
<event>
 9    1  0.7957670E-001  0.2715127E+03  0.7818608E-02  0.1100417E+00
          2   -1    0    0  501    0  0.00000000000E+00  0.00000000000E+00  0.41410651097E+03  0.41410651097E+03  0.00000000000E+00 0.  1.
         -2   -1    0    0    0  501 -0.00000000000E+00 -0.00000000000E+00 -0.44504938715E+02  0.44504938715E+02  0.00000000000E+00 0.  1.
         35    2    1    2    0    0  0.71054273576E-14 -0.71054273576E-14  0.36960157225E+03  0.45861144968E+03  0.27151268767E+03 0.  0.
         25    2    3    3    0    0 -0.18515124918E+02  0.43274691857E+02  0.14287361361E+03  0.19598043307E+03  0.12561827843E+03 0.  0.
         25    2    3    3    0    0  0.18515124918E+02 -0.43274691857E+02  0.22672795864E+03  0.26263101661E+03  0.12391115708E+03 0.  0.
          5    1    4    4  502    0  0.71185337914E+00 -0.36375670084E+02  0.71558797367E+01  0.37376365850E+02  0.47000000000E+01 0.  1.
         -5    1    4    4    0  502 -0.19226978297E+02  0.79650361942E+02  0.13571773387E+03  0.15860406722E+03  0.47000000000E+01 0.  1.
          5    1    5    5  503    0 -0.29862201114E+02 -0.51885364009E+02  0.19479479627E+03  0.20384048839E+03  0.47000000000E+01 0. -1.
         -5    1    5    5    0  503  0.48377326032E+02  0.86106721512E+01  0.31933162368E+02  0.58790528215E+02  0.47000000000E+01 0. -1.
<mgrwt>
<rscale>  0 0.27151269E+03</rscale>
<asrwt>0</asrwt>
<pdfrwt beam="1">  1        2 0.63708691E-01 0.27151269E+03</pdfrwt>
<pdfrwt beam="2">  1       -2 0.68469139E-02 0.27151269E+03</pdfrwt>
<totfact> 0.92005799E+03</totfact>
</mgrwt>
</event>
<event>
 9    1  0.7957670E-001  0.2798677E+03  0.7818608E-02  0.1095761E+00
         -1   -1    0    0    0  501 -0.00000000000E+00  0.00000000000E+00  0.71071002207E+02  0.71071002207E+02  0.00000000000E+00 0. -1.
          1   -1    0    0  501    0  0.00000000000E+00 -0.00000000000E+00 -0.27552001101E+03  0.27552001101E+03  0.00000000000E+00 0. -1.
         35    2    1    2    0    0  0.00000000000E+00  0.00000000000E+00 -0.20444900880E+03  0.34659101322E+03  0.27986770668E+03 0.  0.
         25    2    3    3    0    0  0.21214650451E+02 -0.57391355752E+02 -0.98063239471E+02  0.16989588243E+03  0.12451659657E+03 0.  0.
         25    2    3    3    0    0 -0.21214650451E+02  0.57391355752E+02 -0.10638576933E+03  0.17669513079E+03  0.12711966103E+03 0.  0.
          5    1    4    4  502    0 -0.46609959418E+02  0.31172436334E+01 -0.25049429399E+02  0.53214372476E+02  0.47000000000E+01 0.  1.
         -5    1    4    4    0  502  0.67824609868E+02 -0.60508599385E+02 -0.73013810072E+02  0.11668150995E+03  0.47000000000E+01 0.  1.
          5    1    5    5  503    0  0.39179564903E+02 -0.18812800535E+02 -0.31769046997E+02  0.54040004783E+02  0.47000000000E+01 0.  1.
         -5    1    5    5    0  503 -0.60394215353E+02  0.76204156287E+02 -0.74616722335E+02  0.12265512601E+03  0.47000000000E+01 0.  1.
<mgrwt>
<rscale>  0 0.27986771E+03</rscale>
<asrwt>0</asrwt>
<pdfrwt beam="1">  1        1 0.42387693E-01 0.27986771E+03</pdfrwt>
<pdfrwt beam="2">  1       -1 0.10934001E-01 0.27986771E+03</pdfrwt>
<totfact> 0.51461293E+03</totfact>
</mgrwt>
</event>
<event>
 9    1  0.7957670E-001  0.2745771E+03  0.7818608E-02  0.1098688E+00
          1   -1    0    0  501    0  0.00000000000E+00  0.00000000000E+00  0.45532461049E+03  0.45532461049E+03  0.00000000000E+00 0. -1.
         -1   -1    0    0    0  501 -0.00000000000E+00 -0.00000000000E+00 -0.41394972012E+02  0.41394972012E+02  0.00000000000E+00 0. -1.
         35    2    1    2    0    0  0.26645352591E-14 -0.71054273576E-14  0.41392963848E+03  0.49671958250E+03  0.27457712583E+03 0.  0.
         25    2    3    3    0    0  0.23221178583E+01  0.48342705524E+02  0.16568600755E+03  0.21452238549E+03  0.12737971334E+03 0.  0.
         25    2    3    3    0    0 -0.23221178583E+01 -0.48342705524E+02  0.24824363093E+03  0.28219719701E+03  0.12517167529E+03 0.  0.
          5    1    4    4  502    0  0.69418632085E+01  0.46199060406E+02  0.18663822988E+03  0.19245379056E+03  0.47000000000E+01 0. -1.
         -5    1    4    4    0  502 -0.46197453502E+01  0.21436451178E+01 -0.20952222334E+02  0.22068594931E+02  0.47000000000E+01 0. -1.
          5    1    5    5  503    0  0.44570145817E+02 -0.32313556201E+02  0.21584341781E+03  0.22280290578E+03  0.47000000000E+01 0.  1.
         -5    1    5    5    0  503 -0.46892263676E+02 -0.16029149323E+02  0.32400213123E+02  0.59394291233E+02  0.47000000000E+01 0.  1.
<mgrwt>
<rscale>  0 0.27457713E+03</rscale>
<asrwt>0</asrwt>
<pdfrwt beam="1">  1        1 0.70049937E-01 0.27457713E+03</pdfrwt>
<pdfrwt beam="2">  1       -1 0.63684575E-02 0.27457713E+03</pdfrwt>
<totfact> 0.62092030E+03</totfact>
</mgrwt>
</event>
<event>
 9    1  0.7957670E-001  0.3000490E+03  0.7818608E-02  0.1085216E+00
         -1   -1    0    0    0  501 -0.00000000000E+00  0.00000000000E+00  0.30772910347E+02  0.30772910347E+02  0.00000000000E+00 0.  1.
          1   -1    0    0  501    0  0.00000000000E+00 -0.00000000000E+00 -0.73140152083E+03  0.73140152083E+03  0.00000000000E+00 0.  1.
         35    2    1    2    0    0  0.00000000000E+00 -0.35527136788E-14 -0.70062861049E+03  0.76217443118E+03  0.30004901885E+03 0.  0.
         25    2    3    3    0    0 -0.77630524423E+02  0.21649545330E+02 -0.30564672980E+03  0.34001249509E+03  0.12527319046E+03 0.  0.
         25    2    3    3    0    0  0.77630524423E+02 -0.21649545330E+02 -0.39498188069E+03  0.42216193609E+03  0.12535873752E+03 0.  0.
          5    1    4    4  502    0 -0.12986801019E+02 -0.23656071549E+02 -0.22642826841E+03  0.22807919120E+03  0.47000000000E+01 0. -1.
         -5    1    4    4    0  502 -0.64643723403E+02  0.45305616879E+02 -0.79218461388E+02  0.11193330390E+03  0.47000000000E+01 0. -1.
          5    1    5    5  503    0 -0.23811481573E+02  0.26873892252E+02 -0.10743143466E+03  0.11337017197E+03  0.47000000000E+01 0.  1.
         -5    1    5    5    0  503  0.10144200600E+03 -0.48523437583E+02 -0.28755044603E+03  0.30879176412E+03  0.47000000000E+01 0.  1.
<mgrwt>
<rscale>  0 0.30004902E+03</rscale>
<asrwt>0</asrwt>
<pdfrwt beam="1">  1        1 0.11252331E+00 0.30004902E+03</pdfrwt>
<pdfrwt beam="2">  1       -1 0.47342940E-02 0.30004902E+03</pdfrwt>
<totfact> 0.50480486E+03</totfact>
</mgrwt>
</event>
<event>
 9    1  0.7957670E-001  0.2745324E+03  0.7818608E-02  0.1098713E+00
         -2   -1    0    0    0  501 -0.00000000000E+00  0.00000000000E+00  0.15111521839E+02  0.15111521839E+02  0.00000000000E+00 0.  1.
          2   -1    0    0  501    0  0.00000000000E+00 -0.00000000000E+00 -0.12468638196E+04  0.12468638196E+04  0.00000000000E+00 0.  1.
         35    2    1    2    0    0  0.17763568394E-14  0.00000000000E+00 -0.12317522978E+04  0.12619753414E+04  0.27453240130E+03 0.  0.
         25    2    3    3    0    0  0.12612348278E+02  0.62620564054E+02 -0.55571377073E+03  0.57304460136E+03  0.12442633886E+03 0.  0.
         25    2    3    3    0    0 -0.12612348278E+02 -0.62620564054E+02 -0.67603852704E+03  0.68893074009E+03  0.11626292711E+03 0.  0.
          5    1    4    4  502    0 -0.13710492912E+02 -0.47931547198E+01 -0.40996712766E+03  0.41025124949E+03  0.47000000000E+01 0. -1.
         -5    1    4    4    0  502  0.26322841190E+02  0.67413718774E+02 -0.14574664307E+03  0.16279335187E+03  0.47000000000E+01 0. -1.
          5    1    5    5  503    0 -0.21706927844E+02 -0.41775939658E+02 -0.65754204791E+03  0.65924203038E+03  0.47000000000E+01 0. -1.
         -5    1    5    5    0  503  0.90945795663E+01 -0.20844624396E+02 -0.18496479128E+02  0.29688709703E+02  0.47000000000E+01 0. -1.
<mgrwt>
<rscale>  0 0.27453240E+03</rscale>
<asrwt>0</asrwt>
<pdfrwt beam="1">  1        2 0.19182522E+00 0.27453240E+03</pdfrwt>
<pdfrwt beam="2">  1       -2 0.23248493E-02 0.27453240E+03</pdfrwt>
<totfact> 0.11618110E+04</totfact>
</mgrwt>
</event>
<event>
 9    1  0.7957670E-001  0.2736212E+03  0.7818608E-02  0.1099225E+00
         -1   -1    0    0    0  501 -0.00000000000E+00  0.00000000000E+00  0.17231088729E+02  0.17231088729E+02  0.00000000000E+00 0.  1.
          1   -1    0    0  501    0  0.00000000000E+00 -0.00000000000E+00 -0.10862422844E+04  0.10862422844E+04  0.00000000000E+00 0.  1.
         35    2    1    2    0    0 -0.71054273576E-14 -0.71054273576E-14 -0.10690111957E+04  0.11034733732E+04  0.27362117743E+03 0.  0.
         25    2    3    3    0    0  0.32687077717E+02  0.24789972966E+02 -0.40657961047E+03  0.42768738904E+03  0.12620037752E+03 0.  0.
         25    2    3    3    0    0 -0.32687077717E+02 -0.24789972966E+02 -0.66243158525E+03  0.67578598414E+03  0.12723247781E+03 0.  0.
          5    1    4    4  502    0  0.71985526945E+01 -0.30236883413E+02 -0.22100509767E+02  0.38426693995E+02  0.47000000000E+01 0. -1.
         -5    1    4    4    0  502  0.25488525022E+02  0.55026856379E+02 -0.38447910070E+03  0.38926069504E+03  0.47000000000E+01 0. -1.
          5    1    5    5  503    0 -0.69052055675E+02  0.17364498744E+02 -0.47076680165E+03  0.47614407877E+03  0.47000000000E+01 0. -1.
         -5    1    5    5    0  503  0.36364977958E+02 -0.42154471710E+02 -0.19166478360E+03  0.19964190537E+03  0.47000000000E+01 0. -1.
<mgrwt>
<rscale>  0 0.27362118E+03</rscale>
<asrwt>0</asrwt>
<pdfrwt beam="1">  1        1 0.16711422E+00 0.27362118E+03</pdfrwt>
<pdfrwt beam="2">  1       -1 0.26509364E-02 0.27362118E+03</pdfrwt>
<totfact> 0.62496778E+03</totfact>
</mgrwt>
</event>
<event>
 9    1  0.7957670E-001  0.2707802E+03  0.7818608E-02  0.1100834E+00
          2   -1    0    0  501    0  0.00000000000E+00  0.00000000000E+00  0.10541751915E+03  0.10541751915E+03  0.00000000000E+00 0. -1.
         -2   -1    0    0    0  501 -0.00000000000E+00 -0.00000000000E+00 -0.17388461040E+03  0.17388461040E+03  0.00000000000E+00 0. -1.
         35    2    1    2    0    0  0.14210854715E-13  0.00000000000E+00 -0.68467091258E+02  0.27930212955E+03  0.27078023744E+03 0.  0.
         25    2    3    3    0    0 -0.34630087406E+02  0.33222253757E+02 -0.13558532418E+02  0.13477504481E+03  0.12520989499E+03 0.  0.
         25    2    3    3    0    0  0.34630087406E+02 -0.33222253757E+02 -0.54908558839E+02  0.14452708474E+03  0.12478047640E+03 0.  0.
          5    1    4    4  502    0  0.31712025555E+02  0.29731472465E+02  0.31914525665E+02  0.54131690978E+02  0.47000000000E+01 0. -1.
         -5    1    4    4    0  502 -0.66342112961E+02  0.34907812916E+01 -0.45473058083E+02  0.80643353834E+02  0.47000000000E+01 0. -1.
          5    1    5    5  503    0 -0.18654205309E+02 -0.66843877895E+02 -0.37359428544E+02  0.78955052333E+02  0.47000000000E+01 0. -1.
         -5    1    5    5    0  503  0.53284292715E+02  0.33621624138E+02 -0.17549130295E+02  0.65572032407E+02  0.47000000000E+01 0. -1.
<mgrwt>
<rscale>  0 0.27078024E+03</rscale>
<asrwt>0</asrwt>
<pdfrwt beam="1">  1        2 0.16218080E-01 0.27078024E+03</pdfrwt>
<pdfrwt beam="2">  1       -2 0.26751479E-01 0.27078024E+03</pdfrwt>
<totfact> 0.44401885E+03</totfact>
</mgrwt>
</event>
<event>
 9    1  0.7957670E-001  0.2744167E+03  0.7818608E-02  0.1098778E+00
          1   -1    0    0  501    0  0.00000000000E+00  0.00000000000E+00  0.74984183275E+03  0.74984183275E+03  0.00000000000E+00 0.  1.
         -1   -1    0    0    0  501 -0.00000000000E+00 -0.00000000000E+00 -0.25106794218E+02  0.25106794218E+02  0.00000000000E+00 0.  1.
         35    2    1    2    0    0 -0.71054273576E-14 -0.71054273576E-14  0.72473503853E+03  0.77494862697E+03  0.27441665103E+03 0.  0.
         25    2    3    3    0    0  0.17856598867E+02  0.48466573098E+02  0.44060641926E+03  0.46075344899E+03  0.12446628953E+03 0.  0.
         25    2    3    3    0    0 -0.17856598867E+02 -0.48466573098E+02  0.28412861927E+03  0.31419517798E+03  0.12378073658E+03 0.  0.
          5    1    4    4  502    0  0.55444573374E+02 -0.17656170756E+02  0.20285703869E+03  0.21108981318E+03  0.47000000000E+01 0.  1.
         -5    1    4    4    0  502 -0.37587974507E+02  0.66122743854E+02  0.23774938058E+03  0.24966363581E+03  0.47000000000E+01 0.  1.
          5    1    5    5  503    0 -0.67984890793E+02 -0.62759013348E+01  0.14437458196E+03  0.15977309608E+03  0.47000000000E+01 0. -1.
         -5    1    5    5    0  503  0.50128291926E+02 -0.42190671763E+02  0.13975403731E+03  0.15442208191E+03  0.47000000000E+01 0. -1.
<mgrwt>
<rscale>  0 0.27441665E+03</rscale>
<asrwt>0</asrwt>
<pdfrwt beam="1">  1        1 0.11536026E+00 0.27441665E+03</pdfrwt>
<pdfrwt beam="2">  1       -1 0.38625843E-02 0.27441665E+03</pdfrwt>
<totfact> 0.65763179E+03</totfact>
</mgrwt>
</event>
<event>
 9    1  0.7957670E-001  0.2701386E+03  0.7818608E-02  0.1101200E+00
          2   -1    0    0  501    0  0.00000000000E+00  0.00000000000E+00  0.38591303293E+03  0.38591303293E+03  0.00000000000E+00 0. -1.
         -2   -1    0    0    0  501 -0.00000000000E+00 -0.00000000000E+00 -0.47274153721E+02  0.47274153721E+02  0.00000000000E+00 0. -1.
         35    2    1    2    0    0  0.00000000000E+00 -0.35527136788E-14  0.33863887921E+03  0.43318718665E+03  0.27013857216E+03 0.  0.
         25    2    3    3    0    0  0.22945452417E+02  0.19298843496E+02  0.23517102041E+03  0.26787069550E+03  0.12470108869E+03 0.  0.
         25    2    3    3    0    0 -0.22945452417E+02 -0.19298843496E+02  0.10346785880E+03  0.16531649115E+03  0.12539938315E+03 0.  0.
          5    1    4    4  502    0 -0.56069805803E+01  0.67304006852E+02  0.92859468011E+02  0.11491839874E+03  0.47000000000E+01 0.  1.
         -5    1    4    4    0  502  0.28552432997E+02 -0.48005163355E+02  0.14231155240E+03  0.15295229676E+03  0.47000000000E+01 0.  1.
          5    1    5    5  503    0  0.46149950443E+02 -0.34229325437E+02  0.53224181165E+02  0.78462526766E+02  0.47000000000E+01 0. -1.
         -5    1    5    5    0  503 -0.69095402860E+02  0.14930481941E+02  0.50243677638E+02  0.86853964388E+02  0.47000000000E+01 0. -1.
<mgrwt>
<rscale>  0 0.27013857E+03</rscale>
<asrwt>0</asrwt>
<pdfrwt beam="1">  1        2 0.59371234E-01 0.27013857E+03</pdfrwt>
<pdfrwt beam="2">  1       -2 0.72729470E-02 0.27013857E+03</pdfrwt>
<totfact> 0.90447006E+03</totfact>
</mgrwt>
</event>
<event>
 9    1  0.7957670E-001  0.2725903E+03  0.7818608E-02  0.1099806E+00
         -2   -1    0    0    0  501 -0.00000000000E+00  0.00000000000E+00  0.29078354977E+02  0.29078354977E+02  0.00000000000E+00 0.  1.
          2   -1    0    0  501    0  0.00000000000E+00 -0.00000000000E+00 -0.63883829892E+03  0.63883829892E+03  0.00000000000E+00 0.  1.
         35    2    1    2    0    0  0.00000000000E+00  0.88817841970E-15 -0.60975994394E+03  0.66791665390E+03  0.27259029204E+03 0.  0.
         25    2    3    3    0    0  0.15758965835E+02  0.62704860349E+01 -0.44473460803E+03  0.46161397442E+03  0.12251908343E+03 0.  0.
         25    2    3    3    0    0 -0.15758965835E+02 -0.62704860349E+01 -0.16502533591E+03  0.20630267947E+03  0.12263674028E+03 0.  0.
          5    1    4    4  502    0  0.45772871787E+02 -0.11899934702E+02 -0.40740908302E+03  0.41017193366E+03  0.47000000000E+01 0. -1.
         -5    1    4    4    0  502 -0.30013905952E+02  0.18170420737E+02 -0.37325525009E+02  0.51442040760E+02  0.47000000000E+01 0. -1.
          5    1    5    5  503    0  0.40973670137E+02  0.68136919963E+01 -0.13357426282E+03  0.13996228682E+03  0.47000000000E+01 0. -1.
         -5    1    5    5    0  503 -0.56732635972E+02 -0.13084178031E+02 -0.31451073092E+02  0.66340392656E+02  0.47000000000E+01 0. -1.
<mgrwt>
<rscale>  0 0.27259029E+03</rscale>
<asrwt>0</asrwt>
<pdfrwt beam="1">  1        2 0.98282826E-01 0.27259029E+03</pdfrwt>
<pdfrwt beam="2">  1       -2 0.44735926E-02 0.27259029E+03</pdfrwt>
<totfact> 0.10813165E+04</totfact>
</mgrwt>
</event>
<event>
 9    1  0.7957670E-001  0.2896817E+03  0.7818608E-02  0.1090515E+00
          2   -1    0    0  501    0  0.00000000000E+00  0.00000000000E+00  0.63721938212E+02  0.63721938212E+02  0.00000000000E+00 0. -1.
         -2   -1    0    0    0  501 -0.00000000000E+00 -0.00000000000E+00 -0.32922534759E+03  0.32922534759E+03  0.00000000000E+00 0. -1.
         35    2    1    2    0    0 -0.35527136788E-14 -0.35527136788E-14 -0.26550340937E+03  0.39294728580E+03  0.28968173748E+03 0.  0.
         25    2    3    3    0    0  0.25589854778E+02  0.17857308836E+02 -0.22206839317E+03  0.25660272342E+03  0.12472715131E+03 0.  0.
         25    2    3    3    0    0 -0.25589854778E+02 -0.17857308836E+02 -0.43435016203E+02  0.13634456238E+03  0.12541736288E+03 0.  0.
          5    1    4    4  502    0  0.17679093109E+02 -0.35129771290E+02 -0.14496319631E+02  0.42176823575E+02  0.47000000000E+01 0. -1.
         -5    1    4    4    0  502  0.79107616693E+01  0.52987080126E+02 -0.20757207354E+03  0.21442589985E+03  0.47000000000E+01 0. -1.
          5    1    5    5  503    0 -0.61999945299E+02 -0.18159682219E+02 -0.66622705491E+02  0.92921699093E+02  0.47000000000E+01 0.  1.
         -5    1    5    5    0  503  0.36410090521E+02  0.30237338355E+00  0.23187689288E+02  0.43422863286E+02  0.47000000000E+01 0.  1.
<mgrwt>
<rscale>  0 0.28968174E+03</rscale>
<asrwt>0</asrwt>
<pdfrwt beam="1">  1        2 0.98033755E-02 0.28968174E+03</pdfrwt>
<pdfrwt beam="2">  1       -2 0.50650052E-01 0.28968174E+03</pdfrwt>
<totfact> 0.24560765E+03</totfact>
</mgrwt>
</event>
<event>
 9    1  0.7957670E-001  0.2744627E+03  0.7818608E-02  0.1098752E+00
          2   -1    0    0  501    0  0.00000000000E+00  0.00000000000E+00  0.57164607485E+02  0.57164607485E+02  0.00000000000E+00 0.  1.
         -2   -1    0    0    0  501 -0.00000000000E+00 -0.00000000000E+00 -0.32944224912E+03  0.32944224912E+03  0.00000000000E+00 0.  1.
         35    2    1    2    0    0  0.71054273576E-14  0.35527136788E-14 -0.27227764163E+03  0.38660685660E+03  0.27446265218E+03 0.  0.
         25    2    3    3    0    0 -0.44966182783E+02 -0.15647411787E+02 -0.97175470528E+02  0.16673473293E+03  0.12684872883E+03 0.  0.
         25    2    3    3    0    0  0.44966182783E+02  0.15647411787E+02 -0.17510217110E+03  0.21987212367E+03  0.12416191586E+03 0.  0.
          5    1    4    4  502    0 -0.32901117193E+02 -0.19210056183E+01 -0.12708346593E+03  0.13137150029E+03  0.47000000000E+01 0. -1.
         -5    1    4    4    0  502 -0.12065065590E+02 -0.13726406168E+02  0.29907995404E+02  0.35363232645E+02  0.47000000000E+01 0. -1.
          5    1    5    5  503    0 -0.27136930393E+02  0.36267704227E+02 -0.24849859355E+02  0.51878366117E+02  0.47000000000E+01 0. -1.
         -5    1    5    5    0  503  0.72103113175E+02 -0.20620292440E+02 -0.15025231175E+03  0.16799375755E+03  0.47000000000E+01 0. -1.
<mgrwt>
<rscale>  0 0.27446265E+03</rscale>
<asrwt>0</asrwt>
<pdfrwt beam="1">  1        2 0.87945548E-02 0.27446265E+03</pdfrwt>
<pdfrwt beam="2">  1       -2 0.50683424E-01 0.27446265E+03</pdfrwt>
<totfact> 0.28063294E+03</totfact>
</mgrwt>
</event>
<event>
 9    1  0.7957670E-001  0.2769285E+03  0.7818608E-02  0.1097378E+00
          1   -1    0    0  501    0  0.00000000000E+00  0.00000000000E+00  0.61628435242E+03  0.61628435242E+03  0.00000000000E+00 0. -1.
         -1   -1    0    0    0  501 -0.00000000000E+00 -0.00000000000E+00 -0.31109574086E+02  0.31109574086E+02  0.00000000000E+00 0. -1.
         35    2    1    2    0    0 -0.71054273576E-14  0.00000000000E+00  0.58517477833E+03  0.64739392650E+03  0.27692846527E+03 0.  0.
         25    2    3    3    0    0  0.41340376010E+01  0.45293455847E+02  0.38137120404E+03  0.40405372617E+03  0.12548637754E+03 0.  0.
         25    2    3    3    0    0 -0.41340376010E+01 -0.45293455847E+02  0.20380357429E+03  0.24334020033E+03  0.12493986072E+03 0.  0.
          5    1    4    4  502    0  0.56209299410E+02  0.23029926206E+01  0.24969750983E+03  0.25599946392E+03  0.47000000000E+01 0.  1.
         -5    1    4    4    0  502 -0.52075261809E+02  0.42990463227E+02  0.13167369422E+03  0.14805426225E+03  0.47000000000E+01 0.  1.
          5    1    5    5  503    0  0.34593655790E+02 -0.56959319284E+02  0.18824841065E+03  0.19975144351E+03  0.47000000000E+01 0. -1.
         -5    1    5    5    0  503 -0.38727693391E+02  0.11665863437E+02  0.15555163637E+02  0.43588756818E+02  0.47000000000E+01 0. -1.
<mgrwt>
<rscale>  0 0.27692847E+03</rscale>
<asrwt>0</asrwt>
<pdfrwt beam="1">  1        1 0.94812968E-01 0.27692847E+03</pdfrwt>
<pdfrwt beam="2">  1       -1 0.47860888E-02 0.27692847E+03</pdfrwt>
<totfact> 0.63458099E+03</totfact>
</mgrwt>
</event>
<event>
 9    1  0.7957670E-001  0.2641932E+03  0.7818608E-02  0.1104650E+00
          2   -1    0    0  501    0  0.00000000000E+00  0.00000000000E+00  0.37942988540E+03  0.37942988540E+03  0.00000000000E+00 0.  1.
         -2   -1    0    0    0  501 -0.00000000000E+00 -0.00000000000E+00 -0.45988764386E+02  0.45988764386E+02  0.00000000000E+00 0.  1.
         35    2    1    2    0    0 -0.71054273576E-14  0.00000000000E+00  0.33344112102E+03  0.42541864979E+03  0.26419319901E+03 0.  0.
         25    2    3    3    0    0  0.19367771107E+02  0.27804037472E+02  0.12268790133E+03  0.17793675835E+03  0.12434224456E+03 0.  0.
         25    2    3    3    0    0 -0.19367771107E+02 -0.27804037472E+02  0.21075321969E+03  0.24748189144E+03  0.12522855874E+03 0.  0.
          5    1    4    4  502    0 -0.25129671341E+02  0.41784961538E+02  0.12154456866E+03  0.13104447933E+03  0.47000000000E+01 0.  1.
         -5    1    4    4    0  502  0.44497442448E+02 -0.13980924066E+02  0.11433326684E+01  0.46892279021E+02  0.47000000000E+01 0.  1.
          5    1    5    5  503    0  0.39375724836E+02 -0.94994566971E+01  0.17070043650E+02  0.44205924650E+02  0.47000000000E+01 0.  1.
         -5    1    5    5    0  503 -0.58743495944E+02 -0.18304580775E+02  0.19368317604E+03  0.20327596679E+03  0.47000000000E+01 0.  1.
<mgrwt>
<rscale>  0 0.26419320E+03</rscale>
<asrwt>0</asrwt>
<pdfrwt beam="1">  1        2 0.58373827E-01 0.26419320E+03</pdfrwt>
<pdfrwt beam="2">  1       -2 0.70751948E-02 0.26419320E+03</pdfrwt>
<totfact> 0.96054759E+03</totfact>
</mgrwt>
</event>
<event>
 9    1  0.7957670E-001  0.2673920E+03  0.7818608E-02  0.1102782E+00
          2   -1    0    0  501    0  0.00000000000E+00  0.00000000000E+00  0.19066704250E+04  0.19066704250E+04  0.00000000000E+00 0.  1.
         -2   -1    0    0    0  501 -0.00000000000E+00 -0.00000000000E+00 -0.93747816120E+01  0.93747816120E+01  0.00000000000E+00 0.  1.
         35    2    1    2    0    0  0.71054273576E-14  0.00000000000E+00  0.18972956434E+04  0.19160452066E+04  0.26739198822E+03 0.  0.
         25    2    3    3    0    0 -0.28354528794E+02 -0.20633407888E+02  0.72165891398E+03  0.73323423073E+03  0.12494451637E+03 0.  0.
         25    2    3    3    0    0  0.28354528794E+02  0.20633407888E+02  0.11756367294E+04  0.11828109759E+04  0.12526120029E+03 0.  0.
          5    1    4    4  502    0 -0.11325650874E+02 -0.57747828402E+02  0.63024878788E+03  0.63300766716E+03  0.47000000000E+01 0.  1.
         -5    1    4    4    0  502 -0.17028877920E+02  0.37114420514E+02  0.91410126094E+02  0.10022656357E+03  0.47000000000E+01 0.  1.
          5    1    5    5  503    0  0.61494741475E+02  0.53155599053E+02  0.84170312387E+03  0.84563192919E+03  0.47000000000E+01 0. -1.
         -5    1    5    5    0  503 -0.33140212681E+02 -0.32522191164E+02  0.33393360555E+03  0.33717904670E+03  0.47000000000E+01 0. -1.
<mgrwt>
<rscale>  0 0.26739199E+03</rscale>
<asrwt>0</asrwt>
<pdfrwt beam="1">  1        2 0.29333360E+00 0.26739199E+03</pdfrwt>
<pdfrwt beam="2">  1       -2 0.14422756E-02 0.26739199E+03</pdfrwt>
<totfact> 0.10389154E+04</totfact>
</mgrwt>
</event>
<event>
 9    1  0.7957670E-001  0.2738905E+03  0.7818608E-02  0.1099073E+00
          1   -1    0    0  501    0  0.00000000000E+00  0.00000000000E+00  0.46367702110E+03  0.46367702110E+03  0.00000000000E+00 0. -1.
         -1   -1    0    0    0  501 -0.00000000000E+00 -0.00000000000E+00 -0.40446252106E+02  0.40446252106E+02  0.00000000000E+00 0. -1.
         35    2    1    2    0    0 -0.71054273576E-14 -0.71054273576E-14  0.42323076899E+03  0.50412327320E+03  0.27389047220E+03 0.  0.
         25    2    3    3    0    0 -0.52831702031E+02 -0.25925597486E+02  0.17514170346E+03  0.22280963756E+03  0.12452386500E+03 0.  0.
         25    2    3    3    0    0  0.52831702031E+02  0.25925597486E+02  0.24808906553E+03  0.28131363564E+03  0.11885222681E+03 0.  0.
          5    1    4    4  502    0 -0.19489447455E+02 -0.56289638144E+02  0.16617408913E+03  0.17659071273E+03  0.47000000000E+01 0.  1.
         -5    1    4    4    0  502 -0.33342254576E+02  0.30364040659E+02  0.89676143268E+01  0.46218924825E+02  0.47000000000E+01 0.  1.
          5    1    5    5  503    0  0.38141450184E+02 -0.27752679713E+01  0.84192077286E+01  0.39439135300E+02  0.47000000000E+01 0. -1.
         -5    1    5    5    0  503  0.14690251847E+02  0.28700865457E+02  0.23966985780E+03  0.24187450034E+03  0.47000000000E+01 0. -1.
<mgrwt>
<rscale>  0 0.27389047E+03</rscale>
<asrwt>0</asrwt>
<pdfrwt beam="1">  1        1 0.71334923E-01 0.27389047E+03</pdfrwt>
<pdfrwt beam="2">  1       -1 0.62225006E-02 0.27389047E+03</pdfrwt>
<totfact> 0.62790471E+03</totfact>
</mgrwt>
</event>
<event>
 9    1  0.7957670E-001  0.2750562E+03  0.7818608E-02  0.1098420E+00
         -2   -1    0    0    0  501 -0.00000000000E+00  0.00000000000E+00  0.66039358395E+01  0.66039358395E+01  0.00000000000E+00 0. -1.
          2   -1    0    0  501    0  0.00000000000E+00 -0.00000000000E+00 -0.28640468549E+04  0.28640468549E+04  0.00000000000E+00 0. -1.
         35    2    1    2    0    0 -0.71054273576E-14 -0.35527136788E-14 -0.28574429191E+04  0.28706507908E+04  0.27505622459E+03 0.  0.
         25    2    3    3    0    0  0.56557344307E+02  0.10313968430E+02 -0.15498233637E+04  0.15559298211E+04  0.12514007415E+03 0.  0.
         25    2    3    3    0    0 -0.56557344307E+02 -0.10313968430E+02 -0.13076195553E+04  0.13147209697E+04  0.12376273871E+03 0.  0.
          5    1    4    4  502    0  0.64224962050E+02  0.56115310802E+02 -0.11951349021E+04  0.11981833324E+04  0.47000000000E+01 0.  1.
         -5    1    4    4    0  502 -0.76676177429E+01 -0.45801342372E+02 -0.35468846167E+03  0.35774648868E+03  0.47000000000E+01 0.  1.
          5    1    5    5  503    0 -0.60421002061E+02 -0.69892111406E+01 -0.13062249048E+04  0.13076487061E+04  0.47000000000E+01 0.  1.
         -5    1    5    5    0  503  0.38636577537E+01 -0.33247572892E+01 -0.13946505109E+01  0.70722635922E+01  0.47000000000E+01 0.  1.
<mgrwt>
<rscale>  0 0.27505622E+03</rscale>
<asrwt>0</asrwt>
<pdfrwt beam="1">  1        2 0.44062285E+00 0.27505622E+03</pdfrwt>
<pdfrwt beam="2">  1       -2 0.10159895E-02 0.27505622E+03</pdfrwt>
<totfact> 0.52145896E+03</totfact>
</mgrwt>
</event>
<event>
 9    1  0.7957670E-001  0.2721842E+03  0.7818608E-02  0.1100036E+00
          2   -1    0    0  501    0  0.00000000000E+00  0.00000000000E+00  0.10647616677E+04  0.10647616677E+04  0.00000000000E+00 0. -1.
         -2   -1    0    0    0  501 -0.00000000000E+00 -0.00000000000E+00 -0.17394563599E+02  0.17394563599E+02  0.00000000000E+00 0. -1.
         35    2    1    2    0    0  0.00000000000E+00  0.17763568394E-14  0.10473671041E+04  0.10821562313E+04  0.27218423575E+03 0.  0.
         25    2    3    3    0    0  0.57882263894E+02 -0.44002518705E+00  0.52021751631E+03  0.53728897070E+03  0.12125437586E+03 0.  0.
         25    2    3    3    0    0 -0.57882263894E+02  0.44002518705E+00  0.52714958784E+03  0.54486726065E+03  0.12507235374E+03 0.  0.
          5    1    4    4  502    0  0.36827762356E+02  0.14217198108E+02  0.40111537942E+02  0.56475112025E+02  0.47000000000E+01 0. -1.
         -5    1    4    4    0  502  0.21054501539E+02 -0.14657223295E+02  0.48010597837E+03  0.48081385867E+03  0.47000000000E+01 0. -1.
          5    1    5    5  503    0 -0.13109864188E+02 -0.16641305742E+02  0.46842094732E+03  0.46892331514E+03  0.47000000000E+01 0. -1.
         -5    1    5    5    0  503 -0.44772399707E+02  0.17081330929E+02  0.58728640522E+02  0.75943945508E+02  0.47000000000E+01 0. -1.
<mgrwt>
<rscale>  0 0.27218424E+03</rscale>
<asrwt>0</asrwt>
<pdfrwt beam="1">  1        2 0.16380944E+00 0.27218424E+03</pdfrwt>
<pdfrwt beam="2">  1       -2 0.26760876E-02 0.27218424E+03</pdfrwt>
<totfact> 0.12012247E+04</totfact>
</mgrwt>
</event>
<event>
 9    1  0.7957670E-001  0.2750674E+03  0.7818608E-02  0.1098414E+00
          2   -1    0    0  501    0  0.00000000000E+00  0.00000000000E+00  0.14844778568E+03  0.14844778568E+03  0.00000000000E+00 0.  1.
         -2   -1    0    0    0  501 -0.00000000000E+00 -0.00000000000E+00 -0.12742207346E+03  0.12742207346E+03  0.00000000000E+00 0.  1.
         35    2    1    2    0    0 -0.35527136788E-14  0.00000000000E+00  0.21025712220E+02  0.27586985914E+03  0.27506744375E+03 0.  0.
         25    2    3    3    0    0 -0.28750876721E+02 -0.45804579557E+02 -0.11464003846E+02  0.13629304365E+03  0.12457807970E+03 0.  0.
         25    2    3    3    0    0  0.28750876721E+02  0.45804579557E+02  0.32489716066E+02  0.13957681549E+03  0.12450475233E+03 0.  0.
          5    1    4    4  502    0  0.27691584534E+00  0.42471133407E+02 -0.50277516420E+01  0.43026063517E+02  0.47000000000E+01 0.  1.
         -5    1    4    4    0  502 -0.29027792567E+02 -0.88275712963E+02 -0.64362522037E+01  0.93266980132E+02  0.47000000000E+01 0.  1.
          5    1    5    5  503    0  0.33553935221E+02  0.29280437406E+02 -0.42955030199E+02  0.62051875096E+02  0.47000000000E+01 0. -1.
         -5    1    5    5    0  503 -0.48030585003E+01  0.16524142151E+02  0.75444746265E+02  0.77524940398E+02  0.47000000000E+01 0. -1.
<mgrwt>
<rscale>  0 0.27506744E+03</rscale>
<asrwt>0</asrwt>
<pdfrwt beam="1">  1        2 0.22838121E-01 0.27506744E+03</pdfrwt>
<pdfrwt beam="2">  1       -2 0.19603396E-01 0.27506744E+03</pdfrwt>
<totfact> 0.51509898E+03</totfact>
</mgrwt>
</event>
<event>
 9    1  0.7957670E-001  0.2717910E+03  0.7818608E-02  0.1100259E+00
         -2   -1    0    0    0  501 -0.00000000000E+00  0.00000000000E+00  0.21187821749E+02  0.21187821749E+02  0.00000000000E+00 0.  1.
          2   -1    0    0  501    0  0.00000000000E+00 -0.00000000000E+00 -0.87161326942E+03  0.87161326942E+03  0.00000000000E+00 0.  1.
         35    2    1    2    0    0  0.35527136788E-14  0.00000000000E+00 -0.85042544767E+03  0.89280109117E+03  0.27179099754E+03 0.  0.
         25    2    3    3    0    0 -0.28547157137E+02  0.25054875891E+02 -0.33642826154E+03  0.36252268305E+03  0.12959951227E+03 0.  0.
         25    2    3    3    0    0  0.28547157137E+02 -0.25054875891E+02 -0.51399718614E+03  0.53027840812E+03  0.12473730706E+03 0.  0.
          5    1    4    4  502    0 -0.54644717213E+02  0.52416672475E+02 -0.11453921935E+03  0.13738586333E+03  0.47000000000E+01 0.  1.
         -5    1    4    4    0  502  0.26097560077E+02 -0.27361796583E+02 -0.22188904218E+03  0.22513681972E+03  0.47000000000E+01 0.  1.
          5    1    5    5  503    0 -0.90349523174E+01 -0.50488391634E+02 -0.44235437381E+03  0.44534277818E+03  0.47000000000E+01 0. -1.
         -5    1    5    5    0  503  0.37582109454E+02  0.25433515743E+02 -0.71642812329E+02  0.84935629935E+02  0.47000000000E+01 0. -1.
<mgrwt>
<rscale>  0 0.27179100E+03</rscale>
<asrwt>0</asrwt>
<pdfrwt beam="1">  1        2 0.13409435E+00 0.27179100E+03</pdfrwt>
<pdfrwt beam="2">  1       -2 0.32596648E-02 0.27179100E+03</pdfrwt>
<totfact> 0.11819257E+04</totfact>
</mgrwt>
</event>
<event>
 9    1  0.7957670E-001  0.2735165E+03  0.7818608E-02  0.1099284E+00
          3   -1    0    0  501    0  0.00000000000E+00  0.00000000000E+00  0.13165475604E+03  0.13165475604E+03  0.00000000000E+00 0. -1.
         -3   -1    0    0    0  501 -0.00000000000E+00 -0.00000000000E+00 -0.14205954289E+03  0.14205954289E+03  0.00000000000E+00 0. -1.
         35    2    1    2    0    0  0.00000000000E+00  0.00000000000E+00 -0.10404786845E+02  0.27371429893E+03  0.27351646724E+03 0.  0.
         25    2    3    3    0    0  0.12042350806E+02 -0.50901007099E+02 -0.25114125421E+02  0.13788304667E+03  0.12508031231E+03 0.  0.
         25    2    3    3    0    0 -0.12042350806E+02  0.50901007099E+02  0.14709338576E+02  0.13583125226E+03  0.12449029565E+03 0.  0.
          5    1    4    4  502    0 -0.13118151901E+02  0.38109859237E+02 -0.19700512767E+02  0.45107066893E+02  0.47000000000E+01 0. -1.
         -5    1    4    4    0  502  0.25160502707E+02 -0.89010866336E+02 -0.54136126545E+01  0.92775979782E+02  0.47000000000E+01 0. -1.
          5    1    5    5  503    0  0.36727129622E+02 -0.51190806081E+00 -0.33548267985E+02  0.49967193086E+02  0.47000000000E+01 0. -1.
         -5    1    5    5    0  503 -0.48769480429E+02  0.51412915160E+02  0.48257606561E+02  0.85864059172E+02  0.47000000000E+01 0. -1.
<mgrwt>
<rscale>  0 0.27351647E+03</rscale>
<asrwt>0</asrwt>
<pdfrwt beam="1">  1        3 0.20254578E-01 0.27351647E+03</pdfrwt>
<pdfrwt beam="2">  1       -3 0.21855314E-01 0.27351647E+03</pdfrwt>
<totfact> 0.10684567E+03</totfact>
</mgrwt>
</event>
<event>
 9    1  0.7957670E-001  0.2731248E+03  0.7818608E-02  0.1099504E+00
         -3   -1    0    0    0  501 -0.00000000000E+00  0.00000000000E+00  0.74759231762E+03  0.74759231762E+03  0.00000000000E+00 0. -1.
          3   -1    0    0  501    0  0.00000000000E+00 -0.00000000000E+00 -0.24945802868E+02  0.24945802868E+02  0.00000000000E+00 0. -1.
         35    2    1    2    0    0 -0.35527136788E-14 -0.10658141036E-13  0.72264651475E+03  0.77253812049E+03  0.27312481089E+03 0.  0.
         25    2    3    3    0    0 -0.27261573395E+02 -0.27991334757E+02  0.25931426076E+03  0.29105852221E+03  0.12627141130E+03 0.  0.
         25    2    3    3    0    0  0.27261573395E+02  0.27991334757E+02  0.46333225399E+03  0.48147959828E+03  0.12497646883E+03 0.  0.
          5    1    4    4  502    0 -0.24706128207E+02 -0.62737899133E+02  0.24314052828E+03  0.25236054218E+03  0.47000000000E+01 0. -1.
         -5    1    4    4    0  502 -0.25554451882E+01  0.34746564376E+02  0.16173732486E+02  0.38697980033E+02  0.47000000000E+01 0. -1.
          5    1    5    5  503    0  0.74397025952E+02  0.26389347648E+02  0.34630055368E+03  0.35521469370E+03  0.47000000000E+01 0.  1.
         -5    1    5    5    0  503 -0.47135452557E+02  0.16019871092E+01  0.11703170031E+03  0.12626490457E+03  0.47000000000E+01 0.  1.
<mgrwt>
<rscale>  0 0.27312481E+03</rscale>
<asrwt>0</asrwt>
<pdfrwt beam="1">  1        3 0.38378164E-02 0.27312481E+03</pdfrwt>
<pdfrwt beam="2">  1       -3 0.11501419E+00 0.27312481E+03</pdfrwt>
<totfact> 0.57421198E+02</totfact>
</mgrwt>
</event>
<event>
 9    1  0.7957670E-001  0.2704872E+03  0.7818608E-02  0.1101001E+00
          2   -1    0    0  501    0  0.00000000000E+00  0.00000000000E+00  0.22275577762E+04  0.22275577762E+04  0.00000000000E+00 0.  1.
         -2   -1    0    0    0  501 -0.00000000000E+00 -0.00000000000E+00 -0.82111585975E+01  0.82111585975E+01  0.00000000000E+00 0.  1.
         35    2    1    2    0    0 -0.88817841970E-15 -0.14210854715E-13  0.22193466176E+04  0.22357689348E+04  0.27048719146E+03 0.  0.
         25    2    3    3    0    0 -0.16784844923E+01  0.50359624228E+02  0.10151169447E+04  0.10239886505E+04  0.12470539655E+03 0.  0.
         25    2    3    3    0    0  0.16784844923E+01 -0.50359624228E+02  0.12042296729E+04  0.12117802843E+04  0.12531337991E+03 0.  0.
          5    1    4    4  502    0 -0.18975025469E+02  0.85535376983E+02  0.52472295913E+03  0.53200810721E+03  0.47000000000E+01 0. -1.
         -5    1    4    4    0  502  0.17296540977E+02 -0.35175752756E+02  0.49039398556E+03  0.49198054330E+03  0.47000000000E+01 0. -1.
          5    1    5    5  503    0  0.61895513932E+01  0.30794460630E+02  0.10910973399E+03  0.11363816878E+03  0.47000000000E+01 0. -1.
         -5    1    5    5    0  503 -0.45110669009E+01 -0.81154084858E+02  0.10951199389E+04  0.10981421155E+04  0.47000000000E+01 0. -1.
<mgrwt>
<rscale>  0 0.27048719E+03</rscale>
<asrwt>0</asrwt>
<pdfrwt beam="1">  1        2 0.34270072E+00 0.27048719E+03</pdfrwt>
<pdfrwt beam="2">  1       -2 0.12632569E-02 0.27048719E+03</pdfrwt>
<totfact> 0.85368439E+03</totfact>
</mgrwt>
</event>
<event>
 9    1  0.7957670E-001  0.2751233E+03  0.7818608E-02  0.1098383E+00
          2   -1    0    0  501    0  0.00000000000E+00  0.00000000000E+00  0.37131727697E+04  0.37131727697E+04  0.00000000000E+00 0. -1.
         -2   -1    0    0    0  501 -0.00000000000E+00 -0.00000000000E+00 -0.50962353022E+01  0.50962353022E+01  0.00000000000E+00 0. -1.
         35    2    1    2    0    0  0.00000000000E+00 -0.71054273576E-14  0.37080765344E+04  0.37182690050E+04  0.27512326076E+03 0.  0.
         25    2    3    3    0    0 -0.30436496247E+02  0.28057563288E+02  0.25266685847E+04  0.25301236699E+04  0.12553103605E+03 0.  0.
         25    2    3    3    0    0  0.30436496247E+02 -0.28057563288E+02  0.11814079497E+04  0.11881453351E+04  0.11937749583E+03 0.  0.
          5    1    4    4  502    0  0.33751643867E+01  0.73111083012E+02  0.11874063850E+04  0.11896691285E+04  0.47000000000E+01 0. -1.
         -5    1    4    4    0  502 -0.33811660634E+02 -0.45053519724E+02  0.13392621997E+04  0.13404545414E+04  0.47000000000E+01 0. -1.
          5    1    5    5  503    0 -0.30824018922E+02 -0.51741799933E+02  0.54251409728E+03  0.54586717226E+03  0.47000000000E+01 0. -1.
         -5    1    5    5    0  503  0.61260515169E+02  0.23684236645E+02  0.63889385243E+03  0.64227816284E+03  0.47000000000E+01 0. -1.
<mgrwt>
<rscale>  0 0.27512326E+03</rscale>
<asrwt>0</asrwt>
<pdfrwt beam="1">  1        2 0.57125519E+00 0.27512326E+03</pdfrwt>
<pdfrwt beam="2">  1       -2 0.78403917E-03 0.27512326E+03</pdfrwt>
<totfact> 0.22024069E+03</totfact>
</mgrwt>
</event>
<event>
 9    1  0.7957670E-001  0.2679391E+03  0.7818608E-02  0.1102465E+00
          4   -1    0    0  501    0  0.00000000000E+00  0.00000000000E+00  0.22539689818E+03  0.22539689818E+03  0.00000000000E+00 0. -1.
         -4   -1    0    0    0  501 -0.00000000000E+00 -0.00000000000E+00 -0.79627732960E+02  0.79627732960E+02  0.00000000000E+00 0. -1.
         35    2    1    2    0    0  0.17763568394E-14  0.00000000000E+00  0.14576916522E+03  0.30502463114E+03  0.26793912755E+03 0.  0.
         25    2    3    3    0    0  0.10658250966E+02 -0.46803082258E+02  0.76492332565E+02  0.15429877711E+03  0.12511158561E+03 0.  0.
         25    2    3    3    0    0 -0.10658250966E+02  0.46803082258E+02  0.69276832660E+02  0.15072585403E+03  0.12495950027E+03 0.  0.
          5    1    4    4  502    0 -0.24979655207E+02 -0.77418206937E+02  0.26865327251E+02  0.85798588263E+02  0.47000000000E+01 0.  1.
         -5    1    4    4    0  502  0.35637906173E+02  0.30615124679E+02  0.49627005314E+02  0.68500188846E+02  0.47000000000E+01 0.  1.
          5    1    5    5  503    0  0.36994594855E+01 -0.42155536093E+02  0.13592946685E+02  0.44694892587E+02  0.47000000000E+01 0.  1.
         -5    1    5    5    0  503 -0.14357710451E+02  0.88958618351E+02  0.55683885975E+02  0.10603096145E+03  0.47000000000E+01 0.  1.
<mgrwt>
<rscale>  0 0.26793913E+03</rscale>
<asrwt>0</asrwt>
<pdfrwt beam="1">  1        4 0.34676446E-01 0.26793913E+03</pdfrwt>
<pdfrwt beam="2">  1       -4 0.12250421E-01 0.26793913E+03</pdfrwt>
<totfact> 0.80652541E+02</totfact>
</mgrwt>
</event>
<event>
 9    1  0.7957670E-001  0.2802996E+03  0.7818608E-02  0.1095525E+00
          2   -1    0    0  501    0  0.00000000000E+00  0.00000000000E+00  0.19388861346E+03  0.19388861346E+03  0.00000000000E+00 0. -1.
         -2   -1    0    0    0  501 -0.00000000000E+00 -0.00000000000E+00 -0.10130542552E+03  0.10130542552E+03  0.00000000000E+00 0. -1.
         35    2    1    2    0    0  0.14210854715E-13  0.00000000000E+00  0.92583187940E+02  0.29519403897E+03  0.28029961462E+03 0.  0.
         25    2    3    3    0    0  0.28346770665E+02 -0.53374580836E+02  0.26299953682E+02  0.14149846109E+03  0.12521078883E+03 0.  0.
         25    2    3    3    0    0 -0.28346770665E+02  0.53374580836E+02  0.66283234258E+02  0.15369557789E+03  0.12480576202E+03 0.  0.
          5    1    4    4  502    0 -0.46677177419E+02 -0.13245104121E+02 -0.84487171589E+01  0.49473856698E+02  0.47000000000E+01 0. -1.
         -5    1    4    4    0  502  0.75023948083E+02 -0.40129476715E+02  0.34748670841E+02  0.92024604387E+02  0.47000000000E+01 0. -1.
          5    1    5    5  503    0 -0.51352198993E+02 -0.23614870234E+02  0.38480289582E+02  0.68538552099E+02  0.47000000000E+01 0.  1.
         -5    1    5    5    0  503  0.23005428328E+02  0.76989451070E+02  0.27802944676E+02  0.85157025789E+02  0.47000000000E+01 0.  1.
<mgrwt>
<rscale>  0 0.28029961E+03</rscale>
<asrwt>0</asrwt>
<pdfrwt beam="1">  1        2 0.29829017E-01 0.28029961E+03</pdfrwt>
<pdfrwt beam="2">  1       -2 0.15585450E-01 0.28029961E+03</pdfrwt>
<totfact> 0.56318360E+03</totfact>
</mgrwt>
</event>
<event>
 9    1  0.7957670E-001  0.2739668E+03  0.7818608E-02  0.1099031E+00
         -2   -1    0    0    0  501 -0.00000000000E+00  0.00000000000E+00  0.36026386505E+02  0.36026386505E+02  0.00000000000E+00 0. -1.
          2   -1    0    0  501    0  0.00000000000E+00 -0.00000000000E+00 -0.52085294606E+03  0.52085294606E+03  0.00000000000E+00 0. -1.
         35    2    1    2    0    0 -0.71054273576E-14  0.00000000000E+00 -0.48482655955E+03  0.55687933256E+03  0.27396678300E+03 0.  0.
         25    2    3    3    0    0  0.40560855602E+02  0.54413132632E+01 -0.31926684961E+03  0.34507180533E+03  0.12437217806E+03 0.  0.
         25    2    3    3    0    0 -0.40560855602E+02 -0.54413132632E+01 -0.16555970994E+03  0.21180752724E+03  0.12560899705E+03 0.  0.
          5    1    4    4  502    0  0.31642831397E+02 -0.11645375949E+02 -0.32308104599E+03  0.32486972133E+03  0.47000000000E+01 0.  1.
         -5    1    4    4    0  502  0.89180242045E+01  0.17086689212E+02  0.38141963763E+01  0.20202084000E+02  0.47000000000E+01 0.  1.
          5    1    5    5  503    0  0.71149218760E+01 -0.21050099807E+02  0.13072643433E+02  0.26205206000E+02  0.47000000000E+01 0. -1.
         -5    1    5    5    0  503 -0.47675777478E+02  0.15608786544E+02 -0.17863235338E+03  0.18560232124E+03  0.47000000000E+01 0. -1.
<mgrwt>
<rscale>  0 0.27396678E+03</rscale>
<asrwt>0</asrwt>
<pdfrwt beam="1">  1        2 0.80131219E-01 0.27396678E+03</pdfrwt>
<pdfrwt beam="2">  1       -2 0.55425212E-02 0.27396678E+03</pdfrwt>
<totfact> 0.98804693E+03</totfact>
</mgrwt>
</event>
<event>
 9    1  0.7957670E-001  0.2679105E+03  0.7818608E-02  0.1102481E+00
         -2   -1    0    0    0  501 -0.00000000000E+00  0.00000000000E+00  0.15694239271E+03  0.15694239271E+03  0.00000000000E+00 0. -1.
          2   -1    0    0  501    0  0.00000000000E+00 -0.00000000000E+00 -0.11433498740E+03  0.11433498740E+03  0.00000000000E+00 0. -1.
         35    2    1    2    0    0 -0.17763568394E-14  0.35527136788E-14  0.42607405308E+02  0.27127738011E+03  0.26791048126E+03 0.  0.
         25    2    3    3    0    0  0.73284298649E+00  0.15320130492E+02 -0.25144560314E+02  0.12809770563E+03  0.12466567216E+03 0.  0.
         25    2    3    3    0    0 -0.73284298649E+00 -0.15320130492E+02  0.67751965622E+02  0.14317967448E+03  0.12519922876E+03 0.  0.
          5    1    4    4  502    0 -0.43873033549E+02  0.13987115002E+02 -0.56734038394E+02  0.73221059617E+02  0.47000000000E+01 0.  1.
         -5    1    4    4    0  502  0.44605876536E+02  0.13330154893E+01  0.31589478080E+02  0.54876646009E+02  0.47000000000E+01 0.  1.
          5    1    5    5  503    0 -0.13154459799E+02  0.38063895759E+02  0.77354349740E+02  0.87336621166E+02  0.47000000000E+01 0.  1.
         -5    1    5    5    0  503  0.12421616813E+02 -0.53384026250E+02 -0.96023841178E+01  0.55843053316E+02  0.47000000000E+01 0.  1.
<mgrwt>
<rscale>  0 0.26791048E+03</rscale>
<asrwt>0</asrwt>
<pdfrwt beam="1">  1        2 0.17589998E-01 0.26791048E+03</pdfrwt>
<pdfrwt beam="2">  1       -2 0.24144983E-01 0.26791048E+03</pdfrwt>
<totfact> 0.48390250E+03</totfact>
</mgrwt>
</event>
<event>
 9    1  0.7957670E-001  0.2757935E+03  0.7818608E-02  0.1098009E+00
          2   -1    0    0  501    0  0.00000000000E+00  0.00000000000E+00  0.25926235315E+03  0.25926235315E+03  0.00000000000E+00 0. -1.
         -2   -1    0    0    0  501 -0.00000000000E+00 -0.00000000000E+00 -0.73344670581E+02  0.73344670581E+02  0.00000000000E+00 0. -1.
         35    2    1    2    0    0  0.00000000000E+00  0.00000000000E+00  0.18591768257E+03  0.33260702374E+03  0.27579348713E+03 0.  0.
         25    2    3    3    0    0 -0.58785742538E+02  0.11239029823E+02  0.85223313173E+02  0.16154316567E+03  0.12349535194E+03 0.  0.
         25    2    3    3    0    0  0.58785742538E+02 -0.11239029823E+02  0.10069436940E+03  0.17106385806E+03  0.12466518435E+03 0.  0.
          5    1    4    4  502    0 -0.18083620773E+02 -0.34997931469E+02  0.91220221113E+02  0.99474073443E+02  0.47000000000E+01 0.  1.
         -5    1    4    4    0  502 -0.40702121765E+02  0.46236961292E+02 -0.59969079405E+01  0.62069092232E+02  0.47000000000E+01 0.  1.
          5    1    5    5  503    0  0.44780972866E+01 -0.14437354264E+02  0.11381065972E+03  0.11490625231E+03  0.47000000000E+01 0.  1.
         -5    1    5    5    0  503  0.54307645251E+02  0.31983244404E+01 -0.13116290321E+02  0.56157605751E+02  0.47000000000E+01 0.  1.
<mgrwt>
<rscale>  0 0.27579349E+03</rscale>
<asrwt>0</asrwt>
<pdfrwt beam="1">  1        2 0.39886516E-01 0.27579349E+03</pdfrwt>
<pdfrwt beam="2">  1       -2 0.11283796E-01 0.27579349E+03</pdfrwt>
<totfact> 0.69504495E+03</totfact>
</mgrwt>
</event>
<event>
 9    1  0.7957670E-001  0.2746046E+03  0.7818608E-02  0.1098673E+00
         -1   -1    0    0    0  501 -0.00000000000E+00  0.00000000000E+00  0.38546342264E+03  0.38546342264E+03  0.00000000000E+00 0.  1.
          1   -1    0    0  501    0  0.00000000000E+00 -0.00000000000E+00 -0.48907158865E+02  0.48907158865E+02  0.00000000000E+00 0.  1.
         35    2    1    2    0    0 -0.35527136788E-14  0.00000000000E+00  0.33655626378E+03  0.43437058151E+03  0.27460459463E+03 0.  0.
         25    2    3    3    0    0  0.77775063554E+01 -0.43023032097E+02  0.10780455282E+03  0.17026182069E+03  0.12432133799E+03 0.  0.
         25    2    3    3    0    0 -0.77775063554E+01  0.43023032097E+02  0.22875171096E+03  0.26410876082E+03  0.12455770302E+03 0.  0.
          5    1    4    4  502    0  0.56039299742E+02 -0.28453780487E+02  0.15374738798E+02  0.64872901374E+02  0.47000000000E+01 0. -1.
         -5    1    4    4    0  502 -0.48261793387E+02 -0.14569251610E+02  0.92429814025E+02  0.10538891931E+03  0.47000000000E+01 0. -1.
          5    1    5    5  503    0 -0.19896742041E+02  0.13534660627E+02  0.23053315442E+03  0.23183332951E+03  0.47000000000E+01 0. -1.
         -5    1    5    5    0  503  0.12119235686E+02  0.29488371470E+02 -0.17814434682E+01  0.32275431312E+02  0.47000000000E+01 0. -1.
<mgrwt>
<rscale>  0 0.27460459E+03</rscale>
<asrwt>0</asrwt>
<pdfrwt beam="1">  1        1 0.75241785E-02 0.27460459E+03</pdfrwt>
<pdfrwt beam="2">  1       -1 0.59302063E-01 0.27460459E+03</pdfrwt>
<totfact> 0.28026853E+03</totfact>
</mgrwt>
</event>
<event>
 9    1  0.7957670E-001  0.2719387E+03  0.7818608E-02  0.1100175E+00
         -1   -1    0    0    0  501 -0.00000000000E+00  0.00000000000E+00  0.67872378886E+03  0.67872378886E+03  0.00000000000E+00 0. -1.
          1   -1    0    0  501    0  0.00000000000E+00 -0.00000000000E+00 -0.27238858596E+02  0.27238858596E+02  0.00000000000E+00 0. -1.
         35    2    1    2    0    0  0.00000000000E+00 -0.71054273576E-14  0.65148493026E+03  0.70596264746E+03  0.27193867919E+03 0.  0.
         25    2    3    3    0    0 -0.15331893633E+00 -0.44934104739E+02  0.40404482040E+03  0.42513118455E+03  0.12435919712E+03 0.  0.
         25    2    3    3    0    0  0.15331893633E+00  0.44934104739E+02  0.24744010986E+03  0.28083146291E+03  0.12498242002E+03 0.  0.
          5    1    4    4  502    0 -0.22629211198E+02  0.36650649692E+02  0.90572816191E+02  0.10040356744E+03  0.47000000000E+01 0.  1.
         -5    1    4    4    0  502  0.22475892262E+02 -0.81584754431E+02  0.31347200421E+03  0.32472761711E+03  0.47000000000E+01 0.  1.
          5    1    5    5  503    0  0.45924745070E+02 -0.26976417953E+01  0.34122074777E+02  0.57469691735E+02  0.47000000000E+01 0.  1.
         -5    1    5    5    0  503 -0.45771426134E+02  0.47631746535E+02  0.21331803509E+03  0.22336177117E+03  0.47000000000E+01 0.  1.
<mgrwt>
<rscale>  0 0.27193868E+03</rscale>
<asrwt>0</asrwt>
<pdfrwt beam="1">  1        1 0.41905941E-02 0.27193868E+03</pdfrwt>
<pdfrwt beam="2">  1       -1 0.10441903E+00 0.27193868E+03</pdfrwt>
<totfact> 0.19449376E+03</totfact>
</mgrwt>
</event>
<event>
 9    1  0.7957670E-001  0.2759468E+03  0.7818608E-02  0.1097924E+00
         -3   -1    0    0    0  501 -0.00000000000E+00  0.00000000000E+00  0.40286424582E+03  0.40286424582E+03  0.00000000000E+00 0. -1.
          3   -1    0    0  501    0  0.00000000000E+00 -0.00000000000E+00 -0.47253275512E+02  0.47253275512E+02  0.00000000000E+00 0. -1.
         35    2    1    2    0    0  0.71054273576E-14  0.00000000000E+00  0.35561097030E+03  0.45011752133E+03  0.27594677169E+03 0.  0.
         25    2    3    3    0    0 -0.25599231918E+02 -0.42804617037E+02  0.12732153380E+03  0.18509674561E+03  0.12474965471E+03 0.  0.
         25    2    3    3    0    0  0.25599231918E+02  0.42804617037E+02  0.22828943650E+03  0.26502077572E+03  0.12502955183E+03 0.  0.
          5    1    4    4  502    0  0.70380798277E+01  0.35256990329E+02  0.80483159987E+02  0.88273546299E+02  0.47000000000E+01 0.  1.
         -5    1    4    4    0  502 -0.32637311746E+02 -0.78061607367E+02  0.46838373813E+02  0.96823199307E+02  0.47000000000E+01 0.  1.
          5    1    5    5  503    0 -0.29271099992E+02  0.26742185274E+02  0.19426148700E+03  0.19832185230E+03  0.47000000000E+01 0.  1.
         -5    1    5    5    0  503  0.54870331910E+02  0.16062431764E+02  0.34027949504E+02  0.66698923421E+02  0.47000000000E+01 0.  1.
<mgrwt>
<rscale>  0 0.27594677E+03</rscale>
<asrwt>0</asrwt>
<pdfrwt beam="1">  1        3 0.72697349E-02 0.27594677E+03</pdfrwt>
<pdfrwt beam="2">  1       -3 0.61979113E-01 0.27594677E+03</pdfrwt>
<totfact> 0.81580316E+02</totfact>
</mgrwt>
</event>
<event>
 9    1  0.7957670E-001  0.2756797E+03  0.7818608E-02  0.1098072E+00
         -1   -1    0    0    0  501 -0.00000000000E+00  0.00000000000E+00  0.69524815129E+02  0.69524815129E+02  0.00000000000E+00 0. -1.
          1   -1    0    0  501    0  0.00000000000E+00 -0.00000000000E+00 -0.27328109409E+03  0.27328109409E+03  0.00000000000E+00 0. -1.
         35    2    1    2    0    0  0.00000000000E+00  0.00000000000E+00 -0.20375627896E+03  0.34280590922E+03  0.27567965137E+03 0.  0.
         25    2    3    3    0    0 -0.34869346971E+02 -0.46187629442E+02 -0.99721393552E+02  0.17045692760E+03  0.12554696078E+03 0.  0.
         25    2    3    3    0    0  0.34869346971E+02  0.46187629442E+02 -0.10403488541E+03  0.17234898162E+03  0.12462642422E+03 0.  0.
          5    1    4    4  502    0 -0.32603823378E+02 -0.76079891801E+02 -0.11059876441E+03  0.13822205296E+03  0.47000000000E+01 0. -1.
         -5    1    4    4    0  502 -0.22655235937E+01  0.29892262359E+02  0.10877370857E+02  0.32234874637E+02  0.47000000000E+01 0. -1.
          5    1    5    5  503    0  0.12221513300E+02  0.19567818989E+02 -0.12771751822E+03  0.12986962457E+03  0.47000000000E+01 0.  1.
         -5    1    5    5    0  503  0.22647833672E+02  0.26619810453E+02  0.23682632808E+02  0.42479357049E+02  0.47000000000E+01 0.  1.
<mgrwt>
<rscale>  0 0.27567965E+03</rscale>
<asrwt>0</asrwt>
<pdfrwt beam="1">  1        1 0.42043245E-01 0.27567965E+03</pdfrwt>
<pdfrwt beam="2">  1       -1 0.10696125E-01 0.27567965E+03</pdfrwt>
<totfact> 0.53771444E+03</totfact>
</mgrwt>
</event>
<event>
 9    1  0.7957670E-001  0.2731742E+03  0.7818608E-02  0.1099477E+00
          1   -1    0    0  501    0  0.00000000000E+00  0.00000000000E+00  0.21334589304E+04  0.21334589304E+04  0.00000000000E+00 0.  1.
         -1   -1    0    0    0  501 -0.00000000000E+00 -0.00000000000E+00 -0.87445049933E+01  0.87445049933E+01  0.00000000000E+00 0.  1.
         35    2    1    2    0    0  0.00000000000E+00  0.35527136788E-14  0.21247144254E+04  0.21422034353E+04  0.27317424673E+03 0.  0.
         25    2    3    3    0    0  0.34328738200E+02  0.31577841887E+02  0.10539370678E+04  0.10629526422E+04  0.13003597378E+03 0.  0.
         25    2    3    3    0    0 -0.34328738200E+02 -0.31577841887E+02  0.10707773576E+04  0.10792507931E+04  0.12665900091E+03 0.  0.
          5    1    4    4  502    0  0.26160356416E+02 -0.76953323986E+01  0.42528575899E+02  0.50738074033E+02  0.47000000000E+01 0.  1.
         -5    1    4    4    0  502  0.81683817844E+01  0.39273174286E+02  0.10114084919E+04  0.10122145682E+04  0.47000000000E+01 0.  1.
          5    1    5    5  503    0 -0.43899361061E+02  0.52167266716E+01  0.12452037035E+03  0.13221868541E+03  0.47000000000E+01 0. -1.
         -5    1    5    5    0  503  0.95706228607E+01 -0.36794568559E+02  0.94625698725E+03  0.94703210770E+03  0.47000000000E+01 0. -1.
<mgrwt>
<rscale>  0 0.27317425E+03</rscale>
<asrwt>0</asrwt>
<pdfrwt beam="1">  1        1 0.32822404E+00 0.27317425E+03</pdfrwt>
<pdfrwt beam="2">  1       -1 0.13453102E-02 0.27317425E+03</pdfrwt>
<totfact> 0.33783791E+03</totfact>
</mgrwt>
</event>
<event>
 9    1  0.7957670E-001  0.2742679E+03  0.7818608E-02  0.1098862E+00
          1   -1    0    0  501    0  0.00000000000E+00  0.00000000000E+00  0.12246815099E+03  0.12246815099E+03  0.00000000000E+00 0. -1.
         -1   -1    0    0    0  501 -0.00000000000E+00 -0.00000000000E+00 -0.15355600443E+03  0.15355600443E+03  0.00000000000E+00 0. -1.
         35    2    1    2    0    0  0.00000000000E+00  0.71054273576E-14 -0.31087853434E+02  0.27602415542E+03  0.27426789776E+03 0.  0.
         25    2    3    3    0    0 -0.25886886928E+02 -0.35786621279E+02  0.20335295040E+02  0.13527329774E+03  0.12623203904E+03 0.  0.
         25    2    3    3    0    0  0.25886886928E+02  0.35786621279E+02 -0.51423148474E+02  0.14075085768E+03  0.12335173514E+03 0.  0.
          5    1    4    4  502    0 -0.54670741510E+02 -0.28221541804E+02  0.59594830283E+02  0.85784492745E+02  0.47000000000E+01 0. -1.
         -5    1    4    4    0  502  0.28783854582E+02 -0.75650794742E+01 -0.39259535243E+02  0.49488804992E+02  0.47000000000E+01 0. -1.
          5    1    5    5  503    0 -0.11124638407E+02  0.54346702111E+02  0.19082309707E+02  0.58851900171E+02  0.47000000000E+01 0. -1.
         -5    1    5    5    0  503  0.37011525335E+02 -0.18560080832E+02 -0.70505458181E+02  0.81898957511E+02  0.47000000000E+01 0. -1.
<mgrwt>
<rscale>  0 0.27426790E+03</rscale>
<asrwt>0</asrwt>
<pdfrwt beam="1">  1        1 0.18841254E-01 0.27426790E+03</pdfrwt>
<pdfrwt beam="2">  1       -1 0.23624001E-01 0.27426790E+03</pdfrwt>
<totfact> 0.41993192E+03</totfact>
</mgrwt>
</event>
<event>
 9    1  0.7957670E-001  0.2752530E+03  0.7818608E-02  0.1098310E+00
         -4   -1    0    0    0  501 -0.00000000000E+00  0.00000000000E+00  0.17301116806E+03  0.17301116806E+03  0.00000000000E+00 0.  1.
          4   -1    0    0  501    0  0.00000000000E+00 -0.00000000000E+00 -0.10947876824E+03  0.10947876824E+03  0.00000000000E+00 0.  1.
         35    2    1    2    0    0  0.00000000000E+00 -0.71054273576E-14  0.63532399823E+02  0.28248993631E+03  0.27525297144E+03 0.  0.
         25    2    3    3    0    0 -0.13526864154E+02 -0.49235523519E+02  0.66625035277E+01  0.13501816402E+03  0.12481347216E+03 0.  0.
         25    2    3    3    0    0  0.13526864154E+02  0.49235523519E+02  0.56869896295E+02  0.14747177229E+03  0.12612147195E+03 0.  0.
          5    1    4    4  502    0 -0.32690348539E+02  0.30045790420E+02  0.25161299545E+02  0.51250262481E+02  0.47000000000E+01 0.  1.
         -5    1    4    4    0  502  0.19163484385E+02 -0.79281313940E+02 -0.18498796018E+02  0.83767901537E+02  0.47000000000E+01 0.  1.
          5    1    5    5  503    0 -0.29191659903E+02  0.98197855125E+01 -0.29732492098E+02  0.43066138459E+02  0.47000000000E+01 0.  1.
         -5    1    5    5    0  503  0.42718524057E+02  0.39415738007E+02  0.86602388392E+02  0.10440563383E+03  0.47000000000E+01 0.  1.
<mgrwt>
<rscale>  0 0.27525297E+03</rscale>
<asrwt>0</asrwt>
<pdfrwt beam="1">  1        4 0.16842887E-01 0.27525297E+03</pdfrwt>
<pdfrwt beam="2">  1       -4 0.26617103E-01 0.27525297E+03</pdfrwt>
<totfact> 0.76768933E+02</totfact>
</mgrwt>
</event>
<event>
 9    1  0.7957670E-001  0.2796622E+03  0.7818608E-02  0.1095874E+00
          2   -1    0    0  501    0  0.00000000000E+00  0.00000000000E+00  0.19669263604E+04  0.19669263604E+04  0.00000000000E+00 0. -1.
         -2   -1    0    0    0  501 -0.00000000000E+00 -0.00000000000E+00 -0.99407532232E+01  0.99407532232E+01  0.00000000000E+00 0. -1.
         35    2    1    2    0    0  0.00000000000E+00  0.00000000000E+00  0.19569856072E+04  0.19768671136E+04  0.27966215015E+03 0.  0.
         25    2    3    3    0    0 -0.12425498768E+02  0.46043168012E+02  0.66833602212E+03  0.68121317947E+03  0.12289829568E+03 0.  0.
         25    2    3    3    0    0  0.12425498768E+02 -0.46043168012E+02  0.12886495850E+04  0.12956539341E+04  0.12580539605E+03 0.  0.
          5    1    4    4  502    0 -0.33695738326E+02  0.46791808129E+02  0.65044997421E+03  0.65301771418E+03  0.47000000000E+01 0. -1.
         -5    1    4    4    0  502  0.21270239559E+02 -0.74864011659E+00  0.17886047911E+02  0.28195465288E+02  0.47000000000E+01 0. -1.
          5    1    5    5  503    0  0.71066242600E+01  0.18709432115E+02  0.37139469912E+02  0.42449701811E+02  0.47000000000E+01 0.  1.
         -5    1    5    5    0  503  0.53188745076E+01 -0.64752600127E+02  0.12515101151E+04  0.12532042323E+04  0.47000000000E+01 0.  1.
<mgrwt>
<rscale>  0 0.27966215E+03</rscale>
<asrwt>0</asrwt>
<pdfrwt beam="1">  1        2 0.30260375E+00 0.27966215E+03</pdfrwt>
<pdfrwt beam="2">  1       -2 0.15293482E-02 0.27966215E+03</pdfrwt>
<totfact> 0.88701161E+03</totfact>
</mgrwt>
</event>
<event>
 9    1  0.7957670E-001  0.2748769E+03  0.7818608E-02  0.1098520E+00
          3   -1    0    0  501    0  0.00000000000E+00  0.00000000000E+00  0.42714568769E+03  0.42714568769E+03  0.00000000000E+00 0.  1.
         -3   -1    0    0    0  501 -0.00000000000E+00 -0.00000000000E+00 -0.44222204116E+02  0.44222204116E+02  0.00000000000E+00 0.  1.
         35    2    1    2    0    0 -0.71054273576E-14  0.00000000000E+00  0.38292348358E+03  0.47136789181E+03  0.27487687272E+03 0.  0.
         25    2    3    3    0    0  0.52552180917E+02 -0.90397137153E+00  0.22875393972E+03  0.26618690258E+03  0.12555697226E+03 0.  0.
         25    2    3    3    0    0 -0.52552180917E+02  0.90397137153E+00  0.15416954385E+03  0.20518098923E+03  0.12477355972E+03 0.  0.
          5    1    4    4  502    0  0.53705928123E+02  0.89436758506E+01  0.21630717271E+02  0.58773242066E+02  0.47000000000E+01 0.  1.
         -5    1    4    4    0  502 -0.11537472060E+01 -0.98476472222E+01  0.20712322245E+03  0.20741366051E+03  0.47000000000E+01 0.  1.
          5    1    5    5  503    0 -0.80282129019E+02  0.29316186031E+02  0.13728387405E+03  0.16178260437E+03  0.47000000000E+01 0. -1.
         -5    1    5    5    0  503  0.27729948102E+02 -0.28412214660E+02  0.16885669803E+02  0.43398384858E+02  0.47000000000E+01 0. -1.
<mgrwt>
<rscale>  0 0.27487687E+03</rscale>
<asrwt>0</asrwt>
<pdfrwt beam="1">  1        3 0.65714718E-01 0.27487687E+03</pdfrwt>
<pdfrwt beam="2">  1       -3 0.68034163E-02 0.27487687E+03</pdfrwt>
<totfact> 0.80397978E+02</totfact>
</mgrwt>
</event>
<event>
 9    1  0.7957670E-001  0.2760693E+03  0.7818608E-02  0.1097855E+00
         -2   -1    0    0    0  501 -0.00000000000E+00  0.00000000000E+00  0.94023737674E+01  0.94023737674E+01  0.00000000000E+00 0.  1.
          2   -1    0    0  501    0  0.00000000000E+00 -0.00000000000E+00 -0.20264630351E+04  0.20264630351E+04  0.00000000000E+00 0.  1.
         35    2    1    2    0    0  0.00000000000E+00  0.71054273576E-14 -0.20170606614E+04  0.20358654089E+04  0.27606928755E+03 0.  0.
         25    2    3    3    0    0  0.20387424069E+01  0.56126187426E+02 -0.10378754024E+04  0.10470022095E+04  0.12599194574E+03 0.  0.
         25    2    3    3    0    0 -0.20387424069E+01 -0.56126187426E+02 -0.97918525899E+03  0.98886319943E+03  0.12606486577E+03 0.  0.
          5    1    4    4  502    0  0.43529310710E+02  0.21347889640E+02 -0.85081710917E+03  0.85221028891E+03  0.47000000000E+01 0. -1.
         -5    1    4    4    0  502 -0.41490568303E+02  0.34778297785E+02 -0.18705829323E+03  0.19479192057E+03  0.47000000000E+01 0. -1.
          5    1    5    5  503    0  0.39313973699E+02  0.10227828856E+02 -0.61461094588E+03  0.61596988710E+03  0.47000000000E+01 0. -1.
         -5    1    5    5    0  503 -0.41352716106E+02 -0.66354016282E+02 -0.36457431310E+03  0.37289331233E+03  0.47000000000E+01 0. -1.
<mgrwt>
<rscale>  0 0.27606929E+03</rscale>
<asrwt>0</asrwt>
<pdfrwt beam="1">  1        2 0.31176367E+00 0.27606929E+03</pdfrwt>
<pdfrwt beam="2">  1       -2 0.14465184E-02 0.27606929E+03</pdfrwt>
<totfact> 0.89521441E+03</totfact>
</mgrwt>
</event>
<event>
 9    1  0.7957670E-001  0.2740451E+03  0.7818608E-02  0.1098987E+00
         -2   -1    0    0    0  501 -0.00000000000E+00  0.00000000000E+00  0.40686300887E+02  0.40686300887E+02  0.00000000000E+00 0. -1.
          2   -1    0    0  501    0  0.00000000000E+00 -0.00000000000E+00 -0.46146207323E+03  0.46146207323E+03  0.00000000000E+00 0. -1.
         35    2    1    2    0    0  0.35527136788E-14  0.00000000000E+00 -0.42077577234E+03  0.50214837412E+03  0.27404514051E+03 0.  0.
         25    2    3    3    0    0  0.10139638522E+02 -0.17906123441E+02 -0.11403633421E+03  0.17019882963E+03  0.12465919365E+03 0.  0.
         25    2    3    3    0    0 -0.10139638522E+02  0.17906123441E+02 -0.30673943813E+03  0.33194954449E+03  0.12521172331E+03 0.  0.
          5    1    4    4  502    0 -0.31094874501E+02 -0.52829911696E+02 -0.25910434571E+02  0.66718298912E+02  0.47000000000E+01 0.  1.
         -5    1    4    4    0  502  0.41234513023E+02  0.34923788255E+02 -0.88125899637E+02  0.10348053072E+03  0.47000000000E+01 0.  1.
          5    1    5    5  503    0  0.34882648231E+01 -0.24977891224E+02 -0.27614450590E+03  0.27733362793E+03  0.47000000000E+01 0. -1.
         -5    1    5    5    0  503 -0.13627903346E+02  0.42884014665E+02 -0.30594932236E+02  0.54615916562E+02  0.47000000000E+01 0. -1.
<mgrwt>
<rscale>  0 0.27404514E+03</rscale>
<asrwt>0</asrwt>
<pdfrwt beam="1">  1        2 0.70994166E-01 0.27404514E+03</pdfrwt>
<pdfrwt beam="2">  1       -2 0.62594308E-02 0.27404514E+03</pdfrwt>
<totfact> 0.93856230E+03</totfact>
</mgrwt>
</event>
<event>
 9    1  0.7957670E-001  0.2694646E+03  0.7818608E-02  0.1101586E+00
          2   -1    0    0  501    0  0.00000000000E+00  0.00000000000E+00  0.18533024481E+03  0.18533024481E+03  0.00000000000E+00 0.  1.
         -2   -1    0    0    0  501 -0.00000000000E+00 -0.00000000000E+00 -0.97948330729E+02  0.97948330729E+02  0.00000000000E+00 0.  1.
         35    2    1    2    0    0  0.35527136788E-14 -0.35527136788E-14  0.87381914084E+02  0.28327857554E+03  0.26946456623E+03 0.  0.
         25    2    3    3    0    0  0.21048154392E+02  0.31413498968E+02  0.77506000845E+02  0.15166451746E+03  0.12476022190E+03 0.  0.
         25    2    3    3    0    0 -0.21048154392E+02 -0.31413498968E+02  0.98759132386E+01  0.13161405808E+03  0.12567773829E+03 0.  0.
          5    1    4    4  502    0  0.64412588932E+02  0.15470331731E+01  0.91424192666E+01  0.65246063135E+02  0.47000000000E+01 0.  1.
         -5    1    4    4    0  502 -0.43364434540E+02  0.29866465795E+02  0.68363581579E+02  0.86418454328E+02  0.47000000000E+01 0.  1.
          5    1    5    5  503    0  0.19689719293E+02  0.91016981111E+01 -0.46160912725E+02  0.51219584320E+02  0.47000000000E+01 0.  1.
         -5    1    5    5    0  503 -0.40737873685E+02 -0.40515197079E+02  0.56036825964E+02  0.80394473758E+02  0.47000000000E+01 0.  1.
<mgrwt>
<rscale>  0 0.26946457E+03</rscale>
<asrwt>0</asrwt>
<pdfrwt beam="1">  1        2 0.28512345E-01 0.26946457E+03</pdfrwt>
<pdfrwt beam="2">  1       -2 0.15068974E-01 0.26946457E+03</pdfrwt>
<totfact> 0.62493195E+03</totfact>
</mgrwt>
</event>
<event>
 9    1  0.7957670E-001  0.2705896E+03  0.7818608E-02  0.1100943E+00
          2   -1    0    0  501    0  0.00000000000E+00  0.00000000000E+00  0.15868403125E+03  0.15868403125E+03  0.00000000000E+00 0.  1.
         -2   -1    0    0    0  501 -0.00000000000E+00 -0.00000000000E+00 -0.11535300914E+03  0.11535300914E+03  0.00000000000E+00 0.  1.
         35    2    1    2    0    0 -0.35527136788E-14 -0.71054273576E-14  0.43331022106E+02  0.27403704039E+03  0.27058958226E+03 0.  0.
         25    2    3    3    0    0 -0.23135621220E+02 -0.38616036031E+02  0.57670244645E+02  0.14469225440E+03  0.12483403446E+03 0.  0.
         25    2    3    3    0    0  0.23135621220E+02  0.38616036031E+02 -0.14339222539E+02  0.12934478599E+03  0.12040766234E+03 0.  0.
          5    1    4    4  502    0 -0.18496746487E+02 -0.63490108963E+02  0.84573893166E+02  0.10746142085E+03  0.47000000000E+01 0.  1.
         -5    1    4    4    0  502 -0.46388747330E+01  0.24874072932E+02 -0.26903648521E+02  0.37230833549E+02  0.47000000000E+01 0.  1.
          5    1    5    5  503    0  0.52597736076E+02 -0.16386308584E+01 -0.46018930276E+02  0.70064533790E+02  0.47000000000E+01 0.  1.
         -5    1    5    5    0  503 -0.29462114856E+02  0.40254666889E+02  0.31679707737E+02  0.59280252197E+02  0.47000000000E+01 0.  1.
<mgrwt>
<rscale>  0 0.27058958E+03</rscale>
<asrwt>0</asrwt>
<pdfrwt beam="1">  1        2 0.24412928E-01 0.27058958E+03</pdfrwt>
<pdfrwt beam="2">  1       -2 0.17746617E-01 0.27058958E+03</pdfrwt>
<totfact> 0.56535971E+03</totfact>
</mgrwt>
</event>
<event>
 9    1  0.7957670E-001  0.2737210E+03  0.7818608E-02  0.1099169E+00
         -2   -1    0    0    0  501 -0.00000000000E+00  0.00000000000E+00  0.14891644964E+03  0.14891644964E+03  0.00000000000E+00 0. -1.
          2   -1    0    0  501    0  0.00000000000E+00 -0.00000000000E+00 -0.12578054043E+03  0.12578054043E+03  0.00000000000E+00 0. -1.
         35    2    1    2    0    0  0.00000000000E+00 -0.10658141036E-13  0.23135909207E+02  0.27469699007E+03  0.27372096387E+03 0.  0.
         25    2    3    3    0    0 -0.10916482704E+02 -0.29259188642E+02  0.57610582544E+02  0.14056083953E+03  0.12435071642E+03 0.  0.
         25    2    3    3    0    0  0.10916482704E+02  0.29259188642E+02 -0.34474673337E+02  0.13413615054E+03  0.12581229696E+03 0.  0.
          5    1    4    4  502    0  0.11156290261E+02 -0.74052528977E+02  0.19388359779E+02  0.77499924873E+02  0.47000000000E+01 0.  1.
         -5    1    4    4    0  502 -0.22072772965E+02  0.44793340335E+02  0.38222222764E+02  0.63060914660E+02  0.47000000000E+01 0.  1.
          5    1    5    5  503    0 -0.30319068661E+01  0.23935752226E+02  0.45998878216E+02  0.52154573059E+02  0.47000000000E+01 0.  1.
         -5    1    5    5    0  503  0.13948389570E+02  0.53234364160E+01 -0.80473551553E+02  0.81981577481E+02  0.47000000000E+01 0.  1.
<mgrwt>
<rscale>  0 0.27372096E+03</rscale>
<asrwt>0</asrwt>
<pdfrwt beam="1">  1        2 0.19350852E-01 0.27372096E+03</pdfrwt>
<pdfrwt beam="2">  1       -2 0.22910223E-01 0.27372096E+03</pdfrwt>
<totfact> 0.47538412E+03</totfact>
</mgrwt>
</event>
<event>
 9    1  0.7957670E-001  0.2990808E+03  0.7818608E-02  0.1085701E+00
         -2   -1    0    0    0  501 -0.00000000000E+00  0.00000000000E+00  0.11007724810E+03  0.11007724810E+03  0.00000000000E+00 0. -1.
          2   -1    0    0  501    0  0.00000000000E+00 -0.00000000000E+00 -0.20315125914E+03  0.20315125914E+03  0.00000000000E+00 0. -1.
         35    2    1    2    0    0 -0.14210854715E-13 -0.35527136788E-14 -0.93074011045E+02  0.31322850724E+03  0.29908080215E+03 0.  0.
         25    2    3    3    0    0 -0.59235276268E+02 -0.52214480761E+01  0.18067623727E+02  0.13987788698E+03  0.12531281964E+03 0.  0.
         25    2    3    3    0    0  0.59235276268E+02  0.52214480761E+01 -0.11114163477E+03  0.17335062025E+03  0.11900375241E+03 0.  0.
          5    1    4    4  502    0 -0.92928728358E+02  0.17462696130E+02 -0.11933410012E+01  0.94679503448E+02  0.47000000000E+01 0.  1.
         -5    1    4    4    0  502  0.33693452090E+02 -0.22684144206E+02  0.19260964729E+02  0.45198383537E+02  0.47000000000E+01 0.  1.
          5    1    5    5  503    0 -0.59547574933E+01 -0.10093681455E+02  0.21360730938E+02  0.24813552110E+02  0.47000000000E+01 0. -1.
         -5    1    5    5    0  503  0.65190033762E+02  0.15315129531E+02 -0.13250236571E+03  0.14853706814E+03  0.47000000000E+01 0. -1.
<mgrwt>
<rscale>  0 0.29908080E+03</rscale>
<asrwt>0</asrwt>
<pdfrwt beam="1">  1        2 0.31254040E-01 0.29908080E+03</pdfrwt>
<pdfrwt beam="2">  1       -2 0.16934961E-01 0.29908080E+03</pdfrwt>
<totfact> 0.46673874E+03</totfact>
</mgrwt>
</event>
<event>
 9    1  0.7957670E-001  0.2730931E+03  0.7818608E-02  0.1099522E+00
          1   -1    0    0  501    0  0.00000000000E+00  0.00000000000E+00  0.91070717880E+03  0.91070717880E+03  0.00000000000E+00 0.  1.
         -1   -1    0    0    0  501 -0.00000000000E+00 -0.00000000000E+00 -0.20473062459E+02  0.20473062459E+02  0.00000000000E+00 0.  1.
         35    2    1    2    0    0  0.00000000000E+00  0.71054273576E-14  0.89023411634E+03  0.93118024126E+03  0.27309313396E+03 0.  0.
         25    2    3    3    0    0  0.98408864511E+01 -0.35393580621E+02  0.60102666043E+03  0.61446479413E+03  0.12241073517E+03 0.  0.
         25    2    3    3    0    0 -0.98408864511E+01  0.35393580621E+02  0.28920745590E+03  0.31671544712E+03  0.12376660817E+03 0.  0.
          5    1    4    4  502    0  0.62587210523E+02 -0.25236260975E+02  0.23695957991E+03  0.24642637907E+03  0.47000000000E+01 0.  1.
         -5    1    4    4    0  502 -0.52746324071E+02 -0.10157319647E+02  0.36406708052E+03  0.36803841507E+03  0.47000000000E+01 0.  1.
          5    1    5    5  503    0  0.25666918859E+02  0.58829903429E+02  0.77563984537E+02  0.10078695331E+03  0.47000000000E+01 0.  1.
         -5    1    5    5    0  503 -0.35507805310E+02 -0.23436322808E+02  0.21164347137E+03  0.21592849381E+03  0.47000000000E+01 0.  1.
<mgrwt>
<rscale>  0 0.27309313E+03</rscale>
<asrwt>0</asrwt>
<pdfrwt beam="1">  1        1 0.14010877E+00 0.27309313E+03</pdfrwt>
<pdfrwt beam="2">  1       -1 0.31497026E-02 0.27309313E+03</pdfrwt>
<totfact> 0.65639293E+03</totfact>
</mgrwt>
</event>
<event>
 9    1  0.7957670E-001  0.2775631E+03  0.7818608E-02  0.1097027E+00
         -2   -1    0    0    0  501 -0.00000000000E+00  0.00000000000E+00  0.88747811388E+02  0.88747811388E+02  0.00000000000E+00 0.  1.
          2   -1    0    0  501    0  0.00000000000E+00 -0.00000000000E+00 -0.21702299092E+03  0.21702299092E+03  0.00000000000E+00 0.  1.
         35    2    1    2    0    0  0.00000000000E+00  0.71054273576E-14 -0.12827517953E+03  0.30577080230E+03  0.27756307726E+03 0.  0.
         25    2    3    3    0    0  0.36798235092E+02 -0.37029038560E+02 -0.30201520017E+02  0.13904713373E+03  0.12528652675E+03 0.  0.
         25    2    3    3    0    0 -0.36798235092E+02  0.37029038560E+02 -0.98073659510E+02  0.16672366857E+03  0.12431041456E+03 0.  0.
          5    1    4    4  502    0  0.13134305167E+02 -0.82700990957E+02 -0.14963478861E+02  0.85193659254E+02  0.47000000000E+01 0.  1.
         -5    1    4    4    0  502  0.23663929925E+02  0.45671952397E+02 -0.15238041157E+02  0.53853474480E+02  0.47000000000E+01 0.  1.
          5    1    5    5  503    0 -0.14362323949E+02 -0.21446599597E+02  0.19996269176E+02  0.32987478904E+02  0.47000000000E+01 0. -1.
         -5    1    5    5    0  503 -0.22435911143E+02  0.58475638157E+02 -0.11806992869E+03  0.13373618967E+03  0.47000000000E+01 0. -1.
<mgrwt>
<rscale>  0 0.27756308E+03</rscale>
<asrwt>0</asrwt>
<pdfrwt beam="1">  1        2 0.33388152E-01 0.27756308E+03</pdfrwt>
<pdfrwt beam="2">  1       -2 0.13653510E-01 0.27756308E+03</pdfrwt>
<totfact> 0.61895792E+03</totfact>
</mgrwt>
</event>
<event>
 9    1  0.7957670E-001  0.2711125E+03  0.7818608E-02  0.1100645E+00
         -2   -1    0    0    0  501 -0.00000000000E+00  0.00000000000E+00  0.53841781106E+01  0.53841781106E+01  0.00000000000E+00 0.  1.
          2   -1    0    0  501    0  0.00000000000E+00 -0.00000000000E+00 -0.34128696038E+04  0.34128696038E+04  0.00000000000E+00 0.  1.
         35    2    1    2    0    0 -0.71054273576E-14  0.00000000000E+00 -0.34074854257E+04  0.34182537819E+04  0.27111250665E+03 0.  0.
         25    2    3    3    0    0  0.48681140068E+02  0.86722167783E+01 -0.15401460771E+04  0.15460342639E+04  0.12540711889E+03 0.  0.
         25    2    3    3    0    0 -0.48681140068E+02 -0.86722167783E+01 -0.18673393486E+04  0.18722195181E+04  0.12571642793E+03 0.  0.
          5    1    4    4  502    0 -0.22014168757E+02  0.47923858960E+02 -0.52564551321E+03  0.52830541871E+03  0.47000000000E+01 0.  1.
         -5    1    4    4    0  502  0.70695308824E+02 -0.39251642182E+02 -0.10145005639E+04  0.10177288452E+04  0.47000000000E+01 0.  1.
          5    1    5    5  503    0  0.39026858446E+02  0.78402013888E+01 -0.35810397806E+03  0.36034027466E+03  0.47000000000E+01 0. -1.
         -5    1    5    5    0  503 -0.87707998513E+02 -0.16512418167E+02 -0.15092353705E+04  0.15118792434E+04  0.47000000000E+01 0. -1.
<mgrwt>
<rscale>  0 0.27111251E+03</rscale>
<asrwt>0</asrwt>
<pdfrwt beam="1">  1        2 0.52505732E+00 0.27111251E+03</pdfrwt>
<pdfrwt beam="2">  1       -2 0.82833437E-03 0.27111251E+03</pdfrwt>
<totfact> 0.32429197E+03</totfact>
</mgrwt>
</event>
<event>
 9    1  0.7957670E-001  0.2804723E+03  0.7818608E-02  0.1095431E+00
          3   -1    0    0  501    0  0.00000000000E+00  0.00000000000E+00  0.83006310053E+02  0.83006310053E+02  0.00000000000E+00 0. -1.
         -3   -1    0    0    0  501 -0.00000000000E+00 -0.00000000000E+00 -0.23692388958E+03  0.23692388958E+03  0.00000000000E+00 0. -1.
         35    2    1    2    0    0 -0.88817841970E-14  0.17763568394E-14 -0.15391757953E+03  0.31993019963E+03  0.28047230050E+03 0.  0.
         25    2    3    3    0    0 -0.10996414541E+02  0.83387572616E+01 -0.13827834311E+03  0.18711691473E+03  0.12530516190E+03 0.  0.
         25    2    3    3    0    0  0.10996414541E+02 -0.83387572616E+01 -0.15639236415E+02  0.13281328490E+03  0.13116526570E+03 0.  0.
          5    1    4    4  502    0  0.56271690595E+02 -0.67626875809E+01 -0.58931489523E+02  0.81897787291E+02  0.47000000000E+01 0.  1.
         -5    1    4    4    0  502 -0.67268105137E+02  0.15101444843E+02 -0.79346853587E+02  0.10521912744E+03  0.47000000000E+01 0.  1.
          5    1    5    5  503    0  0.13438991901E+01 -0.35973804223E+02 -0.65451493266E+02  0.74845899193E+02  0.47000000000E+01 0. -1.
         -5    1    5    5    0  503  0.96525153513E+01  0.27635046962E+02  0.49812256851E+02  0.57967385707E+02  0.47000000000E+01 0. -1.
<mgrwt>
<rscale>  0 0.28047230E+03</rscale>
<asrwt>0</asrwt>
<pdfrwt beam="1">  1        3 0.12770202E-01 0.28047230E+03</pdfrwt>
<pdfrwt beam="2">  1       -3 0.36449829E-01 0.28047230E+03</pdfrwt>
<totfact> 0.92560602E+02</totfact>
</mgrwt>
</event>
<event>
 9    1  0.7957670E-001  0.2788573E+03  0.7818608E-02  0.1096315E+00
         -1   -1    0    0    0  501 -0.00000000000E+00  0.00000000000E+00  0.10426773789E+03  0.10426773789E+03  0.00000000000E+00 0. -1.
          1   -1    0    0  501    0  0.00000000000E+00 -0.00000000000E+00 -0.18644638330E+03  0.18644638330E+03  0.00000000000E+00 0. -1.
         35    2    1    2    0    0  0.71054273576E-14  0.00000000000E+00 -0.82178645410E+02  0.29071412118E+03  0.27885725828E+03 0.  0.
         25    2    3    3    0    0 -0.86340647607E+01 -0.35776354352E+02  0.96093500669E+01  0.13119088075E+03  0.12555561707E+03 0.  0.
         25    2    3    3    0    0  0.86340647607E+01  0.35776354352E+02 -0.91787995477E+02  0.15952324044E+03  0.12517241518E+03 0.  0.
          5    1    4    4  502    0 -0.55755189035E+02 -0.45465137445E+02  0.30818414819E+02  0.78406533651E+02  0.47000000000E+01 0. -1.
         -5    1    4    4    0  502  0.47121124274E+02  0.96887830936E+01 -0.21209064753E+02  0.52784347096E+02  0.47000000000E+01 0. -1.
          5    1    5    5  503    0  0.64664168656E+02  0.13676212515E+02 -0.28812430520E+02  0.72254686002E+02  0.47000000000E+01 0. -1.
         -5    1    5    5    0  503 -0.56030103895E+02  0.22100141837E+02 -0.62975564956E+02  0.87268554435E+02  0.47000000000E+01 0. -1.
<mgrwt>
<rscale>  0 0.27885726E+03</rscale>
<asrwt>0</asrwt>
<pdfrwt beam="1">  1        1 0.28684059E-01 0.27885726E+03</pdfrwt>
<pdfrwt beam="2">  1       -1 0.16041191E-01 0.27885726E+03</pdfrwt>
<totfact> 0.46012839E+03</totfact>
</mgrwt>
</event>
<event>
 9    1  0.7957670E-001  0.2743215E+03  0.7818608E-02  0.1098831E+00
         -1   -1    0    0    0  501 -0.00000000000E+00  0.00000000000E+00  0.55336061216E+03  0.55336061216E+03  0.00000000000E+00 0. -1.
          1   -1    0    0  501    0  0.00000000000E+00 -0.00000000000E+00 -0.33997840205E+02  0.33997840205E+02  0.00000000000E+00 0. -1.
         35    2    1    2    0    0  0.00000000000E+00  0.00000000000E+00  0.51936277195E+03  0.58735845236E+03  0.27432145864E+03 0.  0.
         25    2    3    3    0    0  0.26254179407E+01 -0.35854028735E+02  0.35275769906E+03  0.37627242134E+03  0.12589891428E+03 0.  0.
         25    2    3    3    0    0 -0.26254179407E+01  0.35854028735E+02  0.16660507289E+03  0.21108603102E+03  0.12452974739E+03 0.  0.
          5    1    4    4  502    0 -0.45218893715E+02 -0.52959419958E+02  0.12797605897E+03  0.14577177430E+03  0.47000000000E+01 0.  1.
         -5    1    4    4    0  502  0.47844311655E+02  0.17105391223E+02  0.22478164009E+03  0.23050064704E+03  0.47000000000E+01 0.  1.
          5    1    5    5  503    0 -0.53931783288E+02  0.31810447687E+02  0.13893524432E+03  0.15246518928E+03  0.47000000000E+01 0.  1.
         -5    1    5    5    0  503  0.51306365347E+02  0.40435810477E+01  0.27669828576E+02  0.58620841739E+02  0.47000000000E+01 0.  1.
<mgrwt>
<rscale>  0 0.27432146E+03</rscale>
<asrwt>0</asrwt>
<pdfrwt beam="1">  1        1 0.52304374E-02 0.27432146E+03</pdfrwt>
<pdfrwt beam="2">  1       -1 0.85132395E-01 0.27432146E+03</pdfrwt>
<totfact> 0.22336771E+03</totfact>
</mgrwt>
</event>
<event>
 9    1  0.7957670E-001  0.2761766E+03  0.7818608E-02  0.1097796E+00
          1   -1    0    0  501    0  0.00000000000E+00  0.00000000000E+00  0.18743963855E+02  0.18743963855E+02  0.00000000000E+00 0. -1.
         -1   -1    0    0    0  501 -0.00000000000E+00 -0.00000000000E+00 -0.10173077005E+04  0.10173077005E+04  0.00000000000E+00 0. -1.
         35    2    1    2    0    0  0.00000000000E+00  0.00000000000E+00 -0.99856373661E+03  0.10360516643E+04  0.27617660123E+03 0.  0.
         25    2    3    3    0    0  0.22310556071E+02 -0.44575746427E+02 -0.60686295370E+03  0.62163825368E+03  0.12516675191E+03 0.  0.
         25    2    3    3    0    0 -0.22310556071E+02  0.44575746427E+02 -0.39170078292E+03  0.41441341065E+03  0.12579433018E+03 0.  0.
          5    1    4    4  502    0  0.10026370715E+02 -0.50689616009E+02 -0.60476093043E+03  0.60698256833E+03  0.47000000000E+01 0.  1.
         -5    1    4    4    0  502  0.12284185356E+02  0.61138695824E+01 -0.21020232639E+01  0.14655685345E+02  0.47000000000E+01 0.  1.
          5    1    5    5  503    0 -0.42409097902E+02  0.74296838962E+02 -0.17655156938E+03  0.19624244830E+03  0.47000000000E+01 0. -1.
         -5    1    5    5    0  503  0.20098541831E+02 -0.29721092536E+02 -0.21514921354E+03  0.21817096235E+03  0.47000000000E+01 0. -1.
<mgrwt>
<rscale>  0 0.27617660E+03</rscale>
<asrwt>0</asrwt>
<pdfrwt beam="1">  1        1 0.28836870E-02 0.27617660E+03</pdfrwt>
<pdfrwt beam="2">  1       -1 0.15650887E+00 0.27617660E+03</pdfrwt>
<totfact> 0.12169390E+03</totfact>
</mgrwt>
</event>
<event>
 9    1  0.7957670E-001  0.2695401E+03  0.7818608E-02  0.1101543E+00
         -2   -1    0    0    0  501 -0.00000000000E+00  0.00000000000E+00  0.60916317824E+02  0.60916317824E+02  0.00000000000E+00 0. -1.
          2   -1    0    0  501    0  0.00000000000E+00 -0.00000000000E+00 -0.29816251787E+03  0.29816251787E+03  0.00000000000E+00 0. -1.
         35    2    1    2    0    0  0.00000000000E+00 -0.17763568394E-14 -0.23724620004E+03  0.35907883569E+03  0.26954007273E+03 0.  0.
         25    2    3    3    0    0 -0.37261701075E+02 -0.10245440017E+02 -0.16213634570E+03  0.20825074604E+03  0.12484700725E+03 0.  0.
         25    2    3    3    0    0  0.37261701075E+02  0.10245440017E+02 -0.75109854341E+02  0.15082808965E+03  0.12495686856E+03 0.  0.
          5    1    4    4  502    0  0.23200940468E+02 -0.18782014435E+02  0.46518077079E+01  0.30574123369E+02  0.47000000000E+01 0. -1.
         -5    1    4    4    0  502 -0.60462641543E+02  0.85365744178E+01 -0.16678815341E+03  0.17767662267E+03  0.47000000000E+01 0. -1.
          5    1    5    5  503    0  0.36775342081E+02  0.32091596699E+02  0.20126263724E+02  0.53004272048E+02  0.47000000000E+01 0.  1.
         -5    1    5    5    0  503  0.48635899391E+00 -0.21846156682E+02 -0.95236118065E+02  0.97823817605E+02  0.47000000000E+01 0.  1.
<mgrwt>
<rscale>  0 0.26954007E+03</rscale>
<asrwt>0</asrwt>
<pdfrwt beam="1">  1        2 0.45871157E-01 0.26954007E+03</pdfrwt>
<pdfrwt beam="2">  1       -2 0.93717411E-02 0.26954007E+03</pdfrwt>
<totfact> 0.80307316E+03</totfact>
</mgrwt>
</event>
<event>
 9    1  0.7957670E-001  0.2754316E+03  0.7818608E-02  0.1098211E+00
          3   -1    0    0  501    0  0.00000000000E+00  0.00000000000E+00  0.15639590283E+03  0.15639590283E+03  0.00000000000E+00 0. -1.
         -3   -1    0    0    0  501 -0.00000000000E+00 -0.00000000000E+00 -0.12126683713E+03  0.12126683713E+03  0.00000000000E+00 0. -1.
         35    2    1    2    0    0  0.00000000000E+00  0.35527136788E-14  0.35129065693E+02  0.27766273996E+03  0.27543156302E+03 0.  0.
         25    2    3    3    0    0  0.40784068025E+02 -0.24446251678E+02 -0.14659078615E+02  0.13451982468E+03  0.12497893911E+03 0.  0.
         25    2    3    3    0    0 -0.40784068025E+02  0.24446251678E+02  0.49788144308E+02  0.14314291527E+03  0.12549930460E+03 0.  0.
          5    1    4    4  502    0  0.74873425851E+02 -0.50293203268E+02 -0.52876048019E+01  0.90473669972E+02  0.47000000000E+01 0. -1.
         -5    1    4    4    0  502 -0.34089357827E+02  0.25846951589E+02 -0.93714738133E+01  0.44046154712E+02  0.47000000000E+01 0. -1.
          5    1    5    5  503    0 -0.74050953642E+02  0.66352245859E+00 -0.52799561400E+01  0.74390536590E+02  0.47000000000E+01 0.  1.
         -5    1    5    5    0  503  0.33266885617E+02  0.23782729220E+02  0.55068100448E+02  0.68752378685E+02  0.47000000000E+01 0.  1.
<mgrwt>
<rscale>  0 0.27543156E+03</rscale>
<asrwt>0</asrwt>
<pdfrwt beam="1">  1        3 0.24060908E-01 0.27543156E+03</pdfrwt>
<pdfrwt beam="2">  1       -3 0.18656436E-01 0.27543156E+03</pdfrwt>
<totfact> 0.10398600E+03</totfact>
</mgrwt>
</event>
<event>
 9    1  0.7957670E-001  0.2760361E+03  0.7818608E-02  0.1097874E+00
          2   -1    0    0  501    0  0.00000000000E+00  0.00000000000E+00  0.31225453892E+03  0.31225453892E+03  0.00000000000E+00 0.  1.
         -2   -1    0    0    0  501 -0.00000000000E+00 -0.00000000000E+00 -0.61004671503E+02  0.61004671503E+02  0.00000000000E+00 0.  1.
         35    2    1    2    0    0  0.00000000000E+00  0.00000000000E+00  0.25124986742E+03  0.37325921042E+03  0.27603612497E+03 0.  0.
         25    2    3    3    0    0  0.58940269437E+02  0.31492516600E+01  0.12092911280E+03  0.18310212577E+03  0.12417191708E+03 0.  0.
         25    2    3    3    0    0 -0.58940269437E+02 -0.31492516600E+01  0.13032075461E+03  0.19015708465E+03  0.12526908881E+03 0.  0.
          5    1    4    4  502    0  0.43608968352E+02 -0.23362025619E+02  0.13873467816E+03  0.14736664238E+03  0.47000000000E+01 0.  1.
         -5    1    4    4    0  502  0.15331301085E+02  0.26511277279E+02 -0.17805565356E+02  0.35735483396E+02  0.47000000000E+01 0.  1.
          5    1    5    5  503    0  0.16166185875E+02 -0.46364359508E+02  0.30966986526E+02  0.58241253874E+02  0.47000000000E+01 0. -1.
         -5    1    5    5    0  503 -0.75106455312E+02  0.43215107848E+02  0.99353768088E+02  0.13191583077E+03  0.47000000000E+01 0. -1.
<mgrwt>
<rscale>  0 0.27603612E+03</rscale>
<asrwt>0</asrwt>
<pdfrwt beam="1">  1        2 0.48039159E-01 0.27603612E+03</pdfrwt>
<pdfrwt beam="2">  1       -2 0.93853342E-02 0.27603612E+03</pdfrwt>
<totfact> 0.76312883E+03</totfact>
</mgrwt>
</event>
<event>
 9    1  0.7957670E-001  0.3143903E+03  0.7818608E-02  0.1078260E+00
          1   -1    0    0  501    0  0.00000000000E+00  0.00000000000E+00  0.30089433946E+03  0.30089433946E+03  0.00000000000E+00 0. -1.
         -1   -1    0    0    0  501 -0.00000000000E+00 -0.00000000000E+00 -0.82122892496E+02  0.82122892496E+02  0.00000000000E+00 0. -1.
         35    2    1    2    0    0  0.71054273576E-14  0.00000000000E+00  0.21877144696E+03  0.38301723195E+03  0.31439028924E+03 0.  0.
         25    2    3    3    0    0 -0.51222005920E+02 -0.55272329683E+02  0.38975835703E+02  0.15143652736E+03  0.12543995269E+03 0.  0.
         25    2    3    3    0    0  0.51222005920E+02  0.55272329683E+02  0.17979561126E+03  0.23158070460E+03  0.12499774636E+03 0.  0.
          5    1    4    4  502    0 -0.27823849191E+02 -0.34141704525E+02 -0.44070412311E+02  0.62482908167E+02  0.47000000000E+01 0.  1.
         -5    1    4    4    0  502 -0.23398156730E+02 -0.21130625158E+02  0.83046248014E+02  0.88953619191E+02  0.47000000000E+01 0.  1.
          5    1    5    5  503    0  0.69373034284E+02  0.48022606464E+02  0.19079119696E+03  0.20866758123E+03  0.47000000000E+01 0.  1.
         -5    1    5    5    0  503 -0.18151028363E+02  0.72497232193E+01 -0.10995585705E+02  0.22913123367E+02  0.47000000000E+01 0.  1.
<mgrwt>
<rscale>  0 0.31439029E+03</rscale>
<asrwt>0</asrwt>
<pdfrwt beam="1">  1        1 0.46291436E-01 0.31439029E+03</pdfrwt>
<pdfrwt beam="2">  1       -1 0.12634291E-01 0.31439029E+03</pdfrwt>
<totfact> 0.36851223E+03</totfact>
</mgrwt>
</event>
<event>
 9    1  0.7957670E-001  0.2759259E+03  0.7818608E-02  0.1097935E+00
         -1   -1    0    0    0  501 -0.00000000000E+00  0.00000000000E+00  0.90183801359E+03  0.90183801359E+03  0.00000000000E+00 0. -1.
          1   -1    0    0  501    0  0.00000000000E+00 -0.00000000000E+00 -0.21105536238E+02  0.21105536238E+02  0.00000000000E+00 0. -1.
         35    2    1    2    0    0 -0.14210854715E-13  0.00000000000E+00  0.88073247735E+03  0.92294354983E+03  0.27592589495E+03 0.  0.
         25    2    3    3    0    0  0.43916956384E+02 -0.37496010456E+02  0.39821639801E+03  0.42130481680E+03  0.12484710311E+03 0.  0.
         25    2    3    3    0    0 -0.43916956384E+02  0.37496010456E+02  0.48251607934E+03  0.50163873303E+03  0.12443874715E+03 0.  0.
          5    1    4    4  502    0 -0.36413293819E+02  0.16795540485E+02  0.10941637569E+03  0.11662783294E+03  0.47000000000E+01 0. -1.
         -5    1    4    4    0  502  0.80330250203E+02 -0.54291550941E+02  0.28880002232E+03  0.30467698386E+03  0.47000000000E+01 0. -1.
          5    1    5    5  503    0 -0.78001192539E+02 -0.27508084706E+01  0.35606701444E+03  0.36455117851E+03  0.47000000000E+01 0.  1.
         -5    1    5    5    0  503  0.34084236155E+02  0.40246818927E+02  0.12644906490E+03  0.13708755452E+03  0.47000000000E+01 0.  1.
<mgrwt>
<rscale>  0 0.27592589E+03</rscale>
<asrwt>0</asrwt>
<pdfrwt beam="1">  1        1 0.32470063E-02 0.27592589E+03</pdfrwt>
<pdfrwt beam="2">  1       -1 0.13874428E+00 0.27592589E+03</pdfrwt>
<totfact> 0.14097600E+03</totfact>
</mgrwt>
</event>
<event>
 9    1  0.7957670E-001  0.2752410E+03  0.7818608E-02  0.1098317E+00
          2   -1    0    0  501    0  0.00000000000E+00  0.00000000000E+00  0.26271993243E+04  0.26271993243E+04  0.00000000000E+00 0.  1.
         -2   -1    0    0    0  501 -0.00000000000E+00 -0.00000000000E+00 -0.72089700196E+01  0.72089700196E+01  0.00000000000E+00 0.  1.
         35    2    1    2    0    0  0.00000000000E+00  0.00000000000E+00  0.26199903543E+04  0.26344082944E+04  0.27524099378E+03 0.  0.
         25    2    3    3    0    0 -0.36184727924E+02  0.37745819392E+02  0.10600776093E+04  0.10686777022E+04  0.12479347772E+03 0.  0.
         25    2    3    3    0    0  0.36184727924E+02 -0.37745819392E+02  0.15599127450E+04  0.15657305921E+04  0.12429977332E+03 0.  0.
          5    1    4    4  502    0 -0.36334166006E+02  0.43139579836E+02  0.18258399385E+03  0.19115491043E+03  0.47000000000E+01 0.  1.
         -5    1    4    4    0  502  0.14943808193E+00 -0.53937604440E+01  0.87749361545E+03  0.87752279181E+03  0.47000000000E+01 0.  1.
          5    1    5    5  503    0  0.10790066165E+02 -0.60807128152E+02  0.35791768605E+03  0.36323696446E+03  0.47000000000E+01 0. -1.
         -5    1    5    5    0  503  0.25394661759E+02  0.23061308759E+02  0.12019950590E+04  0.12024936277E+04  0.47000000000E+01 0. -1.
<mgrwt>
<rscale>  0 0.27524099E+03</rscale>
<asrwt>0</asrwt>
<pdfrwt beam="1">  1        2 0.40418375E+00 0.27524099E+03</pdfrwt>
<pdfrwt beam="2">  1       -2 0.11090744E-02 0.27524099E+03</pdfrwt>
<totfact> 0.62555462E+03</totfact>
</mgrwt>
</event>
<event>
 9    1  0.7957670E-001  0.2902759E+03  0.7818608E-02  0.1090205E+00
          2   -1    0    0  501    0  0.00000000000E+00  0.00000000000E+00  0.11723592983E+03  0.11723592983E+03  0.00000000000E+00 0.  1.
         -2   -1    0    0    0  501 -0.00000000000E+00 -0.00000000000E+00 -0.17968057078E+03  0.17968057078E+03  0.00000000000E+00 0.  1.
         35    2    1    2    0    0  0.00000000000E+00  0.00000000000E+00 -0.62444640950E+02  0.29691650061E+03  0.29027586044E+03 0.  0.
         25    2    3    3    0    0 -0.51185070718E+02  0.39771037320E+02 -0.34934353530E+01  0.14493898646E+03  0.12958957840E+03 0.  0.
         25    2    3    3    0    0  0.51185070718E+02 -0.39771037320E+02 -0.58951205597E+02  0.15197751415E+03  0.12417839302E+03 0.  0.
          5    1    4    4  502    0  0.41076031886E+02  0.29432191388E+02 -0.10105864008E+02  0.51746620882E+02  0.47000000000E+01 0. -1.
         -5    1    4    4    0  502 -0.92261102603E+02  0.10338845932E+02  0.66124286552E+01  0.93192365575E+02  0.47000000000E+01 0. -1.
          5    1    5    5  503    0  0.28700341820E+02 -0.90897186745E+01  0.37424712412E+02  0.48260042533E+02  0.47000000000E+01 0. -1.
         -5    1    5    5    0  503  0.22484728897E+02 -0.30681318646E+02 -0.96375918009E+02  0.10371747162E+03  0.47000000000E+01 0. -1.
<mgrwt>
<rscale>  0 0.29027586E+03</rscale>
<asrwt>0</asrwt>
<pdfrwt beam="1">  1        2 0.18036297E-01 0.29027586E+03</pdfrwt>
<pdfrwt beam="2">  1       -2 0.27643165E-01 0.29027586E+03</pdfrwt>
<totfact> 0.37065926E+03</totfact>
</mgrwt>
</event>
<event>
 9    1  0.7957670E-001  0.2627501E+03  0.7818608E-02  0.1105502E+00
         -2   -1    0    0    0  501 -0.00000000000E+00  0.00000000000E+00  0.30559592604E+02  0.30559592604E+02  0.00000000000E+00 0. -1.
          2   -1    0    0  501    0  0.00000000000E+00 -0.00000000000E+00 -0.56477871481E+03  0.56477871481E+03  0.00000000000E+00 0. -1.
         35    2    1    2    0    0  0.00000000000E+00 -0.71054273576E-14 -0.53421912221E+03  0.59533830742E+03  0.26275012796E+03 0.  0.
         25    2    3    3    0    0  0.37575574013E+02 -0.64384072933E+01 -0.25554420339E+03  0.28710429467E+03  0.12519049197E+03 0.  0.
         25    2    3    3    0    0 -0.37575574013E+02  0.64384072933E+01 -0.27867491882E+03  0.30823401275E+03  0.12607584775E+03 0.  0.
          5    1    4    4  502    0  0.12241105916E+02  0.40522228593E+02 -0.21693087720E+03  0.22107236636E+03  0.47000000000E+01 0.  1.
         -5    1    4    4    0  502  0.25334468097E+02 -0.46960635887E+02 -0.38613326187E+02  0.66031928307E+02  0.47000000000E+01 0.  1.
          5    1    5    5  503    0 -0.34548822810E+02 -0.57641219206E+02 -0.14551931946E+03  0.16035614626E+03  0.47000000000E+01 0. -1.
         -5    1    5    5    0  503 -0.30267512030E+01  0.64079626500E+02 -0.13315559937E+03  0.14787786649E+03  0.47000000000E+01 0. -1.
<mgrwt>
<rscale>  0 0.26275013E+03</rscale>
<asrwt>0</asrwt>
<pdfrwt beam="1">  1        2 0.86889033E-01 0.26275013E+03</pdfrwt>
<pdfrwt beam="2">  1       -2 0.47014758E-02 0.26275013E+03</pdfrwt>
<totfact> 0.11556200E+04</totfact>
</mgrwt>
</event>
<event>
 9    1  0.7957670E-001  0.2752004E+03  0.7818608E-02  0.1098340E+00
         -2   -1    0    0    0  501 -0.00000000000E+00  0.00000000000E+00  0.12532754599E+02  0.12532754599E+02  0.00000000000E+00 0. -1.
          2   -1    0    0  501    0  0.00000000000E+00 -0.00000000000E+00 -0.15107461574E+04  0.15107461574E+04  0.00000000000E+00 0. -1.
         35    2    1    2    0    0  0.00000000000E+00 -0.35527136788E-14 -0.14982134028E+04  0.15232789120E+04  0.27520036956E+03 0.  0.
         25    2    3    3    0    0 -0.95260858499E+01 -0.99616604053E+01 -0.10611144396E+04  0.10686299565E+04  0.12576227180E+03 0.  0.
         25    2    3    3    0    0  0.95260858499E+01  0.99616604053E+01 -0.43709896321E+03  0.45464895551E+03  0.12433900481E+03 0.  0.
          5    1    4    4  502    0 -0.60100574380E+02 -0.17560099049E+02 -0.34433893801E+03  0.35001690009E+03  0.47000000000E+01 0. -1.
         -5    1    4    4    0  502  0.50574488530E+02  0.75984386439E+01 -0.71677550158E+03  0.71861305640E+03  0.47000000000E+01 0. -1.
          5    1    5    5  503    0 -0.21232965483E+02 -0.43254934652E+02 -0.90749443447E+02  0.10285611154E+03  0.47000000000E+01 0.  1.
         -5    1    5    5    0  503  0.30759051333E+02  0.53216595058E+02 -0.34634951976E+03  0.35179284397E+03  0.47000000000E+01 0.  1.
<mgrwt>
<rscale>  0 0.27520037E+03</rscale>
<asrwt>0</asrwt>
<pdfrwt beam="1">  1        2 0.23242229E+00 0.27520037E+03</pdfrwt>
<pdfrwt beam="2">  1       -2 0.19281177E-02 0.27520037E+03</pdfrwt>
<totfact> 0.10985531E+04</totfact>
</mgrwt>
</event>
<event>
 9    1  0.7957670E-001  0.2760336E+03  0.7818608E-02  0.1097875E+00
          2   -1    0    0  501    0  0.00000000000E+00  0.00000000000E+00  0.15233340025E+04  0.15233340025E+04  0.00000000000E+00 0. -1.
         -2   -1    0    0    0  501 -0.00000000000E+00 -0.00000000000E+00 -0.12504566891E+02  0.12504566891E+02  0.00000000000E+00 0. -1.
         35    2    1    2    0    0 -0.35527136788E-14  0.71054273576E-14  0.15108294356E+04  0.15358385694E+04  0.27603356268E+03 0.  0.
         25    2    3    3    0    0 -0.14485495079E+02 -0.31512947745E+02  0.10027169981E+04  0.10107716066E+04  0.12253557467E+03 0.  0.
         25    2    3    3    0    0  0.14485495079E+02  0.31512947745E+02  0.50811243754E+03  0.52506696278E+03  0.12772693836E+03 0.  0.
          5    1    4    4  502    0 -0.26237595468E+02 -0.72035889824E+02  0.79867313527E+03  0.80235805464E+03  0.47000000000E+01 0.  1.
         -5    1    4    4    0  502  0.11752100390E+02  0.40522942079E+02  0.20404386281E+03  0.20841355198E+03  0.47000000000E+01 0.  1.
          5    1    5    5  503    0  0.52214666074E+02  0.55837414160E+02  0.40969710378E+03  0.41679490762E+03  0.47000000000E+01 0. -1.
         -5    1    5    5    0  503 -0.37729170996E+02 -0.24324466415E+02  0.98415333756E+02  0.10827205516E+03  0.47000000000E+01 0. -1.
<mgrwt>
<rscale>  0 0.27603356E+03</rscale>
<asrwt>0</asrwt>
<pdfrwt beam="1">  1        2 0.23435893E+00 0.27603356E+03</pdfrwt>
<pdfrwt beam="2">  1       -2 0.19237807E-02 0.27603356E+03</pdfrwt>
<totfact> 0.10853257E+04</totfact>
</mgrwt>
</event>
<event>
 8    1  0.7957670E-001  0.3540747E+03  0.7818608E-02  0.1060955E+00
          1   -1    0    0  501    0  0.00000000000E+00  0.00000000000E+00  0.10310037207E+04  0.10310037207E+04  0.00000000000E+00 0.  1.
         -1   -1    0    0    0  501 -0.00000000000E+00 -0.00000000000E+00 -0.30399714430E+02  0.30399714430E+02  0.00000000000E+00 0.  1.
         25    2    1    2    0    0  0.11755858366E+03  0.36777665045E+02  0.57199172582E+03  0.59829219886E+03  0.12492559214E+03 0.  0.
         25    2    1    2    0    0 -0.11755858366E+03 -0.36777665045E+02  0.42861228047E+03  0.46311123629E+03  0.12486357743E+03 0.  0.
          5    1    3    3  502    0  0.76278292119E+02  0.77323466138E+02  0.27558612905E+03  0.29625512787E+03  0.47000000000E+01 0.  1.
         -5    1    3    3    0  502  0.41280291540E+02 -0.40545801094E+02  0.29640559677E+03  0.30203707099E+03  0.47000000000E+01 0.  1.
          5    1    4    4  503    0 -0.30496855879E+02 -0.91357172777E+01  0.86766461482E+01  0.33330072563E+02  0.47000000000E+01 0.  1.
         -5    1    4    4    0  503 -0.87061727780E+02 -0.27641947767E+02  0.41993563432E+03  0.42978116372E+03  0.47000000000E+01 0.  1.
<mgrwt>
<rscale>  0 0.35407467E+03</rscale>
<asrwt>0</asrwt>
<pdfrwt beam="1">  1        1 0.15861593E+00 0.35407467E+03</pdfrwt>
<pdfrwt beam="2">  1       -1 0.46768799E-02 0.35407467E+03</pdfrwt>
<totfact> 0.29573410E+03</totfact>
</mgrwt>
</event>
<event>
 9    1  0.7957670E-001  0.2810381E+03  0.7818608E-02  0.1095123E+00
          1   -1    0    0  501    0  0.00000000000E+00  0.00000000000E+00  0.14663214184E+03  0.14663214184E+03  0.00000000000E+00 0.  1.
         -1   -1    0    0    0  501 -0.00000000000E+00 -0.00000000000E+00 -0.13466081864E+03  0.13466081864E+03  0.00000000000E+00 0.  1.
         35    2    1    2    0    0  0.71054273576E-14 -0.17763568394E-14  0.11971323197E+02  0.28129296047E+03  0.28103810602E+03 0.  0.
         25    2    3    3    0    0 -0.63764133607E+02 -0.35814840662E+01 -0.26613266228E+02  0.13195732436E+03  0.11236448616E+03 0.  0.
         25    2    3    3    0    0  0.63764133607E+02  0.35814840662E+01  0.38584589425E+02  0.14933563611E+03  0.12935868702E+03 0.  0.
          5    1    4    4  502    0  0.13544731130E+02 -0.58126550179E+01  0.31505615307E+02  0.35099009895E+02  0.47000000000E+01 0. -1.
         -5    1    4    4    0  502 -0.77308864737E+02  0.22311709517E+01 -0.58118881534E+02  0.96858314468E+02  0.47000000000E+01 0. -1.
          5    1    5    5  503    0  0.10602964927E+02 -0.55137049711E+02  0.41431311048E+02  0.69936833295E+02  0.47000000000E+01 0.  1.
         -5    1    5    5    0  503  0.53161168681E+02  0.58718533778E+02 -0.28467216235E+01  0.79398802815E+02  0.47000000000E+01 0.  1.
<mgrwt>
<rscale>  0 0.28103811E+03</rscale>
<asrwt>0</asrwt>
<pdfrwt beam="1">  1        1 0.22558791E-01 0.28103811E+03</pdfrwt>
<pdfrwt beam="2">  1       -1 0.20717049E-01 0.28103811E+03</pdfrwt>
<totfact> 0.41354659E+03</totfact>
</mgrwt>
</event>
<event>
 9    1  0.7957670E-001  0.2788109E+03  0.7818608E-02  0.1096340E+00
         -2   -1    0    0    0  501 -0.00000000000E+00  0.00000000000E+00  0.72762743174E+03  0.72762743174E+03  0.00000000000E+00 0.  1.
          2   -1    0    0  501    0  0.00000000000E+00 -0.00000000000E+00 -0.26708552481E+02  0.26708552481E+02  0.00000000000E+00 0.  1.
         35    2    1    2    0    0  0.71054273576E-14  0.71054273576E-14  0.70091887926E+03  0.75433598422E+03  0.27881087100E+03 0.  0.
         25    2    3    3    0    0 -0.11667943693E+02 -0.44863408015E+02  0.46095134653E+03  0.47970934366E+03  0.12448310823E+03 0.  0.
         25    2    3    3    0    0  0.11667943693E+02  0.44863408015E+02  0.23996753273E+03  0.27462664056E+03  0.12524579296E+03 0.  0.
          5    1    4    4  502    0 -0.55779807160E+02  0.57651170671E+01  0.30027193771E+03  0.30549950907E+03  0.47000000000E+01 0.  1.
         -5    1    4    4    0  502  0.44111863467E+02 -0.50628525082E+02  0.16067940882E+03  0.17420983459E+03  0.47000000000E+01 0.  1.
          5    1    5    5  503    0  0.58212684476E+02  0.43660639268E+02  0.81335986127E+02  0.10923644398E+03  0.47000000000E+01 0. -1.
         -5    1    5    5    0  503 -0.46544740783E+02  0.12027687467E+01  0.15863154660E+03  0.16539019658E+03  0.47000000000E+01 0. -1.
<mgrwt>
<rscale>  0 0.27881087E+03</rscale>
<asrwt>0</asrwt>
<pdfrwt beam="1">  1        2 0.41090086E-02 0.27881087E+03</pdfrwt>
<pdfrwt beam="2">  1       -2 0.11194267E+00 0.27881087E+03</pdfrwt>
<totfact> 0.13425084E+03</totfact>
</mgrwt>
</event>
<event>
 9    1  0.7957670E-001  0.2702496E+03  0.7818608E-02  0.1101137E+00
         -2   -1    0    0    0  501 -0.00000000000E+00  0.00000000000E+00  0.76039903789E+02  0.76039903789E+02  0.00000000000E+00 0. -1.
          2   -1    0    0  501    0  0.00000000000E+00 -0.00000000000E+00 -0.24012014090E+03  0.24012014090E+03  0.00000000000E+00 0. -1.
         35    2    1    2    0    0  0.00000000000E+00  0.00000000000E+00 -0.16408023711E+03  0.31616004469E+03  0.27024960619E+03 0.  0.
         25    2    3    3    0    0 -0.14871842563E+02 -0.22095094953E+02 -0.13387131760E+03  0.18465240352E+03  0.12436082795E+03 0.  0.
         25    2    3    3    0    0  0.14871842563E+02  0.22095094953E+02 -0.30208919511E+02  0.13150764117E+03  0.12518912071E+03 0.  0.
          5    1    4    4  502    0 -0.37929037393E+02 -0.16103802169E+02  0.66897554312E+01  0.42009369783E+02  0.47000000000E+01 0. -1.
         -5    1    4    4    0  502  0.23057194830E+02 -0.59912927839E+01 -0.14056107303E+03  0.14264303374E+03  0.47000000000E+01 0. -1.
          5    1    5    5  503    0 -0.18718313953E+02  0.28133644174E+02 -0.70605286866E+02  0.78416029899E+02  0.47000000000E+01 0. -1.
         -5    1    5    5    0  503  0.33590156516E+02 -0.60385492207E+01  0.40396367355E+02  0.53091611267E+02  0.47000000000E+01 0. -1.
<mgrwt>
<rscale>  0 0.27024961E+03</rscale>
<asrwt>0</asrwt>
<pdfrwt beam="1">  1        2 0.36941560E-01 0.27024961E+03</pdfrwt>
<pdfrwt beam="2">  1       -2 0.11698447E-01 0.27024961E+03</pdfrwt>
<totfact> 0.71197973E+03</totfact>
</mgrwt>
</event>
<event>
 9    1  0.7957670E-001  0.2761726E+03  0.7818608E-02  0.1097798E+00
          1   -1    0    0  501    0  0.00000000000E+00  0.00000000000E+00  0.13020630312E+04  0.13020630312E+04  0.00000000000E+00 0. -1.
         -1   -1    0    0    0  501 -0.00000000000E+00 -0.00000000000E+00 -0.14644315888E+02  0.14644315888E+02  0.00000000000E+00 0. -1.
         35    2    1    2    0    0 -0.71054273576E-14  0.00000000000E+00  0.12874187153E+04  0.13167073471E+04  0.27617257166E+03 0.  0.
         25    2    3    3    0    0  0.38908768826E+02 -0.38342721143E+02  0.58653091433E+03  0.60249945628E+03  0.12650306240E+03 0.  0.
         25    2    3    3    0    0 -0.38908768826E+02  0.38342721143E+02  0.70088780097E+03  0.71420789079E+03  0.12595691791E+03 0.  0.
          5    1    4    4  502    0 -0.14021500137E+02 -0.54467837397E+02  0.47040800061E+03  0.47378172698E+03  0.47000000000E+01 0.  1.
         -5    1    4    4    0  502  0.52930268962E+02  0.16125116255E+02  0.11612291372E+03  0.12871772931E+03  0.47000000000E+01 0.  1.
          5    1    5    5  503    0 -0.41332305772E+02 -0.55609733882E+01  0.62476311179E+03  0.62617115853E+03  0.47000000000E+01 0. -1.
         -5    1    5    5    0  503  0.24235369467E+01  0.43903694531E+02  0.76124689182E+02  0.88036732265E+02  0.47000000000E+01 0. -1.
<mgrwt>
<rscale>  0 0.27617257E+03</rscale>
<asrwt>0</asrwt>
<pdfrwt beam="1">  1        1 0.20031730E+00 0.27617257E+03</pdfrwt>
<pdfrwt beam="2">  1       -1 0.22529727E-02 0.27617257E+03</pdfrwt>
<totfact> 0.56000568E+03</totfact>
</mgrwt>
</event>
<event>
 9    1  0.7957670E-001  0.2764043E+03  0.7818608E-02  0.1097669E+00
         -1   -1    0    0    0  501 -0.00000000000E+00  0.00000000000E+00  0.33500503533E+03  0.33500503533E+03  0.00000000000E+00 0. -1.
          1   -1    0    0  501    0  0.00000000000E+00 -0.00000000000E+00 -0.57013584976E+02  0.57013584976E+02  0.00000000000E+00 0. -1.
         35    2    1    2    0    0  0.00000000000E+00  0.71054273576E-14  0.27799145035E+03  0.39201862030E+03  0.27640432738E+03 0.  0.
         25    2    3    3    0    0 -0.11183427079E+02 -0.13231880692E+02  0.61299310583E+02  0.14129617276E+03  0.12612236618E+03 0.  0.
         25    2    3    3    0    0  0.11183427079E+02  0.13231880692E+02  0.21669213977E+03  0.25072244754E+03  0.12492441938E+03 0.  0.
          5    1    4    4  502    0 -0.39696571593E+02 -0.59926174508E+02  0.40010721344E+02  0.82400922385E+02  0.47000000000E+01 0. -1.
         -5    1    4    4    0  502  0.28513144513E+02  0.46694293817E+02  0.21288589239E+02  0.58895250376E+02  0.47000000000E+01 0. -1.
          5    1    5    5  503    0 -0.22315844975E+02  0.60006839103E+02  0.81676098105E+02  0.10388403476E+03  0.47000000000E+01 0. -1.
         -5    1    5    5    0  503  0.33499272054E+02 -0.46774958412E+02  0.13501604166E+03  0.14683841278E+03  0.47000000000E+01 0. -1.
<mgrwt>
<rscale>  0 0.27640433E+03</rscale>
<asrwt>0</asrwt>
<pdfrwt beam="1">  1        1 0.87713209E-02 0.27640433E+03</pdfrwt>
<pdfrwt beam="2">  1       -1 0.51539235E-01 0.27640433E+03</pdfrwt>
<totfact> 0.29664079E+03</totfact>
</mgrwt>
</event>
<event>
 9    1  0.7957670E-001  0.2979366E+03  0.7818608E-02  0.1086277E+00
         -2   -1    0    0    0  501 -0.00000000000E+00  0.00000000000E+00  0.18120181649E+03  0.18120181649E+03  0.00000000000E+00 0. -1.
          2   -1    0    0  501    0  0.00000000000E+00 -0.00000000000E+00 -0.12246875073E+03  0.12246875073E+03  0.00000000000E+00 0. -1.
         35    2    1    2    0    0 -0.35527136788E-14  0.00000000000E+00  0.58733065760E+02  0.30367056721E+03  0.29793663819E+03 0.  0.
         25    2    3    3    0    0 -0.31176476577E+02  0.72251572937E+02  0.31587832750E+02  0.15362164803E+03  0.12809979345E+03 0.  0.
         25    2    3    3    0    0  0.31176476577E+02 -0.72251572937E+02  0.27145233010E+02  0.15004891918E+03  0.12484210824E+03 0.  0.
          5    1    4    4  502    0  0.25368706076E+02  0.75357061081E+02  0.49813413630E+02  0.93945324952E+02  0.47000000000E+01 0.  1.
         -5    1    4    4    0  502 -0.56545182653E+02 -0.31054881449E+01 -0.18225580880E+02  0.59676323079E+02  0.47000000000E+01 0.  1.
          5    1    5    5  503    0 -0.14459083351E+02 -0.89322871133E+02  0.40593058008E+02  0.99285078220E+02  0.47000000000E+01 0.  1.
         -5    1    5    5    0  503  0.45635559928E+02  0.17071298196E+02 -0.13447824997E+02  0.50763840962E+02  0.47000000000E+01 0.  1.
<mgrwt>
<rscale>  0 0.29793664E+03</rscale>
<asrwt>0</asrwt>
<pdfrwt beam="1">  1        2 0.18841346E-01 0.29793664E+03</pdfrwt>
<pdfrwt beam="2">  1       -2 0.27877203E-01 0.29793664E+03</pdfrwt>
<totfact> 0.34731264E+03</totfact>
</mgrwt>
</event>
<event>
 9    1  0.7957670E-001  0.2801681E+03  0.7818608E-02  0.1095597E+00
         -2   -1    0    0    0  501 -0.00000000000E+00  0.00000000000E+00  0.84665066873E+02  0.84665066873E+02  0.00000000000E+00 0.  1.
          2   -1    0    0  501    0  0.00000000000E+00 -0.00000000000E+00 -0.23177855836E+03  0.23177855836E+03  0.00000000000E+00 0.  1.
         35    2    1    2    0    0  0.00000000000E+00 -0.14210854715E-13 -0.14711349149E+03  0.31644362523E+03  0.28016814340E+03 0.  0.
         25    2    3    3    0    0  0.47289806170E+02 -0.22763697338E+02 -0.31617159208E+02  0.13859624211E+03  0.12431718259E+03 0.  0.
         25    2    3    3    0    0 -0.47289806170E+02  0.22763697338E+02 -0.11549633228E+03  0.17784738312E+03  0.12464259797E+03 0.  0.
          5    1    4    4  502    0  0.24626985525E+02 -0.69094250993E+02 -0.43568899034E+02  0.85444970006E+02  0.47000000000E+01 0. -1.
         -5    1    4    4    0  502  0.22662820646E+02  0.46330553655E+02  0.11951739825E+02  0.53151272106E+02  0.47000000000E+01 0. -1.
          5    1    5    5  503    0  0.96974940743E+01  0.56656729867E+02 -0.19096117083E+02  0.60751774609E+02  0.47000000000E+01 0.  1.
         -5    1    5    5    0  503 -0.56987300245E+02 -0.33893032528E+02 -0.96400215197E+02  0.11709560851E+03  0.47000000000E+01 0.  1.
<mgrwt>
<rscale>  0 0.28016814E+03</rscale>
<asrwt>0</asrwt>
<pdfrwt beam="1">  1        2 0.35658239E-01 0.28016814E+03</pdfrwt>
<pdfrwt beam="2">  1       -2 0.13025395E-01 0.28016814E+03</pdfrwt>
<totfact> 0.62249815E+03</totfact>
</mgrwt>
</event>
<event>
 9    1  0.7957670E-001  0.2765505E+03  0.7818608E-02  0.1097588E+00
          2   -1    0    0  501    0  0.00000000000E+00  0.00000000000E+00  0.10176610815E+04  0.10176610815E+04  0.00000000000E+00 0. -1.
         -2   -1    0    0    0  501 -0.00000000000E+00 -0.00000000000E+00 -0.18788224991E+02  0.18788224991E+02  0.00000000000E+00 0. -1.
         35    2    1    2    0    0  0.71054273576E-14 -0.71054273576E-14  0.99887285651E+03  0.10364493065E+04  0.27655050435E+03 0.  0.
         25    2    3    3    0    0 -0.32607046060E+02 -0.47886297618E+02  0.43976499336E+03  0.46055342027E+03  0.12393500952E+03 0.  0.
         25    2    3    3    0    0  0.32607046060E+02  0.47886297618E+02  0.55910786314E+03  0.57589588621E+03  0.12529226704E+03 0.  0.
          5    1    4    4  502    0 -0.28165984506E+01 -0.25917626494E+02  0.41483349296E+03  0.41567844961E+03  0.47000000000E+01 0. -1.
         -5    1    4    4    0  502 -0.29790447610E+02 -0.21968671124E+02  0.24931500409E+02  0.44874970667E+02  0.47000000000E+01 0. -1.
          5    1    5    5  503    0 -0.38426123647E+02  0.18141781779E+02  0.35719947416E+03  0.35974886457E+03  0.47000000000E+01 0. -1.
         -5    1    5    5    0  503  0.71033169707E+02  0.29744515839E+02  0.20190838899E+03  0.21614702164E+03  0.47000000000E+01 0. -1.
<mgrwt>
<rscale>  0 0.27655050E+03</rscale>
<asrwt>0</asrwt>
<pdfrwt beam="1">  1        2 0.15656320E+00 0.27655050E+03</pdfrwt>
<pdfrwt beam="2">  1       -2 0.28904969E-02 0.27655050E+03</pdfrwt>
<totfact> 0.11441263E+04</totfact>
</mgrwt>
</event>
<event>
 9    1  0.7957670E-001  0.2750705E+03  0.7818608E-02  0.1098412E+00
          1   -1    0    0  501    0  0.00000000000E+00  0.00000000000E+00  0.10635823584E+04  0.10635823584E+04  0.00000000000E+00 0.  1.
         -1   -1    0    0    0  501 -0.00000000000E+00 -0.00000000000E+00 -0.17785122884E+02  0.17785122884E+02  0.00000000000E+00 0.  1.
         35    2    1    2    0    0 -0.71054273576E-14  0.35527136788E-14  0.10457972355E+04  0.10813674813E+04  0.27507048508E+03 0.  0.
         25    2    3    3    0    0 -0.53509861948E+02  0.25749730779E+02  0.54472994689E+03  0.56166046398E+03  0.12331020961E+03 0.  0.
         25    2    3    3    0    0  0.53509861948E+02 -0.25749730779E+02  0.50106728860E+03  0.51970701728E+03  0.12450141423E+03 0.  0.
          5    1    4    4  502    0 -0.63038665599E+02  0.50319558228E+02  0.19732380971E+03  0.21322454638E+03  0.47000000000E+01 0.  1.
         -5    1    4    4    0  502  0.95288036509E+01 -0.24569827449E+02  0.34740613718E+03  0.34843591760E+03  0.47000000000E+01 0.  1.
          5    1    5    5  503    0  0.36238868707E+02  0.19777649872E+02  0.45881411353E+02  0.61899959187E+02  0.47000000000E+01 0.  1.
         -5    1    5    5    0  503  0.17270993241E+02 -0.45527380651E+02  0.45518587724E+03  0.45780705809E+03  0.47000000000E+01 0.  1.
<mgrwt>
<rscale>  0 0.27507049E+03</rscale>
<asrwt>0</asrwt>
<pdfrwt beam="1">  1        1 0.16362801E+00 0.27507049E+03</pdfrwt>
<pdfrwt beam="2">  1       -1 0.27361736E-02 0.27507049E+03</pdfrwt>
<totfact> 0.61965856E+03</totfact>
</mgrwt>
</event>
<event>
 9    1  0.7957670E-001  0.2725203E+03  0.7818608E-02  0.1099846E+00
          2   -1    0    0  501    0  0.00000000000E+00  0.00000000000E+00  0.26804140517E+04  0.26804140517E+04  0.00000000000E+00 0.  1.
         -2   -1    0    0    0  501 -0.00000000000E+00 -0.00000000000E+00 -0.69268524165E+01  0.69268524165E+01  0.00000000000E+00 0.  1.
         35    2    1    2    0    0  0.14210854715E-13  0.00000000000E+00  0.26734871993E+04  0.26873409041E+04  0.27252032989E+03 0.  0.
         25    2    3    3    0    0 -0.39077945093E+02  0.30172472143E+02  0.14075387862E+04  0.14141676544E+04  0.12754315354E+03 0.  0.
         25    2    3    3    0    0  0.39077945093E+02 -0.30172472143E+02  0.12659484131E+04  0.12731732498E+04  0.12612404817E+03 0.  0.
          5    1    4    4  502    0 -0.82574259453E+02  0.88694333856E+01  0.10569283503E+04  0.10601965869E+04  0.47000000000E+01 0.  1.
         -5    1    4    4    0  502  0.43496314360E+02  0.21303038757E+02  0.35061043589E+03  0.35397106743E+03  0.47000000000E+01 0.  1.
          5    1    5    5  503    0  0.80924805941E+02  0.25146812807E+01  0.83874243278E+03  0.84265420333E+03  0.47000000000E+01 0. -1.
         -5    1    5    5    0  503 -0.41846860848E+02 -0.32687153423E+02  0.42720598027E+03  0.43051904643E+03  0.47000000000E+01 0. -1.
<mgrwt>
<rscale>  0 0.27252033E+03</rscale>
<asrwt>0</asrwt>
<pdfrwt beam="1">  1        2 0.41237057E+00 0.27252033E+03</pdfrwt>
<pdfrwt beam="2">  1       -2 0.10656717E-02 0.27252033E+03</pdfrwt>
<totfact> 0.61909227E+03</totfact>
</mgrwt>
</event>
<event>
 9    1  0.7957670E-001  0.2742960E+03  0.7818608E-02  0.1098846E+00
         -2   -1    0    0    0  501 -0.00000000000E+00  0.00000000000E+00  0.64801730753E+03  0.64801730753E+03  0.00000000000E+00 0. -1.
          2   -1    0    0  501    0  0.00000000000E+00 -0.00000000000E+00 -0.29026352696E+02  0.29026352696E+02  0.00000000000E+00 0. -1.
         35    2    1    2    0    0  0.00000000000E+00  0.14210854715E-13  0.61899095484E+03  0.67704366023E+03  0.27429603659E+03 0.  0.
         25    2    3    3    0    0 -0.88353452197E+01  0.42184627902E+02  0.40173205432E+03  0.42298800482E+03  0.12519026558E+03 0.  0.
         25    2    3    3    0    0  0.88353452197E+01 -0.42184627902E+02  0.21725890052E+03  0.25405565541E+03  0.12443970442E+03 0.  0.
          5    1    4    4  502    0  0.26353251378E+02 -0.35706321309E+02  0.10342056830E+03  0.11263808941E+03  0.47000000000E+01 0.  1.
         -5    1    4    4    0  502 -0.35188596598E+02  0.77890949211E+02  0.29831148602E+03  0.31034991540E+03  0.47000000000E+01 0.  1.
          5    1    5    5  503    0  0.61934653356E+02 -0.44003274288E+02  0.15005098356E+03  0.16825450098E+03  0.47000000000E+01 0.  1.
         -5    1    5    5    0  503 -0.53099308136E+02  0.18186463857E+01  0.67207916961E+02  0.85801154430E+02  0.47000000000E+01 0.  1.
<mgrwt>
<rscale>  0 0.27429604E+03</rscale>
<asrwt>0</asrwt>
<pdfrwt beam="1">  1        2 0.44655932E-02 0.27429604E+03</pdfrwt>
<pdfrwt beam="2">  1       -2 0.99694960E-01 0.27429604E+03</pdfrwt>
<totfact> 0.15775243E+03</totfact>
</mgrwt>
</event>
<event>
 9    1  0.7957670E-001  0.2766581E+03  0.7818608E-02  0.1097528E+00
          1   -1    0    0  501    0  0.00000000000E+00  0.00000000000E+00  0.35414687010E+03  0.35414687010E+03  0.00000000000E+00 0.  1.
         -1   -1    0    0    0  501 -0.00000000000E+00 -0.00000000000E+00 -0.54031033985E+02  0.54031033985E+02  0.00000000000E+00 0.  1.
         35    2    1    2    0    0 -0.14210854715E-13  0.00000000000E+00  0.30011583611E+03  0.40817790408E+03  0.27665806747E+03 0.  0.
         25    2    3    3    0    0 -0.40365006266E+02 -0.20483834683E+02  0.20736528554E+03  0.24671028225E+03  0.12576438488E+03 0.  0.
         25    2    3    3    0    0  0.40365006266E+02  0.20483834683E+02  0.92750550567E+02  0.16146762183E+03  0.12417812632E+03 0.  0.
          5    1    4    4  502    0  0.50161695697E+01 -0.18447024735E+02 -0.11723256445E+02  0.22912429387E+02  0.47000000000E+01 0. -1.
         -5    1    4    4    0  502 -0.45381175836E+02 -0.20368099486E+01  0.21908854199E+03  0.22379785286E+03  0.47000000000E+01 0. -1.
          5    1    5    5  503    0 -0.30580281470E+02  0.34387633481E+02  0.72921244759E+02  0.86355433462E+02  0.47000000000E+01 0. -1.
         -5    1    5    5    0  503  0.70945287736E+02 -0.13903798798E+02  0.19829305809E+02  0.75112188371E+02  0.47000000000E+01 0. -1.
<mgrwt>
<rscale>  0 0.27665807E+03</rscale>
<asrwt>0</asrwt>
<pdfrwt beam="1">  1        1 0.54484132E-01 0.27665807E+03</pdfrwt>
<pdfrwt beam="2">  1       -1 0.83124670E-02 0.27665807E+03</pdfrwt>
<totfact> 0.57201588E+03</totfact>
</mgrwt>
</event>
<event>
 9    1  0.7957670E-001  0.2784040E+03  0.7818608E-02  0.1096564E+00
          2   -1    0    0  501    0  0.00000000000E+00  0.00000000000E+00  0.60608919581E+03  0.60608919581E+03  0.00000000000E+00 0. -1.
         -2   -1    0    0    0  501 -0.00000000000E+00 -0.00000000000E+00 -0.31970875515E+02  0.31970875515E+02  0.00000000000E+00 0. -1.
         35    2    1    2    0    0  0.00000000000E+00  0.00000000000E+00  0.57411832029E+03  0.63806007132E+03  0.27840403898E+03 0.  0.
         25    2    3    3    0    0  0.19163843831E+01 -0.43407644114E+02  0.19445969162E+03  0.23601933409E+03  0.12650161384E+03 0.  0.
         25    2    3    3    0    0 -0.19163843831E+01  0.43407644114E+02  0.37965862868E+03  0.40204073724E+03  0.12493271778E+03 0.  0.
          5    1    4    4  502    0  0.50611127544E+02 -0.60501191549E+02  0.92576792670E+02  0.12171455521E+03  0.47000000000E+01 0. -1.
         -5    1    4    4    0  502 -0.48694743161E+02  0.17093547435E+02  0.10188289895E+03  0.11430477887E+03  0.47000000000E+01 0. -1.
          5    1    5    5  503    0 -0.62864476184E+02  0.28091725946E+02  0.18636879747E+03  0.19873727910E+03  0.47000000000E+01 0. -1.
         -5    1    5    5    0  503  0.60948091801E+02  0.15315918168E+02  0.19328983120E+03  0.20330345814E+03  0.47000000000E+01 0. -1.
<mgrwt>
<rscale>  0 0.27840404E+03</rscale>
<asrwt>0</asrwt>
<pdfrwt beam="1">  1        2 0.93244483E-01 0.27840404E+03</pdfrwt>
<pdfrwt beam="2">  1       -2 0.49185967E-02 0.27840404E+03</pdfrwt>
<totfact> 0.99699945E+03</totfact>
</mgrwt>
</event>
<event>
 9    1  0.7957670E-001  0.2761883E+03  0.7818608E-02  0.1097789E+00
          2   -1    0    0  501    0  0.00000000000E+00  0.00000000000E+00  0.42904293458E+03  0.42904293458E+03  0.00000000000E+00 0. -1.
         -2   -1    0    0    0  501 -0.00000000000E+00 -0.00000000000E+00 -0.44447742752E+02  0.44447742752E+02  0.00000000000E+00 0. -1.
         35    2    1    2    0    0  0.00000000000E+00 -0.71054273576E-14  0.38459519183E+03  0.47349067733E+03  0.27618826902E+03 0.  0.
         25    2    3    3    0    0  0.38502422714E+02  0.39021410920E+02  0.22162347214E+03  0.26081031108E+03  0.12609499553E+03 0.  0.
         25    2    3    3    0    0 -0.38502422714E+02 -0.39021410920E+02  0.16297171969E+03  0.21268036626E+03  0.12517208038E+03 0.  0.
          5    1    4    4  502    0  0.24675962309E+02  0.33795151236E+02  0.36285636816E+01  0.42264309261E+02  0.47000000000E+01 0. -1.
         -5    1    4    4    0  502  0.13826460405E+02  0.52262596839E+01  0.21799490846E+03  0.21854600182E+03  0.47000000000E+01 0. -1.
          5    1    5    5  503    0 -0.99096511777E+01  0.39391557062E+01 -0.19651767407E+02  0.22847321426E+02  0.47000000000E+01 0.  1.
         -5    1    5    5    0  503 -0.28592771536E+02 -0.42960566626E+02  0.18262348710E+03  0.18983304483E+03  0.47000000000E+01 0.  1.
<mgrwt>
<rscale>  0 0.27618827E+03</rscale>
<asrwt>0</asrwt>
<pdfrwt beam="1">  1        2 0.66006603E-01 0.27618827E+03</pdfrwt>
<pdfrwt beam="2">  1       -2 0.68381145E-02 0.27618827E+03</pdfrwt>
<totfact> 0.88747619E+03</totfact>
</mgrwt>
</event>
<event>
 9    1  0.7957670E-001  0.2711124E+03  0.7818608E-02  0.1100645E+00
         -2   -1    0    0    0  501 -0.00000000000E+00  0.00000000000E+00  0.10226357416E+02  0.10226357416E+02  0.00000000000E+00 0. -1.
          2   -1    0    0  501    0  0.00000000000E+00 -0.00000000000E+00 -0.17968744998E+04  0.17968744998E+04  0.00000000000E+00 0. -1.
         35    2    1    2    0    0  0.00000000000E+00  0.35527136788E-14 -0.17866481424E+04  0.18071008572E+04  0.27111238162E+03 0.  0.
         25    2    3    3    0    0  0.47733936023E+02 -0.13878800538E+02 -0.10052124448E+04  0.10144409708E+04  0.12715059679E+03 0.  0.
         25    2    3    3    0    0 -0.47733936023E+02  0.13878800538E+02 -0.78143569758E+03  0.79265988644E+03  0.12327528687E+03 0.  0.
          5    1    4    4  502    0 -0.16656433667E+02  0.45071116779E+02 -0.41242995733E+03  0.41524619451E+03  0.47000000000E+01 0. -1.
         -5    1    4    4    0  502  0.64390369690E+02 -0.58949917317E+02 -0.59278248747E+03  0.59919477627E+03  0.47000000000E+01 0. -1.
          5    1    5    5  503    0 -0.49002809137E+00 -0.15055895724E+02 -0.64684245561E+03  0.64703490826E+03  0.47000000000E+01 0.  1.
         -5    1    5    5    0  503 -0.47243907932E+02  0.28934696262E+02 -0.13459324197E+03  0.14562497818E+03  0.47000000000E+01 0.  1.
<mgrwt>
<rscale>  0 0.27111238E+03</rscale>
<asrwt>0</asrwt>
<pdfrwt beam="1">  1        2 0.27644253E+00 0.27111238E+03</pdfrwt>
<pdfrwt beam="2">  1       -2 0.15732841E-02 0.27111238E+03</pdfrwt>
<totfact> 0.10448281E+04</totfact>
</mgrwt>
</event>
<event>
 9    1  0.7957670E-001  0.2744660E+03  0.7818608E-02  0.1098750E+00
         -1   -1    0    0    0  501 -0.00000000000E+00  0.00000000000E+00  0.20386983827E+02  0.20386983827E+02  0.00000000000E+00 0. -1.
          1   -1    0    0  501    0  0.00000000000E+00 -0.00000000000E+00 -0.92377057966E+03  0.92377057966E+03  0.00000000000E+00 0. -1.
         35    2    1    2    0    0  0.88817841970E-15  0.71054273576E-14 -0.90338359583E+03  0.94415756349E+03  0.27446599693E+03 0.  0.
         25    2    3    3    0    0  0.68275744203E+01  0.54920635684E+02 -0.49779087893E+03  0.51645024124E+03  0.12594522831E+03 0.  0.
         25    2    3    3    0    0 -0.68275744203E+01 -0.54920635684E+02 -0.40559271691E+03  0.42770732225E+03  0.12395648230E+03 0.  0.
          5    1    4    4  502    0  0.11268284093E+02  0.10398157570E+02  0.58513796753E+00  0.16047688110E+02  0.47000000000E+01 0. -1.
         -5    1    4    4    0  502 -0.44407096726E+01  0.44522478114E+02 -0.49837601690E+03  0.50040255313E+03  0.47000000000E+01 0. -1.
          5    1    5    5  503    0  0.33830567820E+02  0.11608744081E+02 -0.25994363898E+03  0.26243485992E+03  0.47000000000E+01 0. -1.
         -5    1    5    5    0  503 -0.40658142240E+02 -0.66529379765E+02 -0.14564907793E+03  0.16527246233E+03  0.47000000000E+01 0. -1.
<mgrwt>
<rscale>  0 0.27446600E+03</rscale>
<asrwt>0</asrwt>
<pdfrwt beam="1">  1        1 0.14211855E+00 0.27446600E+03</pdfrwt>
<pdfrwt beam="2">  1       -1 0.31364590E-02 0.27446600E+03</pdfrwt>
<totfact> 0.64527950E+03</totfact>
</mgrwt>
</event>
<event>
 9    1  0.7957670E-001  0.2707035E+03  0.7818608E-02  0.1100878E+00
         -2   -1    0    0    0  501 -0.00000000000E+00  0.00000000000E+00  0.14334665268E+03  0.14334665268E+03  0.00000000000E+00 0.  1.
          2   -1    0    0  501    0  0.00000000000E+00 -0.00000000000E+00 -0.12780273886E+03  0.12780273886E+03  0.00000000000E+00 0.  1.
         35    2    1    2    0    0 -0.71054273576E-14  0.00000000000E+00  0.15543913817E+02  0.27114939155E+03  0.27070348959E+03 0.  0.
         25    2    3    3    0    0  0.33043902952E+02 -0.20557303883E+02  0.41569014544E+02  0.13770450398E+03  0.12537960432E+03 0.  0.
         25    2    3    3    0    0 -0.33043902952E+02  0.20557303883E+02 -0.26025100726E+02  0.13344488757E+03  0.12496291404E+03 0.  0.
          5    1    4    4  502    0  0.26963307335E+01  0.42258193087E+02 -0.17611823464E+02  0.46100882943E+02  0.47000000000E+01 0.  1.
         -5    1    4    4    0  502  0.30347572218E+02 -0.62815496970E+02  0.59180838008E+02  0.91603621033E+02  0.47000000000E+01 0.  1.
          5    1    5    5  503    0 -0.45477153212E+02 -0.42183356362E+02 -0.30251450175E+02  0.69172590352E+02  0.47000000000E+01 0. -1.
         -5    1    5    5    0  503  0.12433250261E+02  0.62740660245E+02  0.42263494489E+01  0.64272297218E+02  0.47000000000E+01 0. -1.
<mgrwt>
<rscale>  0 0.27070349E+03</rscale>
<asrwt>0</asrwt>
<pdfrwt beam="1">  1        2 0.19661960E-01 0.27070349E+03</pdfrwt>
<pdfrwt beam="2">  1       -2 0.22053331E-01 0.27070349E+03</pdfrwt>
<totfact> 0.49852497E+03</totfact>
</mgrwt>
</event>
<event>
 9    1  0.7957670E-001  0.2848191E+03  0.7818608E-02  0.1093086E+00
         -2   -1    0    0    0  501 -0.00000000000E+00  0.00000000000E+00  0.29325473384E+03  0.29325473384E+03  0.00000000000E+00 0. -1.
          2   -1    0    0  501    0  0.00000000000E+00 -0.00000000000E+00 -0.69156506933E+02  0.69156506933E+02  0.00000000000E+00 0. -1.
         35    2    1    2    0    0 -0.53290705182E-14  0.00000000000E+00  0.22409822691E+03  0.36241124078E+03  0.28481905157E+03 0.  0.
         25    2    3    3    0    0  0.13000817039E+02  0.18199146814E+02  0.19282841971E+03  0.23124858947E+03  0.12566972784E+03 0.  0.
         25    2    3    3    0    0 -0.13000817039E+02 -0.18199146814E+02  0.31269807198E+02  0.13116265131E+03  0.12540179451E+03 0.  0.
          5    1    4    4  502    0  0.48659458086E+02  0.46258235616E+02  0.57776598704E+02  0.88700578247E+02  0.47000000000E+01 0. -1.
         -5    1    4    4    0  502 -0.35658641047E+02 -0.28059088803E+02  0.13505182101E+03  0.14254801122E+03  0.47000000000E+01 0. -1.
          5    1    5    5  503    0  0.24482377359E+01 -0.58689315286E+02 -0.21489944754E+02  0.62724296108E+02  0.47000000000E+01 0. -1.
         -5    1    5    5    0  503 -0.15449054775E+02  0.40490168472E+02  0.52759751953E+02  0.68438355200E+02  0.47000000000E+01 0. -1.
<mgrwt>
<rscale>  0 0.28481905E+03</rscale>
<asrwt>0</asrwt>
<pdfrwt beam="1">  1        2 0.10639463E-01 0.28481905E+03</pdfrwt>
<pdfrwt beam="2">  1       -2 0.45116112E-01 0.28481905E+03</pdfrwt>
<totfact> 0.27885979E+03</totfact>
</mgrwt>
</event>
<event>
 9    1  0.7957670E-001  0.2753239E+03  0.7818608E-02  0.1098271E+00
          1   -1    0    0  501    0  0.00000000000E+00  0.00000000000E+00  0.79575376708E+03  0.79575376708E+03  0.00000000000E+00 0.  1.
         -1   -1    0    0    0  501 -0.00000000000E+00 -0.00000000000E+00 -0.23814914697E+02  0.23814914697E+02  0.00000000000E+00 0.  1.
         35    2    1    2    0    0  0.17763568394E-14 -0.71054273576E-14  0.77193885239E+03  0.81956868178E+03  0.27532386808E+03 0.  0.
         25    2    3    3    0    0  0.49967402994E+01 -0.37418678922E+02  0.26880901009E+03  0.29981019577E+03  0.12729000210E+03 0.  0.
         25    2    3    3    0    0 -0.49967402994E+01  0.37418678922E+02  0.50312984229E+03  0.51975848601E+03  0.12483637543E+03 0.  0.
          5    1    4    4  502    0  0.13148320715E+02  0.19812013905E+02  0.22705467033E+03  0.22834471211E+03  0.47000000000E+01 0.  1.
         -5    1    4    4    0  502 -0.81515804159E+01 -0.57230692827E+02  0.41754339764E+02  0.71465483653E+02  0.47000000000E+01 0.  1.
          5    1    5    5  503    0 -0.84507952048E+01 -0.32932492771E+02  0.47000226997E+02  0.58198594120E+02  0.47000000000E+01 0. -1.
         -5    1    5    5    0  503  0.34540549055E+01  0.70351171693E+02  0.45612961530E+03  0.46155989189E+03  0.47000000000E+01 0. -1.
<mgrwt>
<rscale>  0 0.27532387E+03</rscale>
<asrwt>0</asrwt>
<pdfrwt beam="1">  1        1 0.12242364E+00 0.27532387E+03</pdfrwt>
<pdfrwt beam="2">  1       -1 0.36638336E-02 0.27532387E+03</pdfrwt>
<totfact> 0.65002465E+03</totfact>
</mgrwt>
</event>
<event>
 9    1  0.7957670E-001  0.2748179E+03  0.7818608E-02  0.1098553E+00
         -2   -1    0    0    0  501 -0.00000000000E+00  0.00000000000E+00  0.28672980637E+02  0.28672980637E+02  0.00000000000E+00 0.  1.
          2   -1    0    0  501    0  0.00000000000E+00 -0.00000000000E+00 -0.65850197808E+03  0.65850197808E+03  0.00000000000E+00 0.  1.
         35    2    1    2    0    0 -0.14210854715E-13 -0.35527136788E-14 -0.62982899745E+03  0.68717495872E+03  0.27481786308E+03 0.  0.
         25    2    3    3    0    0 -0.45322729532E+02 -0.27781187031E+02 -0.26203142243E+03  0.29500813785E+03  0.12467313621E+03 0.  0.
         25    2    3    3    0    0  0.45322729532E+02  0.27781187031E+02 -0.36779757502E+03  0.39216682087E+03  0.12527495775E+03 0.  0.
          5    1    4    4  502    0  0.99692460966E+01 -0.65286379930E+02 -0.15761390656E+03  0.17095593238E+03  0.47000000000E+01 0.  1.
         -5    1    4    4    0  502 -0.55291975629E+02  0.37505192899E+02 -0.10441751587E+03  0.12405220547E+03  0.47000000000E+01 0.  1.
          5    1    5    5  503    0 -0.30582238858E+02  0.12782215112E+00 -0.23224483331E+03  0.23429691050E+03  0.47000000000E+01 0. -1.
         -5    1    5    5    0  503  0.75904968390E+02  0.27653364879E+02 -0.13555274171E+03  0.15786991037E+03  0.47000000000E+01 0. -1.
<mgrwt>
<rscale>  0 0.27481786E+03</rscale>
<asrwt>0</asrwt>
<pdfrwt beam="1">  1        2 0.10130799E+00 0.27481786E+03</pdfrwt>
<pdfrwt beam="2">  1       -2 0.44112281E-02 0.27481786E+03</pdfrwt>
<totfact> 0.10658282E+04</totfact>
</mgrwt>
</event>
<event>
 9    1  0.7957670E-001  0.2748437E+03  0.7818608E-02  0.1098539E+00
         -4   -1    0    0    0  501 -0.00000000000E+00  0.00000000000E+00  0.62766120472E+02  0.62766120472E+02  0.00000000000E+00 0. -1.
          4   -1    0    0  501    0  0.00000000000E+00 -0.00000000000E+00 -0.30087513539E+03  0.30087513539E+03  0.00000000000E+00 0. -1.
         35    2    1    2    0    0  0.00000000000E+00  0.00000000000E+00 -0.23810901492E+03  0.36364125586E+03  0.27484370100E+03 0.  0.
         25    2    3    3    0    0  0.36839420819E+02 -0.19725159874E+02 -0.70390431171E+02  0.15038306385E+03  0.12615081543E+03 0.  0.
         25    2    3    3    0    0 -0.36839420819E+02  0.19725159874E+02 -0.16771858375E+03  0.21325819202E+03  0.12491320294E+03 0.  0.
          5    1    4    4  502    0  0.20011579706E+02 -0.42150543411E+02 -0.99312967555E+02  0.10982844421E+03  0.47000000000E+01 0.  1.
         -5    1    4    4    0  502  0.16827841112E+02  0.22425383537E+02  0.28922536384E+02  0.40554619640E+02  0.47000000000E+01 0.  1.
          5    1    5    5  503    0 -0.11935151992E+02 -0.53088040129E+02 -0.68720167327E+02  0.87780061832E+02  0.47000000000E+01 0.  1.
         -5    1    5    5    0  503 -0.24904268827E+02  0.72813200003E+02 -0.98998416421E+02  0.12547813018E+03  0.47000000000E+01 0.  1.
<mgrwt>
<rscale>  0 0.27484370E+03</rscale>
<asrwt>0</asrwt>
<pdfrwt beam="1">  1        4 0.46288482E-01 0.27484370E+03</pdfrwt>
<pdfrwt beam="2">  1       -4 0.96563264E-02 0.27484370E+03</pdfrwt>
<totfact> 0.68506581E+02</totfact>
</mgrwt>
</event>
<event>
 9    1  0.7957670E-001  0.2743436E+03  0.7818608E-02  0.1098819E+00
         -2   -1    0    0    0  501 -0.00000000000E+00  0.00000000000E+00  0.29690219280E+02  0.29690219280E+02  0.00000000000E+00 0.  1.
          2   -1    0    0  501    0  0.00000000000E+00 -0.00000000000E+00 -0.63374736440E+03  0.63374736440E+03  0.00000000000E+00 0.  1.
         35    2    1    2    0    0 -0.14210854715E-13 -0.71054273576E-14 -0.60405714512E+03  0.66343758368E+03  0.27434356721E+03 0.  0.
         25    2    3    3    0    0 -0.42759619544E+02 -0.14823932280E+01 -0.20373004714E+03  0.24183683340E+03  0.12307940252E+03 0.  0.
         25    2    3    3    0    0  0.42759619544E+02  0.14823932280E+01 -0.40032709797E+03  0.42160075028E+03  0.12511924197E+03 0.  0.
          5    1    4    4  502    0 -0.22538531122E+02  0.51594731093E+02 -0.42118149322E+02  0.70470065730E+02  0.47000000000E+01 0. -1.
         -5    1    4    4    0  502 -0.20221088422E+02 -0.53077124321E+02 -0.16161189782E+03  0.17136676767E+03  0.47000000000E+01 0. -1.
          5    1    5    5  503    0  0.18569662950E+02  0.62547303690E+02 -0.17404915854E+03  0.18593600289E+03  0.47000000000E+01 0.  1.
         -5    1    5    5    0  503  0.24189956595E+02 -0.61064910462E+02 -0.22627793943E+03  0.23566474739E+03  0.47000000000E+01 0.  1.
<mgrwt>
<rscale>  0 0.27434357E+03</rscale>
<asrwt>0</asrwt>
<pdfrwt beam="1">  1        2 0.97499578E-01 0.27434357E+03</pdfrwt>
<pdfrwt beam="2">  1       -2 0.45677268E-02 0.27434357E+03</pdfrwt>
<totfact> 0.10579850E+04</totfact>
</mgrwt>
</event>
<event>
 9    1  0.7957670E-001  0.2772456E+03  0.7818608E-02  0.1097203E+00
          1   -1    0    0  501    0  0.00000000000E+00  0.00000000000E+00  0.93436238092E+03  0.93436238092E+03  0.00000000000E+00 0. -1.
         -1   -1    0    0    0  501 -0.00000000000E+00 -0.00000000000E+00 -0.20566203259E+02  0.20566203259E+02  0.00000000000E+00 0. -1.
         35    2    1    2    0    0  0.35527136788E-14 -0.71054273576E-14  0.91379617766E+03  0.95492858418E+03  0.27724564302E+03 0.  0.
         25    2    3    3    0    0  0.51803211501E+01 -0.15154296206E+02  0.63370502075E+03  0.64627635691E+03  0.12583555839E+03 0.  0.
         25    2    3    3    0    0 -0.51803211501E+01  0.15154296206E+02  0.28009115690E+03  0.30865222726E+03  0.12868042896E+03 0.  0.
          5    1    4    4  502    0 -0.54537944432E+02 -0.10729372347E+02  0.17551627966E+03  0.18416721000E+03  0.47000000000E+01 0. -1.
         -5    1    4    4    0  502  0.59718265582E+02 -0.44249238589E+01  0.45818874109E+03  0.46210914691E+03  0.47000000000E+01 0. -1.
          5    1    5    5  503    0  0.20943635044E+02  0.65716081066E+02  0.11755740462E+03  0.13637841670E+03  0.47000000000E+01 0. -1.
         -5    1    5    5    0  503 -0.26123956194E+02 -0.50561784861E+02  0.16253375229E+03  0.17227381057E+03  0.47000000000E+01 0. -1.
<mgrwt>
<rscale>  0 0.27724564E+03</rscale>
<asrwt>0</asrwt>
<pdfrwt beam="1">  1        1 0.14374803E+00 0.27724564E+03</pdfrwt>
<pdfrwt beam="2">  1       -1 0.31640320E-02 0.27724564E+03</pdfrwt>
<totfact> 0.62521853E+03</totfact>
</mgrwt>
</event>
<event>
 9    1  0.7957670E-001  0.2799458E+03  0.7818608E-02  0.1095719E+00
          2   -1    0    0  501    0  0.00000000000E+00  0.00000000000E+00  0.11735001704E+03  0.11735001704E+03  0.00000000000E+00 0. -1.
         -2   -1    0    0    0  501 -0.00000000000E+00 -0.00000000000E+00 -0.16695699944E+03  0.16695699944E+03  0.00000000000E+00 0. -1.
         35    2    1    2    0    0  0.00000000000E+00  0.00000000000E+00 -0.49606982393E+02  0.28430701648E+03  0.27994575710E+03 0.  0.
         25    2    3    3    0    0  0.56446447050E+02 -0.26768939894E+02 -0.17531429444E+02  0.14090722541E+03  0.12507884564E+03 0.  0.
         25    2    3    3    0    0 -0.56446447050E+02  0.26768939894E+02 -0.32075552949E+02  0.14339979107E+03  0.12502752279E+03 0.  0.
          5    1    4    4  502    0  0.11482123482E+02 -0.46478700895E+02  0.41817461611E+02  0.63740873011E+02  0.47000000000E+01 0.  1.
         -5    1    4    4    0  502  0.44964323568E+02  0.19709761001E+02 -0.59348891055E+02  0.77166352396E+02  0.47000000000E+01 0.  1.
          5    1    5    5  503    0  0.33839096854E+02  0.87316031066E+01  0.16795374670E+02  0.39057649430E+02  0.47000000000E+01 0.  1.
         -5    1    5    5    0  503 -0.90285543904E+02  0.18037336787E+02 -0.48870927618E+02  0.10434214164E+03  0.47000000000E+01 0.  1.
<mgrwt>
<rscale>  0 0.27994576E+03</rscale>
<asrwt>0</asrwt>
<pdfrwt beam="1">  1        2 0.18053849E-01 0.27994576E+03</pdfrwt>
<pdfrwt beam="2">  1       -2 0.25685692E-01 0.27994576E+03</pdfrwt>
<totfact> 0.42160703E+03</totfact>
</mgrwt>
</event>
<event>
 9    1  0.7957670E-001  0.2902791E+03  0.7818608E-02  0.1090203E+00
          1   -1    0    0  501    0  0.00000000000E+00  0.00000000000E+00  0.12676686364E+03  0.12676686364E+03  0.00000000000E+00 0. -1.
         -1   -1    0    0    0  501 -0.00000000000E+00 -0.00000000000E+00 -0.16617508433E+03  0.16617508433E+03  0.00000000000E+00 0. -1.
         35    2    1    2    0    0  0.14210854715E-13  0.35527136788E-14 -0.39408220686E+02  0.29294194797E+03  0.29027913639E+03 0.  0.
         25    2    3    3    0    0 -0.62521029737E+02 -0.83335109174E+01 -0.58152402885E+02  0.15160390861E+03  0.12499486622E+03 0.  0.
         25    2    3    3    0    0  0.62521029737E+02  0.83335109174E+01  0.18744182199E+02  0.14133803936E+03  0.12508705145E+03 0.  0.
          5    1    4    4  502    0  0.11938340944E+02 -0.48566195875E+02 -0.41638560357E+02  0.65246142222E+02  0.47000000000E+01 0. -1.
         -5    1    4    4    0  502 -0.74459370681E+02  0.40232684957E+02 -0.16513842528E+02  0.86357766392E+02  0.47000000000E+01 0. -1.
          5    1    5    5  503    0  0.98652778042E+02  0.86814108944E+01  0.29331532243E+02  0.10339326039E+03  0.47000000000E+01 0. -1.
         -5    1    5    5    0  503 -0.36131748305E+02 -0.34789997702E+00 -0.10587350044E+02  0.37944778968E+02  0.47000000000E+01 0. -1.
<mgrwt>
<rscale>  0 0.29027914E+03</rscale>
<asrwt>0</asrwt>
<pdfrwt beam="1">  1        1 0.19502594E-01 0.29027914E+03</pdfrwt>
<pdfrwt beam="2">  1       -1 0.25565398E-01 0.29027914E+03</pdfrwt>
<totfact> 0.35276999E+03</totfact>
</mgrwt>
</event>
<event>
 9    1  0.7957670E-001  0.2773303E+03  0.7818608E-02  0.1097156E+00
         -1   -1    0    0    0  501 -0.00000000000E+00  0.00000000000E+00  0.86869716715E+01  0.86869716715E+01  0.00000000000E+00 0.  1.
          1   -1    0    0  501    0  0.00000000000E+00 -0.00000000000E+00 -0.22134318072E+04  0.22134318072E+04  0.00000000000E+00 0.  1.
         35    2    1    2    0    0  0.71054273576E-14 -0.71054273576E-14 -0.22047448356E+04  0.22221187789E+04  0.27733026814E+03 0.  0.
         25    2    3    3    0    0  0.17813613758E+02  0.32527642578E+02 -0.75888887537E+03  0.77005159744E+03  0.12526677608E+03 0.  0.
         25    2    3    3    0    0 -0.17813613758E+02 -0.32527642578E+02 -0.14458559602E+04  0.14520671815E+04  0.12893513681E+03 0.  0.
          5    1    4    4  502    0 -0.39913868341E+02  0.13452496732E+02 -0.56978796912E+03  0.57136197485E+03  0.47000000000E+01 0.  1.
         -5    1    4    4    0  502  0.57727482099E+02  0.19075145846E+02 -0.18910090625E+03  0.19868962259E+03  0.47000000000E+01 0.  1.
          5    1    5    5  503    0  0.34242913078E+02  0.82754247630E+01 -0.13707605050E+03  0.14160859216E+03  0.47000000000E+01 0.  1.
         -5    1    5    5    0  503 -0.52056526837E+02 -0.40803067341E+02 -0.13087799097E+04  0.13104585893E+04  0.47000000000E+01 0.  1.
<mgrwt>
<rscale>  0 0.27733027E+03</rscale>
<asrwt>0</asrwt>
<pdfrwt beam="1">  1        1 0.34052833E+00 0.27733027E+03</pdfrwt>
<pdfrwt beam="2">  1       -1 0.13364558E-02 0.27733027E+03</pdfrwt>
<totfact> 0.30244145E+03</totfact>
</mgrwt>
</event>
<event>
 9    1  0.7957670E-001  0.2736772E+03  0.7818608E-02  0.1099193E+00
         -1   -1    0    0    0  501 -0.00000000000E+00  0.00000000000E+00  0.85620097678E+03  0.85620097678E+03  0.00000000000E+00 0.  1.
          1   -1    0    0  501    0  0.00000000000E+00 -0.00000000000E+00 -0.21869628618E+02  0.21869628618E+02  0.00000000000E+00 0.  1.
         35    2    1    2    0    0  0.71054273576E-14 -0.17763568394E-14  0.83433134816E+03  0.87807060540E+03  0.27367716298E+03 0.  0.
         25    2    3    3    0    0 -0.42086293669E+02  0.36760423624E+01  0.53303735261E+03  0.54904704135E+03  0.12465578581E+03 0.  0.
         25    2    3    3    0    0  0.42086293669E+02 -0.36760423624E+01  0.30129399555E+03  0.32902356404E+03  0.12527435707E+03 0.  0.
          5    1    4    4  502    0 -0.19963666596E+02 -0.10186878996E+02  0.94258653022E+01  0.24764034896E+02  0.47000000000E+01 0.  1.
         -5    1    4    4    0  502 -0.22122627073E+02  0.13862921359E+02  0.52361148731E+03  0.52428300646E+03  0.47000000000E+01 0.  1.
          5    1    5    5  503    0 -0.26896974432E+02  0.40528795760E+02  0.91150371325E+02  0.10342393684E+03  0.47000000000E+01 0. -1.
         -5    1    5    5    0  503  0.68983268101E+02 -0.44204838123E+02  0.21014362422E+03  0.22559962720E+03  0.47000000000E+01 0. -1.
<mgrwt>
<rscale>  0 0.27367716E+03</rscale>
<asrwt>0</asrwt>
<pdfrwt beam="1">  1        1 0.33645589E-02 0.27367716E+03</pdfrwt>
<pdfrwt beam="2">  1       -1 0.13172320E+00 0.27367716E+03</pdfrwt>
<totfact> 0.15270219E+03</totfact>
</mgrwt>
</event>
<event>
 9    1  0.7957670E-001  0.2756673E+03  0.7818608E-02  0.1098079E+00
         -1   -1    0    0    0  501 -0.00000000000E+00  0.00000000000E+00  0.12591734479E+02  0.12591734479E+02  0.00000000000E+00 0. -1.
          1   -1    0    0  501    0  0.00000000000E+00 -0.00000000000E+00 -0.15087764249E+04  0.15087764249E+04  0.00000000000E+00 0. -1.
         35    2    1    2    0    0  0.00000000000E+00  0.35527136788E-14 -0.14961846904E+04  0.15213681593E+04  0.27566727865E+03 0.  0.
         25    2    3    3    0    0 -0.49215380340E+02  0.18436798863E+02 -0.88770200090E+03  0.89776664291E+03  0.12332085595E+03 0.  0.
         25    2    3    3    0    0  0.49215380340E+02 -0.18436798863E+02 -0.60848268949E+03  0.62360151643E+03  0.12595871814E+03 0.  0.
          5    1    4    4  502    0 -0.79959279098E+02  0.43117118097E+02 -0.70189472055E+03  0.70776469319E+03  0.47000000000E+01 0. -1.
         -5    1    4    4    0  502  0.30743898758E+02 -0.24680319234E+02 -0.18580728035E+03  0.19000194972E+03  0.47000000000E+01 0. -1.
          5    1    5    5  503    0  0.62034282266E+02 -0.63707438139E+02 -0.41130860693E+03  0.42083696367E+03  0.47000000000E+01 0.  1.
         -5    1    5    5    0  503 -0.12818901927E+02  0.45270639276E+02 -0.19717408256E+03  0.20276455277E+03  0.47000000000E+01 0.  1.
<mgrwt>
<rscale>  0 0.27566728E+03</rscale>
<asrwt>0</asrwt>
<pdfrwt beam="1">  1        1 0.23211955E+00 0.27566728E+03</pdfrwt>
<pdfrwt beam="2">  1       -1 0.19371891E-02 0.27566728E+03</pdfrwt>
<totfact> 0.50734436E+03</totfact>
</mgrwt>
</event>
<event>
 9    1  0.7957670E-001  0.2754121E+03  0.7818608E-02  0.1098221E+00
          2   -1    0    0  501    0  0.00000000000E+00  0.00000000000E+00  0.10507584602E+04  0.10507584602E+04  0.00000000000E+00 0.  1.
         -2   -1    0    0    0  501 -0.00000000000E+00 -0.00000000000E+00 -0.18046927198E+02  0.18046927198E+02  0.00000000000E+00 0.  1.
         35    2    1    2    0    0 -0.71054273576E-14  0.14210854715E-13  0.10327115330E+04  0.10688053874E+04  0.27541213796E+03 0.  0.
         25    2    3    3    0    0  0.54806537014E+01  0.55616336428E+02  0.61863562752E+03  0.63263122608E+03  0.11995421680E+03 0.  0.
         25    2    3    3    0    0 -0.54806537014E+01 -0.55616336428E+02  0.41407590544E+03  0.43617416128E+03  0.12516320969E+03 0.  0.
          5    1    4    4  502    0  0.33095178297E+02  0.11183110353E+01  0.46804614716E+02  0.57526545219E+02  0.47000000000E+01 0.  1.
         -5    1    4    4    0  502 -0.27614524595E+02  0.54498025393E+02  0.57183101281E+03  0.57510468086E+03  0.47000000000E+01 0.  1.
          5    1    5    5  503    0  0.55517238212E+02 -0.25840853596E+01  0.15415333665E+03  0.16393346955E+03  0.47000000000E+01 0. -1.
         -5    1    5    5    0  503 -0.60997891914E+02 -0.53032251069E+02  0.25992256879E+03  0.27224069174E+03  0.47000000000E+01 0. -1.
<mgrwt>
<rscale>  0 0.27541214E+03</rscale>
<asrwt>0</asrwt>
<pdfrwt beam="1">  1        2 0.16165510E+00 0.27541214E+03</pdfrwt>
<pdfrwt beam="2">  1       -2 0.27764512E-02 0.27541214E+03</pdfrwt>
<totfact> 0.11599064E+04</totfact>
</mgrwt>
</event>
<event>
 9    1  0.7957670E-001  0.2695310E+03  0.7818608E-02  0.1101548E+00
          2   -1    0    0  501    0  0.00000000000E+00  0.00000000000E+00  0.25153811636E+04  0.25153811636E+04  0.00000000000E+00 0.  1.
         -2   -1    0    0    0  501 -0.00000000000E+00 -0.00000000000E+00 -0.72202726975E+01  0.72202726975E+01  0.00000000000E+00 0.  1.
         35    2    1    2    0    0  0.35527136788E-14  0.00000000000E+00  0.25081608909E+04  0.25226014363E+04  0.26953098478E+03 0.  0.
         25    2    3    3    0    0 -0.31324102881E+02  0.38700750173E+02  0.13331938018E+04  0.13399155796E+04  0.12445521184E+03 0.  0.
         25    2    3    3    0    0  0.31324102881E+02 -0.38700750173E+02  0.11749670891E+04  0.11826858567E+04  0.12537634436E+03 0.  0.
          5    1    4    4  502    0 -0.64913782405E+02  0.27464430915E+02  0.41076087150E+03  0.41679092801E+03  0.47000000000E+01 0.  1.
         -5    1    4    4    0  502  0.33589679524E+02  0.11236319258E+02  0.92243293031E+03  0.92312465159E+03  0.47000000000E+01 0.  1.
          5    1    5    5  503    0 -0.13763985427E+02 -0.75172228932E+02  0.63966409972E+03  0.64423020867E+03  0.47000000000E+01 0.  1.
         -5    1    5    5    0  503  0.45088088307E+02  0.36471478760E+02  0.53530298939E+03  0.53845564806E+03  0.47000000000E+01 0.  1.
<mgrwt>
<rscale>  0 0.26953098E+03</rscale>
<asrwt>0</asrwt>
<pdfrwt beam="1">  1        2 0.38698102E+00 0.26953098E+03</pdfrwt>
<pdfrwt beam="2">  1       -2 0.11108132E-02 0.26953098E+03</pdfrwt>
<totfact> 0.71971936E+03</totfact>
</mgrwt>
</event>
<event>
 9    1  0.7957670E-001  0.2822858E+03  0.7818608E-02  0.1094447E+00
          1   -1    0    0  501    0  0.00000000000E+00  0.00000000000E+00  0.12389295102E+03  0.12389295102E+03  0.00000000000E+00 0.  1.
         -1   -1    0    0    0  501 -0.00000000000E+00 -0.00000000000E+00 -0.16079457439E+03  0.16079457439E+03  0.00000000000E+00 0.  1.
         35    2    1    2    0    0 -0.71054273576E-14  0.14210854715E-13 -0.36901623362E+02  0.28468752541E+03  0.28228577243E+03 0.  0.
         25    2    3    3    0    0  0.39261670735E+02 -0.46221516149E+02 -0.43805287801E+02  0.14577929349E+03  0.12511911056E+03 0.  0.
         25    2    3    3    0    0 -0.39261670735E+02  0.46221516149E+02  0.69036644398E+01  0.13890823192E+03  0.12477952143E+03 0.  0.
          5    1    4    4  502    0  0.50327125866E+02 -0.72060309394E+02 -0.65703667237E+02  0.10983883501E+03  0.47000000000E+01 0.  1.
         -5    1    4    4    0  502 -0.11065455131E+02  0.25838793246E+02  0.21898379436E+02  0.35940458477E+02  0.47000000000E+01 0.  1.
          5    1    5    5  503    0 -0.46450097386E+02  0.79279463246E+02 -0.21502237588E+02  0.94484290022E+02  0.47000000000E+01 0. -1.
         -5    1    5    5    0  503  0.71884266509E+01 -0.33057947097E+02  0.28405902028E+02  0.44423941901E+02  0.47000000000E+01 0. -1.
<mgrwt>
<rscale>  0 0.28228577E+03</rscale>
<asrwt>0</asrwt>
<pdfrwt beam="1">  1        1 0.19060454E-01 0.28228577E+03</pdfrwt>
<pdfrwt beam="2">  1       -1 0.24737627E-01 0.28228577E+03</pdfrwt>
<totfact> 0.38360569E+03</totfact>
</mgrwt>
</event>
<event>
 9    1  0.7957670E-001  0.2753262E+03  0.7818608E-02  0.1098269E+00
         -1   -1    0    0    0  501 -0.00000000000E+00  0.00000000000E+00  0.67363627203E+02  0.67363627203E+02  0.00000000000E+00 0. -1.
          1   -1    0    0  501    0  0.00000000000E+00 -0.00000000000E+00 -0.28132574363E+03  0.28132574363E+03  0.00000000000E+00 0. -1.
         35    2    1    2    0    0 -0.14210854715E-13  0.00000000000E+00 -0.21396211643E+03  0.34868937083E+03  0.27532615216E+03 0.  0.
         25    2    3    3    0    0  0.51005832506E+02 -0.11512661619E+01 -0.71240017635E+02  0.15150102705E+03  0.12359005106E+03 0.  0.
         25    2    3    3    0    0 -0.51005832506E+02  0.11512661619E+01 -0.14272209879E+03  0.19718834378E+03  0.12613772266E+03 0.  0.
          5    1    4    4  502    0  0.32742669828E+02  0.30326334057E+02 -0.96857984677E+02  0.10674890239E+03  0.47000000000E+01 0. -1.
         -5    1    4    4    0  502  0.18263162678E+02 -0.31477600219E+02  0.25617967042E+02  0.44752124664E+02  0.47000000000E+01 0. -1.
          5    1    5    5  503    0 -0.72685546206E+02 -0.33724568618E+02 -0.13199823722E+03  0.15448676249E+03  0.47000000000E+01 0.  1.
         -5    1    5    5    0  503  0.21679713701E+02  0.34875834780E+02 -0.10723861570E+02  0.42701581290E+02  0.47000000000E+01 0.  1.
<mgrwt>
<rscale>  0 0.27532615E+03</rscale>
<asrwt>0</asrwt>
<pdfrwt beam="1">  1        1 0.43280884E-01 0.27532615E+03</pdfrwt>
<pdfrwt beam="2">  1       -1 0.10363635E-01 0.27532615E+03</pdfrwt>
<totfact> 0.54447250E+03</totfact>
</mgrwt>
</event>
<event>
 9    1  0.7957670E-001  0.2762575E+03  0.7818608E-02  0.1097751E+00
          3   -1    0    0  501    0  0.00000000000E+00  0.00000000000E+00  0.85438817989E+02  0.85438817989E+02  0.00000000000E+00 0.  1.
         -3   -1    0    0    0  501 -0.00000000000E+00 -0.00000000000E+00 -0.22331243727E+03  0.22331243727E+03  0.00000000000E+00 0.  1.
         35    2    1    2    0    0 -0.71054273576E-14  0.35527136788E-14 -0.13787361928E+03  0.30875125526E+03  0.27625749353E+03 0.  0.
         25    2    3    3    0    0 -0.27517118041E+02  0.27585868732E+02 -0.11729690348E+03  0.17577876065E+03  0.12498574796E+03 0.  0.
         25    2    3    3    0    0  0.27517118041E+02 -0.27585868732E+02 -0.20576715804E+02  0.13297249461E+03  0.12545959967E+03 0.  0.
          5    1    4    4  502    0 -0.52071148817E+02  0.15487117144E+02  0.72476471950E+00  0.54533206585E+02  0.47000000000E+01 0.  1.
         -5    1    4    4    0  502  0.24554030777E+02  0.12098751589E+02 -0.11802166820E+03  0.12124555407E+03  0.47000000000E+01 0.  1.
          5    1    5    5  503    0 -0.44187163660E+02 -0.81882756584E+01 -0.35003845457E+02  0.57156911107E+02  0.47000000000E+01 0. -1.
         -5    1    5    5    0  503  0.71704281700E+02 -0.19397593074E+02  0.14427129653E+02  0.75815583499E+02  0.47000000000E+01 0. -1.
<mgrwt>
<rscale>  0 0.27625749E+03</rscale>
<asrwt>0</asrwt>
<pdfrwt beam="1">  1        3 0.13144434E-01 0.27625749E+03</pdfrwt>
<pdfrwt beam="2">  1       -3 0.34355759E-01 0.27625749E+03</pdfrwt>
<totfact> 0.98506698E+02</totfact>
</mgrwt>
</event>
<event>
 9    1  0.7957670E-001  0.2697315E+03  0.7818608E-02  0.1101433E+00
         -1   -1    0    0    0  501 -0.00000000000E+00  0.00000000000E+00  0.62113128700E+02  0.62113128700E+02  0.00000000000E+00 0. -1.
          1   -1    0    0  501    0  0.00000000000E+00 -0.00000000000E+00 -0.29283301794E+03  0.29283301794E+03  0.00000000000E+00 0. -1.
         35    2    1    2    0    0  0.00000000000E+00  0.00000000000E+00 -0.23071988924E+03  0.35494614664E+03  0.26973153268E+03 0.  0.
         25    2    3    3    0    0 -0.20361761848E+02 -0.42205527011E+02 -0.13970752588E+03  0.19313062920E+03  0.12484125637E+03 0.  0.
         25    2    3    3    0    0  0.20361761848E+02  0.42205527011E+02 -0.91012363359E+02  0.16181551744E+03  0.12532000456E+03 0.  0.
          5    1    4    4  502    0 -0.55450854014E+02 -0.61925026733E+02 -0.12465462769E+03  0.14990120864E+03  0.47000000000E+01 0. -1.
         -5    1    4    4    0  502  0.35089092166E+02  0.19719499722E+02 -0.15052898195E+02  0.43229420565E+02  0.47000000000E+01 0. -1.
          5    1    5    5  503    0 -0.40997670959E+02  0.54442538787E+02 -0.63626374491E+02  0.93355260079E+02  0.47000000000E+01 0. -1.
         -5    1    5    5    0  503  0.61359432806E+02 -0.12237011776E+02 -0.27385988868E+02  0.68460257360E+02  0.47000000000E+01 0. -1.
<mgrwt>
<rscale>  0 0.26973153E+03</rscale>
<asrwt>0</asrwt>
<pdfrwt beam="1">  1        1 0.45051234E-01 0.26973153E+03</pdfrwt>
<pdfrwt beam="2">  1       -1 0.95558659E-02 0.26973153E+03</pdfrwt>
<totfact> 0.58648274E+03</totfact>
</mgrwt>
</event>
<event>
 9    1  0.7957670E-001  0.2743143E+03  0.7818608E-02  0.1098836E+00
          2   -1    0    0  501    0  0.00000000000E+00  0.00000000000E+00  0.16170140665E+04  0.16170140665E+04  0.00000000000E+00 0. -1.
         -2   -1    0    0    0  501 -0.00000000000E+00 -0.00000000000E+00 -0.11633839096E+02  0.11633839096E+02  0.00000000000E+00 0. -1.
         35    2    1    2    0    0  0.17763568394E-14  0.00000000000E+00  0.16053802275E+04  0.16286479056E+04  0.27431428301E+03 0.  0.
         25    2    3    3    0    0 -0.41532719342E+01  0.55403171469E+02  0.86529683132E+03  0.87612321860E+03  0.12556483108E+03 0.  0.
         25    2    3    3    0    0  0.41532719342E+01 -0.55403171469E+02  0.74008339613E+03  0.75252468704E+03  0.12443154865E+03 0.  0.
          5    1    4    4  502    0  0.14331822565E+02 -0.35997561908E+02  0.37414471083E+03  0.37617493303E+03  0.47000000000E+01 0. -1.
         -5    1    4    4    0  502 -0.18485094499E+02  0.91400733377E+02  0.49115212049E+03  0.49994828557E+03  0.47000000000E+01 0. -1.
          5    1    5    5  503    0  0.25353404068E+01  0.24027955027E+02  0.47777106624E+03  0.47840469512E+03  0.47000000000E+01 0.  1.
         -5    1    5    5    0  503  0.16179315274E+01 -0.79431126497E+02  0.26231232989E+03  0.27411999192E+03  0.47000000000E+01 0.  1.
<mgrwt>
<rscale>  0 0.27431428E+03</rscale>
<asrwt>0</asrwt>
<pdfrwt beam="1">  1        2 0.24877122E+00 0.27431428E+03</pdfrwt>
<pdfrwt beam="2">  1       -2 0.17898227E-02 0.27431428E+03</pdfrwt>
<totfact> 0.10758820E+04</totfact>
</mgrwt>
</event>
<event>
 9    1  0.7957670E-001  0.2750614E+03  0.7818608E-02  0.1098417E+00
         -2   -1    0    0    0  501 -0.00000000000E+00  0.00000000000E+00  0.53726059736E+02  0.53726059736E+02  0.00000000000E+00 0. -1.
          2   -1    0    0  501    0  0.00000000000E+00 -0.00000000000E+00 -0.35205800032E+03  0.35205800032E+03  0.00000000000E+00 0. -1.
         35    2    1    2    0    0  0.71054273576E-14 -0.71054273576E-14 -0.29833194059E+03  0.40578406006E+03  0.27506136883E+03 0.  0.
         25    2    3    3    0    0 -0.16102427103E+02  0.34217568902E+02 -0.81105413388E+02  0.15272624893E+03  0.12376222707E+03 0.  0.
         25    2    3    3    0    0  0.16102427103E+02 -0.34217568902E+02 -0.21722652720E+03  0.25305781113E+03  0.12418035866E+03 0.  0.
          5    1    4    4  502    0 -0.55926794765E+02  0.31735238327E+02 -0.90831338829E+02  0.11138830207E+03  0.47000000000E+01 0.  1.
         -5    1    4    4    0  502  0.39824367662E+02  0.24823305752E+01  0.97259254408E+01  0.41337946858E+02  0.47000000000E+01 0.  1.
          5    1    5    5  503    0 -0.23742460837E+02 -0.67723447046E+02 -0.16074466359E+03  0.17609970642E+03  0.47000000000E+01 0. -1.
         -5    1    5    5    0  503  0.39844887940E+02  0.33505878144E+02 -0.56481863606E+02  0.76958104717E+02  0.47000000000E+01 0. -1.
<mgrwt>
<rscale>  0 0.27506137E+03</rscale>
<asrwt>0</asrwt>
<pdfrwt beam="1">  1        2 0.54162769E-01 0.27506137E+03</pdfrwt>
<pdfrwt beam="2">  1       -2 0.82655477E-02 0.27506137E+03</pdfrwt>
<totfact> 0.81888143E+03</totfact>
</mgrwt>
</event>
<event>
 9    1  0.7957670E-001  0.2738694E+03  0.7818608E-02  0.1099085E+00
          2   -1    0    0  501    0  0.00000000000E+00  0.00000000000E+00  0.28680530759E+04  0.28680530759E+04  0.00000000000E+00 0. -1.
         -2   -1    0    0    0  501 -0.00000000000E+00 -0.00000000000E+00 -0.65379226881E+01  0.65379226881E+01  0.00000000000E+00 0. -1.
         35    2    1    2    0    0  0.71054273576E-14 -0.35527136788E-14  0.28615151532E+04  0.28745909986E+04  0.27386937964E+03 0.  0.
         25    2    3    3    0    0  0.42318032723E+02 -0.46755750004E+01  0.17951065955E+04  0.17999585308E+04  0.12502138433E+03 0.  0.
         25    2    3    3    0    0 -0.42318032723E+02  0.46755750004E+01  0.10664085578E+04  0.10746324678E+04  0.12567836704E+03 0.  0.
          5    1    4    4  502    0 -0.40184403226E+02 -0.22353232336E+02  0.51748877767E+03  0.51954901431E+03  0.47000000000E+01 0.  1.
         -5    1    4    4    0  502  0.82502435948E+02  0.17677657336E+02  0.12776178178E+04  0.12804095165E+04  0.47000000000E+01 0.  1.
          5    1    5    5  503    0 -0.32677508752E+02  0.44868403223E+02  0.21151526578E+03  0.21872766364E+03  0.47000000000E+01 0.  1.
         -5    1    5    5    0  503 -0.96405239707E+01 -0.40192828222E+02  0.85489329199E+03  0.85590480418E+03  0.47000000000E+01 0.  1.
<mgrwt>
<rscale>  0 0.27386938E+03</rscale>
<asrwt>0</asrwt>
<pdfrwt beam="1">  1        2 0.44123793E+00 0.27386938E+03</pdfrwt>
<pdfrwt beam="2">  1       -2 0.10058365E-02 0.27386938E+03</pdfrwt>
<totfact> 0.52635144E+03</totfact>
</mgrwt>
</event>
<event>
 9    1  0.7957670E-001  0.2815221E+03  0.7818608E-02  0.1094860E+00
          1   -1    0    0  501    0  0.00000000000E+00  0.00000000000E+00  0.10630290029E+03  0.10630290029E+03  0.00000000000E+00 0.  1.
         -1   -1    0    0    0  501 -0.00000000000E+00 -0.00000000000E+00 -0.18638884195E+03  0.18638884195E+03  0.00000000000E+00 0.  1.
         35    2    1    2    0    0  0.00000000000E+00 -0.17763568394E-14 -0.80085941655E+02  0.29269174224E+03  0.28152210913E+03 0.  0.
         25    2    3    3    0    0  0.53832565157E+02  0.50819934755E+01 -0.73090372589E+02  0.15475297794E+03  0.12522982827E+03 0.  0.
         25    2    3    3    0    0 -0.53832565157E+02 -0.50819934755E+01 -0.69955690658E+01  0.13793876430E+03  0.12670593112E+03 0.  0.
          5    1    4    4  502    0 -0.35393421607E+02 -0.20549732647E+02 -0.35873385447E+02  0.54625777691E+02  0.47000000000E+01 0. -1.
         -5    1    4    4    0  502  0.89225986764E+02  0.25631726123E+02 -0.37216987142E+02  0.10012720025E+03  0.47000000000E+01 0. -1.
          5    1    5    5  503    0  0.37961017295E+02  0.13225834639E+02  0.12204277483E+02  0.42272874575E+02  0.47000000000E+01 0.  1.
         -5    1    5    5    0  503 -0.91793582452E+02 -0.18307828114E+02 -0.19199846549E+02  0.95665889727E+02  0.47000000000E+01 0.  1.
<mgrwt>
<rscale>  0 0.28152211E+03</rscale>
<asrwt>0</asrwt>
<pdfrwt beam="1">  1        1 0.16354292E-01 0.28152211E+03</pdfrwt>
<pdfrwt beam="2">  1       -1 0.28675206E-01 0.28152211E+03</pdfrwt>
<totfact> 0.36536002E+03</totfact>
</mgrwt>
</event>
<event>
 9    1  0.7957670E-001  0.2933098E+03  0.7818608E-02  0.1088634E+00
         -4   -1    0    0    0  501 -0.00000000000E+00  0.00000000000E+00  0.95136125270E+03  0.95136125270E+03  0.00000000000E+00 0.  1.
          4   -1    0    0  501    0  0.00000000000E+00 -0.00000000000E+00 -0.22607244685E+02  0.22607244685E+02  0.00000000000E+00 0.  1.
         35    2    1    2    0    0  0.35527136788E-14  0.14210854715E-13  0.92875400801E+03  0.97396849738E+03  0.29330977907E+03 0.  0.
         25    2    3    3    0    0  0.14598906500E+02  0.70790148779E+02  0.37796929005E+03  0.40457715993E+03  0.12489003516E+03 0.  0.
         25    2    3    3    0    0 -0.14598906500E+02 -0.70790148779E+02  0.55078471796E+03  0.56939133745E+03  0.12497326270E+03 0.  0.
          5    1    4    4  502    0 -0.12872511059E+02 -0.42546258830E+01 -0.35237971888E+01  0.14775335157E+02  0.47000000000E+01 0. -1.
         -5    1    4    4    0  502  0.27471417559E+02  0.75044774662E+02  0.38149308724E+03  0.38980182478E+03  0.47000000000E+01 0. -1.
          5    1    5    5  503    0 -0.69576161717E+02 -0.48029242914E+02  0.32014942366E+03  0.33115765720E+03  0.47000000000E+01 0.  1.
         -5    1    5    5    0  503  0.54977255217E+02 -0.22760905865E+02  0.23063529431E+03  0.23823368025E+03  0.47000000000E+01 0.  1.
<mgrwt>
<rscale>  0 0.29330978E+03</rscale>
<asrwt>0</asrwt>
<pdfrwt beam="1">  1        4 0.34780384E-02 0.29330978E+03</pdfrwt>
<pdfrwt beam="2">  1       -4 0.14636324E+00 0.29330978E+03</pdfrwt>
<totfact> 0.27099941E+02</totfact>
</mgrwt>
</event>
<event>
 9    1  0.7957670E-001  0.2746286E+03  0.7818608E-02  0.1098659E+00
          1   -1    0    0  501    0  0.00000000000E+00  0.00000000000E+00  0.92371591594E+03  0.92371591594E+03  0.00000000000E+00 0.  1.
         -1   -1    0    0    0  501 -0.00000000000E+00 -0.00000000000E+00 -0.20412347808E+02  0.20412347808E+02  0.00000000000E+00 0.  1.
         35    2    1    2    0    0 -0.71054273576E-14 -0.71054273576E-14  0.90330356813E+03  0.94412826375E+03  0.27462855316E+03 0.  0.
         25    2    3    3    0    0 -0.19503127019E+02 -0.34925690843E+02  0.31423297944E+03  0.34121607496E+03  0.12683007766E+03 0.  0.
         25    2    3    3    0    0  0.19503127019E+02  0.34925690843E+02  0.58907058869E+03  0.60291218879E+03  0.12206053042E+03 0.  0.
          5    1    4    4  502    0  0.52010429854E+02 -0.30737167861E+02  0.16011146491E+03  0.17119471223E+03  0.47000000000E+01 0. -1.
         -5    1    4    4    0  502 -0.71513556872E+02 -0.41885229817E+01  0.15412151453E+03  0.17002136272E+03  0.47000000000E+01 0. -1.
          5    1    5    5  503    0  0.41571462900E+02 -0.34016773318E+02  0.30475945381E+03  0.30949271733E+03  0.47000000000E+01 0. -1.
         -5    1    5    5    0  503 -0.22068335882E+02  0.68942464161E+02  0.28431113488E+03  0.29341947146E+03  0.47000000000E+01 0. -1.
<mgrwt>
<rscale>  0 0.27462855E+03</rscale>
<asrwt>0</asrwt>
<pdfrwt beam="1">  1        1 0.14211011E+00 0.27462855E+03</pdfrwt>
<pdfrwt beam="2">  1       -1 0.31403619E-02 0.27462855E+03</pdfrwt>
<totfact> 0.64416700E+03</totfact>
</mgrwt>
</event>
<event>
 9    1  0.7957670E-001  0.2726203E+03  0.7818608E-02  0.1099789E+00
         -1   -1    0    0    0  501 -0.00000000000E+00  0.00000000000E+00  0.99775787614E+01  0.99775787614E+01  0.00000000000E+00 0.  1.
          1   -1    0    0  501    0  0.00000000000E+00 -0.00000000000E+00 -0.18622212639E+04  0.18622212639E+04  0.00000000000E+00 0.  1.
         35    2    1    2    0    0  0.00000000000E+00  0.14210854715E-13 -0.18522436851E+04  0.18721988427E+04  0.27262031716E+03 0.  0.
         25    2    3    3    0    0 -0.29612143082E+02  0.37361666595E+02 -0.90477423152E+03  0.91529944907E+03  0.12993805567E+03 0.  0.
         25    2    3    3    0    0  0.29612143082E+02 -0.37361666595E+02 -0.94746945362E+03  0.95689939359E+03  0.12524101066E+03 0.  0.
          5    1    4    4  502    0  0.35527441812E+01 -0.16680216020E+00  0.26639360907E+01  0.64681040246E+01  0.47000000000E+01 0. -1.
         -5    1    4    4    0  502 -0.33164887263E+02  0.37528468755E+02 -0.90743816761E+03  0.90883134505E+03  0.47000000000E+01 0. -1.
          5    1    5    5  503    0  0.22165492194E+02 -0.67413353865E+02 -0.87585295806E+03  0.87873566189E+03  0.47000000000E+01 0. -1.
         -5    1    5    5    0  503  0.74466508875E+01  0.30051687270E+02 -0.71616495558E+02  0.78163731700E+02  0.47000000000E+01 0. -1.
<mgrwt>
<rscale>  0 0.27262032E+03</rscale>
<asrwt>0</asrwt>
<pdfrwt beam="1">  1        1 0.28649547E+00 0.27262032E+03</pdfrwt>
<pdfrwt beam="2">  1       -1 0.15350127E-02 0.27262032E+03</pdfrwt>
<totfact> 0.41837652E+03</totfact>
</mgrwt>
</event>
<event>
 9    1  0.7957670E-001  0.2732011E+03  0.7818608E-02  0.1099461E+00
          1   -1    0    0  501    0  0.00000000000E+00  0.00000000000E+00  0.11223865143E+03  0.11223865143E+03  0.00000000000E+00 0.  1.
         -1   -1    0    0    0  501 -0.00000000000E+00 -0.00000000000E+00 -0.16625036268E+03  0.16625036268E+03  0.00000000000E+00 0.  1.
         35    2    1    2    0    0  0.35527136788E-14  0.00000000000E+00 -0.54011711247E+02  0.27848901411E+03  0.27320114573E+03 0.  0.
         25    2    3    3    0    0  0.14281105818E+02 -0.33042938287E+02 -0.70265044865E+02  0.14774342154E+03  0.12488056824E+03 0.  0.
         25    2    3    3    0    0 -0.14281105818E+02  0.33042938287E+02  0.16253333618E+02  0.13074559257E+03  0.12463728724E+03 0.  0.
          5    1    4    4  502    0 -0.16204170796E+02 -0.13934502108E+02  0.32263209963E+02  0.38983973852E+02  0.47000000000E+01 0. -1.
         -5    1    4    4    0  502  0.30485276613E+02 -0.19108436179E+02 -0.10252825483E+03  0.10875944769E+03  0.47000000000E+01 0. -1.
          5    1    5    5  503    0 -0.69538189929E+02  0.16190876295E+02  0.12744967626E+02  0.72678941473E+02  0.47000000000E+01 0. -1.
         -5    1    5    5    0  503  0.55257084112E+02  0.16852061992E+02  0.35083659920E+01  0.58066651099E+02  0.47000000000E+01 0. -1.
<mgrwt>
<rscale>  0 0.27320115E+03</rscale>
<asrwt>0</asrwt>
<pdfrwt beam="1">  1        1 0.17267485E-01 0.27320115E+03</pdfrwt>
<pdfrwt beam="2">  1       -1 0.25576979E-01 0.27320115E+03</pdfrwt>
<totfact> 0.41209180E+03</totfact>
</mgrwt>
</event>
<event>
 9    1  0.7957670E-001  0.2730624E+03  0.7818608E-02  0.1099540E+00
         -3   -1    0    0    0  501 -0.00000000000E+00  0.00000000000E+00  0.12295263812E+04  0.12295263812E+04  0.00000000000E+00 0. -1.
          3   -1    0    0  501    0  0.00000000000E+00 -0.00000000000E+00 -0.15160938625E+02  0.15160938625E+02  0.00000000000E+00 0. -1.
         35    2    1    2    0    0  0.00000000000E+00  0.71054273576E-14  0.12143654426E+04  0.12446873198E+04  0.27306243977E+03 0.  0.
         25    2    3    3    0    0 -0.87932970079E+01  0.30056234677E+02  0.82046280357E+03  0.83051909094E+03  0.12498819570E+03 0.  0.
         25    2    3    3    0    0  0.87932970079E+01 -0.30056234677E+02  0.39390263903E+03  0.41416822891E+03  0.12407793311E+03 0.  0.
          5    1    4    4  502    0 -0.20436644687E+02  0.12818947406E+02  0.80181109174E+03  0.80218769543E+03  0.47000000000E+01 0. -1.
         -5    1    4    4    0  502  0.11643347679E+02  0.17237287271E+02  0.18651711825E+02  0.28331395512E+02  0.47000000000E+01 0. -1.
          5    1    5    5  503    0 -0.55321642998E+01  0.38253216207E+02  0.50789587944E+02  0.63996762696E+02  0.47000000000E+01 0. -1.
         -5    1    5    5    0  503  0.14325461308E+02 -0.68309450884E+02  0.34311305109E+03  0.35017146621E+03  0.47000000000E+01 0. -1.
<mgrwt>
<rscale>  0 0.27306244E+03</rscale>
<asrwt>0</asrwt>
<pdfrwt beam="1">  1        3 0.23324531E-02 0.27306244E+03</pdfrwt>
<pdfrwt beam="2">  1       -3 0.18915783E+00 0.27306244E+03</pdfrwt>
<totfact> 0.35435947E+02</totfact>
</mgrwt>
</event>
<event>
 9    1  0.7957670E-001  0.2754188E+03  0.7818608E-02  0.1098218E+00
         -2   -1    0    0    0  501 -0.00000000000E+00  0.00000000000E+00  0.30927859157E+02  0.30927859157E+02  0.00000000000E+00 0. -1.
          2   -1    0    0  501    0  0.00000000000E+00 -0.00000000000E+00 -0.61316483158E+03  0.61316483158E+03  0.00000000000E+00 0. -1.
         35    2    1    2    0    0  0.71054273576E-14  0.71054273576E-14 -0.58223697242E+03  0.64409269073E+03  0.27541877606E+03 0.  0.
         25    2    3    3    0    0 -0.32451809723E+02 -0.33873815988E+02 -0.37488973300E+03  0.39795793840E+03  0.12501061341E+03 0.  0.
         25    2    3    3    0    0  0.32451809723E+02  0.33873815988E+02 -0.20734723942E+03  0.24613475233E+03  0.12405193769E+03 0.  0.
          5    1    4    4  502    0 -0.55265248877E+02  0.79539086001E+01 -0.71628543783E+02  0.90940918623E+02  0.47000000000E+01 0.  1.
         -5    1    4    4    0  502  0.22813439155E+02 -0.41827724589E+02 -0.30326118921E+03  0.30701701978E+03  0.47000000000E+01 0.  1.
          5    1    5    5  503    0 -0.47276914292E+02  0.54174181611E+01 -0.76942062279E+02  0.90590429915E+02  0.47000000000E+01 0. -1.
         -5    1    5    5    0  503  0.79728724015E+02  0.28456397827E+02 -0.13040517714E+03  0.15554432242E+03  0.47000000000E+01 0. -1.
<mgrwt>
<rscale>  0 0.27541878E+03</rscale>
<asrwt>0</asrwt>
<pdfrwt beam="1">  1        2 0.94333052E-01 0.27541878E+03</pdfrwt>
<pdfrwt beam="2">  1       -2 0.47581321E-02 0.27541878E+03</pdfrwt>
<totfact> 0.10339506E+04</totfact>
</mgrwt>
</event>
<event>
 9    1  0.7957670E-001  0.2700493E+03  0.7818608E-02  0.1101251E+00
         -1   -1    0    0    0  501 -0.00000000000E+00  0.00000000000E+00  0.21380046171E+03  0.21380046171E+03  0.00000000000E+00 0.  1.
          1   -1    0    0  501    0  0.00000000000E+00 -0.00000000000E+00 -0.85274172265E+02  0.85274172265E+02  0.00000000000E+00 0.  1.
         35    2    1    2    0    0  0.00000000000E+00  0.00000000000E+00  0.12852628945E+03  0.29907463397E+03  0.27004930959E+03 0.  0.
         25    2    3    3    0    0  0.27083865576E+02 -0.40283120026E+02  0.77756454685E+02  0.15593778843E+03  0.12615174229E+03 0.  0.
         25    2    3    3    0    0 -0.27083865576E+02  0.40283120026E+02  0.50769834760E+02  0.14313684555E+03  0.12471693910E+03 0.  0.
          5    1    4    4  502    0 -0.31333245089E+02  0.11385956409E+02  0.69684766252E+02  0.77391659103E+02  0.47000000000E+01 0.  1.
         -5    1    4    4    0  502  0.58417110665E+02 -0.51669076435E+02  0.80716884336E+01  0.78546129327E+02  0.47000000000E+01 0.  1.
          5    1    5    5  503    0  0.36731685876E+01  0.73359310400E+02  0.62139122505E+02  0.96324665250E+02  0.47000000000E+01 0. -1.
         -5    1    5    5    0  503 -0.30757034164E+02 -0.33076190374E+02 -0.11369287744E+02  0.46812180295E+02  0.47000000000E+01 0. -1.
<mgrwt>
<rscale>  0 0.27004931E+03</rscale>
<asrwt>0</asrwt>
<pdfrwt beam="1">  1        1 0.13119104E-01 0.27004931E+03</pdfrwt>
<pdfrwt beam="2">  1       -1 0.32892378E-01 0.27004931E+03</pdfrwt>
<totfact> 0.38574554E+03</totfact>
</mgrwt>
</event>
<event>
 9    1  0.7957670E-001  0.2787810E+03  0.7818608E-02  0.1096357E+00
          2   -1    0    0  501    0  0.00000000000E+00  0.00000000000E+00  0.23867383944E+04  0.23867383944E+04  0.00000000000E+00 0. -1.
         -2   -1    0    0    0  501 -0.00000000000E+00 -0.00000000000E+00 -0.81406975319E+01  0.81406975319E+01  0.00000000000E+00 0. -1.
         35    2    1    2    0    0  0.00000000000E+00  0.00000000000E+00  0.23785976968E+04  0.23948790919E+04  0.27878102773E+03 0.  0.
         25    2    3    3    0    0 -0.13783227606E+02 -0.44549761190E+02  0.15377428806E+04  0.15434916384E+04  0.12465397135E+03 0.  0.
         25    2    3    3    0    0  0.13783227606E+02  0.44549761190E+02  0.84085481627E+03  0.85138745347E+03  0.12509642402E+03 0.  0.
          5    1    4    4  502    0 -0.23753122146E+02  0.13791441196E+02  0.12158230987E+04  0.12161423897E+04  0.47000000000E+01 0. -1.
         -5    1    4    4    0  502  0.99698945403E+01 -0.58341202386E+02  0.32191978187E+03  0.32734924875E+03  0.47000000000E+01 0. -1.
          5    1    5    5  503    0  0.44701934406E+02  0.10402335887E+02  0.11292155905E+03  0.12198294975E+03  0.47000000000E+01 0. -1.
         -5    1    5    5    0  503 -0.30918706800E+02  0.34147425302E+02  0.72793325722E+03  0.72940450372E+03  0.47000000000E+01 0. -1.
<mgrwt>
<rscale>  0 0.27878103E+03</rscale>
<asrwt>0</asrwt>
<pdfrwt beam="1">  1        2 0.36718996E+00 0.27878103E+03</pdfrwt>
<pdfrwt beam="2">  1       -2 0.12524169E-02 0.27878103E+03</pdfrwt>
<totfact> 0.71009188E+03</totfact>
</mgrwt>
</event>
<event>
 9    1  0.7957670E-001  0.2782271E+03  0.7818608E-02  0.1096661E+00
          1   -1    0    0  501    0  0.00000000000E+00  0.00000000000E+00  0.20266910445E+04  0.20266910445E+04  0.00000000000E+00 0. -1.
         -1   -1    0    0    0  501 -0.00000000000E+00 -0.00000000000E+00 -0.95488531420E+01  0.95488531420E+01  0.00000000000E+00 0. -1.
         35    2    1    2    0    0  0.35527136788E-14  0.35527136788E-14  0.20171421914E+04  0.20362398977E+04  0.27822706661E+03 0.  0.
         25    2    3    3    0    0  0.85229484855E+00 -0.62804332941E-02  0.56730573464E+03  0.58101395111E+03  0.12546190010E+03 0.  0.
         25    2    3    3    0    0 -0.85229484855E+00  0.62804332941E-02  0.14498364567E+04  0.14552259465E+04  0.12512424947E+03 0.  0.
          5    1    4    4  502    0 -0.27422378857E+02 -0.41827701895E+02  0.45535244143E+03  0.45811513774E+03  0.47000000000E+01 0. -1.
         -5    1    4    4    0  502  0.28274673706E+02  0.41821421462E+02  0.11195329321E+03  0.12289881337E+03  0.47000000000E+01 0. -1.
          5    1    5    5  503    0  0.16655420894E+02 -0.27581122535E+02  0.10385282951E+03  0.10883759260E+03  0.47000000000E+01 0. -1.
         -5    1    5    5    0  503 -0.17507715742E+02  0.27587402968E+02  0.13459836272E+04  0.13463883539E+04  0.47000000000E+01 0. -1.
<mgrwt>
<rscale>  0 0.27822707E+03</rscale>
<asrwt>0</asrwt>
<pdfrwt beam="1">  1        1 0.31179828E+00 0.27822707E+03</pdfrwt>
<pdfrwt beam="2">  1       -1 0.14690559E-02 0.27822707E+03</pdfrwt>
<totfact> 0.34876356E+03</totfact>
</mgrwt>
</event>
<event>
 9    1  0.7957670E-001  0.2771385E+03  0.7818608E-02  0.1097262E+00
         -3   -1    0    0    0  501 -0.00000000000E+00  0.00000000000E+00  0.17204402438E+03  0.17204402438E+03  0.00000000000E+00 0. -1.
          3   -1    0    0  501    0  0.00000000000E+00 -0.00000000000E+00 -0.11160766118E+03  0.11160766118E+03  0.00000000000E+00 0. -1.
         35    2    1    2    0    0  0.14210854715E-13  0.00000000000E+00  0.60436363199E+02  0.28365168557E+03  0.27713845768E+03 0.  0.
         25    2    3    3    0    0  0.45971644955E+02  0.41802865860E+02  0.31566759025E+02  0.14119442371E+03  0.12279467935E+03 0.  0.
         25    2    3    3    0    0 -0.45971644955E+02 -0.41802865860E+02  0.28869604174E+02  0.14245726186E+03  0.12489894186E+03 0.  0.
          5    1    4    4  502    0  0.33626324972E+02 -0.19447315371E+02 -0.33026703550E+02  0.51203329517E+02  0.47000000000E+01 0. -1.
         -5    1    4    4    0  502  0.12345319983E+02  0.61250181231E+02  0.64593462576E+02  0.89991094191E+02  0.47000000000E+01 0. -1.
          5    1    5    5  503    0  0.99751543587E+01  0.11194533737E+02 -0.37490906714E+02  0.40650699579E+02  0.47000000000E+01 0.  1.
         -5    1    5    5    0  503 -0.55946799314E+02 -0.52997399597E+02  0.66360510888E+02  0.10180656228E+03  0.47000000000E+01 0.  1.
<mgrwt>
<rscale>  0 0.27713846E+03</rscale>
<asrwt>0</asrwt>
<pdfrwt beam="1">  1        3 0.17170409E-01 0.27713846E+03</pdfrwt>
<pdfrwt beam="2">  1       -3 0.26468312E-01 0.27713846E+03</pdfrwt>
<totfact> 0.10114025E+03</totfact>
</mgrwt>
</event>
<event>
 9    1  0.7957670E-001  0.2777851E+03  0.7818608E-02  0.1096905E+00
          4   -1    0    0  501    0  0.00000000000E+00  0.00000000000E+00  0.88519090363E+01  0.88519090363E+01  0.00000000000E+00 0. -1.
         -4   -1    0    0    0  501 -0.00000000000E+00 -0.00000000000E+00 -0.21793199443E+04  0.21793199443E+04  0.00000000000E+00 0. -1.
         35    2    1    2    0    0  0.00000000000E+00  0.35527136788E-14 -0.21704680353E+04  0.21881718533E+04  0.27778511053E+03 0.  0.
         25    2    3    3    0    0  0.21061465569E+02 -0.21804725441E+02 -0.68042665818E+03  0.69242037120E+03  0.12468561225E+03 0.  0.
         25    2    3    3    0    0 -0.21061465569E+02  0.21804725441E+02 -0.14900413771E+04  0.14957514821E+04  0.12700456495E+03 0.  0.
          5    1    4    4  502    0 -0.28138982494E+02 -0.54085922170E+01 -0.56552171555E+03  0.56626668273E+03  0.47000000000E+01 0. -1.
         -5    1    4    4    0  502  0.49200448063E+02 -0.16396133224E+02 -0.11490494263E+03  0.12615368847E+03  0.47000000000E+01 0. -1.
          5    1    5    5  503    0  0.35739008994E+02  0.43897907113E+02 -0.40184389705E+03  0.40583852775E+03  0.47000000000E+01 0. -1.
         -5    1    5    5    0  503 -0.56800474562E+02 -0.22093181672E+02 -0.10881974800E+04  0.10899129544E+04  0.47000000000E+01 0. -1.
<mgrwt>
<rscale>  0 0.27778511E+03</rscale>
<asrwt>0</asrwt>
<pdfrwt beam="1">  1        4 0.13618325E-02 0.27778511E+03</pdfrwt>
<pdfrwt beam="2">  1       -4 0.33527992E+00 0.27778511E+03</pdfrwt>
<totfact> 0.76429985E+01</totfact>
</mgrwt>
</event>
<event>
 9    1  0.7957670E-001  0.2733620E+03  0.7818608E-02  0.1099371E+00
          2   -1    0    0  501    0  0.00000000000E+00  0.00000000000E+00  0.10301289129E+04  0.10301289129E+04  0.00000000000E+00 0.  1.
         -2   -1    0    0    0  501 -0.00000000000E+00 -0.00000000000E+00 -0.18135303749E+02  0.18135303749E+02  0.00000000000E+00 0.  1.
         35    2    1    2    0    0  0.00000000000E+00  0.00000000000E+00  0.10119936091E+04  0.10482642166E+04  0.27336203639E+03 0.  0.
         25    2    3    3    0    0  0.80447041772E+01  0.51145711999E+02  0.50221210502E+03  0.52005662184E+03  0.12474490119E+03 0.  0.
         25    2    3    3    0    0 -0.80447041772E+01 -0.51145711999E+02  0.50978150412E+03  0.52820759479E+03  0.12823993190E+03 0.  0.
          5    1    4    4  502    0  0.50484274058E+00  0.41839858951E+02  0.50511508830E+03  0.50686701520E+03  0.47000000000E+01 0. -1.
         -5    1    4    4    0  502  0.75398614367E+01  0.93058530488E+01 -0.29029832859E+01  0.13189606643E+02  0.47000000000E+01 0. -1.
          5    1    5    5  503    0 -0.20250334175E+02 -0.92558189189E+02  0.35160721539E+03  0.36417965118E+03  0.47000000000E+01 0. -1.
         -5    1    5    5    0  503  0.12205629998E+02  0.41412477190E+02  0.15817428872E+03  0.16402794361E+03  0.47000000000E+01 0. -1.
<mgrwt>
<rscale>  0 0.27336204E+03</rscale>
<asrwt>0</asrwt>
<pdfrwt beam="1">  1        2 0.15848133E+00 0.27336204E+03</pdfrwt>
<pdfrwt beam="2">  1       -2 0.27900475E-02 0.27336204E+03</pdfrwt>
<totfact> 0.11846260E+04</totfact>
</mgrwt>
</event>
<event>
 9    1  0.7957670E-001  0.2776700E+03  0.7818608E-02  0.1096968E+00
         -1   -1    0    0    0  501 -0.00000000000E+00  0.00000000000E+00  0.49873788919E+03  0.49873788919E+03  0.00000000000E+00 0.  1.
          1   -1    0    0  501    0  0.00000000000E+00 -0.00000000000E+00 -0.38647882846E+02  0.38647882846E+02  0.00000000000E+00 0.  1.
         35    2    1    2    0    0  0.00000000000E+00  0.35527136788E-14  0.46009000634E+03  0.53738577203E+03  0.27767004528E+03 0.  0.
         25    2    3    3    0    0  0.33235660686E+02  0.85401190632E+01  0.32738733737E+03  0.35168015432E+03  0.12376962268E+03 0.  0.
         25    2    3    3    0    0 -0.33235660686E+02 -0.85401190632E+01  0.13270266897E+03  0.18570561771E+03  0.12529579132E+03 0.  0.
          5    1    4    4  502    0 -0.34400150951E+02  0.35283486783E+02  0.18775838611E+03  0.19417413932E+03  0.47000000000E+01 0.  1.
         -5    1    4    4    0  502  0.67635811637E+02 -0.26743367719E+02  0.13962895126E+03  0.15750601500E+03  0.47000000000E+01 0.  1.
          5    1    5    5  503    0  0.47077104420E+02  0.41538527593E+01  0.38200795395E+02  0.60949971469E+02  0.47000000000E+01 0.  1.
         -5    1    5    5    0  503 -0.80312765106E+02 -0.12693971822E+02  0.94501873575E+02  0.12475564624E+03  0.47000000000E+01 0.  1.
<mgrwt>
<rscale>  0 0.27767005E+03</rscale>
<asrwt>0</asrwt>
<pdfrwt beam="1">  1        1 0.59458285E-02 0.27767005E+03</pdfrwt>
<pdfrwt beam="2">  1       -1 0.76728901E-01 0.27767005E+03</pdfrwt>
<totfact> 0.23235637E+03</totfact>
</mgrwt>
</event>
<event>
 9    1  0.7957670E-001  0.2781281E+03  0.7818608E-02  0.1096716E+00
          1   -1    0    0  501    0  0.00000000000E+00  0.00000000000E+00  0.78414941400E+03  0.78414941400E+03  0.00000000000E+00 0. -1.
         -1   -1    0    0    0  501 -0.00000000000E+00 -0.00000000000E+00 -0.24662145988E+02  0.24662145988E+02  0.00000000000E+00 0. -1.
         35    2    1    2    0    0 -0.71054273576E-14  0.00000000000E+00  0.75948726801E+03  0.80881155998E+03  0.27812808074E+03 0.  0.
         25    2    3    3    0    0  0.80370278405E+01  0.39444131835E+02  0.24415422368E+03  0.27714700401E+03  0.12481483701E+03 0.  0.
         25    2    3    3    0    0 -0.80370278405E+01 -0.39444131835E+02  0.51533304433E+03  0.53166455597E+03  0.12441310281E+03 0.  0.
          5    1    4    4  502    0 -0.48144534052E+02 -0.16337925073E+02  0.81220745855E+02  0.95936038650E+02  0.47000000000E+01 0. -1.
         -5    1    4    4    0  502  0.56181561892E+02  0.55782056908E+02  0.16293347783E+03  0.18121096536E+03  0.47000000000E+01 0. -1.
          5    1    5    5  503    0 -0.59028549605E+02 -0.31351662932E+02  0.17468673903E+03  0.18709581297E+03  0.47000000000E+01 0.  1.
         -5    1    5    5    0  503  0.50991521764E+02 -0.80924689029E+01  0.34064630530E+03  0.34456874301E+03  0.47000000000E+01 0.  1.
<mgrwt>
<rscale>  0 0.27812808E+03</rscale>
<asrwt>0</asrwt>
<pdfrwt beam="1">  1        1 0.12063835E+00 0.27812808E+03</pdfrwt>
<pdfrwt beam="2">  1       -1 0.37941769E-02 0.27812808E+03</pdfrwt>
<totfact> 0.63136275E+03</totfact>
</mgrwt>
</event>
<event>
 9    1  0.7957670E-001  0.2769051E+03  0.7818608E-02  0.1097391E+00
         -1   -1    0    0    0  501 -0.00000000000E+00  0.00000000000E+00  0.10057897583E+02  0.10057897583E+02  0.00000000000E+00 0. -1.
          1   -1    0    0  501    0  0.00000000000E+00 -0.00000000000E+00 -0.19058767756E+04  0.19058767756E+04  0.00000000000E+00 0. -1.
         35    2    1    2    0    0 -0.35527136788E-14 -0.14210854715E-13 -0.18958188780E+04  0.19159346732E+04  0.27690513477E+03 0.  0.
         25    2    3    3    0    0  0.28127636303E+02  0.51239498272E+02 -0.89084272369E+03  0.90155383958E+03  0.12562610082E+03 0.  0.
         25    2    3    3    0    0 -0.28127636303E+02 -0.51239498272E+02 -0.10049761543E+04  0.10143808336E+04  0.12479885698E+03 0.  0.
          5    1    4    4  502    0  0.71550639579E+02  0.23746035792E+02 -0.33951870193E+03  0.34781950376E+03  0.47000000000E+01 0.  1.
         -5    1    4    4    0  502 -0.43423003276E+02  0.27493462480E+02 -0.55132402176E+03  0.55373433582E+03  0.47000000000E+01 0.  1.
          5    1    5    5  503    0 -0.62495254083E+01 -0.76491837560E+01 -0.31862553807E+01  0.11393366636E+02  0.47000000000E+01 0. -1.
         -5    1    5    5    0  503 -0.21878110894E+02 -0.43590314516E+02 -0.10017898989E+04  0.10029874669E+04  0.47000000000E+01 0. -1.
<mgrwt>
<rscale>  0 0.27690513E+03</rscale>
<asrwt>0</asrwt>
<pdfrwt beam="1">  1        1 0.29321176E+00 0.27690513E+03</pdfrwt>
<pdfrwt beam="2">  1       -1 0.15473691E-02 0.27690513E+03</pdfrwt>
<totfact> 0.38739302E+03</totfact>
</mgrwt>
</event>
<event>
 9    1  0.7957670E-001  0.2733120E+03  0.7818608E-02  0.1099399E+00
         -2   -1    0    0    0  501 -0.00000000000E+00  0.00000000000E+00  0.11037328222E+02  0.11037328222E+02  0.00000000000E+00 0. -1.
          2   -1    0    0  501    0  0.00000000000E+00 -0.00000000000E+00 -0.16919728359E+04  0.16919728359E+04  0.00000000000E+00 0. -1.
         35    2    1    2    0    0  0.00000000000E+00 -0.35527136788E-14 -0.16809355076E+04  0.17030101641E+04  0.27331197948E+03 0.  0.
         25    2    3    3    0    0 -0.43022003304E+02 -0.25476211394E+02 -0.66454776093E+03  0.67813112209E+03  0.12545183170E+03 0.  0.
         25    2    3    3    0    0  0.43022003304E+02  0.25476211394E+02 -0.10163877467E+04  0.10248790420E+04  0.12179108727E+03 0.  0.
          5    1    4    4  502    0 -0.44447258301E+01 -0.46224375848E+01 -0.59943263897E+03  0.59948536361E+03  0.47000000000E+01 0.  1.
         -5    1    4    4    0  502 -0.38577277474E+02 -0.20853773809E+02 -0.65115121951E+02  0.78645758475E+02  0.47000000000E+01 0.  1.
          5    1    5    5  503    0  0.71472541704E+02  0.21603932587E+02 -0.94256913078E+03  0.94553355859E+03  0.47000000000E+01 0.  1.
         -5    1    5    5    0  503 -0.28450538401E+02  0.38722788071E+01 -0.73818615921E+02  0.79345483393E+02  0.47000000000E+01 0.  1.
<mgrwt>
<rscale>  0 0.27331198E+03</rscale>
<asrwt>0</asrwt>
<pdfrwt beam="1">  1        2 0.26030346E+00 0.27331198E+03</pdfrwt>
<pdfrwt beam="2">  1       -2 0.16980508E-02 0.27331198E+03</pdfrwt>
<totfact> 0.10609512E+04</totfact>
</mgrwt>
</event>
<event>
 9    1  0.7957670E-001  0.2969497E+03  0.7818608E-02  0.1086775E+00
          1   -1    0    0  501    0  0.00000000000E+00  0.00000000000E+00  0.12030979528E+03  0.12030979528E+03  0.00000000000E+00 0. -1.
         -1   -1    0    0    0  501 -0.00000000000E+00 -0.00000000000E+00 -0.18323345600E+03  0.18323345600E+03  0.00000000000E+00 0. -1.
         35    2    1    2    0    0 -0.17763568394E-14 -0.71054273576E-14 -0.62923660721E+02  0.30354325129E+03  0.29694968989E+03 0.  0.
         25    2    3    3    0    0 -0.15156450443E+02 -0.35594448532E+02 -0.10350635576E+03  0.16643280533E+03  0.12445734310E+03 0.  0.
         25    2    3    3    0    0  0.15156450443E+02  0.35594448532E+02  0.40582695042E+02  0.13711044595E+03  0.12512248597E+03 0.  0.
          5    1    4    4  502    0  0.39559481087E+02 -0.25849784022E+02 -0.99813976414E+02  0.11053544122E+03  0.47000000000E+01 0. -1.
         -5    1    4    4    0  502 -0.54715931530E+02 -0.97446645106E+01 -0.36923793497E+01  0.55897364114E+02  0.47000000000E+01 0. -1.
          5    1    5    5  503    0 -0.12528564283E+01  0.78021830121E+02  0.46561211525E+02  0.90989076506E+02  0.47000000000E+01 0.  1.
         -5    1    5    5    0  503  0.16409306871E+02 -0.42427381589E+02 -0.59785164824E+01  0.46121369449E+02  0.47000000000E+01 0.  1.
<mgrwt>
<rscale>  0 0.29694969E+03</rscale>
<asrwt>0</asrwt>
<pdfrwt beam="1">  1        1 0.18509199E-01 0.29694969E+03</pdfrwt>
<pdfrwt beam="2">  1       -1 0.28189763E-01 0.29694969E+03</pdfrwt>
<totfact> 0.32049559E+03</totfact>
</mgrwt>
</event>
<event>
 9    1  0.7957670E-001  0.2731884E+03  0.7818608E-02  0.1099469E+00
          1   -1    0    0  501    0  0.00000000000E+00  0.00000000000E+00  0.61262337699E+03  0.61262337699E+03  0.00000000000E+00 0.  1.
         -1   -1    0    0    0  501 -0.00000000000E+00 -0.00000000000E+00 -0.30455876641E+02  0.30455876641E+02  0.00000000000E+00 0.  1.
         35    2    1    2    0    0  0.00000000000E+00 -0.71054273576E-14  0.58216750035E+03  0.64307925363E+03  0.27318844776E+03 0.  0.
         25    2    3    3    0    0  0.32767169860E+02 -0.19688674700E+02  0.20468113625E+03  0.24384436732E+03  0.12690302047E+03 0.  0.
         25    2    3    3    0    0 -0.32767169860E+02  0.19688674700E+02  0.37748636410E+03  0.39923488631E+03  0.12422241359E+03 0.  0.
          5    1    4    4  502    0  0.51664839563E+02 -0.10487342677E+02  0.21394803751E+03  0.22039757884E+03  0.47000000000E+01 0. -1.
         -5    1    4    4    0  502 -0.18897669703E+02 -0.92013320235E+01 -0.92669012565E+01  0.23446788482E+02  0.47000000000E+01 0. -1.
          5    1    5    5  503    0 -0.23441914015E+02 -0.49827069709E+02  0.21886625498E+03  0.22573610207E+03  0.47000000000E+01 0.  1.
         -5    1    5    5    0  503 -0.93252558450E+01  0.69515744409E+02  0.15862010911E+03  0.17349878424E+03  0.47000000000E+01 0.  1.
<mgrwt>
<rscale>  0 0.27318845E+03</rscale>
<asrwt>0</asrwt>
<pdfrwt beam="1">  1        1 0.94249741E-01 0.27318845E+03</pdfrwt>
<pdfrwt beam="2">  1       -1 0.46855199E-02 0.27318845E+03</pdfrwt>
<totfact> 0.66027918E+03</totfact>
</mgrwt>
</event>
<event>
 9    1  0.7957670E-001  0.2758806E+03  0.7818608E-02  0.1097960E+00
         -1   -1    0    0    0  501 -0.00000000000E+00  0.00000000000E+00  0.35311703984E+02  0.35311703984E+02  0.00000000000E+00 0.  1.
          1   -1    0    0  501    0  0.00000000000E+00 -0.00000000000E+00 -0.53884463055E+03  0.53884463055E+03  0.00000000000E+00 0.  1.
         35    2    1    2    0    0 -0.35527136788E-14  0.00000000000E+00 -0.50353292656E+03  0.57415633453E+03  0.27588056899E+03 0.  0.
         25    2    3    3    0    0  0.25007592748E+02  0.43748486877E+02 -0.32905398780E+03  0.35563985174E+03  0.12515537326E+03 0.  0.
         25    2    3    3    0    0 -0.25007592748E+02 -0.43748486877E+02 -0.17447893876E+03  0.21851648279E+03  0.12152054716E+03 0.  0.
          5    1    4    4  502    0  0.10435167215E+02 -0.43919170932E+02 -0.96540210602E+02  0.10667656047E+03  0.47000000000E+01 0. -1.
         -5    1    4    4    0  502  0.14572425533E+02  0.87667657809E+02 -0.23251377720E+03  0.24896329127E+03  0.47000000000E+01 0. -1.
          5    1    5    5  503    0  0.16696119712E+02 -0.73472021224E+02 -0.74372992695E+02  0.10597325303E+03  0.47000000000E+01 0. -1.
         -5    1    5    5    0  503 -0.41703712460E+02  0.29723534347E+02 -0.10010594607E+03  0.11254322976E+03  0.47000000000E+01 0. -1.
<mgrwt>
<rscale>  0 0.27588057E+03</rscale>
<asrwt>0</asrwt>
<pdfrwt beam="1">  1        1 0.82899168E-01 0.27588057E+03</pdfrwt>
<pdfrwt beam="2">  1       -1 0.54325702E-02 0.27588057E+03</pdfrwt>
<totfact> 0.63108418E+03</totfact>
</mgrwt>
</event>
<event>
 9    1  0.7957670E-001  0.2758897E+03  0.7818608E-02  0.1097955E+00
          2   -1    0    0  501    0  0.00000000000E+00  0.00000000000E+00  0.17248480695E+04  0.17248480695E+04  0.00000000000E+00 0. -1.
         -2   -1    0    0    0  501 -0.00000000000E+00 -0.00000000000E+00 -0.11032146105E+02  0.11032146105E+02  0.00000000000E+00 0. -1.
         35    2    1    2    0    0  0.00000000000E+00  0.00000000000E+00  0.17138159234E+04  0.17358802156E+04  0.27588965846E+03 0.  0.
         25    2    3    3    0    0 -0.65847425527E+02 -0.11694466558E+02  0.95065247585E+03  0.95968741726E+03  0.11308034758E+03 0.  0.
         25    2    3    3    0    0  0.65847425527E+02  0.11694466558E+02  0.76316344755E+03  0.77619279835E+03  0.12483656731E+03 0.  0.
          5    1    4    4  502    0 -0.76678035779E+02  0.26643348598E+02  0.43913490520E+03  0.44659931052E+03  0.47000000000E+01 0.  1.
         -5    1    4    4    0  502  0.10830610252E+02 -0.38337815156E+02  0.51151757065E+03  0.51308810674E+03  0.47000000000E+01 0.  1.
          5    1    5    5  503    0 -0.36827860944E+02  0.73436752759E+01  0.16864979732E+03  0.17284404833E+03  0.47000000000E+01 0. -1.
         -5    1    5    5    0  503  0.10267528647E+03  0.43507912819E+01  0.59451365023E+03  0.60334875002E+03  0.47000000000E+01 0. -1.
<mgrwt>
<rscale>  0 0.27588966E+03</rscale>
<asrwt>0</asrwt>
<pdfrwt beam="1">  1        2 0.26536103E+00 0.27588966E+03</pdfrwt>
<pdfrwt beam="2">  1       -2 0.16972546E-02 0.27588966E+03</pdfrwt>
<totfact> 0.10203625E+04</totfact>
</mgrwt>
</event>
<event>
 9    1  0.7957670E-001  0.2741949E+03  0.7818608E-02  0.1098902E+00
         -1   -1    0    0    0  501 -0.00000000000E+00  0.00000000000E+00  0.28536195965E+02  0.28536195965E+02  0.00000000000E+00 0.  1.
          1   -1    0    0  501    0  0.00000000000E+00 -0.00000000000E+00 -0.65866204337E+03  0.65866204337E+03  0.00000000000E+00 0.  1.
         35    2    1    2    0    0 -0.14210854715E-13  0.00000000000E+00 -0.63012584741E+03  0.68719823934E+03  0.27419488795E+03 0.  0.
         25    2    3    3    0    0  0.42453879530E+02 -0.10393507111E+02 -0.41077674507E+03  0.43158245288E+03  0.12496208415E+03 0.  0.
         25    2    3    3    0    0 -0.42453879530E+02  0.10393507111E+02 -0.21934910234E+03  0.25561578645E+03  0.12375396845E+03 0.  0.
          5    1    4    4  502    0 -0.41492075594E+02 -0.11637167074E+02 -0.20016934637E+03  0.20480935823E+03  0.47000000000E+01 0.  1.
         -5    1    4    4    0  502  0.83945955124E+02  0.12436599635E+01 -0.21060739870E+03  0.22677309465E+03  0.47000000000E+01 0.  1.
          5    1    5    5  503    0 -0.69426992994E+02 -0.26970022499E+02 -0.83023742958E+02  0.11163566350E+03  0.47000000000E+01 0. -1.
         -5    1    5    5    0  503  0.26973113464E+02  0.37363529610E+02 -0.13632535939E+03  0.14398012296E+03  0.47000000000E+01 0. -1.
<mgrwt>
<rscale>  0 0.27419489E+03</rscale>
<asrwt>0</asrwt>
<pdfrwt beam="1">  1        1 0.10133261E+00 0.27419489E+03</pdfrwt>
<pdfrwt beam="2">  1       -1 0.43901845E-02 0.27419489E+03</pdfrwt>
<totfact> 0.65695995E+03</totfact>
</mgrwt>
</event>
<event>
 9    1  0.7957670E-001  0.2708720E+03  0.7818608E-02  0.1100782E+00
          3   -1    0    0  501    0  0.00000000000E+00  0.00000000000E+00  0.16467032255E+04  0.16467032255E+04  0.00000000000E+00 0.  1.
         -3   -1    0    0    0  501 -0.00000000000E+00 -0.00000000000E+00 -0.11139167821E+02  0.11139167821E+02  0.00000000000E+00 0.  1.
         35    2    1    2    0    0 -0.71054273576E-14  0.35527136788E-14  0.16355640577E+04  0.16578423933E+04  0.27087195188E+03 0.  0.
         25    2    3    3    0    0  0.32896678672E+02  0.30584717439E+02  0.70406084856E+03  0.71691459676E+03  0.12746467809E+03 0.  0.
         25    2    3    3    0    0 -0.32896678672E+02 -0.30584717439E+02  0.93150320910E+03  0.94092779655E+03  0.12501709218E+03 0.  0.
          5    1    4    4  502    0  0.36360634867E+02  0.74350982631E+02  0.32984595984E+03  0.34010382475E+03  0.47000000000E+01 0.  1.
         -5    1    4    4    0  502 -0.34639561952E+01 -0.43766265193E+02  0.37421488872E+03  0.37681077201E+03  0.47000000000E+01 0.  1.
          5    1    5    5  503    0  0.35518139924E+02 -0.49944998896E+02  0.45127313078E+03  0.45543997380E+03  0.47000000000E+01 0.  1.
         -5    1    5    5    0  503 -0.68414818596E+02  0.19360281458E+02  0.48023007833E+03  0.48548782274E+03  0.47000000000E+01 0.  1.
<mgrwt>
<rscale>  0 0.27087195E+03</rscale>
<asrwt>0</asrwt>
<pdfrwt beam="1">  1        3 0.25333876E+00 0.27087195E+03</pdfrwt>
<pdfrwt beam="2">  1       -3 0.17137194E-02 0.27087195E+03</pdfrwt>
<totfact> 0.24225643E+02</totfact>
</mgrwt>
</event>
<event>
 9    1  0.7957670E-001  0.2765862E+03  0.7818608E-02  0.1097568E+00
         -2   -1    0    0    0  501 -0.00000000000E+00  0.00000000000E+00  0.13906776666E+03  0.13906776666E+03  0.00000000000E+00 0. -1.
          2   -1    0    0  501    0  0.00000000000E+00 -0.00000000000E+00 -0.13752278742E+03  0.13752278742E+03  0.00000000000E+00 0. -1.
         35    2    1    2    0    0  0.00000000000E+00 -0.71054273576E-14  0.15449792359E+01  0.27659055408E+03  0.27658623907E+03 0.  0.
         25    2    3    3    0    0  0.39987225594E+02  0.82517516444E+01 -0.40466595159E+02  0.13890192954E+03  0.12644813597E+03 0.  0.
         25    2    3    3    0    0 -0.39987225594E+02 -0.82517516444E+01  0.42011574394E+02  0.13768862454E+03  0.12460383352E+03 0.  0.
          5    1    4    4  502    0  0.14715467486E+02 -0.45504076869E+02  0.21756178732E+02  0.52750235147E+02  0.47000000000E+01 0. -1.
         -5    1    4    4    0  502  0.25271758107E+02  0.53755828513E+02 -0.62222773891E+02  0.86151694398E+02  0.47000000000E+01 0. -1.
          5    1    5    5  503    0 -0.10718488217E+01  0.37576263168E+02  0.63271171352E+02  0.73745884887E+02  0.47000000000E+01 0. -1.
         -5    1    5    5    0  503 -0.38915376772E+02 -0.45828014812E+02 -0.21259596957E+02  0.63942739648E+02  0.47000000000E+01 0. -1.
<mgrwt>
<rscale>  0 0.27658624E+03</rscale>
<asrwt>0</asrwt>
<pdfrwt beam="1">  1        2 0.21157352E-01 0.27658624E+03</pdfrwt>
<pdfrwt beam="2">  1       -2 0.21395041E-01 0.27658624E+03</pdfrwt>
<totfact> 0.48351190E+03</totfact>
</mgrwt>
</event>
<event>
 9    1  0.7957670E-001  0.2755884E+03  0.7818608E-02  0.1098123E+00
         -2   -1    0    0    0  501 -0.00000000000E+00  0.00000000000E+00  0.15478175566E+02  0.15478175566E+02  0.00000000000E+00 0. -1.
          2   -1    0    0  501    0  0.00000000000E+00 -0.00000000000E+00 -0.12267102275E+04  0.12267102275E+04  0.00000000000E+00 0. -1.
         35    2    1    2    0    0 -0.71054273576E-14  0.00000000000E+00 -0.12112320519E+04  0.12421884031E+04  0.27558836165E+03 0.  0.
         25    2    3    3    0    0 -0.40269188129E+02 -0.36118523189E+02 -0.49916359599E+03  0.51717723999E+03  0.12402357345E+03 0.  0.
         25    2    3    3    0    0  0.40269188129E+02  0.36118523189E+02 -0.71206845593E+03  0.72501116307E+03  0.12519403103E+03 0.  0.
          5    1    4    4  502    0 -0.46481095914E+02 -0.52381882827E+02 -0.49322183605E+03  0.49819095082E+03  0.47000000000E+01 0.  1.
         -5    1    4    4    0  502  0.62119077853E+01  0.16263359639E+02 -0.59417599385E+01  0.18986289164E+02  0.47000000000E+01 0.  1.
          5    1    5    5  503    0 -0.16559567813E+02  0.68570626687E+02 -0.35754003959E+03  0.36446278279E+03  0.47000000000E+01 0. -1.
         -5    1    5    5    0  503  0.56828755942E+02 -0.32452103499E+02 -0.35452841634E+03  0.36054838027E+03  0.47000000000E+01 0. -1.
<mgrwt>
<rscale>  0 0.27558836E+03</rscale>
<asrwt>0</asrwt>
<pdfrwt beam="1">  1        2 0.18872473E+00 0.27558836E+03</pdfrwt>
<pdfrwt beam="2">  1       -2 0.23812568E-02 0.27558836E+03</pdfrwt>
<totfact> 0.11511558E+04</totfact>
</mgrwt>
</event>
<event>
 9    1  0.7957670E-001  0.2766438E+03  0.7818608E-02  0.1097536E+00
         -2   -1    0    0    0  501 -0.00000000000E+00  0.00000000000E+00  0.24321801364E+02  0.24321801364E+02  0.00000000000E+00 0. -1.
          2   -1    0    0  501    0  0.00000000000E+00 -0.00000000000E+00 -0.78665851558E+03  0.78665851558E+03  0.00000000000E+00 0. -1.
         35    2    1    2    0    0  0.00000000000E+00  0.00000000000E+00 -0.76233671422E+03  0.81098031695E+03  0.27664382991E+03 0.  0.
         25    2    3    3    0    0 -0.44840052956E+02 -0.33793513822E+02 -0.32278528986E+03  0.35064346828E+03  0.12493144747E+03 0.  0.
         25    2    3    3    0    0  0.44840052956E+02  0.33793513822E+02 -0.43955142435E+03  0.46033684867E+03  0.12470736812E+03 0.  0.
          5    1    4    4  502    0 -0.82345636463E+02 -0.45550756454E+02 -0.18994136056E+03  0.21202708721E+03  0.47000000000E+01 0.  1.
         -5    1    4    4    0  502  0.37505583507E+02  0.11757242632E+02 -0.13284392930E+03  0.13861638107E+03  0.47000000000E+01 0.  1.
          5    1    5    5  503    0 -0.17697832880E+02 -0.21259127346E+02 -0.25353373636E+02  0.37815966719E+02  0.47000000000E+01 0. -1.
         -5    1    5    5    0  503  0.62537885836E+02  0.55052641168E+02 -0.41419805072E+03  0.42252088195E+03  0.47000000000E+01 0. -1.
<mgrwt>
<rscale>  0 0.27664383E+03</rscale>
<asrwt>0</asrwt>
<pdfrwt beam="1">  1        2 0.12102436E+00 0.27664383E+03</pdfrwt>
<pdfrwt beam="2">  1       -2 0.37418164E-02 0.27664383E+03</pdfrwt>
<totfact> 0.10983025E+04</totfact>
</mgrwt>
</event>
<event>
 9    1  0.7957670E-001  0.2761478E+03  0.7818608E-02  0.1097812E+00
         -2   -1    0    0    0  501 -0.00000000000E+00  0.00000000000E+00  0.44709841871E+03  0.44709841871E+03  0.00000000000E+00 0. -1.
          2   -1    0    0  501    0  0.00000000000E+00 -0.00000000000E+00 -0.42640287775E+02  0.42640287775E+02  0.00000000000E+00 0. -1.
         35    2    1    2    0    0  0.71054273576E-14  0.00000000000E+00  0.40445813093E+03  0.48973870648E+03  0.27614782445E+03 0.  0.
         25    2    3    3    0    0 -0.53860347414E+02 -0.21534704137E+02  0.18658715422E+03  0.23164989002E+03  0.12442758906E+03 0.  0.
         25    2    3    3    0    0  0.53860347414E+02  0.21534704137E+02  0.21787097671E+03  0.25808881646E+03  0.12560809760E+03 0.  0.
          5    1    4    4  502    0 -0.43856083719E+02  0.12779081062E+02  0.18996997289E+03  0.19544140194E+03  0.47000000000E+01 0. -1.
         -5    1    4    4    0  502 -0.10004263695E+02 -0.34313785198E+02 -0.33828186725E+01  0.36208488078E+02  0.47000000000E+01 0. -1.
          5    1    5    5  503    0  0.59886564370E+02  0.25626840604E+02  0.23227253871E+03  0.24127941850E+03  0.47000000000E+01 0.  1.
         -5    1    5    5    0  503 -0.60262169563E+01 -0.40921364676E+01 -0.14401562003E+02  0.16809397961E+02  0.47000000000E+01 0.  1.
<mgrwt>
<rscale>  0 0.27614782E+03</rscale>
<asrwt>0</asrwt>
<pdfrwt beam="1">  1        2 0.65600446E-02 0.27614782E+03</pdfrwt>
<pdfrwt beam="2">  1       -2 0.68784369E-01 0.27614782E+03</pdfrwt>
<totfact> 0.21723630E+03</totfact>
</mgrwt>
</event>
<event>
 9    1  0.7957670E-001  0.2694306E+03  0.7818608E-02  0.1101606E+00
         -2   -1    0    0    0  501 -0.00000000000E+00  0.00000000000E+00  0.13823413185E+02  0.13823413185E+02  0.00000000000E+00 0.  1.
          2   -1    0    0  501    0  0.00000000000E+00 -0.00000000000E+00 -0.13128600249E+04  0.13128600249E+04  0.00000000000E+00 0.  1.
         35    2    1    2    0    0  0.00000000000E+00  0.35527136788E-14 -0.12990366117E+04  0.13266834380E+04  0.26943055935E+03 0.  0.
         25    2    3    3    0    0 -0.61402743945E+01  0.13804625243E+02 -0.86386513255E+03  0.87336556251E+03  0.12757808549E+03 0.  0.
         25    2    3    3    0    0  0.61402743945E+01 -0.13804625243E+02 -0.43517147913E+03  0.45331787554E+03  0.12607382515E+03 0.  0.
          5    1    4    4  502    0 -0.31180331236E+02 -0.59250318927E+01 -0.53663886032E+02  0.62523769264E+02  0.47000000000E+01 0. -1.
         -5    1    4    4    0  502  0.25040056841E+02  0.19729657136E+02 -0.81020124651E+03  0.81084179324E+03  0.47000000000E+01 0. -1.
          5    1    5    5  503    0  0.43457617651E+02 -0.55563579965E+02 -0.23445772199E+03  0.24488444081E+03  0.47000000000E+01 0.  1.
         -5    1    5    5    0  503 -0.37317343257E+02  0.41758954722E+02 -0.20071375715E+03  0.20843343473E+03  0.47000000000E+01 0.  1.
<mgrwt>
<rscale>  0 0.26943056E+03</rscale>
<asrwt>0</asrwt>
<pdfrwt beam="1">  1        2 0.20197848E+00 0.26943056E+03</pdfrwt>
<pdfrwt beam="2">  1       -2 0.21266788E-02 0.26943056E+03</pdfrwt>
<totfact> 0.12169565E+04</totfact>
</mgrwt>
</event>
<event>
 9    1  0.7957670E-001  0.2764633E+03  0.7818608E-02  0.1097636E+00
         -2   -1    0    0    0  501 -0.00000000000E+00  0.00000000000E+00  0.77975490237E+02  0.77975490237E+02  0.00000000000E+00 0. -1.
          2   -1    0    0  501    0  0.00000000000E+00 -0.00000000000E+00 -0.24505123666E+03  0.24505123666E+03  0.00000000000E+00 0. -1.
         35    2    1    2    0    0  0.00000000000E+00  0.14210854715E-13 -0.16707574642E+03  0.32302672689E+03  0.27646330904E+03 0.  0.
         25    2    3    3    0    0 -0.18509049180E+02  0.50655805795E+02 -0.56544867795E+02  0.14722915747E+03  0.12478183832E+03 0.  0.
         25    2    3    3    0    0  0.18509049180E+02 -0.50655805795E+02 -0.11053087863E+03  0.17579756942E+03  0.12561494626E+03 0.  0.
          5    1    4    4  502    0  0.52534020207E+02  0.14013984737E+02 -0.32957493825E+02  0.63753442625E+02  0.47000000000E+01 0. -1.
         -5    1    4    4    0  502 -0.71043069387E+02  0.36641821058E+02 -0.23587373970E+02  0.83475714847E+02  0.47000000000E+01 0. -1.
          5    1    5    5  503    0  0.24510882232E+02  0.16167930871E+02 -0.10406502951E+03  0.10823033634E+03  0.47000000000E+01 0.  1.
         -5    1    5    5    0  503 -0.60018330523E+01 -0.66823736667E+02 -0.64658491145E+01  0.67567233086E+02  0.47000000000E+01 0.  1.
<mgrwt>
<rscale>  0 0.27646331E+03</rscale>
<asrwt>0</asrwt>
<pdfrwt beam="1">  1        2 0.37700190E-01 0.27646331E+03</pdfrwt>
<pdfrwt beam="2">  1       -2 0.11996229E-01 0.27646331E+03</pdfrwt>
<totfact> 0.66939703E+03</totfact>
</mgrwt>
</event>
<event>
 9    1  0.7957670E-001  0.2852351E+03  0.7818608E-02  0.1092863E+00
         -2   -1    0    0    0  501 -0.00000000000E+00  0.00000000000E+00  0.26329388065E+02  0.26329388065E+02  0.00000000000E+00 0. -1.
          2   -1    0    0  501    0  0.00000000000E+00 -0.00000000000E+00 -0.77251213980E+03  0.77251213980E+03  0.00000000000E+00 0. -1.
         35    2    1    2    0    0  0.00000000000E+00 -0.14210854715E-13 -0.74618275174E+03  0.79884152787E+03  0.28523514449E+03 0.  0.
         25    2    3    3    0    0 -0.35922480979E+02 -0.57778996567E+02 -0.33984688222E+03  0.36812949061E+03  0.12407490245E+03 0.  0.
         25    2    3    3    0    0  0.35922480979E+02  0.57778996567E+02 -0.40633586952E+03  0.43071203726E+03  0.12559929577E+03 0.  0.
          5    1    4    4  502    0 -0.94230924490E+01  0.37129750708E+02 -0.14055921089E+03  0.14576143120E+03  0.47000000000E+01 0. -1.
         -5    1    4    4    0  502 -0.26499388530E+02 -0.94908747276E+02 -0.19928767133E+03  0.22236805941E+03  0.47000000000E+01 0. -1.
          5    1    5    5  503    0  0.47154493952E+02  0.10542602112E+02 -0.45311936735E+02  0.66407487303E+02  0.47000000000E+01 0. -1.
         -5    1    5    5    0  503 -0.11232012973E+02  0.47236394455E+02 -0.36102393279E+03  0.36430454996E+03  0.47000000000E+01 0. -1.
<mgrwt>
<rscale>  0 0.28523514E+03</rscale>
<asrwt>0</asrwt>
<pdfrwt beam="1">  1        2 0.11884799E+00 0.28523514E+03</pdfrwt>
<pdfrwt beam="2">  1       -2 0.40506761E-02 0.28523514E+03</pdfrwt>
<totfact> 0.99843041E+03</totfact>
</mgrwt>
</event>
<event>
 9    1  0.7957670E-001  0.2734318E+03  0.7818608E-02  0.1099331E+00
         -1   -1    0    0    0  501 -0.00000000000E+00  0.00000000000E+00  0.99830536958E+02  0.99830536958E+02  0.00000000000E+00 0. -1.
          1   -1    0    0  501    0  0.00000000000E+00 -0.00000000000E+00 -0.18722969495E+03  0.18722969495E+03  0.00000000000E+00 0. -1.
         35    2    1    2    0    0  0.35527136788E-14  0.00000000000E+00 -0.87399157991E+02  0.28706023191E+03  0.27343182683E+03 0.  0.
         25    2    3    3    0    0  0.14576619843E+02 -0.11084622621E+02 -0.10098489206E+03  0.16149310969E+03  0.12468652432E+03 0.  0.
         25    2    3    3    0    0 -0.14576619843E+02  0.11084622621E+02  0.13585734070E+02  0.12556712222E+03  0.12347948537E+03 0.  0.
          5    1    4    4  502    0 -0.31037799782E+02  0.18763978014E+01  0.15921119561E+02  0.35248233035E+02  0.47000000000E+01 0. -1.
         -5    1    4    4    0  502  0.45614419625E+02 -0.12961020422E+02 -0.11690601162E+03  0.12624487665E+03  0.47000000000E+01 0. -1.
          5    1    5    5  503    0  0.17982185000E+02 -0.44948147663E+02 -0.19801383359E+02  0.52515519027E+02  0.47000000000E+01 0.  1.
         -5    1    5    5    0  503 -0.32558804843E+02  0.56032770284E+02  0.33387117429E+02  0.73051603191E+02  0.47000000000E+01 0.  1.
<mgrwt>
<rscale>  0 0.27343183E+03</rscale>
<asrwt>0</asrwt>
<pdfrwt beam="1">  1        1 0.28804568E-01 0.27343183E+03</pdfrwt>
<pdfrwt beam="2">  1       -1 0.15358544E-01 0.27343183E+03</pdfrwt>
<totfact> 0.49020909E+03</totfact>
</mgrwt>
</event>
<event>
 9    1  0.7957670E-001  0.2728811E+03  0.7818608E-02  0.1099642E+00
          1   -1    0    0  501    0  0.00000000000E+00  0.00000000000E+00  0.30747442649E+04  0.30747442649E+04  0.00000000000E+00 0.  1.
         -1   -1    0    0    0  501 -0.00000000000E+00 -0.00000000000E+00 -0.60544967471E+01  0.60544967471E+01  0.00000000000E+00 0.  1.
         35    2    1    2    0    0 -0.71054273576E-14  0.00000000000E+00  0.30686897682E+04  0.30807987617E+04  0.27288114006E+03 0.  0.
         25    2    3    3    0    0  0.30043794054E+02 -0.60709158845E+01  0.99667690254E+03  0.10049549000E+04  0.12502006801E+03 0.  0.
         25    2    3    3    0    0 -0.30043794054E+02  0.60709158845E+01  0.20720128656E+04  0.20758438617E+04  0.12227402453E+03 0.  0.
          5    1    4    4  502    0  0.58900193237E+02 -0.13386334461E+02  0.92776308327E+03  0.92973913298E+03  0.47000000000E+01 0.  1.
         -5    1    4    4    0  502 -0.28856399183E+02  0.73154185770E+01  0.68913819266E+02  0.75215767022E+02  0.47000000000E+01 0.  1.
          5    1    5    5  503    0 -0.58210763861E+00  0.79194922857E+01  0.19566370340E+04  0.19566587924E+04  0.47000000000E+01 0.  1.
         -5    1    5    5    0  503 -0.29461686415E+02 -0.18485764012E+01  0.11537583165E+03  0.11918506924E+03  0.47000000000E+01 0.  1.
<mgrwt>
<rscale>  0 0.27288114E+03</rscale>
<asrwt>0</asrwt>
<pdfrwt beam="1">  1        1 0.47303633E+00 0.27288114E+03</pdfrwt>
<pdfrwt beam="2">  1       -1 0.93146350E-03 0.27288114E+03</pdfrwt>
<totfact> 0.13370310E+03</totfact>
</mgrwt>
</event>
<event>
 9    1  0.7957670E-001  0.2747240E+03  0.7818608E-02  0.1098606E+00
          2   -1    0    0  501    0  0.00000000000E+00  0.00000000000E+00  0.39685804392E+03  0.39685804392E+03  0.00000000000E+00 0. -1.
         -2   -1    0    0    0  501 -0.00000000000E+00 -0.00000000000E+00 -0.47544266151E+02  0.47544266151E+02  0.00000000000E+00 0. -1.
         35    2    1    2    0    0  0.00000000000E+00  0.71054273576E-14  0.34931377777E+03  0.44440231007E+03  0.27472403946E+03 0.  0.
         25    2    3    3    0    0  0.50338002653E+02  0.29625462918E+02  0.16792964410E+03  0.21686037068E+03  0.12416308807E+03 0.  0.
         25    2    3    3    0    0 -0.50338002653E+02 -0.29625462918E+02  0.18138413367E+03  0.22754193939E+03  0.12435251373E+03 0.  0.
          5    1    4    4  502    0  0.50275283745E+02 -0.38106255402E+02  0.49401455587E+02  0.80263844105E+02  0.47000000000E+01 0. -1.
         -5    1    4    4    0  502  0.62718908682E-01  0.67731718320E+02  0.11852818851E+03  0.13659652658E+03  0.47000000000E+01 0. -1.
          5    1    5    5  503    0 -0.89201766369E+02 -0.26014636117E+02  0.15294972952E+03  0.17902353526E+03  0.47000000000E+01 0. -1.
         -5    1    5    5    0  503  0.38863763716E+02 -0.36108268012E+01  0.28434404146E+02  0.48518404132E+02  0.47000000000E+01 0. -1.
<mgrwt>
<rscale>  0 0.27472404E+03</rscale>
<asrwt>0</asrwt>
<pdfrwt beam="1">  1        2 0.61055082E-01 0.27472404E+03</pdfrwt>
<pdfrwt beam="2">  1       -2 0.73145027E-02 0.27472404E+03</pdfrwt>
<totfact> 0.87029564E+03</totfact>
</mgrwt>
</event>
<event>
 9    1  0.7957670E-001  0.2724580E+03  0.7818608E-02  0.1099881E+00
          2   -1    0    0  501    0  0.00000000000E+00  0.00000000000E+00  0.26028767504E+04  0.26028767504E+04  0.00000000000E+00 0. -1.
         -2   -1    0    0    0  501 -0.00000000000E+00 -0.00000000000E+00 -0.71299360853E+01  0.71299360853E+01  0.00000000000E+00 0. -1.
         35    2    1    2    0    0  0.71054273576E-14 -0.71054273576E-14  0.25957468143E+04  0.26100066865E+04  0.27245803250E+03 0.  0.
         25    2    3    3    0    0  0.29364715867E+02 -0.34495227952E+02  0.15808683697E+04  0.15864661823E+04  0.12521157356E+03 0.  0.
         25    2    3    3    0    0 -0.29364715867E+02  0.34495227952E+02  0.10148784447E+04  0.10235405042E+04  0.12491876945E+03 0.  0.
          5    1    4    4  502    0  0.98977328939E+01  0.41858667433E+02  0.29262532196E+03  0.29580700163E+03  0.47000000000E+01 0.  1.
         -5    1    4    4    0  502  0.19466982973E+02 -0.76353895385E+02  0.12882430477E+04  0.12906591807E+04  0.47000000000E+01 0.  1.
          5    1    5    5  503    0  0.25945787326E+02  0.60125467444E+02  0.37087560717E+03  0.37664182151E+03  0.47000000000E+01 0. -1.
         -5    1    5    5    0  503 -0.55310503193E+02 -0.25630239493E+02  0.64400283749E+03  0.64689868267E+03  0.47000000000E+01 0. -1.
<mgrwt>
<rscale>  0 0.27245803E+03</rscale>
<asrwt>0</asrwt>
<pdfrwt beam="1">  1        2 0.40044182E+00 0.27245803E+03</pdfrwt>
<pdfrwt beam="2">  1       -2 0.10969153E-02 0.27245803E+03</pdfrwt>
<totfact> 0.65584031E+03</totfact>
</mgrwt>
</event>
<event>
 9    1  0.7957670E-001  0.2734855E+03  0.7818608E-02  0.1099301E+00
         -2   -1    0    0    0  501 -0.00000000000E+00  0.00000000000E+00  0.90599234361E+03  0.90599234361E+03  0.00000000000E+00 0.  1.
          2   -1    0    0  501    0  0.00000000000E+00 -0.00000000000E+00 -0.20638781905E+02  0.20638781905E+02  0.00000000000E+00 0.  1.
         35    2    1    2    0    0  0.00000000000E+00 -0.71054273576E-14  0.88535356170E+03  0.92663112551E+03  0.27348549056E+03 0.  0.
         25    2    3    3    0    0 -0.12388802963E+02 -0.41642845751E+02  0.33033413243E+03  0.35597758251E+03  0.12534668387E+03 0.  0.
         25    2    3    3    0    0  0.12388802963E+02  0.41642845751E+02  0.55501942927E+03  0.57065354301E+03  0.12534468570E+03 0.  0.
          5    1    4    4  502    0 -0.39982606402E+02 -0.75711589344E+02  0.18126680633E+03  0.20052580545E+03  0.47000000000E+01 0.  1.
         -5    1    4    4    0  502  0.27593803439E+02  0.34068743593E+02  0.14906732610E+03  0.15545177706E+03  0.47000000000E+01 0.  1.
          5    1    5    5  503    0  0.51636941343E+02  0.54312155084E+02  0.47091018807E+03  0.47685918166E+03  0.47000000000E+01 0. -1.
         -5    1    5    5    0  503 -0.39248138380E+02 -0.12669309333E+02  0.84109241199E+02  0.93794361347E+02  0.47000000000E+01 0. -1.
<mgrwt>
<rscale>  0 0.27348549E+03</rscale>
<asrwt>0</asrwt>
<pdfrwt beam="1">  1        2 0.31751979E-02 0.27348549E+03</pdfrwt>
<pdfrwt beam="2">  1       -2 0.13938341E+00 0.27348549E+03</pdfrwt>
<totfact> 0.11097854E+03</totfact>
</mgrwt>
</event>
<event>
 9    1  0.7957670E-001  0.2746085E+03  0.7818608E-02  0.1098671E+00
         -1   -1    0    0    0  501 -0.00000000000E+00  0.00000000000E+00  0.18209386625E+02  0.18209386625E+02  0.00000000000E+00 0. -1.
          1   -1    0    0  501    0  0.00000000000E+00 -0.00000000000E+00 -0.10353152941E+04  0.10353152941E+04  0.00000000000E+00 0. -1.
         35    2    1    2    0    0  0.71054273576E-14 -0.35527136788E-14 -0.10171059075E+04  0.10535246807E+04  0.27460849564E+03 0.  0.
         25    2    3    3    0    0 -0.53239597626E+02 -0.13632171456E+02 -0.46453833232E+03  0.48428853433E+03  0.12537635917E+03 0.  0.
         25    2    3    3    0    0  0.53239597626E+02  0.13632171456E+02 -0.55256757515E+03  0.56923614639E+03  0.12521411419E+03 0.  0.
          5    1    4    4  502    0 -0.53248766071E+02  0.49566677016E+02 -0.27130960301E+03  0.28093286964E+03  0.47000000000E+01 0.  1.
         -5    1    4    4    0  502  0.91684447718E-02 -0.63198848473E+02 -0.19322872931E+03  0.20335566469E+03  0.47000000000E+01 0.  1.
          5    1    5    5  503    0 -0.34839731207E+02 -0.18457106555E+02 -0.11339812981E+03  0.12014864751E+03  0.47000000000E+01 0.  1.
         -5    1    5    5    0  503  0.88079328833E+02  0.32089278011E+02 -0.43916944533E+03  0.44908749888E+03  0.47000000000E+01 0.  1.
<mgrwt>
<rscale>  0 0.27460850E+03</rscale>
<asrwt>0</asrwt>
<pdfrwt beam="1">  1        1 0.15927932E+00 0.27460850E+03</pdfrwt>
<pdfrwt beam="2">  1       -1 0.28014433E-02 0.27460850E+03</pdfrwt>
<totfact> 0.62778092E+03</totfact>
</mgrwt>
</event>
<event>
 9    1  0.7957670E-001  0.2770583E+03  0.7818608E-02  0.1097307E+00
         -1   -1    0    0    0  501 -0.00000000000E+00  0.00000000000E+00  0.54169167033E+02  0.54169167033E+02  0.00000000000E+00 0. -1.
          1   -1    0    0  501    0  0.00000000000E+00 -0.00000000000E+00 -0.35426661103E+03  0.35426661103E+03  0.00000000000E+00 0. -1.
         35    2    1    2    0    0  0.35527136788E-14  0.00000000000E+00 -0.30009744400E+03  0.40843577807E+03  0.27705831319E+03 0.  0.
         25    2    3    3    0    0 -0.27404276159E+02 -0.51873187750E+02 -0.15668798936E+03  0.20933189870E+03  0.12580499133E+03 0.  0.
         25    2    3    3    0    0  0.27404276159E+02  0.51873187750E+02 -0.14340945464E+03  0.19910387937E+03  0.12503703907E+03 0.  0.
          5    1    4    4  502    0  0.24757664993E+02 -0.80730395961E+01 -0.13518615133E+03  0.13775159329E+03  0.47000000000E+01 0.  1.
         -5    1    4    4    0  502 -0.52161941153E+02 -0.43800148154E+02 -0.21501838031E+02  0.71580305405E+02  0.47000000000E+01 0.  1.
          5    1    5    5  503    0  0.42571166874E+02 -0.30944449229E+02 -0.44114054019E+02  0.68833152980E+02  0.47000000000E+01 0. -1.
         -5    1    5    5    0  503 -0.15166890715E+02  0.82817636979E+02 -0.99295400623E+02  0.13027072639E+03  0.47000000000E+01 0. -1.
<mgrwt>
<rscale>  0 0.27705831E+03</rscale>
<asrwt>0</asrwt>
<pdfrwt beam="1">  1        1 0.54502557E-01 0.27705831E+03</pdfrwt>
<pdfrwt beam="2">  1       -1 0.83337178E-02 0.27705831E+03</pdfrwt>
<totfact> 0.56956652E+03</totfact>
</mgrwt>
</event>
<event>
 9    1  0.7957670E-001  0.2738314E+03  0.7818608E-02  0.1099107E+00
          2   -1    0    0  501    0  0.00000000000E+00  0.00000000000E+00  0.14259030143E+04  0.14259030143E+04  0.00000000000E+00 0.  1.
         -2   -1    0    0    0  501 -0.00000000000E+00 -0.00000000000E+00 -0.13146697598E+02  0.13146697598E+02  0.00000000000E+00 0.  1.
         35    2    1    2    0    0  0.00000000000E+00  0.00000000000E+00  0.14127563167E+04  0.14390497119E+04  0.27383144986E+03 0.  0.
         25    2    3    3    0    0 -0.31808098779E+02 -0.40508630747E+02  0.58506198886E+03  0.60040014211E+03  0.12461980389E+03 0.  0.
         25    2    3    3    0    0  0.31808098779E+02  0.40508630747E+02  0.82769432780E+03  0.83864956975E+03  0.12490995258E+03 0.  0.
          5    1    4    4  502    0  0.62007382642E+01 -0.77360647711E+02  0.27348128040E+03  0.28431886976E+03  0.47000000000E+01 0. -1.
         -5    1    4    4    0  502 -0.38008837044E+02  0.36852016964E+02  0.31158070846E+03  0.31608127235E+03  0.47000000000E+01 0. -1.
          5    1    5    5  503    0  0.60358932883E+02  0.60180347476E+02  0.37446091907E+03  0.38406763065E+03  0.47000000000E+01 0. -1.
         -5    1    5    5    0  503 -0.28550834104E+02 -0.19671716729E+02  0.45323340873E+03  0.45458193910E+03  0.47000000000E+01 0. -1.
<mgrwt>
<rscale>  0 0.27383145E+03</rscale>
<asrwt>0</asrwt>
<pdfrwt beam="1">  1        2 0.21936957E+00 0.27383145E+03</pdfrwt>
<pdfrwt beam="2">  1       -2 0.20225700E-02 0.27383145E+03</pdfrwt>
<totfact> 0.11371844E+04</totfact>
</mgrwt>
</event>
<event>
 9    1  0.7957670E-001  0.2802996E+03  0.7818608E-02  0.1095525E+00
          2   -1    0    0  501    0  0.00000000000E+00  0.00000000000E+00  0.69302891163E+03  0.69302891163E+03  0.00000000000E+00 0.  1.
         -2   -1    0    0    0  501 -0.00000000000E+00 -0.00000000000E+00 -0.28342199986E+02  0.28342199986E+02  0.00000000000E+00 0.  1.
         35    2    1    2    0    0  0.00000000000E+00 -0.71054273576E-14  0.66468671165E+03  0.72137111162E+03  0.28029958266E+03 0.  0.
         25    2    3    3    0    0  0.35762198981E+02  0.35912779065E+02  0.35332315371E+03  0.37823967057E+03  0.12513726411E+03 0.  0.
         25    2    3    3    0    0 -0.35762198981E+02 -0.35912779065E+02  0.31136355794E+03  0.34313144105E+03  0.13499354817E+03 0.  0.
          5    1    4    4  502    0  0.54708408193E+02  0.68796809670E+02  0.17533694594E+03  0.19619160420E+03  0.47000000000E+01 0. -1.
         -5    1    4    4    0  502 -0.18946209212E+02 -0.32884030605E+02  0.17798620777E+03  0.18204806637E+03  0.47000000000E+01 0. -1.
          5    1    5    5  503    0 -0.88731362697E+01  0.50141572832E+02  0.14648522180E+03  0.15515450390E+03  0.47000000000E+01 0. -1.
         -5    1    5    5    0  503 -0.26889062711E+02 -0.86054351897E+02  0.16487833613E+03  0.18797693715E+03  0.47000000000E+01 0. -1.
<mgrwt>
<rscale>  0 0.28029958E+03</rscale>
<asrwt>0</asrwt>
<pdfrwt beam="1">  1        2 0.10661982E+00 0.28029958E+03</pdfrwt>
<pdfrwt beam="2">  1       -2 0.43603390E-02 0.28029958E+03</pdfrwt>
<totfact> 0.10208523E+04</totfact>
</mgrwt>
</event>
<event>
 9    1  0.7957670E-001  0.2758497E+03  0.7818608E-02  0.1097978E+00
         -2   -1    0    0    0  501 -0.00000000000E+00  0.00000000000E+00  0.41222652192E+02  0.41222652192E+02  0.00000000000E+00 0. -1.
          2   -1    0    0  501    0  0.00000000000E+00 -0.00000000000E+00 -0.46147604029E+03  0.46147604029E+03  0.00000000000E+00 0. -1.
         35    2    1    2    0    0  0.00000000000E+00  0.00000000000E+00 -0.42025338810E+03  0.50269869248E+03  0.27584971491E+03 0.  0.
         25    2    3    3    0    0  0.41598676469E+02  0.43853080659E+01 -0.14115815436E+03  0.19341483680E+03  0.12543521730E+03 0.  0.
         25    2    3    3    0    0 -0.41598676469E+02 -0.43853080659E+01 -0.27909523374E+03  0.30928385569E+03  0.12654119125E+03 0.  0.
          5    1    4    4  502    0  0.60003338788E+02 -0.41688156938E+02 -0.11703150008E+03  0.13804624264E+03  0.47000000000E+01 0. -1.
         -5    1    4    4    0  502 -0.18404662319E+02  0.46073465004E+02 -0.24126654279E+02  0.55368594160E+02  0.47000000000E+01 0. -1.
          5    1    5    5  503    0 -0.43091661233E+02  0.55736481930E+02 -0.17891284979E+03  0.19234173885E+03  0.47000000000E+01 0.  1.
         -5    1    5    5    0  503  0.14929847641E+01 -0.60121789996E+02 -0.10018238395E+03  0.11694211683E+03  0.47000000000E+01 0.  1.
<mgrwt>
<rscale>  0 0.27584971E+03</rscale>
<asrwt>0</asrwt>
<pdfrwt beam="1">  1        2 0.70996314E-01 0.27584971E+03</pdfrwt>
<pdfrwt beam="2">  1       -2 0.63419465E-02 0.27584971E+03</pdfrwt>
<totfact> 0.92003981E+03</totfact>
</mgrwt>
</event>
<event>
 9    1  0.7957670E-001  0.2746649E+03  0.7818608E-02  0.1098639E+00
         -2   -1    0    0    0  501 -0.00000000000E+00  0.00000000000E+00  0.36776889094E+02  0.36776889094E+02  0.00000000000E+00 0.  1.
          2   -1    0    0  501    0  0.00000000000E+00 -0.00000000000E+00 -0.51282758737E+03  0.51282758737E+03  0.00000000000E+00 0.  1.
         35    2    1    2    0    0  0.71054273576E-14  0.71054273576E-14 -0.47605069828E+03  0.54960447647E+03  0.27466491079E+03 0.  0.
         25    2    3    3    0    0  0.21534489107E+02  0.49336362893E+01 -0.12357296433E+03  0.17495610306E+03  0.12186585041E+03 0.  0.
         25    2    3    3    0    0 -0.21534489107E+02 -0.49336362893E+01 -0.35247773395E+03  0.37464837341E+03  0.12503109924E+03 0.  0.
          5    1    4    4  502    0 -0.35290304566E+01 -0.56448037056E+02 -0.48172230686E+02  0.74441176460E+02  0.47000000000E+01 0. -1.
         -5    1    4    4    0  502  0.25063519564E+02  0.61381673345E+02 -0.75400733640E+02  0.10051492660E+03  0.47000000000E+01 0. -1.
          5    1    5    5  503    0 -0.52598864384E+02 -0.41102413860E+02 -0.27913642518E+03  0.28704578523E+03  0.47000000000E+01 0. -1.
         -5    1    5    5    0  503  0.31064375277E+02  0.36168777571E+02 -0.73341308776E+02  0.87602588176E+02  0.47000000000E+01 0. -1.
<mgrwt>
<rscale>  0 0.27466491E+03</rscale>
<asrwt>0</asrwt>
<pdfrwt beam="1">  1        2 0.78896549E-01 0.27466491E+03</pdfrwt>
<pdfrwt beam="2">  1       -2 0.56579832E-02 0.27466491E+03</pdfrwt>
<totfact> 0.97437061E+03</totfact>
</mgrwt>
</event>
<event>
 9    1  0.7957670E-001  0.2775379E+03  0.7818608E-02  0.1097041E+00
          2   -1    0    0  501    0  0.00000000000E+00  0.00000000000E+00  0.54387812042E+03  0.54387812042E+03  0.00000000000E+00 0.  1.
         -2   -1    0    0    0  501 -0.00000000000E+00 -0.00000000000E+00 -0.35406503554E+02  0.35406503554E+02  0.00000000000E+00 0.  1.
         35    2    1    2    0    0  0.14210854715E-13  0.35527136788E-14  0.50847161687E+03  0.57928462398E+03  0.27753790807E+03 0.  0.
         25    2    3    3    0    0 -0.48352145094E+02  0.25804558100E+02  0.20283180016E+03  0.24458784131E+03  0.12521448720E+03 0.  0.
         25    2    3    3    0    0  0.48352145094E+02 -0.25804558100E+02  0.30563981671E+03  0.33469678267E+03  0.12490970185E+03 0.  0.
          5    1    4    4  502    0 -0.74469450314E+02 -0.23813796454E+02  0.96508726389E+02  0.12429328301E+03  0.47000000000E+01 0.  1.
         -5    1    4    4    0  502  0.26117305220E+02  0.49618354554E+02  0.10632307377E+03  0.12029455830E+03  0.47000000000E+01 0.  1.
          5    1    5    5  503    0 -0.24242255240E+02 -0.41552104129E+02  0.54916193747E+02  0.73158339458E+02  0.47000000000E+01 0. -1.
         -5    1    5    5    0  503  0.72594400334E+02  0.15747546029E+02  0.25072362296E+03  0.26153844321E+03  0.47000000000E+01 0. -1.
<mgrwt>
<rscale>  0 0.27753791E+03</rscale>
<asrwt>0</asrwt>
<pdfrwt beam="1">  1        2 0.83673551E-01 0.27753791E+03</pdfrwt>
<pdfrwt beam="2">  1       -2 0.54471548E-02 0.27753791E+03</pdfrwt>
<totfact> 0.96658918E+03</totfact>
</mgrwt>
</event>
<event>
 9    1  0.7957670E-001  0.2779314E+03  0.7818608E-02  0.1096824E+00
         -2   -1    0    0    0  501 -0.00000000000E+00  0.00000000000E+00  0.16489989072E+02  0.16489989072E+02  0.00000000000E+00 0. -1.
          2   -1    0    0  501    0  0.00000000000E+00 -0.00000000000E+00 -0.11711026784E+04  0.11711026784E+04  0.00000000000E+00 0. -1.
         35    2    1    2    0    0  0.00000000000E+00  0.71054273576E-14 -0.11546126894E+04  0.11875926675E+04  0.27793143305E+03 0.  0.
         25    2    3    3    0    0 -0.42847285040E+02 -0.14090914343E+02 -0.40543384951E+03  0.42670778122E+03  0.12517380127E+03 0.  0.
         25    2    3    3    0    0  0.42847285040E+02  0.14090914343E+02 -0.74917883986E+03  0.76088488630E+03  0.12506971014E+03 0.  0.
          5    1    4    4  502    0 -0.69570770384E+01  0.19578310750E+02 -0.33118315493E+01  0.21558511102E+02  0.47000000000E+01 0. -1.
         -5    1    4    4    0  502 -0.35890208002E+02 -0.33669225092E+02 -0.40212201796E+03  0.40514927012E+03  0.47000000000E+01 0. -1.
          5    1    5    5  503    0  0.86902207786E+02  0.13080071263E+02 -0.53207258026E+03  0.53930177326E+03  0.47000000000E+01 0. -1.
         -5    1    5    5    0  503 -0.44054922746E+02  0.10108430792E+01 -0.21710625961E+03  0.22158311304E+03  0.47000000000E+01 0. -1.
<mgrwt>
<rscale>  0 0.27793143E+03</rscale>
<asrwt>0</asrwt>
<pdfrwt beam="1">  1        2 0.18016960E+00 0.27793143E+03</pdfrwt>
<pdfrwt beam="2">  1       -2 0.25369221E-02 0.27793143E+03</pdfrwt>
<totfact> 0.11276385E+04</totfact>
</mgrwt>
</event>
<event>
 9    1  0.7957670E-001  0.2735768E+03  0.7818608E-02  0.1099250E+00
          1   -1    0    0  501    0  0.00000000000E+00  0.00000000000E+00  0.25947090940E+04  0.25947090940E+04  0.00000000000E+00 0. -1.
         -1   -1    0    0    0  501 -0.00000000000E+00 -0.00000000000E+00 -0.72112366992E+01  0.72112366992E+01  0.00000000000E+00 0. -1.
         35    2    1    2    0    0 -0.35527136788E-14  0.14210854715E-13  0.25874978573E+04  0.26019203307E+04  0.27357676394E+03 0.  0.
         25    2    3    3    0    0  0.16361251347E+02  0.55783566452E+02  0.11952017891E+04  0.12029878731E+04  0.12366490705E+03 0.  0.
         25    2    3    3    0    0 -0.16361251347E+02 -0.55783566452E+02  0.13922960681E+04  0.13989324576E+04  0.12306170270E+03 0.  0.
          5    1    4    4  502    0 -0.76248997539E+01  0.67524527131E+02  0.31107487823E+03  0.31844523976E+03  0.47000000000E+01 0.  1.
         -5    1    4    4    0  502  0.23986151101E+02 -0.11740960679E+02  0.88412691091E+03  0.88454263334E+03  0.47000000000E+01 0.  1.
          5    1    5    5  503    0  0.12401972023E+02 -0.50458692593E+02  0.13167705426E+04  0.13178037184E+04  0.47000000000E+01 0. -1.
         -5    1    5    5    0  503 -0.28763223370E+02 -0.53248738592E+01  0.75525525555E+02  0.81128739116E+02  0.47000000000E+01 0. -1.
<mgrwt>
<rscale>  0 0.27357676E+03</rscale>
<asrwt>0</asrwt>
<pdfrwt beam="1">  1        1 0.39918527E+00 0.27357676E+03</pdfrwt>
<pdfrwt beam="2">  1       -1 0.11094231E-02 0.27357676E+03</pdfrwt>
<totfact> 0.22184228E+03</totfact>
</mgrwt>
</event>
<event>
 9    1  0.7957670E-001  0.2718972E+03  0.7818608E-02  0.1100199E+00
          1   -1    0    0  501    0  0.00000000000E+00  0.00000000000E+00  0.43768636658E+03  0.43768636658E+03  0.00000000000E+00 0.  1.
         -1   -1    0    0    0  501 -0.00000000000E+00 -0.00000000000E+00 -0.42226636608E+02  0.42226636608E+02  0.00000000000E+00 0.  1.
         35    2    1    2    0    0  0.00000000000E+00  0.71054273576E-14  0.39545972997E+03  0.47991300319E+03  0.27189720962E+03 0.  0.
         25    2    3    3    0    0 -0.30224090227E+01 -0.51014858526E+02  0.16246158080E+03  0.21083426120E+03  0.12428060876E+03 0.  0.
         25    2    3    3    0    0  0.30224090227E+01  0.51014858526E+02  0.23299814917E+03  0.26907874199E+03  0.12451337729E+03 0.  0.
          5    1    4    4  502    0 -0.53076882945E+02 -0.32414672711E+01  0.11502831469E+03  0.12681193080E+03  0.47000000000E+01 0. -1.
         -5    1    4    4    0  502  0.50054473922E+02 -0.47773391255E+02  0.47433266105E+02  0.84022330395E+02  0.47000000000E+01 0. -1.
          5    1    5    5  503    0  0.24094518861E+02  0.87874826885E+02  0.17048504210E+03  0.19336434681E+03  0.47000000000E+01 0. -1.
         -5    1    5    5    0  503 -0.21072109838E+02 -0.36859968359E+02  0.62513107079E+02  0.75714395178E+02  0.47000000000E+01 0. -1.
<mgrwt>
<rscale>  0 0.27189721E+03</rscale>
<asrwt>0</asrwt>
<pdfrwt beam="1">  1        1 0.67336361E-01 0.27189721E+03</pdfrwt>
<pdfrwt beam="2">  1       -1 0.64964059E-02 0.27189721E+03</pdfrwt>
<totfact> 0.63411848E+03</totfact>
</mgrwt>
</event>
<event>
 9    1  0.7957670E-001  0.2762290E+03  0.7818608E-02  0.1097767E+00
          3   -1    0    0  501    0  0.00000000000E+00  0.00000000000E+00  0.81588497809E+02  0.81588497809E+02  0.00000000000E+00 0.  1.
         -3   -1    0    0    0  501 -0.00000000000E+00 -0.00000000000E+00 -0.23380279229E+03  0.23380279229E+03  0.00000000000E+00 0.  1.
         35    2    1    2    0    0  0.00000000000E+00  0.00000000000E+00 -0.15221429448E+03  0.31539129010E+03  0.27622902532E+03 0.  0.
         25    2    3    3    0    0 -0.13763109008E+02 -0.55568941508E+02 -0.69553872405E+02  0.15406104561E+03  0.12497893494E+03 0.  0.
         25    2    3    3    0    0  0.13763109008E+02  0.55568941508E+02 -0.82660422077E+02  0.16133024449E+03  0.12616406770E+03 0.  0.
          5    1    4    4  502    0  0.45161232300E+02 -0.62142430672E+02 -0.29842711960E+02  0.82546326689E+02  0.47000000000E+01 0.  1.
         -5    1    4    4    0  502 -0.58924341309E+02  0.65734891648E+01 -0.39711160445E+02  0.71514718921E+02  0.47000000000E+01 0.  1.
          5    1    5    5  503    0 -0.34791796014E+02  0.21377282621E+02  0.17595032396E+02  0.44711658962E+02  0.47000000000E+01 0.  1.
         -5    1    5    5    0  503  0.48554905022E+02  0.34191658887E+02 -0.10025545447E+03  0.11661858553E+03  0.47000000000E+01 0.  1.
<mgrwt>
<rscale>  0 0.27622903E+03</rscale>
<asrwt>0</asrwt>
<pdfrwt beam="1">  1        3 0.12552077E-01 0.27622903E+03</pdfrwt>
<pdfrwt beam="2">  1       -3 0.35969660E-01 0.27622903E+03</pdfrwt>
<totfact> 0.97611408E+02</totfact>
</mgrwt>
</event>
<event>
 9    1  0.7957670E-001  0.2721512E+03  0.7818608E-02  0.1100055E+00
         -2   -1    0    0    0  501 -0.00000000000E+00  0.00000000000E+00  0.61162366241E+02  0.61162366241E+02  0.00000000000E+00 0. -1.
          2   -1    0    0  501    0  0.00000000000E+00 -0.00000000000E+00 -0.30274446547E+03  0.30274446547E+03  0.00000000000E+00 0. -1.
         35    2    1    2    0    0  0.00000000000E+00  0.00000000000E+00 -0.24158209923E+03  0.36390683171E+03  0.27215119235E+03 0.  0.
         25    2    3    3    0    0  0.52167549561E+02  0.15868046310E+02 -0.10951486058E+03  0.17525642593E+03  0.12549128266E+03 0.  0.
         25    2    3    3    0    0 -0.52167549561E+02 -0.15868046310E+02 -0.13206723865E+03  0.18865040578E+03  0.12318267717E+03 0.  0.
          5    1    4    4  502    0  0.83810729582E+02 -0.10469637789E+02 -0.10304023951E+03  0.13331628808E+03  0.47000000000E+01 0. -1.
         -5    1    4    4    0  502 -0.31643180022E+02  0.26337684099E+02 -0.64746210707E+01  0.41940137858E+02  0.47000000000E+01 0. -1.
          5    1    5    5  503    0  0.25549826998E+02 -0.22592173938E+02  0.87564149867E+00  0.34439174364E+02  0.47000000000E+01 0. -1.
         -5    1    5    5    0  503 -0.77717376559E+02  0.67241276278E+01 -0.13294288015E+03  0.15421123142E+03  0.47000000000E+01 0. -1.
<mgrwt>
<rscale>  0 0.27215119E+03</rscale>
<asrwt>0</asrwt>
<pdfrwt beam="1">  1        2 0.46576071E-01 0.27215119E+03</pdfrwt>
<pdfrwt beam="2">  1       -2 0.94095949E-02 0.27215119E+03</pdfrwt>
<totfact> 0.78529583E+03</totfact>
</mgrwt>
</event>
<event>
 9    1  0.7957670E-001  0.2741451E+03  0.7818608E-02  0.1098930E+00
          1   -1    0    0  501    0  0.00000000000E+00  0.00000000000E+00  0.81326898011E+02  0.81326898011E+02  0.00000000000E+00 0. -1.
         -1   -1    0    0    0  501 -0.00000000000E+00 -0.00000000000E+00 -0.23102915741E+03  0.23102915741E+03  0.00000000000E+00 0. -1.
         35    2    1    2    0    0  0.35527136788E-14  0.00000000000E+00 -0.14970225940E+03  0.31235605542E+03  0.27414510554E+03 0.  0.
         25    2    3    3    0    0  0.12235987171E+02  0.39168653967E+02 -0.11950923626E+03  0.17731174478E+03  0.12439089376E+03 0.  0.
         25    2    3    3    0    0 -0.12235987171E+02 -0.39168653967E+02 -0.30193023140E+02  0.13504431064E+03  0.12506576012E+03 0.  0.
          5    1    4    4  502    0  0.63022878891E+02 -0.50356120598E+01 -0.54554107006E+02  0.83638993560E+02  0.47000000000E+01 0.  1.
         -5    1    4    4    0  502 -0.50786891720E+02  0.44204266027E+02 -0.64955129253E+02  0.93672751224E+02  0.47000000000E+01 0.  1.
          5    1    5    5  503    0  0.31678596819E+02  0.58028403731E+01 -0.57720025143E+02  0.66263849536E+02  0.47000000000E+01 0. -1.
         -5    1    5    5    0  503 -0.43914583990E+02 -0.44971494340E+02  0.27527002002E+02  0.68780461103E+02  0.47000000000E+01 0. -1.
<mgrwt>
<rscale>  0 0.27414511E+03</rscale>
<asrwt>0</asrwt>
<pdfrwt beam="1">  1        1 0.12511831E-01 0.27414511E+03</pdfrwt>
<pdfrwt beam="2">  1       -1 0.35542947E-01 0.27414511E+03</pdfrwt>
<totfact> 0.35931565E+03</totfact>
</mgrwt>
</event>
<event>
 9    1  0.7957670E-001  0.2723304E+03  0.7818608E-02  0.1099953E+00
          1   -1    0    0  501    0  0.00000000000E+00  0.00000000000E+00  0.15605539428E+03  0.15605539428E+03  0.00000000000E+00 0. -1.
         -1   -1    0    0    0  501 -0.00000000000E+00 -0.00000000000E+00 -0.11881012847E+03  0.11881012847E+03  0.00000000000E+00 0. -1.
         35    2    1    2    0    0  0.00000000000E+00  0.00000000000E+00  0.37245265811E+02  0.27486552275E+03  0.27233039818E+03 0.  0.
         25    2    3    3    0    0  0.74382059445E+01 -0.41549235908E+02  0.53234977219E+02  0.14242536934E+03  0.12517730274E+03 0.  0.
         25    2    3    3    0    0 -0.74382059445E+01  0.41549235908E+02 -0.15989711407E+02  0.13244015341E+03  0.12451127440E+03 0.  0.
          5    1    4    4  502    0 -0.21149631099E+02 -0.79497972986E+02  0.45293604470E+02  0.94025715687E+02  0.47000000000E+01 0.  1.
         -5    1    4    4    0  502  0.28587837044E+02  0.37948737078E+02  0.79413727490E+01  0.48399653654E+02  0.47000000000E+01 0.  1.
          5    1    5    5  503    0  0.44374470435E+01  0.14293282896E+02  0.54010683587E+02  0.56242624527E+02  0.47000000000E+01 0. -1.
         -5    1    5    5    0  503 -0.11875652988E+02  0.27255953011E+02 -0.70000394994E+02  0.76197528882E+02  0.47000000000E+01 0. -1.
<mgrwt>
<rscale>  0 0.27233040E+03</rscale>
<asrwt>0</asrwt>
<pdfrwt beam="1">  1        1 0.24008522E-01 0.27233040E+03</pdfrwt>
<pdfrwt beam="2">  1       -1 0.18278481E-01 0.27233040E+03</pdfrwt>
<totfact> 0.46746991E+03</totfact>
</mgrwt>
</event>
<event>
 9    1  0.7957670E-001  0.2671483E+03  0.7818608E-02  0.1102923E+00
          2   -1    0    0  501    0  0.00000000000E+00  0.00000000000E+00  0.13658623190E+03  0.13658623190E+03  0.00000000000E+00 0.  1.
         -2   -1    0    0    0  501 -0.00000000000E+00 -0.00000000000E+00 -0.13062853166E+03  0.13062853166E+03  0.00000000000E+00 0.  1.
         35    2    1    2    0    0  0.35527136788E-14  0.14210854715E-13  0.59577002445E+01  0.26721476356E+03  0.26714834020E+03 0.  0.
         25    2    3    3    0    0 -0.20935127746E+02  0.41360210032E+02  0.14089834518E+02  0.13410939045E+03  0.12505142391E+03 0.  0.
         25    2    3    3    0    0  0.20935127746E+02 -0.41360210032E+02 -0.81321342736E+01  0.13310537311E+03  0.12450687610E+03 0.  0.
          5    1    4    4  502    0  0.48500925458E+02  0.40203106352E+02  0.41105133524E+00  0.63173479355E+02  0.47000000000E+01 0. -1.
         -5    1    4    4    0  502 -0.69436053204E+02  0.11571036794E+01  0.13678783183E+02  0.70935911094E+02  0.47000000000E+01 0. -1.
          5    1    5    5  503    0 -0.98341417681E+00 -0.67371637078E+02  0.36514639496E+02  0.76780944794E+02  0.47000000000E+01 0.  1.
         -5    1    5    5    0  503  0.21918541922E+02  0.26011427046E+02 -0.44646773769E+02  0.56324428315E+02  0.47000000000E+01 0.  1.
<mgrwt>
<rscale>  0 0.26714834E+03</rscale>
<asrwt>0</asrwt>
<pdfrwt beam="1">  1        2 0.21013266E-01 0.26714834E+03</pdfrwt>
<pdfrwt beam="2">  1       -2 0.20096697E-01 0.26714834E+03</pdfrwt>
<totfact> 0.54196282E+03</totfact>
</mgrwt>
</event>
<event>
 9    1  0.7957670E-001  0.2776356E+03  0.7818608E-02  0.1096987E+00
          4   -1    0    0  501    0  0.00000000000E+00  0.00000000000E+00  0.44713554586E+03  0.44713554586E+03  0.00000000000E+00 0.  1.
         -4   -1    0    0    0  501 -0.00000000000E+00 -0.00000000000E+00 -0.43097394972E+02  0.43097394972E+02  0.00000000000E+00 0.  1.
         35    2    1    2    0    0  0.00000000000E+00  0.71054273576E-14  0.40403815089E+03  0.49023294083E+03  0.27763556851E+03 0.  0.
         25    2    3    3    0    0  0.65542329957E+01  0.37672712859E+02  0.28462328769E+03  0.31336685193E+03  0.12540405389E+03 0.  0.
         25    2    3    3    0    0 -0.65542329957E+01 -0.37672712859E+02  0.11941486320E+03  0.17686608890E+03  0.12473777529E+03 0.  0.
          5    1    4    4  502    0  0.42426260326E+02  0.66386710855E+02  0.13088721437E+03  0.15284219256E+03  0.47000000000E+01 0. -1.
         -5    1    4    4    0  502 -0.35872027330E+02 -0.28713997996E+02  0.15373607332E+03  0.16052465937E+03  0.47000000000E+01 0. -1.
          5    1    5    5  503    0 -0.19145579052E+02 -0.60408023755E+02  0.10020453439E+02  0.64328702912E+02  0.47000000000E+01 0.  1.
         -5    1    5    5    0  503  0.12591346057E+02  0.22735310896E+02  0.10939440976E+03  0.11253738599E+03  0.47000000000E+01 0.  1.
<mgrwt>
<rscale>  0 0.27763557E+03</rscale>
<asrwt>0</asrwt>
<pdfrwt beam="1">  1        4 0.68790081E-01 0.27763557E+03</pdfrwt>
<pdfrwt beam="2">  1       -4 0.66303688E-02 0.27763557E+03</pdfrwt>
<totfact> 0.55962640E+02</totfact>
</mgrwt>
</event>
<event>
 9    1  0.7957670E-001  0.2743719E+03  0.7818608E-02  0.1098803E+00
          2   -1    0    0  501    0  0.00000000000E+00  0.00000000000E+00  0.87096138073E+02  0.87096138073E+02  0.00000000000E+00 0. -1.
         -2   -1    0    0    0  501 -0.00000000000E+00 -0.00000000000E+00 -0.21608289341E+03  0.21608289341E+03  0.00000000000E+00 0. -1.
         35    2    1    2    0    0 -0.35527136788E-14  0.71054273576E-14 -0.12898675534E+03  0.30317903148E+03  0.27437190468E+03 0.  0.
         25    2    3    3    0    0 -0.30446722908E+01  0.54092502618E+02 -0.49810735927E+02  0.14514894556E+03  0.12510730640E+03 0.  0.
         25    2    3    3    0    0  0.30446722908E+01 -0.54092502618E+02 -0.79176019410E+02  0.15803008592E+03  0.12557626025E+03 0.  0.
          5    1    4    4  502    0  0.33525139072E+02  0.61572145019E+02  0.13455723724E+02  0.71541669627E+02  0.47000000000E+01 0.  1.
         -5    1    4    4    0  502 -0.36569811363E+02 -0.74796424015E+01 -0.63266459651E+02  0.73607275934E+02  0.47000000000E+01 0.  1.
          5    1    5    5  503    0 -0.23004410905E+02 -0.57678205758E+02  0.11652778575E+02  0.63354996559E+02  0.47000000000E+01 0.  1.
         -5    1    5    5    0  503  0.26049083196E+02  0.35857031399E+01 -0.90828797985E+02  0.94675089362E+02  0.47000000000E+01 0.  1.
<mgrwt>
<rscale>  0 0.27437190E+03</rscale>
<asrwt>0</asrwt>
<pdfrwt beam="1">  1        2 0.13399406E-01 0.27437190E+03</pdfrwt>
<pdfrwt beam="2">  1       -2 0.33243522E-01 0.27437190E+03</pdfrwt>
<totfact> 0.37571440E+03</totfact>
</mgrwt>
</event>
<event>
 9    1  0.7957670E-001  0.2738302E+03  0.7818608E-02  0.1099107E+00
          1   -1    0    0  501    0  0.00000000000E+00  0.00000000000E+00  0.12468744244E+04  0.12468744244E+04  0.00000000000E+00 0.  1.
         -1   -1    0    0    0  501 -0.00000000000E+00 -0.00000000000E+00 -0.15034186694E+02  0.15034186694E+02  0.00000000000E+00 0.  1.
         35    2    1    2    0    0 -0.71054273576E-14  0.00000000000E+00  0.12318402377E+04  0.12619086111E+04  0.27383018738E+03 0.  0.
         25    2    3    3    0    0  0.43693713387E+02 -0.37973848141E+02  0.60991482100E+03  0.62531933256E+03  0.12520792733E+03 0.  0.
         25    2    3    3    0    0 -0.43693713387E+02  0.37973848141E+02  0.62192541670E+03  0.63658927852E+03  0.12289642740E+03 0.  0.
          5    1    4    4  502    0 -0.88632371212E+01 -0.53948018643E+01  0.49164838805E+03  0.49178032528E+03  0.47000000000E+01 0. -1.
         -5    1    4    4    0  502  0.52556950508E+02 -0.32579046276E+02  0.11826643295E+03  0.13353900728E+03  0.47000000000E+01 0. -1.
          5    1    5    5  503    0 -0.71549278038E+02  0.50367274860E+02  0.28281558491E+03  0.29607922357E+03  0.47000000000E+01 0.  1.
         -5    1    5    5    0  503  0.27855564652E+02 -0.12393426719E+02  0.33910983179E+03  0.34051005495E+03  0.47000000000E+01 0.  1.
<mgrwt>
<rscale>  0 0.27383019E+03</rscale>
<asrwt>0</asrwt>
<pdfrwt beam="1">  1        1 0.19182675E+00 0.27383019E+03</pdfrwt>
<pdfrwt beam="2">  1       -1 0.23129528E-02 0.27383019E+03</pdfrwt>
<totfact> 0.58796131E+03</totfact>
</mgrwt>
</event>
<event>
 9    1  0.7957670E-001  0.2740225E+03  0.7818608E-02  0.1098999E+00
         -1   -1    0    0    0  501 -0.00000000000E+00  0.00000000000E+00  0.89740342037E+02  0.89740342037E+02  0.00000000000E+00 0. -1.
          1   -1    0    0  501    0  0.00000000000E+00 -0.00000000000E+00 -0.20918223099E+03  0.20918223099E+03  0.00000000000E+00 0. -1.
         35    2    1    2    0    0  0.71054273576E-14  0.71054273576E-14 -0.11944188895E+03  0.29892257303E+03  0.27402251701E+03 0.  0.
         25    2    3    3    0    0  0.23074567424E+02  0.41369577813E+02 -0.23280088034E+02  0.13551189059E+03  0.12481038564E+03 0.  0.
         25    2    3    3    0    0 -0.23074567424E+02 -0.41369577813E+02 -0.96161800918E+02  0.16341068243E+03  0.12333726747E+03 0.  0.
          5    1    4    4  502    0  0.49155021586E+02  0.37804150619E+02 -0.62418824001E+02  0.88111120415E+02  0.47000000000E+01 0.  1.
         -5    1    4    4    0  502 -0.26080454162E+02  0.35654271938E+01  0.39138735967E+02  0.47400770178E+02  0.47000000000E+01 0.  1.
          5    1    5    5  503    0  0.48756424428E+02 -0.30837187138E+02 -0.30576257548E+02  0.65460816977E+02  0.47000000000E+01 0. -1.
         -5    1    5    5    0  503 -0.71830991852E+02 -0.10532390675E+02 -0.65585543370E+02  0.97949865456E+02  0.47000000000E+01 0. -1.
<mgrwt>
<rscale>  0 0.27402252E+03</rscale>
<asrwt>0</asrwt>
<pdfrwt beam="1">  1        1 0.32181881E-01 0.27402252E+03</pdfrwt>
<pdfrwt beam="2">  1       -1 0.13806207E-01 0.27402252E+03</pdfrwt>
<totfact> 0.50460405E+03</totfact>
</mgrwt>
</event>
<event>
 9    1  0.7957670E-001  0.2734799E+03  0.7818608E-02  0.1099304E+00
          2   -1    0    0  501    0  0.00000000000E+00  0.00000000000E+00  0.16887411113E+04  0.16887411113E+04  0.00000000000E+00 0.  1.
         -2   -1    0    0    0  501 -0.00000000000E+00 -0.00000000000E+00 -0.11072046800E+02  0.11072046800E+02  0.00000000000E+00 0.  1.
         35    2    1    2    0    0 -0.14210854715E-13 -0.71054273576E-14  0.16776690645E+04  0.16998131581E+04  0.27347994894E+03 0.  0.
         25    2    3    3    0    0 -0.38954176586E+02 -0.42263887145E+02  0.80368694622E+03  0.81537266053E+03  0.12496481102E+03 0.  0.
         25    2    3    3    0    0  0.38954176586E+02  0.42263887145E+02  0.87398211824E+03  0.88444049753E+03  0.12282746692E+03 0.  0.
          5    1    4    4  502    0  0.27587316329E+02  0.26564506361E+02  0.15990449726E+03  0.16449398550E+03  0.47000000000E+01 0. -1.
         -5    1    4    4    0  502 -0.66541492915E+02 -0.68828393506E+02  0.64378244896E+03  0.65087867504E+03  0.47000000000E+01 0. -1.
          5    1    5    5  503    0  0.81544759269E+02  0.18439798161E+02  0.45933502229E+03  0.46690505097E+03  0.47000000000E+01 0. -1.
         -5    1    5    5    0  503 -0.42590582683E+02  0.23824088983E+02  0.41464709596E+03  0.41753544656E+03  0.47000000000E+01 0. -1.
<mgrwt>
<rscale>  0 0.27347995E+03</rscale>
<asrwt>0</asrwt>
<pdfrwt beam="1">  1        2 0.25980612E+00 0.27347995E+03</pdfrwt>
<pdfrwt beam="2">  1       -2 0.17033932E-02 0.27347995E+03</pdfrwt>
<totfact> 0.10602373E+04</totfact>
</mgrwt>
</event>
<event>
 9    1  0.7957670E-001  0.2719455E+03  0.7818608E-02  0.1100171E+00
          1   -1    0    0  501    0  0.00000000000E+00  0.00000000000E+00  0.16041975182E+03  0.16041975182E+03  0.00000000000E+00 0.  1.
         -1   -1    0    0    0  501 -0.00000000000E+00 -0.00000000000E+00 -0.11525130145E+03  0.11525130145E+03  0.00000000000E+00 0.  1.
         35    2    1    2    0    0  0.00000000000E+00  0.71054273576E-14  0.45168450374E+02  0.27567105327E+03  0.27194547377E+03 0.  0.
         25    2    3    3    0    0 -0.49472960649E+02  0.19675159607E+01  0.22832489974E+01  0.13441797254E+03  0.12494612104E+03 0.  0.
         25    2    3    3    0    0  0.49472960649E+02 -0.19675159607E+01  0.42885201377E+02  0.14125308073E+03  0.12514730266E+03 0.  0.
          5    1    4    4  502    0 -0.52481240558E+02  0.55952025846E+02  0.15853338368E+02  0.78475016051E+02  0.47000000000E+01 0. -1.
         -5    1    4    4    0  502  0.30082799084E+01 -0.53984509885E+02 -0.13570089371E+02  0.55942956492E+02  0.47000000000E+01 0. -1.
          5    1    5    5  503    0 -0.29453655313E+01 -0.56729034981E+02  0.29325242056E+02  0.64100845623E+02  0.47000000000E+01 0. -1.
         -5    1    5    5    0  503  0.52418326181E+02  0.54761519020E+02  0.13559959321E+02  0.77152235106E+02  0.47000000000E+01 0. -1.
<mgrwt>
<rscale>  0 0.27194547E+03</rscale>
<asrwt>0</asrwt>
<pdfrwt beam="1">  1        1 0.24679962E-01 0.27194547E+03</pdfrwt>
<pdfrwt beam="2">  1       -1 0.17730969E-01 0.27194547E+03</pdfrwt>
<totfact> 0.47394724E+03</totfact>
</mgrwt>
</event>
<event>
 9    1  0.7957670E-001  0.2794232E+03  0.7818608E-02  0.1096004E+00
          2   -1    0    0  501    0  0.00000000000E+00  0.00000000000E+00  0.85825557187E+03  0.85825557187E+03  0.00000000000E+00 0.  1.
         -2   -1    0    0    0  501 -0.00000000000E+00 -0.00000000000E+00 -0.22743035477E+02  0.22743035477E+02  0.00000000000E+00 0.  1.
         35    2    1    2    0    0  0.71054273576E-14  0.71054273576E-14  0.83551253639E+03  0.88099860735E+03  0.27942324112E+03 0.  0.
         25    2    3    3    0    0  0.19701634002E+02  0.38666000309E+02  0.27679585393E+03  0.30659917766E+03  0.12451464583E+03 0.  0.
         25    2    3    3    0    0 -0.19701634002E+02 -0.38666000309E+02  0.55871668247E+03  0.57439942969E+03  0.12604427635E+03 0.  0.
          5    1    4    4  502    0  0.70936969813E+02  0.13111000424E+02  0.18094080571E+03  0.19484767689E+03  0.47000000000E+01 0. -1.
         -5    1    4    4    0  502 -0.51235335811E+02  0.25554999884E+02  0.95855048217E+02  0.11175150077E+03  0.47000000000E+01 0. -1.
          5    1    5    5  503    0 -0.26908209564E+02 -0.47075999167E+02  0.87613904270E+02  0.10314304466E+03  0.47000000000E+01 0.  1.
         -5    1    5    5    0  503  0.72065755626E+01  0.84099988589E+01  0.47110277820E+03  0.47125638503E+03  0.47000000000E+01 0.  1.
<mgrwt>
<rscale>  0 0.27942324E+03</rscale>
<asrwt>0</asrwt>
<pdfrwt beam="1">  1        2 0.13203929E+00 0.27942324E+03</pdfrwt>
<pdfrwt beam="2">  1       -2 0.34989292E-02 0.27942324E+03</pdfrwt>
<totfact> 0.10860323E+04</totfact>
</mgrwt>
</event>
<event>
 9    1  0.7957670E-001  0.2855350E+03  0.7818608E-02  0.1092704E+00
         -4   -1    0    0    0  501 -0.00000000000E+00  0.00000000000E+00  0.93285015549E+02  0.93285015549E+02  0.00000000000E+00 0. -1.
          4   -1    0    0  501    0  0.00000000000E+00 -0.00000000000E+00 -0.21849775069E+03  0.21849775069E+03  0.00000000000E+00 0. -1.
         35    2    1    2    0    0 -0.71054273576E-14 -0.71054273576E-14 -0.12521273515E+03  0.31178276624E+03  0.28553504913E+03 0.  0.
         25    2    3    3    0    0 -0.30196600884E+02 -0.31851901448E+02 -0.11952650519E+03  0.17892215336E+03  0.12569873981E+03 0.  0.
         25    2    3    3    0    0  0.30196600884E+02  0.31851901448E+02 -0.56862299586E+01  0.13286061288E+03  0.12527262636E+03 0.  0.
          5    1    4    4  502    0 -0.67132885628E+02 -0.54086979070E+02 -0.97662859104E+02  0.13035470719E+03  0.47000000000E+01 0.  1.
         -5    1    4    4    0  502  0.36936284744E+02  0.22235077622E+02 -0.21863646082E+02  0.48567446171E+02  0.47000000000E+01 0.  1.
          5    1    5    5  503    0 -0.34616509024E+01  0.20693374926E+02  0.56870585883E+02  0.60799279038E+02  0.47000000000E+01 0.  1.
         -5    1    5    5    0  503  0.33658251787E+02  0.11158526522E+02 -0.62556815842E+02  0.72061333847E+02  0.47000000000E+01 0.  1.
<mgrwt>
<rscale>  0 0.28553505E+03</rscale>
<asrwt>0</asrwt>
<pdfrwt beam="1">  1        4 0.33615038E-01 0.28553505E+03</pdfrwt>
<pdfrwt beam="2">  1       -4 0.14351541E-01 0.28553505E+03</pdfrwt>
<totfact> 0.65598959E+02</totfact>
</mgrwt>
</event>
<event>
 9    1  0.7957670E-001  0.2680630E+03  0.7818608E-02  0.1102393E+00
         -2   -1    0    0    0  501 -0.00000000000E+00  0.00000000000E+00  0.72658080616E+02  0.72658080616E+02  0.00000000000E+00 0. -1.
          2   -1    0    0  501    0  0.00000000000E+00 -0.00000000000E+00 -0.24724627285E+03  0.24724627285E+03  0.00000000000E+00 0. -1.
         35    2    1    2    0    0 -0.35527136788E-14 -0.71054273576E-14 -0.17458819223E+03  0.31990435346E+03  0.26806297487E+03 0.  0.
         25    2    3    3    0    0  0.20369778694E+02  0.37417988486E+02 -0.62983189435E+02  0.14666127397E+03  0.12540978186E+03 0.  0.
         25    2    3    3    0    0 -0.20369778694E+02 -0.37417988486E+02 -0.11160500280E+03  0.17324307949E+03  0.12546893717E+03 0.  0.
          5    1    4    4  502    0  0.44406074272E+02  0.68632266880E+02 -0.68305305905E+02  0.10663016601E+03  0.47000000000E+01 0.  1.
         -5    1    4    4    0  502 -0.24036295578E+02 -0.31214278394E+02  0.53221164707E+01  0.40031107960E+02  0.47000000000E+01 0.  1.
          5    1    5    5  503    0  0.31873438317E+02 -0.55340634011E+02 -0.21680407777E+02  0.67606448836E+02  0.47000000000E+01 0. -1.
         -5    1    5    5    0  503 -0.52243217011E+02  0.17922645525E+02 -0.89924595019E+02  0.10563663065E+03  0.47000000000E+01 0. -1.
<mgrwt>
<rscale>  0 0.26806297E+03</rscale>
<asrwt>0</asrwt>
<pdfrwt beam="1">  1        2 0.38037888E-01 0.26806297E+03</pdfrwt>
<pdfrwt beam="2">  1       -2 0.11178166E-01 0.26806297E+03</pdfrwt>
<totfact> 0.74189729E+03</totfact>
</mgrwt>
</event>
<event>
 9    1  0.7957670E-001  0.2717506E+03  0.7818608E-02  0.1100282E+00
          2   -1    0    0  501    0  0.00000000000E+00  0.00000000000E+00  0.22942982753E+03  0.22942982753E+03  0.00000000000E+00 0.  1.
         -2   -1    0    0    0  501 -0.00000000000E+00 -0.00000000000E+00 -0.80469469963E+02  0.80469469963E+02  0.00000000000E+00 0.  1.
         35    2    1    2    0    0  0.14210854715E-13  0.17763568394E-14  0.14896035757E+03  0.30989929750E+03  0.27175059606E+03 0.  0.
         25    2    3    3    0    0 -0.53593518263E+02 -0.78203171289E+01  0.78365232827E+02  0.15574394199E+03  0.12321381088E+03 0.  0.
         25    2    3    3    0    0  0.53593518263E+02  0.78203171289E+01  0.70595124743E+02  0.15415535550E+03  0.12588399197E+03 0.  0.
          5    1    4    4  502    0  0.34858245466E+02  0.18631214375E+02  0.10799788411E+02  0.41242512723E+02  0.47000000000E+01 0. -1.
         -5    1    4    4    0  502 -0.88451763728E+02 -0.26451531504E+02  0.67565444416E+02  0.11450142927E+03  0.47000000000E+01 0. -1.
          5    1    5    5  503    0  0.59882242125E+02  0.93273026057E+01 -0.19399132900E+02  0.63806722632E+02  0.47000000000E+01 0. -1.
         -5    1    5    5    0  503 -0.62887238618E+01 -0.15069854769E+01  0.89994257644E+02  0.90348632872E+02  0.47000000000E+01 0. -1.
<mgrwt>
<rscale>  0 0.27175060E+03</rscale>
<asrwt>0</asrwt>
<pdfrwt beam="1">  1        2 0.35296896E-01 0.27175060E+03</pdfrwt>
<pdfrwt beam="2">  1       -2 0.12379919E-01 0.27175060E+03</pdfrwt>
<totfact> 0.68279127E+03</totfact>
</mgrwt>
</event>
<event>
 9    1  0.7957670E-001  0.2723369E+03  0.7818608E-02  0.1099950E+00
         -1   -1    0    0    0  501 -0.00000000000E+00  0.00000000000E+00  0.11037277734E+03  0.11037277734E+03  0.00000000000E+00 0.  1.
          1   -1    0    0  501    0  0.00000000000E+00 -0.00000000000E+00 -0.16799296208E+03  0.16799296208E+03  0.00000000000E+00 0.  1.
         35    2    1    2    0    0  0.71054273576E-14  0.88817841970E-15 -0.57620184746E+02  0.27836573942E+03  0.27233692220E+03 0.  0.
         25    2    3    3    0    0  0.40486579674E+02 -0.55364899418E+01  0.63239643062E+01  0.13217092086E+03  0.12553622561E+03 0.  0.
         25    2    3    3    0    0 -0.40486579674E+02  0.55364899418E+01 -0.63944149053E+02  0.14619481856E+03  0.12495701230E+03 0.  0.
          5    1    4    4  502    0  0.19057546559E+02 -0.50678631484E+02  0.43581462277E+02  0.69663100880E+02  0.47000000000E+01 0.  1.
         -5    1    4    4    0  502  0.21429033115E+02  0.45142141543E+02 -0.37257497971E+02  0.62507819978E+02  0.47000000000E+01 0.  1.
          5    1    5    5  503    0 -0.60561159239E+02  0.90908656283E+00  0.16557615821E+02  0.62966062990E+02  0.47000000000E+01 0. -1.
         -5    1    5    5    0  503  0.20074579565E+02  0.46274033790E+01 -0.80501764874E+02  0.83228755575E+02  0.47000000000E+01 0. -1.
<mgrwt>
<rscale>  0 0.27233692E+03</rscale>
<asrwt>0</asrwt>
<pdfrwt beam="1">  1        1 0.25845071E-01 0.27233692E+03</pdfrwt>
<pdfrwt beam="2">  1       -1 0.16980427E-01 0.27233692E+03</pdfrwt>
<totfact> 0.47908507E+03</totfact>
</mgrwt>
</event>
<event>
 9    1  0.7957670E-001  0.2753664E+03  0.7818608E-02  0.1098247E+00
         -1   -1    0    0    0  501 -0.00000000000E+00  0.00000000000E+00  0.22603306550E+02  0.22603306550E+02  0.00000000000E+00 0.  1.
          1   -1    0    0  501    0  0.00000000000E+00 -0.00000000000E+00 -0.83866771689E+03  0.83866771689E+03  0.00000000000E+00 0.  1.
         35    2    1    2    0    0  0.00000000000E+00  0.17763568394E-14 -0.81606441034E+03  0.86127102344E+03  0.27536639954E+03 0.  0.
         25    2    3    3    0    0 -0.46120092283E+02  0.10785735211E+01 -0.50887168392E+03  0.52610453010E+03  0.12532900567E+03 0.  0.
         25    2    3    3    0    0  0.46120092283E+02 -0.10785735211E+01 -0.30719272642E+03  0.33516649334E+03  0.12586095844E+03 0.  0.
          5    1    4    4  502    0 -0.54403348480E+02  0.51284625916E+02 -0.38295844236E+03  0.39021672921E+03  0.47000000000E+01 0.  1.
         -5    1    4    4    0  502  0.82832561975E+01 -0.50206052395E+02 -0.12591324156E+03  0.13588780089E+03  0.47000000000E+01 0.  1.
          5    1    5    5  503    0  0.56344484770E+02 -0.13354808249E+02 -0.47781023082E+02  0.75220795224E+02  0.47000000000E+01 0. -1.
         -5    1    5    5    0  503 -0.10224392487E+02  0.12276234728E+02 -0.25941170334E+03  0.25994569812E+03  0.47000000000E+01 0. -1.
<mgrwt>
<rscale>  0 0.27536640E+03</rscale>
<asrwt>0</asrwt>
<pdfrwt beam="1">  1        1 0.12902580E+00 0.27536640E+03</pdfrwt>
<pdfrwt beam="2">  1       -1 0.34774319E-02 0.27536640E+03</pdfrwt>
<totfact> 0.64726977E+03</totfact>
</mgrwt>
</event>
<event>
 9    1  0.7957670E-001  0.2744030E+03  0.7818608E-02  0.1098786E+00
          1   -1    0    0  501    0  0.00000000000E+00  0.00000000000E+00  0.11493038887E+04  0.11493038887E+04  0.00000000000E+00 0.  1.
         -1   -1    0    0    0  501 -0.00000000000E+00 -0.00000000000E+00 -0.16378827796E+02  0.16378827796E+02  0.00000000000E+00 0.  1.
         35    2    1    2    0    0  0.71054273576E-14 -0.35527136788E-14  0.11329250609E+04  0.11656827165E+04  0.27440299181E+03 0.  0.
         25    2    3    3    0    0  0.34885022901E+02 -0.29193107579E+02  0.71947447892E+03  0.73107081705E+03  0.12145703510E+03 0.  0.
         25    2    3    3    0    0 -0.34885022901E+02  0.29193107579E+02  0.41345058200E+03  0.43461189946E+03  0.12600363901E+03 0.  0.
          5    1    4    4  502    0  0.73011275785E+02 -0.24774983789E+02  0.61193031019E+03  0.61678621965E+03  0.47000000000E+01 0. -1.
         -5    1    4    4    0  502 -0.38126252883E+02 -0.44181237897E+01  0.10754416873E+03  0.11428459740E+03  0.47000000000E+01 0. -1.
          5    1    5    5  503    0 -0.62972324535E+02  0.20213721182E+02  0.39268007913E+03  0.39823842447E+03  0.47000000000E+01 0. -1.
         -5    1    5    5    0  503  0.28087301633E+02  0.89793863967E+01  0.20770502868E+02  0.36373474985E+02  0.47000000000E+01 0. -1.
<mgrwt>
<rscale>  0 0.27440299E+03</rscale>
<asrwt>0</asrwt>
<pdfrwt beam="1">  1        1 0.17681592E+00 0.27440299E+03</pdfrwt>
<pdfrwt beam="2">  1       -1 0.25198206E-02 0.27440299E+03</pdfrwt>
<totfact> 0.60683932E+03</totfact>
</mgrwt>
</event>
<event>
 9    1  0.7957670E-001  0.2747588E+03  0.7818608E-02  0.1098587E+00
          3   -1    0    0  501    0  0.00000000000E+00  0.00000000000E+00  0.29965778420E+03  0.29965778420E+03  0.00000000000E+00 0. -1.
         -3   -1    0    0    0  501 -0.00000000000E+00 -0.00000000000E+00 -0.62982162437E+02  0.62982162437E+02  0.00000000000E+00 0. -1.
         35    2    1    2    0    0  0.00000000000E+00  0.71054273576E-14  0.23667562177E+03  0.36263994664E+03  0.27475876867E+03 0.  0.
         25    2    3    3    0    0  0.33192525817E+02  0.21112241942E+02  0.17464537680E+03  0.21798634761E+03  0.12437672443E+03 0.  0.
         25    2    3    3    0    0 -0.33192525817E+02 -0.21112241942E+02  0.62030244968E+02  0.14465359903E+03  0.12461718136E+03 0.  0.
          5    1    4    4  502    0 -0.25642736824E+02  0.45621618280E+02  0.31603719505E+02  0.61316939689E+02  0.47000000000E+01 0. -1.
         -5    1    4    4    0  502  0.58835262641E+02 -0.24509376338E+02  0.14304165729E+03  0.15666940792E+03  0.47000000000E+01 0. -1.
          5    1    5    5  503    0 -0.79876605701E+02 -0.22622569435E+02  0.33013146403E+02  0.89465136347E+02  0.47000000000E+01 0.  1.
         -5    1    5    5    0  503  0.46684079884E+02  0.15103274928E+01  0.29017098565E+02  0.55188462679E+02  0.47000000000E+01 0.  1.
<mgrwt>
<rscale>  0 0.27475877E+03</rscale>
<asrwt>0</asrwt>
<pdfrwt beam="1">  1        3 0.46101197E-01 0.27475877E+03</pdfrwt>
<pdfrwt beam="2">  1       -3 0.96895636E-02 0.27475877E+03</pdfrwt>
<totfact> 0.92926824E+02</totfact>
</mgrwt>
</event>
<event>
 9    1  0.7957670E-001  0.2749344E+03  0.7818608E-02  0.1098488E+00
         -1   -1    0    0    0  501 -0.00000000000E+00  0.00000000000E+00  0.46882226343E+02  0.46882226343E+02  0.00000000000E+00 0. -1.
          1   -1    0    0  501    0  0.00000000000E+00 -0.00000000000E+00 -0.40307889995E+03  0.40307889995E+03  0.00000000000E+00 0. -1.
         35    2    1    2    0    0 -0.71054273576E-14  0.17763568394E-14 -0.35619667361E+03  0.44996112630E+03  0.27493443743E+03 0.  0.
         25    2    3    3    0    0  0.46012200390E+02  0.15072430482E+02 -0.13141639089E+03  0.18778957790E+03  0.12510138700E+03 0.  0.
         25    2    3    3    0    0 -0.46012200390E+02 -0.15072430482E+02 -0.22478028272E+03  0.26217154839E+03  0.12595016690E+03 0.  0.
          5    1    4    4  502    0  0.64966085688E+01 -0.29103325786E+02 -0.12429478034E+03  0.12790813858E+03  0.47000000000E+01 0. -1.
         -5    1    4    4    0  502  0.39515591821E+02  0.44175756269E+02 -0.71216105503E+01  0.59881439325E+02  0.47000000000E+01 0. -1.
          5    1    5    5  503    0 -0.88210481701E+02 -0.18800680160E+02 -0.13049351112E+03  0.15869845967E+03  0.47000000000E+01 0. -1.
         -5    1    5    5    0  503  0.42198281312E+02  0.37282496778E+01 -0.94286771603E+02  0.10347308873E+03  0.47000000000E+01 0. -1.
<mgrwt>
<rscale>  0 0.27493444E+03</rscale>
<asrwt>0</asrwt>
<pdfrwt beam="1">  1        1 0.62012137E-01 0.27493444E+03</pdfrwt>
<pdfrwt beam="2">  1       -1 0.72126504E-02 0.27493444E+03</pdfrwt>
<totfact> 0.60201638E+03</totfact>
</mgrwt>
</event>
<event>
 9    1  0.7957670E-001  0.2717964E+03  0.7818608E-02  0.1100256E+00
          2   -1    0    0  501    0  0.00000000000E+00  0.00000000000E+00  0.12751880285E+04  0.12751880285E+04  0.00000000000E+00 0.  1.
         -2   -1    0    0    0  501 -0.00000000000E+00 -0.00000000000E+00 -0.14482824677E+02  0.14482824677E+02  0.00000000000E+00 0.  1.
         35    2    1    2    0    0  0.71054273576E-14  0.00000000000E+00  0.12607052039E+04  0.12896708532E+04  0.27179642858E+03 0.  0.
         25    2    3    3    0    0 -0.29696998559E+02 -0.44454047828E+02  0.57901101248E+03  0.59477125143E+03  0.12506404307E+03 0.  0.
         25    2    3    3    0    0  0.29696998559E+02  0.44454047828E+02  0.68169419139E+03  0.69489960179E+03  0.12377565148E+03 0.  0.
          5    1    4    4  502    0  0.23945736776E+02 -0.18832832073E+02  0.46576589304E+03  0.46678478017E+03  0.47000000000E+01 0.  1.
         -5    1    4    4    0  502 -0.53642735336E+02 -0.25621215755E+02  0.11324511944E+03  0.12798647127E+03  0.47000000000E+01 0.  1.
          5    1    5    5  503    0  0.31552862668E+02 -0.17495471443E+02  0.60456251619E+02  0.70560066775E+02  0.47000000000E+01 0.  1.
         -5    1    5    5    0  503 -0.18558641086E+01  0.61949519270E+02  0.62123793978E+03  0.62433953502E+03  0.47000000000E+01 0.  1.
<mgrwt>
<rscale>  0 0.27179643E+03</rscale>
<asrwt>0</asrwt>
<pdfrwt beam="1">  1        2 0.19618268E+00 0.27179643E+03</pdfrwt>
<pdfrwt beam="2">  1       -2 0.22281279E-02 0.27179643E+03</pdfrwt>
<totfact> 0.11924179E+04</totfact>
</mgrwt>
</event>
<event>
 9    1  0.7957670E-001  0.3064219E+03  0.7818608E-02  0.1082074E+00
          2   -1    0    0  501    0  0.00000000000E+00  0.00000000000E+00  0.41773122141E+03  0.41773122141E+03  0.00000000000E+00 0.  1.
         -2   -1    0    0    0  501 -0.00000000000E+00 -0.00000000000E+00 -0.56193046354E+02  0.56193046354E+02  0.00000000000E+00 0.  1.
         35    2    1    2    0    0  0.71054273576E-14  0.00000000000E+00  0.36153817505E+03  0.47392426776E+03  0.30642186533E+03 0.  0.
         25    2    3    3    0    0  0.17096760365E+02  0.64636690473E+02  0.88001961673E+02  0.16573428190E+03  0.12350427510E+03 0.  0.
         25    2    3    3    0    0 -0.17096760365E+02 -0.64636690473E+02  0.27353621338E+03  0.30818998586E+03  0.12525496551E+03 0.  0.
          5    1    4    4  502    0  0.65097733510E+02  0.56690813076E+02  0.34001943286E+02  0.92896637951E+02  0.47000000000E+01 0. -1.
         -5    1    4    4    0  502 -0.48000973145E+02  0.79458773965E+01  0.54000018386E+02  0.72837643950E+02  0.47000000000E+01 0. -1.
          5    1    5    5  503    0  0.40863162018E+02 -0.83047384569E+01  0.17839427468E+03  0.18326312758E+03  0.47000000000E+01 0. -1.
         -5    1    5    5    0  503 -0.57959922383E+02 -0.56331952016E+02  0.95141938695E+02  0.12492685828E+03  0.47000000000E+01 0. -1.
<mgrwt>
<rscale>  0 0.30642187E+03</rscale>
<asrwt>0</asrwt>
<pdfrwt beam="1">  1        2 0.64266340E-01 0.30642187E+03</pdfrwt>
<pdfrwt beam="2">  1       -2 0.86450843E-02 0.30642187E+03</pdfrwt>
<totfact> 0.63598701E+03</totfact>
</mgrwt>
</event>
<event>
 9    1  0.7957670E-001  0.2763920E+03  0.7818608E-02  0.1097676E+00
         -3   -1    0    0    0  501 -0.00000000000E+00  0.00000000000E+00  0.11720733253E+03  0.11720733253E+03  0.00000000000E+00 0.  1.
          3   -1    0    0  501    0  0.00000000000E+00 -0.00000000000E+00 -0.16294315466E+03  0.16294315466E+03  0.00000000000E+00 0.  1.
         35    2    1    2    0    0  0.00000000000E+00 -0.71054273576E-14 -0.45735822137E+02  0.28015048719E+03  0.27639198622E+03 0.  0.
         25    2    3    3    0    0 -0.23123550660E+02  0.35765104607E+02  0.18561730659E+02  0.13335465484E+03  0.12500033928E+03 0.  0.
         25    2    3    3    0    0  0.23123550660E+02 -0.35765104607E+02 -0.64297552796E+02  0.14679583234E+03  0.12490396229E+03 0.  0.
          5    1    4    4  502    0  0.16079136690E+02  0.72926948748E+02 -0.32833410519E+01  0.74898256448E+02  0.47000000000E+01 0. -1.
         -5    1    4    4    0  502 -0.39202687350E+02 -0.37161844141E+02  0.21845071711E+02  0.58456398397E+02  0.47000000000E+01 0. -1.
          5    1    5    5  503    0  0.30206408077E+02 -0.47912689732E+00 -0.94660213836E+02  0.99475136265E+02  0.47000000000E+01 0.  1.
         -5    1    5    5    0  503 -0.70828574168E+01 -0.35285977709E+02  0.30362661040E+02  0.47320696080E+02  0.47000000000E+01 0.  1.
<mgrwt>
<rscale>  0 0.27639199E+03</rscale>
<asrwt>0</asrwt>
<pdfrwt beam="1">  1        3 0.25068178E-01 0.27639199E+03</pdfrwt>
<pdfrwt beam="2">  1       -3 0.18031897E-01 0.27639199E+03</pdfrwt>
<totfact> 0.10250893E+03</totfact>
</mgrwt>
</event>
<event>
 9    1  0.7957670E-001  0.2764042E+03  0.7818608E-02  0.1097669E+00
         -2   -1    0    0    0  501 -0.00000000000E+00  0.00000000000E+00  0.96421169164E+01  0.96421169164E+01  0.00000000000E+00 0.  1.
          2   -1    0    0  501    0  0.00000000000E+00 -0.00000000000E+00 -0.19808742179E+04  0.19808742179E+04  0.00000000000E+00 0.  1.
         35    2    1    2    0    0  0.71054273576E-14  0.14210854715E-13 -0.19712321009E+04  0.19905163348E+04  0.27640420261E+03 0.  0.
         25    2    3    3    0    0 -0.13463403338E+02  0.49269415216E+02 -0.79244743263E+03  0.80388639685E+03  0.12510662276E+03 0.  0.
         25    2    3    3    0    0  0.13463403338E+02 -0.49269415216E+02 -0.11787846683E+04  0.11866299379E+04  0.12628767486E+03 0.  0.
          5    1    4    4  502    0  0.33853930979E+01 -0.30070402507E+02 -0.64294179400E+02  0.71214615761E+02  0.47000000000E+01 0. -1.
         -5    1    4    4    0  502 -0.16848796435E+02  0.79339817722E+02 -0.72815325323E+03  0.73267178109E+03  0.47000000000E+01 0. -1.
          5    1    5    5  503    0  0.64731101181E+02 -0.14249166799E+01 -0.49372764168E+03  0.49797712800E+03  0.47000000000E+01 0.  1.
         -5    1    5    5    0  503 -0.51267697844E+02 -0.47844498536E+02 -0.68505702663E+03  0.68865280993E+03  0.47000000000E+01 0.  1.
<mgrwt>
<rscale>  0 0.27640420E+03</rscale>
<asrwt>0</asrwt>
<pdfrwt beam="1">  1        2 0.30474983E+00 0.27640420E+03</pdfrwt>
<pdfrwt beam="2">  1       -2 0.14834028E-02 0.27640420E+03</pdfrwt>
<totfact> 0.91187184E+03</totfact>
</mgrwt>
</event>
<event>
 9    1  0.7957670E-001  0.2753230E+03  0.7818608E-02  0.1098271E+00
          2   -1    0    0  501    0  0.00000000000E+00  0.00000000000E+00  0.13521131516E+04  0.13521131516E+04  0.00000000000E+00 0. -1.
         -2   -1    0    0    0  501 -0.00000000000E+00 -0.00000000000E+00 -0.14015608303E+02  0.14015608303E+02  0.00000000000E+00 0. -1.
         35    2    1    2    0    0  0.00000000000E+00  0.71054273576E-14  0.13380975433E+04  0.13661287599E+04  0.27532299805E+03 0.  0.
         25    2    3    3    0    0  0.25438720334E+02 -0.14458632657E+02  0.42550062103E+03  0.44446392396E+03  0.12506486582E+03 0.  0.
         25    2    3    3    0    0 -0.25438720334E+02  0.14458632657E+02  0.91259692228E+03  0.92166483594E+03  0.12560552025E+03 0.  0.
          5    1    4    4  502    0  0.43500951286E+01  0.35492318441E+02  0.34742467529E+03  0.34929160167E+03  0.47000000000E+01 0.  1.
         -5    1    4    4    0  502  0.21088625205E+02 -0.49950951097E+02  0.78075945736E+02  0.95172322295E+02  0.47000000000E+01 0.  1.
          5    1    5    5  503    0  0.33728257913E+02 -0.37056534187E+02  0.34388170960E+03  0.34754496444E+03  0.47000000000E+01 0.  1.
         -5    1    5    5    0  503 -0.59166978247E+02  0.51515166844E+02  0.56871521267E+03  0.57411987150E+03  0.47000000000E+01 0.  1.
<mgrwt>
<rscale>  0 0.27532300E+03</rscale>
<asrwt>0</asrwt>
<pdfrwt beam="1">  1        2 0.20801731E+00 0.27532300E+03</pdfrwt>
<pdfrwt beam="2">  1       -2 0.21562485E-02 0.27532300E+03</pdfrwt>
<totfact> 0.11352667E+04</totfact>
</mgrwt>
</event>
<event>
 9    1  0.7957670E-001  0.2754870E+03  0.7818608E-02  0.1098180E+00
         -2   -1    0    0    0  501 -0.00000000000E+00  0.00000000000E+00  0.39321190310E+02  0.39321190310E+02  0.00000000000E+00 0. -1.
          2   -1    0    0  501    0  0.00000000000E+00 -0.00000000000E+00 -0.48252018237E+03  0.48252018237E+03  0.00000000000E+00 0. -1.
         35    2    1    2    0    0  0.14210854715E-13  0.00000000000E+00 -0.44319899206E+03  0.52184137268E+03  0.27548697188E+03 0.  0.
         25    2    3    3    0    0  0.56054366705E+02 -0.11801780919E+02 -0.25500997909E+03  0.28872127087E+03  0.12267236348E+03 0.  0.
         25    2    3    3    0    0 -0.56054366705E+02  0.11801780919E+02 -0.18818901298E+03  0.23312010181E+03  0.12509397748E+03 0.  0.
          5    1    4    4  502    0  0.68872115589E+02 -0.39991968890E+02 -0.24198835300E+03  0.25480027251E+03  0.47000000000E+01 0. -1.
         -5    1    4    4    0  502 -0.12817748884E+02  0.28190187971E+02 -0.13021626082E+02  0.33920998365E+02  0.47000000000E+01 0. -1.
          5    1    5    5  503    0 -0.55964445259E+02 -0.48243024853E+02 -0.12863390803E+03  0.14841893705E+03  0.47000000000E+01 0.  1.
         -5    1    5    5    0  503 -0.89921446231E-01  0.60044805772E+02 -0.59555104949E+02  0.84701164759E+02  0.47000000000E+01 0.  1.
<mgrwt>
<rscale>  0 0.27548697E+03</rscale>
<asrwt>0</asrwt>
<pdfrwt beam="1">  1        2 0.74233869E-01 0.27548697E+03</pdfrwt>
<pdfrwt beam="2">  1       -2 0.60494143E-02 0.27548697E+03</pdfrwt>
<totfact> 0.94154810E+03</totfact>
</mgrwt>
</event>
<event>
 9    1  0.7957670E-001  0.2793925E+03  0.7818608E-02  0.1096021E+00
         -2   -1    0    0    0  501 -0.00000000000E+00  0.00000000000E+00  0.15883863263E+02  0.15883863263E+02  0.00000000000E+00 0.  1.
          2   -1    0    0  501    0  0.00000000000E+00 -0.00000000000E+00 -0.12286077373E+04  0.12286077373E+04  0.00000000000E+00 0.  1.
         35    2    1    2    0    0  0.14210854715E-13 -0.35527136788E-14 -0.12127238740E+04  0.12444916006E+04  0.27939246449E+03 0.  0.
         25    2    3    3    0    0  0.56730606192E+02  0.13209829112E+02 -0.49548261093E+03  0.51415091373E+03  0.12431927885E+03 0.  0.
         25    2    3    3    0    0 -0.56730606192E+02 -0.13209829112E+02 -0.71724126312E+03  0.73034068684E+03  0.12477831571E+03 0.  0.
          5    1    4    4  502    0  0.76198454269E+01  0.36392123239E+02 -0.41650799666E+03  0.41819068613E+03  0.47000000000E+01 0.  1.
         -5    1    4    4    0  502  0.49110760765E+02 -0.23182294127E+02 -0.78974614266E+02  0.95960227607E+02  0.47000000000E+01 0.  1.
          5    1    5    5  503    0 -0.70417217584E+02  0.30532625575E+02 -0.27011914780E+03  0.28085097430E+03  0.47000000000E+01 0.  1.
         -5    1    5    5    0  503  0.13686611393E+02 -0.43742454687E+02 -0.44712211532E+03  0.44948971254E+03  0.47000000000E+01 0.  1.
<mgrwt>
<rscale>  0 0.27939246E+03</rscale>
<asrwt>0</asrwt>
<pdfrwt beam="1">  1        2 0.18901657E+00 0.27939246E+03</pdfrwt>
<pdfrwt beam="2">  1       -2 0.24436713E-02 0.27939246E+03</pdfrwt>
<totfact> 0.11056157E+04</totfact>
</mgrwt>
</event>
<event>
 9    1  0.7957670E-001  0.2743601E+03  0.7818608E-02  0.1098810E+00
          1   -1    0    0  501    0  0.00000000000E+00  0.00000000000E+00  0.69311753780E+03  0.69311753780E+03  0.00000000000E+00 0. -1.
         -1   -1    0    0    0  501 -0.00000000000E+00 -0.00000000000E+00 -0.27150327052E+02  0.27150327052E+02  0.00000000000E+00 0. -1.
         35    2    1    2    0    0  0.00000000000E+00  0.00000000000E+00  0.66596721074E+03  0.72026786485E+03  0.27436011253E+03 0.  0.
         25    2    3    3    0    0 -0.12359819037E+02 -0.46999350795E+02  0.25215115135E+03  0.28539037961E+03  0.12452213275E+03 0.  0.
         25    2    3    3    0    0  0.12359819037E+02  0.46999350795E+02  0.41381605940E+03  0.43487748524E+03  0.12455116239E+03 0.  0.
          5    1    4    4  502    0 -0.35134639835E+02  0.28394654775E+02  0.45940729099E+02  0.64601392603E+02  0.47000000000E+01 0.  1.
         -5    1    4    4    0  502  0.22774820797E+02 -0.75394005570E+02  0.20621042225E+03  0.22078898700E+03  0.47000000000E+01 0.  1.
          5    1    5    5  503    0  0.20729695525E+02 -0.24220526009E+02  0.28821911645E+02  0.43233629822E+02  0.47000000000E+01 0.  1.
         -5    1    5    5    0  503 -0.83698764879E+01  0.71219876804E+02  0.38499414775E+03  0.39164385542E+03  0.47000000000E+01 0.  1.
<mgrwt>
<rscale>  0 0.27436011E+03</rscale>
<asrwt>0</asrwt>
<pdfrwt beam="1">  1        1 0.10663345E+00 0.27436011E+03</pdfrwt>
<pdfrwt beam="2">  1       -1 0.41769739E-02 0.27436011E+03</pdfrwt>
<totfact> 0.65741920E+03</totfact>
</mgrwt>
</event>
<event>
 9    1  0.7957670E-001  0.2792968E+03  0.7818608E-02  0.1096074E+00
         -2   -1    0    0    0  501 -0.00000000000E+00  0.00000000000E+00  0.11277397216E+03  0.11277397216E+03  0.00000000000E+00 0. -1.
          2   -1    0    0  501    0  0.00000000000E+00 -0.00000000000E+00 -0.17292704956E+03  0.17292704956E+03  0.00000000000E+00 0. -1.
         35    2    1    2    0    0  0.00000000000E+00 -0.14210854715E-13 -0.60153077409E+02  0.28570102172E+03  0.27929676169E+03 0.  0.
         25    2    3    3    0    0  0.25403688635E+02 -0.56082375443E+02 -0.38191052203E+02  0.14410879240E+03  0.12457209699E+03 0.  0.
         25    2    3    3    0    0 -0.25403688635E+02  0.56082375443E+02 -0.21962025206E+02  0.14159222932E+03  0.12560035279E+03 0.  0.
          5    1    4    4  502    0 -0.35901626290E+02 -0.65747529733E+02 -0.31884598085E+02  0.81549874502E+02  0.47000000000E+01 0.  1.
         -5    1    4    4    0  502  0.61305314924E+02  0.96651542895E+01 -0.63064541175E+01  0.62558917901E+02  0.47000000000E+01 0.  1.
          5    1    5    5  503    0 -0.15951369829E+02 -0.21375490566E+02  0.35442717339E+02  0.44605313682E+02  0.47000000000E+01 0. -1.
         -5    1    5    5    0  503 -0.94523188050E+01  0.77457866009E+02 -0.57404742544E+02  0.96986915633E+02  0.47000000000E+01 0. -1.
<mgrwt>
<rscale>  0 0.27929676E+03</rscale>
<asrwt>0</asrwt>
<pdfrwt beam="1">  1        2 0.26604161E-01 0.27929676E+03</pdfrwt>
<pdfrwt beam="2">  1       -2 0.17349842E-01 0.27929676E+03</pdfrwt>
<totfact> 0.53418949E+03</totfact>
</mgrwt>
</event>
<event>
 9    1  0.7957670E-001  0.2746286E+03  0.7818608E-02  0.1098659E+00
         -1   -1    0    0    0  501 -0.00000000000E+00  0.00000000000E+00  0.37569187317E+02  0.37569187317E+02  0.00000000000E+00 0.  1.
          1   -1    0    0  501    0  0.00000000000E+00 -0.00000000000E+00 -0.50187999254E+03  0.50187999254E+03  0.00000000000E+00 0.  1.
         35    2    1    2    0    0  0.35527136788E-14  0.00000000000E+00 -0.46431080523E+03  0.53944917986E+03  0.27462864709E+03 0.  0.
         25    2    3    3    0    0  0.15006163493E+02 -0.28378881514E+02 -0.13808098184E+03  0.18853319132E+03  0.12428942363E+03 0.  0.
         25    2    3    3    0    0 -0.15006163493E+02  0.28378881514E+02 -0.32622982339E+03  0.35091598854E+03  0.12524211546E+03 0.  0.
          5    1    4    4  502    0  0.53908225793E+01 -0.53066718975E+02 -0.61642543829E+01  0.53900145297E+02  0.47000000000E+01 0. -1.
         -5    1    4    4    0  502  0.96153409135E+01  0.24687837461E+02 -0.13191672746E+03  0.13463304603E+03  0.47000000000E+01 0. -1.
          5    1    5    5  503    0 -0.42343508623E+02  0.68364532711E+02 -0.20903834161E+03  0.22402187465E+03  0.47000000000E+01 0. -1.
         -5    1    5    5    0  503  0.27337345130E+02 -0.39985651196E+02 -0.11719148177E+03  0.12689411389E+03  0.47000000000E+01 0. -1.
<mgrwt>
<rscale>  0 0.27462865E+03</rscale>
<asrwt>0</asrwt>
<pdfrwt beam="1">  1        1 0.77212298E-01 0.27462865E+03</pdfrwt>
<pdfrwt beam="2">  1       -1 0.57798756E-02 0.27462865E+03</pdfrwt>
<totfact> 0.63225628E+03</totfact>
</mgrwt>
</event>
<event>
 9    1  0.7957670E-001  0.2734489E+03  0.7818608E-02  0.1099322E+00
          4   -1    0    0  501    0  0.00000000000E+00  0.00000000000E+00  0.63082753146E+02  0.63082753146E+02  0.00000000000E+00 0. -1.
         -4   -1    0    0    0  501 -0.00000000000E+00 -0.00000000000E+00 -0.29633424183E+03  0.29633424183E+03  0.00000000000E+00 0. -1.
         35    2    1    2    0    0 -0.71054273576E-14  0.00000000000E+00 -0.23325148868E+03  0.35941699497E+03  0.27344893363E+03 0.  0.
         25    2    3    3    0    0 -0.21270954580E+02  0.46098486025E+02 -0.86632601271E+02  0.16018024542E+03  0.12479975760E+03 0.  0.
         25    2    3    3    0    0  0.21270954580E+02 -0.46098486025E+02 -0.14661888741E+03  0.19923674955E+03  0.12498264001E+03 0.  0.
          5    1    4    4  502    0 -0.66750442931E+02  0.56316645999E+02 -0.62367546110E+02  0.10741967723E+03  0.47000000000E+01 0. -1.
         -5    1    4    4    0  502  0.45479488351E+02 -0.10218159974E+02 -0.24265055161E+02  0.52760568191E+02  0.47000000000E+01 0. -1.
          5    1    5    5  503    0  0.45716857020E+02 -0.76126518584E+02 -0.69666484891E+02  0.11296365329E+03  0.47000000000E+01 0.  1.
         -5    1    5    5    0  503 -0.24445902440E+02  0.30028032559E+02 -0.76952402518E+02  0.86273096262E+02  0.47000000000E+01 0.  1.
<mgrwt>
<rscale>  0 0.27344893E+03</rscale>
<asrwt>0</asrwt>
<pdfrwt beam="1">  1        4 0.97050389E-02 0.27344893E+03</pdfrwt>
<pdfrwt beam="2">  1       -4 0.45589884E-01 0.27344893E+03</pdfrwt>
<totfact> 0.70004074E+02</totfact>
</mgrwt>
</event>
<event>
 9    1  0.7957670E-001  0.2765988E+03  0.7818608E-02  0.1097561E+00
          2   -1    0    0  501    0  0.00000000000E+00  0.00000000000E+00  0.14585656916E+03  0.14585656916E+03  0.00000000000E+00 0.  1.
         -2   -1    0    0    0  501 -0.00000000000E+00 -0.00000000000E+00 -0.13113375104E+03  0.13113375104E+03  0.00000000000E+00 0.  1.
         35    2    1    2    0    0  0.00000000000E+00 -0.14210854715E-13  0.14722818121E+02  0.27699032020E+03  0.27659876376E+03 0.  0.
         25    2    3    3    0    0 -0.46965769771E+01 -0.65429764499E+02  0.21227662349E+02  0.13498755643E+03  0.11605134564E+03 0.  0.
         25    2    3    3    0    0  0.46965769771E+01  0.65429764499E+02 -0.65048442283E+01  0.14200276377E+03  0.12577503728E+03 0.  0.
          5    1    4    4  502    0  0.50814568525E+02 -0.31361541713E+02 -0.12952056611E+02  0.61282235953E+02  0.47000000000E+01 0.  1.
         -5    1    4    4    0  502 -0.55511145502E+02 -0.34068222786E+02  0.34179718960E+02  0.73705320479E+02  0.47000000000E+01 0.  1.
          5    1    5    5  503    0  0.11587101862E+02  0.72868678685E+02  0.46824995070E+02  0.87514429817E+02  0.47000000000E+01 0.  1.
         -5    1    5    5    0  503 -0.68905248847E+01 -0.74389141856E+01 -0.53329839298E+02  0.54488333954E+02  0.47000000000E+01 0.  1.
<mgrwt>
<rscale>  0 0.27659876E+03</rscale>
<asrwt>0</asrwt>
<pdfrwt beam="1">  1        2 0.22439472E-01 0.27659876E+03</pdfrwt>
<pdfrwt beam="2">  1       -2 0.20174423E-01 0.27659876E+03</pdfrwt>
<totfact> 0.50037410E+03</totfact>
</mgrwt>
</event>
<event>
 9    1  0.7957670E-001  0.2842905E+03  0.7818608E-02  0.1093368E+00
          2   -1    0    0  501    0  0.00000000000E+00  0.00000000000E+00  0.36858618180E+03  0.36858618180E+03  0.00000000000E+00 0. -1.
         -2   -1    0    0    0  501 -0.00000000000E+00 -0.00000000000E+00 -0.54818322305E+02  0.54818322305E+02  0.00000000000E+00 0. -1.
         35    2    1    2    0    0  0.00000000000E+00 -0.17763568394E-14  0.31376785949E+03  0.42340450410E+03  0.28429052823E+03 0.  0.
         25    2    3    3    0    0 -0.60784027898E+02 -0.11794783786E+02  0.19649280091E+03  0.24147466520E+03  0.12596340004E+03 0.  0.
         25    2    3    3    0    0  0.60784027898E+02  0.11794783786E+02  0.11727505858E+03  0.18192983890E+03  0.12454401610E+03 0.  0.
          5    1    4    4  502    0 -0.62497538374E+02  0.45805855238E+02  0.80281478619E+02  0.11167508445E+03  0.47000000000E+01 0. -1.
         -5    1    4    4    0  502  0.17135104754E+01 -0.57600639024E+02  0.11621132229E+03  0.12979958075E+03  0.47000000000E+01 0. -1.
          5    1    5    5  503    0 -0.25747818608E+02  0.81084290775E+01  0.85123657190E+02  0.89424961832E+02  0.47000000000E+01 0.  1.
         -5    1    5    5    0  503  0.86531846506E+02  0.36863547089E+01  0.32151401389E+02  0.92504877072E+02  0.47000000000E+01 0.  1.
<mgrwt>
<rscale>  0 0.28429053E+03</rscale>
<asrwt>0</asrwt>
<pdfrwt beam="1">  1        2 0.56705565E-01 0.28429053E+03</pdfrwt>
<pdfrwt beam="2">  1       -2 0.84335883E-02 0.28429053E+03</pdfrwt>
<totfact> 0.75595014E+03</totfact>
</mgrwt>
</event>
<event>
 9    1  0.7957670E-001  0.2725319E+03  0.7818608E-02  0.1099839E+00
          1   -1    0    0  501    0  0.00000000000E+00  0.00000000000E+00  0.33027179838E+03  0.33027179838E+03  0.00000000000E+00 0. -1.
         -1   -1    0    0    0  501 -0.00000000000E+00 -0.00000000000E+00 -0.56221583167E+02  0.56221583167E+02  0.00000000000E+00 0. -1.
         35    2    1    2    0    0  0.00000000000E+00 -0.71054273576E-14  0.27405021521E+03  0.38649338154E+03  0.27253185781E+03 0.  0.
         25    2    3    3    0    0 -0.86944029595E-01  0.14106692894E+01  0.61101580382E+02  0.13935232848E+03  0.12523446323E+03 0.  0.
         25    2    3    3    0    0  0.86944029595E-01 -0.14106692894E+01  0.21294863483E+03  0.24714105306E+03  0.12541762829E+03 0.  0.
          5    1    4    4  502    0 -0.21880626297E+02  0.50013858193E+02  0.65855184647E+02  0.85668799242E+02  0.47000000000E+01 0.  1.
         -5    1    4    4    0  502  0.21793682267E+02 -0.48603188904E+02 -0.47536042653E+01  0.53683529242E+02  0.47000000000E+01 0.  1.
          5    1    5    5  503    0 -0.37456483365E+02 -0.45733781953E+02  0.64267652530E+02  0.87447058953E+02  0.47000000000E+01 0.  1.
         -5    1    5    5    0  503  0.37543427394E+02  0.44323112663E+02  0.14868098230E+03  0.15969399411E+03  0.47000000000E+01 0.  1.
<mgrwt>
<rscale>  0 0.27253186E+03</rscale>
<asrwt>0</asrwt>
<pdfrwt beam="1">  1        1 0.50811045E-01 0.27253186E+03</pdfrwt>
<pdfrwt beam="2">  1       -1 0.86494745E-02 0.27253186E+03</pdfrwt>
<totfact> 0.58767409E+03</totfact>
</mgrwt>
</event>
<event>
 9    1  0.7957670E-001  0.2781394E+03  0.7818608E-02  0.1096710E+00
          2   -1    0    0  501    0  0.00000000000E+00  0.00000000000E+00  0.11069125050E+04  0.11069125050E+04  0.00000000000E+00 0. -1.
         -2   -1    0    0    0  501 -0.00000000000E+00 -0.00000000000E+00 -0.17472367956E+02  0.17472367956E+02  0.00000000000E+00 0. -1.
         35    2    1    2    0    0 -0.35527136788E-14  0.00000000000E+00  0.10894401370E+04  0.11243848729E+04  0.27813940808E+03 0.  0.
         25    2    3    3    0    0 -0.19987716420E+02 -0.36752679222E+02  0.35966958622E+03  0.38283771545E+03  0.12430702669E+03 0.  0.
         25    2    3    3    0    0  0.19987716420E+02  0.36752679222E+02  0.72977055081E+03  0.74154715749E+03  0.12480729831E+03 0.  0.
          5    1    4    4  502    0 -0.51036355539E+02 -0.50174196777E+01  0.31674587558E+03  0.32090485160E+03  0.47000000000E+01 0.  1.
         -5    1    4    4    0  502  0.31048639119E+02 -0.31735259544E+02  0.42923710644E+02  0.61932863852E+02  0.47000000000E+01 0.  1.
          5    1    5    5  503    0  0.36225326726E+01 -0.33103382376E+02  0.49187458855E+03  0.49302297870E+03  0.47000000000E+01 0.  1.
         -5    1    5    5    0  503  0.16365183748E+02  0.69856061598E+02  0.23789596226E+03  0.24852417879E+03  0.47000000000E+01 0.  1.
<mgrwt>
<rscale>  0 0.27813941E+03</rscale>
<asrwt>0</asrwt>
<pdfrwt beam="1">  1        2 0.17029418E+00 0.27813941E+03</pdfrwt>
<pdfrwt beam="2">  1       -2 0.26880575E-02 0.27813941E+03</pdfrwt>
<totfact> 0.11275524E+04</totfact>
</mgrwt>
</event>
<event>
 9    1  0.7957670E-001  0.2744450E+03  0.7818608E-02  0.1098762E+00
          2   -1    0    0  501    0  0.00000000000E+00  0.00000000000E+00  0.28759374795E+04  0.28759374795E+04  0.00000000000E+00 0. -1.
         -2   -1    0    0    0  501 -0.00000000000E+00 -0.00000000000E+00 -0.65474350506E+01  0.65474350506E+01  0.00000000000E+00 0. -1.
         35    2    1    2    0    0  0.00000000000E+00 -0.35527136788E-14  0.28693900444E+04  0.28824849145E+04  0.27444499526E+03 0.  0.
         25    2    3    3    0    0 -0.44303354584E+02 -0.16581514379E+02  0.17689047964E+04  0.17739523298E+04  0.12507979695E+03 0.  0.
         25    2    3    3    0    0  0.44303354584E+02  0.16581514379E+02  0.11004852480E+04  0.11085325848E+04  0.12465543138E+03 0.  0.
          5    1    4    4  502    0 -0.37434484999E+02  0.21759163774E+02  0.15983442766E+04  0.15989375592E+04  0.47000000000E+01 0.  1.
         -5    1    4    4    0  502 -0.68688695852E+01 -0.38340678153E+02  0.17056051985E+03  0.17501477052E+03  0.47000000000E+01 0.  1.
          5    1    5    5  503    0  0.25278085147E+02  0.93090485645E+01  0.10759622200E+04  0.10763096343E+04  0.47000000000E+01 0. -1.
         -5    1    5    5    0  503  0.19025269437E+02  0.72724658142E+01  0.24523028029E+02  0.32222950515E+02  0.47000000000E+01 0. -1.
<mgrwt>
<rscale>  0 0.27444500E+03</rscale>
<asrwt>0</asrwt>
<pdfrwt beam="1">  1        2 0.44245091E+00 0.27444500E+03</pdfrwt>
<pdfrwt beam="2">  1       -2 0.10073000E-02 0.27444500E+03</pdfrwt>
<totfact> 0.51972875E+03</totfact>
</mgrwt>
</event>
<event>
 9    1  0.7957670E-001  0.2758137E+03  0.7818608E-02  0.1097998E+00
          2   -1    0    0  501    0  0.00000000000E+00  0.00000000000E+00  0.15103556544E+03  0.15103556544E+03  0.00000000000E+00 0.  1.
         -2   -1    0    0    0  501 -0.00000000000E+00 -0.00000000000E+00 -0.12591930318E+03  0.12591930318E+03  0.00000000000E+00 0.  1.
         35    2    1    2    0    0  0.17763568394E-14  0.71054273576E-14  0.25116262262E+02  0.27695486861E+03  0.27581365561E+03 0.  0.
         25    2    3    3    0    0 -0.12059030292E+02 -0.13983519236E+02  0.67691669239E+02  0.14327241307E+03  0.12491542435E+03 0.  0.
         25    2    3    3    0    0  0.12059030292E+02  0.13983519236E+02 -0.42575406977E+02  0.13368245554E+03  0.12536895397E+03 0.  0.
          5    1    4    4  502    0 -0.14108411819E+02  0.52066256715E+02  0.52252569492E+02  0.75248677004E+02  0.47000000000E+01 0.  1.
         -5    1    4    4    0  502  0.20493815267E+01 -0.66049775951E+02  0.15439099746E+02  0.68023736069E+02  0.47000000000E+01 0.  1.
          5    1    5    5  503    0  0.19111824481E+01  0.50882550133E+02 -0.69768651070E+02  0.86501105186E+02  0.47000000000E+01 0. -1.
         -5    1    5    5    0  503  0.10147847844E+02 -0.36899030897E+02  0.27193244093E+02  0.47181350355E+02  0.47000000000E+01 0. -1.
<mgrwt>
<rscale>  0 0.27581366E+03</rscale>
<asrwt>0</asrwt>
<pdfrwt beam="1">  1        2 0.23236241E-01 0.27581366E+03</pdfrwt>
<pdfrwt beam="2">  1       -2 0.19372200E-01 0.27581366E+03</pdfrwt>
<totfact> 0.51553287E+03</totfact>
</mgrwt>
</event>
<event>
 9    1  0.7957670E-001  0.2684155E+03  0.7818608E-02  0.1102190E+00
          1   -1    0    0  501    0  0.00000000000E+00  0.00000000000E+00  0.13998588630E+04  0.13998588630E+04  0.00000000000E+00 0.  1.
         -1   -1    0    0    0  501 -0.00000000000E+00 -0.00000000000E+00 -0.12866807033E+02  0.12866807033E+02  0.00000000000E+00 0.  1.
         35    2    1    2    0    0  0.35527136788E-14  0.71054273576E-14  0.13869920560E+04  0.14127256700E+04  0.26841545309E+03 0.  0.
         25    2    3    3    0    0 -0.87199386678E+01  0.27460690305E+02  0.48679455271E+03  0.50339193635E+03  0.12491748553E+03 0.  0.
         25    2    3    3    0    0  0.87199386678E+01 -0.27460690305E+02  0.90019750326E+03  0.90933373369E+03  0.12530828984E+03 0.  0.
          5    1    4    4  502    0 -0.42356427016E+02  0.61472420864E+02  0.36229768695E+03  0.36993868331E+03  0.47000000000E+01 0. -1.
         -5    1    4    4    0  502  0.33636488348E+02 -0.34011730559E+02  0.12449686575E+03  0.13345325304E+03  0.47000000000E+01 0. -1.
          5    1    5    5  503    0 -0.16186246532E+02 -0.70260693405E+02  0.66625971066E+03  0.67016613736E+03  0.47000000000E+01 0.  1.
         -5    1    5    5    0  503  0.24906185199E+02  0.42800003100E+02  0.23393779260E+03  0.23916759633E+03  0.47000000000E+01 0.  1.
<mgrwt>
<rscale>  0 0.26841545E+03</rscale>
<asrwt>0</asrwt>
<pdfrwt beam="1">  1        1 0.21536278E+00 0.26841545E+03</pdfrwt>
<pdfrwt beam="2">  1       -1 0.19795099E-02 0.26841545E+03</pdfrwt>
<totfact> 0.58085086E+03</totfact>
</mgrwt>
</event>
<event>
 9    1  0.7957670E-001  0.2785549E+03  0.7818608E-02  0.1096481E+00
         -2   -1    0    0    0  501 -0.00000000000E+00  0.00000000000E+00  0.46736986522E+02  0.46736986522E+02  0.00000000000E+00 0.  1.
          2   -1    0    0  501    0  0.00000000000E+00 -0.00000000000E+00 -0.41505059268E+03  0.41505059268E+03  0.00000000000E+00 0.  1.
         35    2    1    2    0    0 -0.35527136788E-14 -0.71054273576E-14 -0.36831360616E+03  0.46178757920E+03  0.27855494220E+03 0.  0.
         25    2    3    3    0    0  0.27608579559E+02 -0.51961871474E+02 -0.15250538374E+03  0.20576304772E+03  0.12497307705E+03 0.  0.
         25    2    3    3    0    0 -0.27608579559E+02  0.51961871474E+02 -0.21580822242E+03  0.25602453148E+03  0.12455160417E+03 0.  0.
          5    1    4    4  502    0 -0.42886921630E+02 -0.46944711259E+02 -0.49325824256E+02  0.80611543222E+02  0.47000000000E+01 0. -1.
         -5    1    4    4    0  502  0.70495501189E+02 -0.50171602147E+01 -0.10317955948E+03  0.12515150450E+03  0.47000000000E+01 0. -1.
          5    1    5    5  503    0 -0.53906189817E+02  0.32861846349E+00 -0.31162674897E+02  0.62443475219E+02  0.47000000000E+01 0.  1.
         -5    1    5    5    0  503  0.26297610258E+02  0.51633253010E+02 -0.18464554752E+03  0.19358105626E+03  0.47000000000E+01 0.  1.
<mgrwt>
<rscale>  0 0.27855494E+03</rscale>
<asrwt>0</asrwt>
<pdfrwt beam="1">  1        2 0.63853938E-01 0.27855494E+03</pdfrwt>
<pdfrwt beam="2">  1       -2 0.71903055E-02 0.27855494E+03</pdfrwt>
<totfact> 0.85162865E+03</totfact>
</mgrwt>
</event>
<event>
 9    1  0.7957670E-001  0.2743383E+03  0.7818608E-02  0.1098822E+00
          1   -1    0    0  501    0  0.00000000000E+00  0.00000000000E+00  0.20998638755E+04  0.20998638755E+04  0.00000000000E+00 0.  1.
         -1   -1    0    0    0  501 -0.00000000000E+00 -0.00000000000E+00 -0.89602867762E+01  0.89602867762E+01  0.00000000000E+00 0.  1.
         35    2    1    2    0    0 -0.71054273576E-14  0.00000000000E+00  0.20909035887E+04  0.21088241623E+04  0.27433834960E+03 0.  0.
         25    2    3    3    0    0 -0.28658757200E+02 -0.70943496224E+01  0.67659616718E+03  0.68869841032E+03  0.12510584626E+03 0.  0.
         25    2    3    3    0    0  0.28658757200E+02  0.70943496224E+01  0.14143074215E+04  0.14201257519E+04  0.12498005675E+03 0.  0.
          5    1    4    4  502    0 -0.41322922900E+02 -0.20834361224E+02  0.66411288420E+03  0.66573993986E+03  0.47000000000E+01 0. -1.
         -5    1    4    4    0  502  0.12664165700E+02  0.13740011601E+02  0.12483282977E+02  0.22958470453E+02  0.47000000000E+01 0. -1.
          5    1    5    5  503    0  0.75007772177E+01 -0.15247661011E+02  0.13321905498E+04  0.13323072107E+04  0.47000000000E+01 0. -1.
         -5    1    5    5    0  503  0.21157979982E+02  0.22342010633E+02  0.82116871734E+02  0.87818541205E+02  0.47000000000E+01 0. -1.
<mgrwt>
<rscale>  0 0.27433835E+03</rscale>
<asrwt>0</asrwt>
<pdfrwt beam="1">  1        1 0.32305559E+00 0.27433835E+03</pdfrwt>
<pdfrwt beam="2">  1       -1 0.13785073E-02 0.27433835E+03</pdfrwt>
<totfact> 0.34291034E+03</totfact>
</mgrwt>
</event>
<event>
 9    1  0.7957670E-001  0.2878616E+03  0.7818608E-02  0.1091471E+00
         -1   -1    0    0    0  501 -0.00000000000E+00  0.00000000000E+00  0.77744165915E+03  0.77744165915E+03  0.00000000000E+00 0. -1.
          1   -1    0    0  501    0  0.00000000000E+00 -0.00000000000E+00 -0.26646466802E+02  0.26646466802E+02  0.00000000000E+00 0. -1.
         35    2    1    2    0    0 -0.71054273576E-14  0.00000000000E+00  0.75079519234E+03  0.80408812595E+03  0.28786158730E+03 0.  0.
         25    2    3    3    0    0 -0.13065600103E+02  0.20094638115E+02  0.18875042678E+03  0.22756304302E+03  0.12483473295E+03 0.  0.
         25    2    3    3    0    0  0.13065600103E+02 -0.20094638115E+02  0.56204476556E+03  0.57652508293E+03  0.12614415707E+03 0.  0.
          5    1    4    4  502    0  0.53769402622E+02  0.76357791010E+01  0.11429049270E+03  0.12662488106E+03  0.47000000000E+01 0.  1.
         -5    1    4    4    0  502 -0.66835002725E+02  0.12458859014E+02  0.74459934081E+02  0.10093816196E+03  0.47000000000E+01 0.  1.
          5    1    5    5  503    0  0.53580687915E+01  0.38937384620E+02  0.66460861321E+02  0.77356091613E+02  0.47000000000E+01 0.  1.
         -5    1    5    5    0  503  0.77075313111E+01 -0.59032022735E+02  0.49558390424E+03  0.49916899131E+03  0.47000000000E+01 0.  1.
<mgrwt>
<rscale>  0 0.28786159E+03</rscale>
<asrwt>0</asrwt>
<pdfrwt beam="1">  1        1 0.40994570E-02 0.28786159E+03</pdfrwt>
<pdfrwt beam="2">  1       -1 0.11960639E+00 0.28786159E+03</pdfrwt>
<totfact> 0.14652835E+03</totfact>
</mgrwt>
</event>
<event>
 9    1  0.7957670E-001  0.2739273E+03  0.7818608E-02  0.1099053E+00
          1   -1    0    0  501    0  0.00000000000E+00  0.00000000000E+00  0.44004294689E+03  0.44004294689E+03  0.00000000000E+00 0. -1.
         -1   -1    0    0    0  501 -0.00000000000E+00 -0.00000000000E+00 -0.42630011900E+02  0.42630011900E+02  0.00000000000E+00 0. -1.
         35    2    1    2    0    0  0.71054273576E-14  0.00000000000E+00  0.39741293499E+03  0.48267295879E+03  0.27392726087E+03 0.  0.
         25    2    3    3    0    0 -0.20926406266E+02 -0.20120597719E+02  0.28169115589E+03  0.30980914837E+03  0.12565447934E+03 0.  0.
         25    2    3    3    0    0  0.20926406266E+02  0.20120597719E+02  0.11572177910E+03  0.17286381041E+03  0.12509042274E+03 0.  0.
          5    1    4    4  502    0 -0.72382876005E+02 -0.65385904387E+01  0.19281523212E+03  0.20611122638E+03  0.47000000000E+01 0. -1.
         -5    1    4    4    0  502  0.51456469739E+02 -0.13582007280E+02  0.88875923772E+02  0.10369792199E+03  0.47000000000E+01 0. -1.
          5    1    5    5  503    0  0.61474798856E+02  0.11591333160E+02  0.15953738431E+02  0.64731149138E+02  0.47000000000E+01 0. -1.
         -5    1    5    5    0  503 -0.40548392590E+02  0.85292645596E+01  0.99768040670E+02  0.10813266128E+03  0.47000000000E+01 0. -1.
<mgrwt>
<rscale>  0 0.27392726E+03</rscale>
<asrwt>0</asrwt>
<pdfrwt beam="1">  1        1 0.67698912E-01 0.27392726E+03</pdfrwt>
<pdfrwt beam="2">  1       -1 0.65584637E-02 0.27392726E+03</pdfrwt>
<totfact> 0.62086493E+03</totfact>
</mgrwt>
</event>
<event>
 9    1  0.7957670E-001  0.2735713E+03  0.7818608E-02  0.1099253E+00
         -2   -1    0    0    0  501 -0.00000000000E+00  0.00000000000E+00  0.14216900649E+02  0.14216900649E+02  0.00000000000E+00 0.  1.
          2   -1    0    0  501    0  0.00000000000E+00 -0.00000000000E+00 -0.13160614958E+04  0.13160614958E+04  0.00000000000E+00 0.  1.
         35    2    1    2    0    0  0.00000000000E+00  0.00000000000E+00 -0.13018445951E+04  0.13302783964E+04  0.27357131087E+03 0.  0.
         25    2    3    3    0    0  0.38409964933E+02 -0.35477074835E+02 -0.57737471178E+03  0.59318258506E+03  0.12557895198E+03 0.  0.
         25    2    3    3    0    0 -0.38409964933E+02  0.35477074835E+02 -0.72446988333E+03  0.73709581134E+03  0.12537812806E+03 0.  0.
          5    1    4    4  502    0  0.44307509681E+02 -0.10364523052E+02 -0.55968843521E+03  0.56155481768E+03  0.47000000000E+01 0.  1.
         -5    1    4    4    0  502 -0.58975447474E+01 -0.25112551782E+02 -0.17686276570E+02  0.31627767389E+02  0.47000000000E+01 0.  1.
          5    1    5    5  503    0 -0.58036332203E+02  0.27541217800E+02 -0.16383738007E+03  0.17604406165E+03  0.47000000000E+01 0. -1.
         -5    1    5    5    0  503  0.19626367270E+02  0.79358570346E+01 -0.56063250325E+03  0.56105174968E+03  0.47000000000E+01 0. -1.
<mgrwt>
<rscale>  0 0.27357131E+03</rscale>
<asrwt>0</asrwt>
<pdfrwt beam="1">  1        2 0.20247098E+00 0.27357131E+03</pdfrwt>
<pdfrwt beam="2">  1       -2 0.21872157E-02 0.27357131E+03</pdfrwt>
<totfact> 0.11633729E+04</totfact>
</mgrwt>
</event>
<event>
 9    1  0.7957670E-001  0.2976744E+03  0.7818608E-02  0.1086409E+00
          1   -1    0    0  501    0  0.00000000000E+00  0.00000000000E+00  0.28010351737E+03  0.28010351737E+03  0.00000000000E+00 0. -1.
         -1   -1    0    0    0  501 -0.00000000000E+00 -0.00000000000E+00 -0.79086886305E+02  0.79086886305E+02  0.00000000000E+00 0. -1.
         35    2    1    2    0    0  0.00000000000E+00  0.14210854715E-13  0.20101663107E+03  0.35919040368E+03  0.29767441967E+03 0.  0.
         25    2    3    3    0    0  0.37180953497E+02 -0.69279571232E+02  0.77054966046E+02  0.16633947944E+03  0.12469672143E+03 0.  0.
         25    2    3    3    0    0 -0.37180953497E+02  0.69279571232E+02  0.12396166502E+03  0.19285092423E+03  0.12507158866E+03 0.  0.
          5    1    4    4  502    0  0.39804896896E+02 -0.10203508992E+03  0.75499041738E+02  0.13310816915E+03  0.47000000000E+01 0.  1.
         -5    1    4    4    0  502 -0.26239433984E+01  0.32755518686E+02  0.15559243082E+01  0.33231310293E+02  0.47000000000E+01 0.  1.
          5    1    5    5  503    0 -0.26135918079E+02  0.78357546847E+02  0.16529865305E+02  0.84370123911E+02  0.47000000000E+01 0. -1.
         -5    1    5    5    0  503 -0.11045035418E+02 -0.90779756143E+01  0.10743179972E+03  0.10848080032E+03  0.47000000000E+01 0. -1.
<mgrwt>
<rscale>  0 0.29767442E+03</rscale>
<asrwt>0</asrwt>
<pdfrwt beam="1">  1        1 0.43092848E-01 0.29767442E+03</pdfrwt>
<pdfrwt beam="2">  1       -1 0.12167213E-01 0.29767442E+03</pdfrwt>
<totfact> 0.42734687E+03</totfact>
</mgrwt>
</event>
<event>
 9    1  0.7957670E-001  0.2720154E+03  0.7818608E-02  0.1100132E+00
          2   -1    0    0  501    0  0.00000000000E+00  0.00000000000E+00  0.10051957701E+04  0.10051957701E+04  0.00000000000E+00 0. -1.
         -2   -1    0    0    0  501 -0.00000000000E+00 -0.00000000000E+00 -0.18402481246E+02  0.18402481246E+02  0.00000000000E+00 0. -1.
         35    2    1    2    0    0 -0.53290705182E-14  0.71054273576E-14  0.98679328883E+03  0.10235982513E+04  0.27201541359E+03 0.  0.
         25    2    3    3    0    0 -0.10866028684E+02 -0.30259163007E+02  0.32772074382E+03  0.35191226139E+03  0.12412762086E+03 0.  0.
         25    2    3    3    0    0  0.10866028684E+02  0.30259163007E+02  0.65907254501E+03  0.67168598994E+03  0.12550602361E+03 0.  0.
          5    1    4    4  502    0  0.11940879663E+02 -0.74111312476E+02  0.23487615584E+03  0.24662516057E+03  0.47000000000E+01 0. -1.
         -5    1    4    4    0  502 -0.22806908347E+02  0.43852149469E+02  0.92844587976E+02  0.10528710081E+03  0.47000000000E+01 0. -1.
          5    1    5    5  503    0  0.49820499154E+02 -0.28205338936E+02  0.35102123421E+03  0.35569034306E+03  0.47000000000E+01 0.  1.
         -5    1    5    5    0  503 -0.38954470470E+02  0.58464501943E+02  0.30805131080E+03  0.31599564687E+03  0.47000000000E+01 0.  1.
<mgrwt>
<rscale>  0 0.27201541E+03</rscale>
<asrwt>0</asrwt>
<pdfrwt beam="1">  1        2 0.15464546E+00 0.27201541E+03</pdfrwt>
<pdfrwt beam="2">  1       -2 0.28311518E-02 0.27201541E+03</pdfrwt>
<totfact> 0.12001270E+04</totfact>
</mgrwt>
</event>
<event>
 9    1  0.7957670E-001  0.3222964E+03  0.7818608E-02  0.1074597E+00
         -1   -1    0    0    0  501 -0.00000000000E+00  0.00000000000E+00  0.45128028038E+03  0.45128028038E+03  0.00000000000E+00 0. -1.
          1   -1    0    0  501    0  0.00000000000E+00 -0.00000000000E+00 -0.57544613646E+02  0.57544613646E+02  0.00000000000E+00 0. -1.
         35    2    1    2    0    0  0.00000000000E+00 -0.14210854715E-13  0.39373566673E+03  0.50882489402E+03  0.32229644355E+03 0.  0.
         25    2    3    3    0    0 -0.72513981563E+02  0.59533981891E+02  0.26196778610E+03  0.30478770152E+03  0.12436176873E+03 0.  0.
         25    2    3    3    0    0  0.72513981563E+02 -0.59533981891E+02  0.13176788063E+03  0.20403719251E+03  0.12436168637E+03 0.  0.
          5    1    4    4  502    0 -0.52434305693E+02  0.91136287459E+02  0.12856919019E+03  0.16615446419E+03  0.47000000000E+01 0. -1.
         -5    1    4    4    0  502 -0.20079675870E+02 -0.31602305567E+02  0.13339859591E+03  0.13863323733E+03  0.47000000000E+01 0. -1.
          5    1    5    5  503    0  0.27790455748E+02  0.22968877631E+02  0.97436030349E+02  0.10399879221E+03  0.47000000000E+01 0. -1.
         -5    1    5    5    0  503  0.44723525815E+02 -0.82502859522E+02  0.34331850283E+02  0.10003840030E+03  0.47000000000E+01 0. -1.
<mgrwt>
<rscale>  0 0.32229644E+03</rscale>
<asrwt>0</asrwt>
<pdfrwt beam="1">  1        1 0.88530178E-02 0.32229644E+03</pdfrwt>
<pdfrwt beam="2">  1       -1 0.69427733E-01 0.32229644E+03</pdfrwt>
<totfact> 0.16538177E+03</totfact>
</mgrwt>
</event>
<event>
 8    1  0.7957670E-001  0.3614067E+03  0.7818608E-02  0.1058028E+00
         -2   -1    0    0    0  501 -0.00000000000E+00  0.00000000000E+00  0.13543283026E+03  0.13543283026E+03  0.00000000000E+00 0. -1.
          2   -1    0    0  501    0  0.00000000000E+00 -0.00000000000E+00 -0.24110624536E+03  0.24110624536E+03  0.00000000000E+00 0. -1.
         25    2    1    2    0    0  0.95686495719E+02  0.86750538759E+02 -0.80378823346E+02  0.19503455232E+03  0.12204982555E+03 0.  0.
         25    2    1    2    0    0 -0.95686495719E+02 -0.86750538759E+02 -0.25294591753E+02  0.18150452331E+03  0.12499005629E+03 0.  0.
          5    1    3    3  502    0 -0.17394229607E+02  0.20734397817E+02  0.16535823800E+02  0.32062407040E+02  0.47000000000E+01 0. -1.
         -5    1    3    3    0  502  0.11308072533E+03  0.66016140943E+02 -0.96914647147E+02  0.16297214528E+03  0.47000000000E+01 0. -1.
          5    1    4    4  503    0 -0.44339031011E+02  0.28089688542E+02 -0.16895226905E+02  0.55340030408E+02  0.47000000000E+01 0.  1.
         -5    1    4    4    0  503 -0.51347464707E+02 -0.11484022730E+03 -0.83993648486E+01  0.12616449290E+03  0.47000000000E+01 0.  1.
<mgrwt>
<rscale>  0 0.36140670E+03</rscale>
<asrwt>0</asrwt>
<pdfrwt beam="1">  1        2 0.37093268E-01 0.36140670E+03</pdfrwt>
<pdfrwt beam="2">  1       -2 0.20835820E-01 0.36140670E+03</pdfrwt>
<totfact> 0.27300638E+03</totfact>
</mgrwt>
</event>
<event>
 9    1  0.7957670E-001  0.2750761E+03  0.7818608E-02  0.1098409E+00
         -3   -1    0    0    0  501 -0.00000000000E+00  0.00000000000E+00  0.15278751442E+02  0.15278751442E+02  0.00000000000E+00 0. -1.
          3   -1    0    0  501    0  0.00000000000E+00 -0.00000000000E+00 -0.12381057315E+04  0.12381057315E+04  0.00000000000E+00 0. -1.
         35    2    1    2    0    0 -0.35527136788E-14  0.00000000000E+00 -0.12228269801E+04  0.12533844830E+04  0.27507606025E+03 0.  0.
         25    2    3    3    0    0  0.41080465026E+01 -0.37588212388E+02 -0.77345396943E+03  0.78437020850E+03  0.12480317060E+03 0.  0.
         25    2    3    3    0    0 -0.41080465026E+01  0.37588212388E+02 -0.44937301065E+03  0.46901427447E+03  0.12887411376E+03 0.  0.
          5    1    4    4  502    0  0.10807088648E+02  0.45009901482E+02 -0.32284854313E+03  0.32618393001E+03  0.47000000000E+01 0.  1.
         -5    1    4    4    0  502 -0.66990421459E+01 -0.82598113871E+02 -0.45060542630E+03  0.45818627849E+03  0.47000000000E+01 0.  1.
          5    1    5    5  503    0  0.51846308058E+02  0.10797417958E+02 -0.33143460756E+03  0.33567188292E+03  0.47000000000E+01 0. -1.
         -5    1    5    5    0  503 -0.55954354561E+02  0.26790794431E+02 -0.11793840309E+03  0.13334239155E+03  0.47000000000E+01 0. -1.
<mgrwt>
<rscale>  0 0.27507606E+03</rscale>
<asrwt>0</asrwt>
<pdfrwt beam="1">  1        3 0.19047779E+00 0.27507606E+03</pdfrwt>
<pdfrwt beam="2">  1       -3 0.23505773E-02 0.27507606E+03</pdfrwt>
<totfact> 0.34576686E+02</totfact>
</mgrwt>
</event>
<event>
 9    1  0.7957670E-001  0.2738736E+03  0.7818608E-02  0.1099083E+00
         -2   -1    0    0    0  501 -0.00000000000E+00  0.00000000000E+00  0.22199259133E+03  0.22199259133E+03  0.00000000000E+00 0. -1.
          2   -1    0    0  501    0  0.00000000000E+00 -0.00000000000E+00 -0.84469891139E+02  0.84469891139E+02  0.00000000000E+00 0. -1.
         35    2    1    2    0    0  0.00000000000E+00  0.14210854715E-13  0.13752270019E+03  0.30646248247E+03  0.27387362066E+03 0.  0.
         25    2    3    3    0    0 -0.43767625266E+01 -0.36195629069E+02  0.11407767300E+03  0.17411720932E+03  0.12638752901E+03 0.  0.
         25    2    3    3    0    0  0.43767625266E+01  0.36195629069E+02  0.23445027193E+02  0.13234527315E+03  0.12504528145E+03 0.  0.
          5    1    4    4  502    0 -0.57692322386E+02  0.64582801854E+01  0.76153049529E+02  0.95872260836E+02  0.47000000000E+01 0.  1.
         -5    1    4    4    0  502  0.53315559859E+02 -0.42653909254E+02  0.37924623471E+02  0.78244948484E+02  0.47000000000E+01 0.  1.
          5    1    5    5  503    0  0.58988504259E+02  0.41506076643E+02  0.27003724515E+02  0.77160152739E+02  0.47000000000E+01 0. -1.
         -5    1    5    5    0  503 -0.54611741732E+02 -0.53104475746E+01 -0.35586973223E+01  0.55185120414E+02  0.47000000000E+01 0. -1.
<mgrwt>
<rscale>  0 0.27387362E+03</rscale>
<asrwt>0</asrwt>
<pdfrwt beam="1">  1        2 0.12995368E-01 0.27387362E+03</pdfrwt>
<pdfrwt beam="2">  1       -2 0.34152706E-01 0.27387362E+03</pdfrwt>
<totfact> 0.37079630E+03</totfact>
</mgrwt>
</event>
<event>
 9    1  0.7957670E-001  0.2762802E+03  0.7818608E-02  0.1097738E+00
          2   -1    0    0  501    0  0.00000000000E+00  0.00000000000E+00  0.28681076295E+03  0.28681076295E+03  0.00000000000E+00 0. -1.
         -2   -1    0    0    0  501 -0.00000000000E+00 -0.00000000000E+00 -0.66534059292E+02  0.66534059292E+02  0.00000000000E+00 0. -1.
         35    2    1    2    0    0 -0.71054273576E-14  0.00000000000E+00  0.22027670365E+03  0.35334482224E+03  0.27628017886E+03 0.  0.
         25    2    3    3    0    0 -0.43805972577E+02  0.33550297303E+02  0.85807929770E+02  0.16148158413E+03  0.12517473994E+03 0.  0.
         25    2    3    3    0    0  0.43805972577E+02 -0.33550297303E+02  0.13446877388E+03  0.19186323811E+03  0.12524003076E+03 0.  0.
          5    1    4    4  502    0  0.25511285685E+01  0.13028638906E+02 -0.31005856157E+02  0.34054468205E+02  0.47000000000E+01 0. -1.
         -5    1    4    4    0  502 -0.46357101146E+02  0.20521658397E+02  0.11681378593E+03  0.12742711592E+03  0.47000000000E+01 0. -1.
          5    1    5    5  503    0  0.29054901811E+02 -0.66261967871E+02  0.25203142442E+02  0.76760172579E+02  0.47000000000E+01 0. -1.
         -5    1    5    5    0  503  0.14751070766E+02  0.32711670568E+02  0.10926563144E+03  0.11510306553E+03  0.47000000000E+01 0. -1.
<mgrwt>
<rscale>  0 0.27628018E+03</rscale>
<asrwt>0</asrwt>
<pdfrwt beam="1">  1        2 0.44124732E-01 0.27628018E+03</pdfrwt>
<pdfrwt beam="2">  1       -2 0.10236009E-01 0.27628018E+03</pdfrwt>
<totfact> 0.72864503E+03</totfact>
</mgrwt>
</event>
<event>
 9    1  0.7957670E-001  0.2757039E+03  0.7818608E-02  0.1098059E+00
         -2   -1    0    0    0  501 -0.00000000000E+00  0.00000000000E+00  0.44833712025E+01  0.44833712025E+01  0.00000000000E+00 0. -1.
          2   -1    0    0  501    0  0.00000000000E+00 -0.00000000000E+00 -0.42385880851E+04  0.42385880851E+04  0.00000000000E+00 0. -1.
         35    2    1    2    0    0 -0.71054273576E-14  0.00000000000E+00 -0.42341047139E+04  0.42430714563E+04  0.27570392641E+03 0.  0.
         25    2    3    3    0    0  0.35401031137E+02  0.43535361398E+02 -0.21279031517E+04  0.21322520386E+04  0.12400956589E+03 0.  0.
         25    2    3    3    0    0 -0.35401031137E+02 -0.43535361398E+02 -0.21062015621E+04  0.21108194176E+04  0.12776945181E+03 0.  0.
          5    1    4    4  502    0  0.71205199339E+02  0.16487258043E+02 -0.17702336444E+04  0.17717480792E+04  0.47000000000E+01 0.  1.
         -5    1    4    4    0  502 -0.35804168201E+02  0.27048103354E+02 -0.35766950728E+03  0.36050395947E+03  0.47000000000E+01 0.  1.
          5    1    5    5  503    0  0.30951488767E+02  0.27467129231E+02 -0.54486792458E+03  0.54645730216E+03  0.47000000000E+01 0.  1.
         -5    1    5    5    0  503 -0.66352519904E+02 -0.71002490628E+02 -0.15613336376E+04  0.15643621155E+04  0.47000000000E+01 0.  1.
<mgrwt>
<rscale>  0 0.27570393E+03</rscale>
<asrwt>0</asrwt>
<pdfrwt beam="1">  1        2 0.65209034E+00 0.27570393E+03</pdfrwt>
<pdfrwt beam="2">  1       -2 0.68974955E-03 0.27570393E+03</pdfrwt>
<totfact> 0.10527344E+03</totfact>
</mgrwt>
</event>
<event>
 9    1  0.7957670E-001  0.2761198E+03  0.7818608E-02  0.1097827E+00
          1   -1    0    0  501    0  0.00000000000E+00  0.00000000000E+00  0.76020704708E+03  0.76020704708E+03  0.00000000000E+00 0. -1.
         -1   -1    0    0    0  501 -0.00000000000E+00 -0.00000000000E+00 -0.25072816643E+02  0.25072816643E+02  0.00000000000E+00 0. -1.
         35    2    1    2    0    0  0.00000000000E+00 -0.71054273576E-14  0.73513423044E+03  0.78527986373E+03  0.27611977041E+03 0.  0.
         25    2    3    3    0    0  0.48888275413E+02 -0.33178272771E+02  0.40953668367E+03  0.43187549655E+03  0.12371454235E+03 0.  0.
         25    2    3    3    0    0 -0.48888275413E+02  0.33178272771E+02  0.32559754677E+03  0.35340436718E+03  0.12405653156E+03 0.  0.
          5    1    4    4  502    0  0.12577807350E+02 -0.70680659494E+02  0.14124584096E+03  0.15851319962E+03  0.47000000000E+01 0. -1.
         -5    1    4    4    0  502  0.36310468063E+02  0.37502386723E+02  0.26829084271E+03  0.27336229693E+03  0.47000000000E+01 0. -1.
          5    1    5    5  503    0 -0.12900170726E+02 -0.41643583573E+02  0.55132768264E+02  0.70443698043E+02  0.47000000000E+01 0.  1.
         -5    1    5    5    0  503 -0.35988104687E+02  0.74821856344E+02  0.27046477851E+03  0.28296066914E+03  0.47000000000E+01 0.  1.
<mgrwt>
<rscale>  0 0.27611977E+03</rscale>
<asrwt>0</asrwt>
<pdfrwt beam="1">  1        1 0.11695491E+00 0.27611977E+03</pdfrwt>
<pdfrwt beam="2">  1       -1 0.38573570E-02 0.27611977E+03</pdfrwt>
<totfact> 0.64561348E+03</totfact>
</mgrwt>
</event>
<event>
 9    1  0.7957670E-001  0.2741420E+03  0.7818608E-02  0.1098932E+00
         -2   -1    0    0    0  501 -0.00000000000E+00  0.00000000000E+00  0.73650443854E+02  0.73650443854E+02  0.00000000000E+00 0. -1.
          2   -1    0    0  501    0  0.00000000000E+00 -0.00000000000E+00 -0.25510307724E+03  0.25510307724E+03  0.00000000000E+00 0. -1.
         35    2    1    2    0    0  0.00000000000E+00  0.00000000000E+00 -0.18145263339E+03  0.32875352110E+03  0.27414196955E+03 0.  0.
         25    2    3    3    0    0  0.17929051364E+02  0.30637113388E+02 -0.13939990497E+03  0.19152448123E+03  0.12644844723E+03 0.  0.
         25    2    3    3    0    0 -0.17929051364E+02 -0.30637113388E+02 -0.42052728420E+02  0.13722903986E+03  0.12571115231E+03 0.  0.
          5    1    4    4  502    0  0.37863510041E+02 -0.85159752881E+01 -0.14197921323E+03  0.14726287454E+03  0.47000000000E+01 0. -1.
         -5    1    4    4    0  502 -0.19934458677E+02  0.39153088676E+02  0.25793082666E+01  0.44261606690E+02  0.47000000000E+01 0. -1.
          5    1    5    5  503    0 -0.91426465890E+01 -0.67426351485E+02 -0.63759670982E+02  0.93366409939E+02  0.47000000000E+01 0. -1.
         -5    1    5    5    0  503 -0.87864047754E+01  0.36789238097E+02  0.21706942562E+02  0.43862629926E+02  0.47000000000E+01 0. -1.
<mgrwt>
<rscale>  0 0.27414197E+03</rscale>
<asrwt>0</asrwt>
<pdfrwt beam="1">  1        2 0.39246627E-01 0.27414197E+03</pdfrwt>
<pdfrwt beam="2">  1       -2 0.11330838E-01 0.27414197E+03</pdfrwt>
<totfact> 0.70240574E+03</totfact>
</mgrwt>
</event>
<event>
 9    1  0.7957670E-001  0.2745377E+03  0.7818608E-02  0.1098710E+00
         -2   -1    0    0    0  501 -0.00000000000E+00  0.00000000000E+00  0.32296263939E+02  0.32296263939E+02  0.00000000000E+00 0. -1.
          2   -1    0    0  501    0  0.00000000000E+00 -0.00000000000E+00 -0.58343381596E+03  0.58343381596E+03  0.00000000000E+00 0. -1.
         35    2    1    2    0    0  0.17763568394E-14  0.00000000000E+00 -0.55113755202E+03  0.61573007990E+03  0.27453766598E+03 0.  0.
         25    2    3    3    0    0  0.98669806240E+01  0.28369741095E+02 -0.37501553944E+03  0.39686730241E+03  0.12635189504E+03 0.  0.
         25    2    3    3    0    0 -0.98669806240E+01 -0.28369741095E+02 -0.17612201258E+03  0.21886277749E+03  0.12641104596E+03 0.  0.
          5    1    4    4  502    0 -0.14823421231E+02 -0.15888202073E+02 -0.32414673216E+03  0.32490823744E+03  0.47000000000E+01 0.  1.
         -5    1    4    4    0  502  0.24690401855E+02  0.44257943169E+02 -0.50868807278E+02  0.71959064969E+02  0.47000000000E+01 0.  1.
          5    1    5    5  503    0 -0.57808370965E+02 -0.63951171751E+01 -0.34780941340E+02  0.67930178550E+02  0.47000000000E+01 0. -1.
         -5    1    5    5    0  503  0.47941390341E+02 -0.21974623920E+02 -0.14134107124E+03  0.15093259894E+03  0.47000000000E+01 0. -1.
<mgrwt>
<rscale>  0 0.27453767E+03</rscale>
<asrwt>0</asrwt>
<pdfrwt beam="1">  1        2 0.89759046E-01 0.27453767E+03</pdfrwt>
<pdfrwt beam="2">  1       -2 0.49686561E-02 0.27453767E+03</pdfrwt>
<totfact> 0.10255732E+04</totfact>
</mgrwt>
</event>
<event>
 9    1  0.7957670E-001  0.2790945E+03  0.7818608E-02  0.1096185E+00
         -1   -1    0    0    0  501 -0.00000000000E+00  0.00000000000E+00  0.14051407805E+03  0.14051407805E+03  0.00000000000E+00 0. -1.
          1   -1    0    0  501    0  0.00000000000E+00 -0.00000000000E+00 -0.13858710293E+03  0.13858710293E+03  0.00000000000E+00 0. -1.
         35    2    1    2    0    0  0.00000000000E+00  0.00000000000E+00  0.19269751222E+01  0.27910118098E+03  0.27909452877E+03 0.  0.
         25    2    3    3    0    0  0.44942553746E+02  0.31596234234E+02 -0.30500048697E+02  0.13960992521E+03  0.12466965586E+03 0.  0.
         25    2    3    3    0    0 -0.44942553746E+02 -0.31596234234E+02  0.32427023819E+02  0.13949125577E+03  0.12404895569E+03 0.  0.
          5    1    4    4  502    0  0.38974791087E+02  0.68659864817E+02  0.14931577924E+02  0.80487597780E+02  0.47000000000E+01 0. -1.
         -5    1    4    4    0  502  0.59677626586E+01 -0.37063630583E+02 -0.45431626621E+02  0.59122327429E+02  0.47000000000E+01 0. -1.
          5    1    5    5  503    0 -0.32378353854E+02 -0.19702278032E+02  0.80001828225E+02  0.88650550350E+02  0.47000000000E+01 0.  1.
         -5    1    5    5    0  503 -0.12564199891E+02 -0.11893956203E+02 -0.47574804406E+02  0.50840705418E+02  0.47000000000E+01 0.  1.
<mgrwt>
<rscale>  0 0.27909453E+03</rscale>
<asrwt>0</asrwt>
<pdfrwt beam="1">  1        1 0.21321093E-01 0.27909453E+03</pdfrwt>
<pdfrwt beam="2">  1       -1 0.21617550E-01 0.27909453E+03</pdfrwt>
<totfact> 0.41461255E+03</totfact>
</mgrwt>
</event>
<event>
 9    1  0.7957670E-001  0.2745202E+03  0.7818608E-02  0.1098720E+00
         -2   -1    0    0    0  501 -0.00000000000E+00  0.00000000000E+00  0.11273480735E+03  0.11273480735E+03  0.00000000000E+00 0.  1.
          2   -1    0    0  501    0  0.00000000000E+00 -0.00000000000E+00 -0.16712089395E+03  0.16712089395E+03  0.00000000000E+00 0.  1.
         35    2    1    2    0    0  0.00000000000E+00  0.71054273576E-14 -0.54386086595E+02  0.27985570130E+03  0.27452024904E+03 0.  0.
         25    2    3    3    0    0  0.18137651873E+02 -0.54756969003E+02 -0.27719138628E+02  0.13976370072E+03  0.12425071961E+03 0.  0.
         25    2    3    3    0    0 -0.18137651873E+02  0.54756969003E+02 -0.26666947967E+02  0.14009200057E+03  0.12484927890E+03 0.  0.
          5    1    4    4  502    0  0.65032787903E+02 -0.27450207168E+02 -0.43506942593E+02  0.83052522115E+02  0.47000000000E+01 0. -1.
         -5    1    4    4    0  502 -0.46895136029E+02 -0.27306761836E+02  0.15787803965E+02  0.56711178609E+02  0.47000000000E+01 0. -1.
          5    1    5    5  503    0  0.52331958358E+02  0.19564524613E+02 -0.24412659098E+02  0.61151225769E+02  0.47000000000E+01 0. -1.
         -5    1    5    5    0  503 -0.70469610231E+02  0.35192444390E+02 -0.22542888689E+01  0.78940774803E+02  0.47000000000E+01 0. -1.
<mgrwt>
<rscale>  0 0.27452025E+03</rscale>
<asrwt>0</asrwt>
<pdfrwt beam="1">  1        2 0.25710907E-01 0.27452025E+03</pdfrwt>
<pdfrwt beam="2">  1       -2 0.17343817E-01 0.27452025E+03</pdfrwt>
<totfact> 0.55486586E+03</totfact>
</mgrwt>
</event>
<event>
 9    1  0.7957670E-001  0.2681343E+03  0.7818608E-02  0.1102352E+00
          1   -1    0    0  501    0  0.00000000000E+00  0.00000000000E+00  0.31784351898E+03  0.31784351898E+03  0.00000000000E+00 0. -1.
         -1   -1    0    0    0  501 -0.00000000000E+00 -0.00000000000E+00 -0.56549823876E+02  0.56549823876E+02  0.00000000000E+00 0. -1.
         35    2    1    2    0    0  0.00000000000E+00  0.00000000000E+00  0.26129369510E+03  0.37439334285E+03  0.26813425755E+03 0.  0.
         25    2    3    3    0    0 -0.44312398504E+02 -0.71341907528E+01  0.13441478739E+03  0.18914877348E+03  0.12528143558E+03 0.  0.
         25    2    3    3    0    0  0.44312398504E+02  0.71341907528E+01  0.12687890771E+03  0.18524456937E+03  0.12729025069E+03 0.  0.
          5    1    4    4  502    0 -0.78213349256E+02 -0.35644495901E+02  0.70625082806E+02  0.11134563490E+03  0.47000000000E+01 0. -1.
         -5    1    4    4    0  502  0.33900950752E+02  0.28510305148E+02  0.63789704588E+02  0.77803138581E+02  0.47000000000E+01 0. -1.
          5    1    5    5  503    0  0.87220090454E+02  0.20178418436E+02  0.79220100467E+02  0.11963455633E+03  0.47000000000E+01 0. -1.
         -5    1    5    5    0  503 -0.42907691950E+02 -0.13044227684E+02  0.47658807238E+02  0.65610013044E+02  0.47000000000E+01 0. -1.
<mgrwt>
<rscale>  0 0.26813426E+03</rscale>
<asrwt>0</asrwt>
<pdfrwt beam="1">  1        1 0.48899002E-01 0.26813426E+03</pdfrwt>
<pdfrwt beam="2">  1       -1 0.86999731E-02 0.26813426E+03</pdfrwt>
<totfact> 0.61098937E+03</totfact>
</mgrwt>
</event>
<event>
 9    1  0.7957670E-001  0.2751817E+03  0.7818608E-02  0.1098350E+00
          2   -1    0    0  501    0  0.00000000000E+00  0.00000000000E+00  0.41407467829E+04  0.41407467829E+04  0.00000000000E+00 0. -1.
         -2   -1    0    0    0  501 -0.00000000000E+00 -0.00000000000E+00 -0.45719374333E+01  0.45719374333E+01  0.00000000000E+00 0. -1.
         35    2    1    2    0    0 -0.35527136788E-14 -0.71054273576E-14  0.41361748455E+04  0.41453187203E+04  0.27518165069E+03 0.  0.
         25    2    3    3    0    0 -0.19659337422E+02 -0.51304890176E+02  0.23621456021E+04  0.23660911347E+04  0.12504691549E+03 0.  0.
         25    2    3    3    0    0  0.19659337422E+02  0.51304890176E+02  0.17740292434E+04  0.17792275856E+04  0.12430753682E+03 0.  0.
          5    1    4    4  502    0  0.16780462039E+02 -0.34624255404E+02  0.20879942227E+03  0.21236692706E+03  0.47000000000E+01 0. -1.
         -5    1    4    4    0  502 -0.36439799461E+02 -0.16680634772E+02  0.21533461798E+04  0.21537242077E+04  0.47000000000E+01 0. -1.
          5    1    5    5  503    0  0.63297315850E+02  0.46191369035E+02  0.71884251890E+03  0.72311606934E+03  0.47000000000E+01 0.  1.
         -5    1    5    5    0  503 -0.43637978428E+02  0.51135211402E+01  0.10551867245E+04  0.10561115162E+04  0.47000000000E+01 0.  1.
<mgrwt>
<rscale>  0 0.27518165E+03</rscale>
<asrwt>0</asrwt>
<pdfrwt beam="1">  1        2 0.63703497E+00 0.27518165E+03</pdfrwt>
<pdfrwt beam="2">  1       -2 0.70337830E-03 0.27518165E+03</pdfrwt>
<totfact> 0.12311071E+03</totfact>
</mgrwt>
</event>
<event>
 9    1  0.7957670E-001  0.2748992E+03  0.7818608E-02  0.1098508E+00
         -1   -1    0    0    0  501 -0.00000000000E+00  0.00000000000E+00  0.28439303532E+02  0.28439303532E+02  0.00000000000E+00 0. -1.
          1   -1    0    0  501    0  0.00000000000E+00 -0.00000000000E+00 -0.66430589195E+03  0.66430589195E+03  0.00000000000E+00 0. -1.
         35    2    1    2    0    0  0.00000000000E+00  0.00000000000E+00 -0.63586658842E+03  0.69274519548E+03  0.27489923171E+03 0.  0.
         25    2    3    3    0    0 -0.49543807023E+02  0.24329156381E+02 -0.29225729328E+03  0.32305976531E+03  0.12612212264E+03 0.  0.
         25    2    3    3    0    0  0.49543807023E+02 -0.24329156381E+02 -0.34360929514E+03  0.36968543017E+03  0.12471356348E+03 0.  0.
          5    1    4    4  502    0  0.31018632418E+02  0.10255722210E+02 -0.19655254557E+02  0.38415549285E+02  0.47000000000E+01 0.  1.
         -5    1    4    4    0  502 -0.80562439441E+02  0.14073434172E+02 -0.27260203873E+03  0.28464421602E+03  0.47000000000E+01 0.  1.
          5    1    5    5  503    0 -0.25781521379E+02 -0.44442165070E+00 -0.22841264179E+03  0.22991152490E+03  0.47000000000E+01 0.  1.
         -5    1    5    5    0  503  0.75325328401E+02 -0.23884734730E+02 -0.11519665335E+03  0.13977390527E+03  0.47000000000E+01 0.  1.
<mgrwt>
<rscale>  0 0.27489923E+03</rscale>
<asrwt>0</asrwt>
<pdfrwt beam="1">  1        1 0.10220090E+00 0.27489923E+03</pdfrwt>
<pdfrwt beam="2">  1       -1 0.43752779E-02 0.27489923E+03</pdfrwt>
<totfact> 0.65233199E+03</totfact>
</mgrwt>
</event>
<event>
 9    1  0.7957670E-001  0.2748292E+03  0.7818608E-02  0.1098547E+00
          2   -1    0    0  501    0  0.00000000000E+00  0.00000000000E+00  0.18226198587E+03  0.18226198587E+03  0.00000000000E+00 0.  1.
         -2   -1    0    0    0  501 -0.00000000000E+00 -0.00000000000E+00 -0.10360235981E+03  0.10360235981E+03  0.00000000000E+00 0.  1.
         35    2    1    2    0    0  0.71054273576E-14 -0.71054273576E-14  0.78659626063E+02  0.28586434568E+03  0.27482919670E+03 0.  0.
         25    2    3    3    0    0  0.23722392907E+02  0.20160019183E+02 -0.11446451334E+02  0.12875040125E+03  0.12440444637E+03 0.  0.
         25    2    3    3    0    0 -0.23722392907E+02 -0.20160019183E+02  0.90106077396E+02  0.15711394443E+03  0.12488598021E+03 0.  0.
          5    1    4    4  502    0  0.54640020895E+02  0.54388209865E+02 -0.23705225166E+02  0.80793792806E+02  0.47000000000E+01 0.  1.
         -5    1    4    4    0  502 -0.30917627988E+02 -0.34228190683E+02  0.12258773832E+02  0.47956608447E+02  0.47000000000E+01 0.  1.
          5    1    5    5  503    0 -0.52182629502E+02  0.11729749180E+02 -0.38059132519E+01  0.53825540529E+02  0.47000000000E+01 0. -1.
         -5    1    5    5    0  503  0.28460236595E+02 -0.31889768363E+02  0.93911990648E+02  0.10328840390E+03  0.47000000000E+01 0. -1.
<mgrwt>
<rscale>  0 0.27482920E+03</rscale>
<asrwt>0</asrwt>
<pdfrwt beam="1">  1        2 0.28040305E-01 0.27482920E+03</pdfrwt>
<pdfrwt beam="2">  1       -2 0.15938825E-01 0.27482920E+03</pdfrwt>
<totfact> 0.58041949E+03</totfact>
</mgrwt>
</event>
<event>
 9    1  0.7957670E-001  0.2776832E+03  0.7818608E-02  0.1096961E+00
         -2   -1    0    0    0  501 -0.00000000000E+00  0.00000000000E+00  0.44897101727E+03  0.44897101727E+03  0.00000000000E+00 0. -1.
          2   -1    0    0  501    0  0.00000000000E+00 -0.00000000000E+00 -0.42935942661E+02  0.42935942661E+02  0.00000000000E+00 0. -1.
         35    2    1    2    0    0 -0.35527136788E-14  0.00000000000E+00  0.40603507460E+03  0.49190695993E+03  0.27768322855E+03 0.  0.
         25    2    3    3    0    0  0.11068335597E+02  0.44779088864E+02  0.13814934916E+03  0.19211010427E+03  0.12527319999E+03 0.  0.
         25    2    3    3    0    0 -0.11068335597E+02 -0.44779088864E+02  0.26788572544E+03  0.29979685566E+03  0.12644254788E+03 0.  0.
          5    1    4    4  502    0  0.37026705261E+02 -0.92392758825E+01  0.12472009053E+03  0.13051257451E+03  0.47000000000E+01 0.  1.
         -5    1    4    4    0  502 -0.25958369665E+02  0.54018364747E+02  0.13429258627E+02  0.61597529762E+02  0.47000000000E+01 0.  1.
          5    1    5    5  503    0  0.21296834103E+02 -0.53159898546E+02  0.41430042739E+02  0.70838325767E+02  0.47000000000E+01 0. -1.
         -5    1    5    5    0  503 -0.32365169700E+02  0.83808096814E+01  0.22645568271E+03  0.22895852989E+03  0.47000000000E+01 0. -1.
<mgrwt>
<rscale>  0 0.27768323E+03</rscale>
<asrwt>0</asrwt>
<pdfrwt beam="1">  1        2 0.66055299E-02 0.27768323E+03</pdfrwt>
<pdfrwt beam="2">  1       -2 0.69072461E-01 0.27768323E+03</pdfrwt>
<totfact> 0.21342309E+03</totfact>
</mgrwt>
</event>
<event>
 9    1  0.7957670E-001  0.2684052E+03  0.7818608E-02  0.1102196E+00
         -2   -1    0    0    0  501 -0.00000000000E+00  0.00000000000E+00  0.87395841972E+01  0.87395841972E+01  0.00000000000E+00 0. -1.
          2   -1    0    0  501    0  0.00000000000E+00 -0.00000000000E+00 -0.20607781563E+04  0.20607781563E+04  0.00000000000E+00 0. -1.
         35    2    1    2    0    0  0.00000000000E+00 -0.71054273576E-14 -0.20520385721E+04  0.20695177405E+04  0.26840524741E+03 0.  0.
         25    2    3    3    0    0  0.33190788166E+02 -0.23421410143E+02 -0.11885146800E+04  0.11957579185E+04  0.12497865581E+03 0.  0.
         25    2    3    3    0    0 -0.33190788166E+02  0.23421410143E+02 -0.86352389215E+03  0.87375982196E+03  0.12701387045E+03 0.  0.
          5    1    4    4  502    0  0.54110248804E+01 -0.44081813641E+02 -0.14646572920E+03  0.15312343163E+03  0.47000000000E+01 0.  1.
         -5    1    4    4    0  502  0.27779763285E+02  0.20660403499E+02 -0.10420489508E+04  0.10426344869E+04  0.47000000000E+01 0.  1.
          5    1    5    5  503    0 -0.48628134003E+02 -0.26107118332E+02 -0.69888510244E+03  0.70107685275E+03  0.47000000000E+01 0.  1.
         -5    1    5    5    0  503  0.15437345837E+02  0.49528528475E+02 -0.16463878971E+03  0.17268296921E+03  0.47000000000E+01 0.  1.
<mgrwt>
<rscale>  0 0.26840525E+03</rscale>
<asrwt>0</asrwt>
<pdfrwt beam="1">  1        2 0.31704278E+00 0.26840525E+03</pdfrwt>
<pdfrwt beam="2">  1       -2 0.13445515E-02 0.26840525E+03</pdfrwt>
<totfact> 0.95521903E+03</totfact>
</mgrwt>
</event>
<event>
 9    1  0.7957670E-001  0.2758765E+03  0.7818608E-02  0.1097963E+00
         -1   -1    0    0    0  501 -0.00000000000E+00  0.00000000000E+00  0.11741407801E+02  0.11741407801E+02  0.00000000000E+00 0.  1.
          1   -1    0    0  501    0  0.00000000000E+00 -0.00000000000E+00 -0.16205002707E+04  0.16205002707E+04  0.00000000000E+00 0.  1.
         35    2    1    2    0    0  0.00000000000E+00  0.71054273576E-14 -0.16087588629E+04  0.16322416785E+04  0.27587645438E+03 0.  0.
         25    2    3    3    0    0  0.33042630593E+02 -0.40022105627E+02 -0.64886805903E+03  0.66287307378E+03  0.12520930293E+03 0.  0.
         25    2    3    3    0    0 -0.33042630593E+02  0.40022105627E+02 -0.95989080388E+03  0.96936860473E+03  0.12486613667E+03 0.  0.
          5    1    4    4  502    0 -0.21981887405E+02  0.26696594131E+02 -0.77728578228E+02  0.85204069066E+02  0.47000000000E+01 0.  1.
         -5    1    4    4    0  502  0.55024517997E+02 -0.66718699758E+02 -0.57113948080E+03  0.57766900472E+03  0.47000000000E+01 0.  1.
          5    1    5    5  503    0 -0.37332601972E+02  0.37931075043E+02 -0.96108143791E+03  0.96256537956E+03  0.47000000000E+01 0. -1.
         -5    1    5    5    0  503  0.42899713788E+01  0.20910305837E+01  0.11906340329E+01  0.68032251714E+01  0.47000000000E+01 0. -1.
<mgrwt>
<rscale>  0 0.27587645E+03</rscale>
<asrwt>0</asrwt>
<pdfrwt beam="1">  1        1 0.24930773E+00 0.27587645E+03</pdfrwt>
<pdfrwt beam="2">  1       -1 0.18063704E-02 0.27587645E+03</pdfrwt>
<totfact> 0.47429579E+03</totfact>
</mgrwt>
</event>
<event>
 9    1  0.7957670E-001  0.2730149E+03  0.7818608E-02  0.1099566E+00
         -2   -1    0    0    0  501 -0.00000000000E+00  0.00000000000E+00  0.28748040153E+02  0.28748040153E+02  0.00000000000E+00 0. -1.
          2   -1    0    0  501    0  0.00000000000E+00 -0.00000000000E+00 -0.64819313601E+03  0.64819313601E+03  0.00000000000E+00 0. -1.
         35    2    1    2    0    0  0.00000000000E+00  0.71054273576E-14 -0.61944509586E+03  0.67694117617E+03  0.27301488824E+03 0.  0.
         25    2    3    3    0    0  0.15622252468E+02  0.60170775081E+01 -0.43267181216E+03  0.45091552684E+03  0.12585569239E+03 0.  0.
         25    2    3    3    0    0 -0.15622252468E+02 -0.60170775081E+01 -0.18677328370E+03  0.22602564933E+03  0.12618666593E+03 0.  0.
          5    1    4    4  502    0 -0.27917994078E+02  0.44592842938E+02 -0.31683490246E+03  0.32120769208E+03  0.47000000000E+01 0.  1.
         -5    1    4    4    0  502  0.43540246545E+02 -0.38575765430E+02 -0.11583690971E+03  0.12970783476E+03  0.47000000000E+01 0.  1.
          5    1    5    5  503    0 -0.48750636394E+02 -0.46977789638E+02 -0.13931198074E+03  0.15496275438E+03  0.47000000000E+01 0. -1.
         -5    1    5    5    0  503  0.33128383927E+02  0.40960712130E+02 -0.47461302956E+02  0.71062894946E+02  0.47000000000E+01 0. -1.
<mgrwt>
<rscale>  0 0.27301489E+03</rscale>
<asrwt>0</asrwt>
<pdfrwt beam="1">  1        2 0.99722005E-01 0.27301489E+03</pdfrwt>
<pdfrwt beam="2">  1       -2 0.44227761E-02 0.27301489E+03</pdfrwt>
<totfact> 0.10814525E+04</totfact>
</mgrwt>
</event>
<event>
 9    1  0.7957670E-001  0.2731162E+03  0.7818608E-02  0.1099509E+00
         -2   -1    0    0    0  501 -0.00000000000E+00  0.00000000000E+00  0.13723578787E+04  0.13723578787E+04  0.00000000000E+00 0.  1.
          2   -1    0    0  501    0  0.00000000000E+00 -0.00000000000E+00 -0.13588378961E+02  0.13588378961E+02  0.00000000000E+00 0.  1.
         35    2    1    2    0    0  0.35527136788E-14 -0.71054273576E-14  0.13587694997E+04  0.13859462577E+04  0.27311623112E+03 0.  0.
         25    2    3    3    0    0 -0.11401207173E+02  0.44190318311E+02  0.49068609008E+03  0.50829441387E+03  0.12452951627E+03 0.  0.
         25    2    3    3    0    0  0.11401207173E+02 -0.44190318311E+02  0.86808340966E+03  0.87765184379E+03  0.12091807563E+03 0.  0.
          5    1    4    4  502    0  0.21817535650E+02  0.54271064449E+02  0.45321616035E+03  0.45699926838E+03  0.47000000000E+01 0.  1.
         -5    1    4    4    0  502 -0.33218742823E+02 -0.10080746138E+02  0.37469929725E+02  0.51295145492E+02  0.47000000000E+01 0.  1.
          5    1    5    5  503    0 -0.16096994454E+02 -0.51687759423E+02  0.81824200855E+03  0.82004439652E+03  0.47000000000E+01 0. -1.
         -5    1    5    5    0  503  0.27498201627E+02  0.74974411111E+01  0.49841401112E+02  0.57607447268E+02  0.47000000000E+01 0. -1.
<mgrwt>
<rscale>  0 0.27311623E+03</rscale>
<asrwt>0</asrwt>
<pdfrwt beam="1">  1        2 0.20905209E-02 0.27311623E+03</pdfrwt>
<pdfrwt beam="2">  1       -2 0.21113187E+00 0.27311623E+03</pdfrwt>
<totfact> 0.63267161E+02</totfact>
</mgrwt>
</event>
<event>
 9    1  0.7957670E-001  0.3263834E+03  0.7818608E-02  0.1072748E+00
          1   -1    0    0  501    0  0.00000000000E+00  0.00000000000E+00  0.37661121925E+03  0.37661121925E+03  0.00000000000E+00 0. -1.
         -1   -1    0    0    0  501 -0.00000000000E+00 -0.00000000000E+00 -0.70713597926E+02  0.70713597926E+02  0.00000000000E+00 0. -1.
         35    2    1    2    0    0  0.00000000000E+00  0.71054273576E-14  0.30589762133E+03  0.44732481718E+03  0.32638342073E+03 0.  0.
         25    2    3    3    0    0 -0.52988421606E+02  0.36800838841E+02  0.38306984609E+02  0.14562289560E+03  0.12480596176E+03 0.  0.
         25    2    3    3    0    0  0.52988421606E+02 -0.36800838841E+02  0.26759063672E+03  0.30170192158E+03  0.12352014435E+03 0.  0.
          5    1    4    4  502    0 -0.47873817238E+02  0.65816547713E+02  0.66020106642E+02  0.10490216781E+03  0.47000000000E+01 0.  1.
         -5    1    4    4    0  502 -0.51146043676E+01 -0.29015708872E+02 -0.27713122033E+02  0.40720727793E+02  0.47000000000E+01 0.  1.
          5    1    5    5  503    0  0.30259103146E+02  0.60980332464E-01  0.25433144714E+03  0.25616828853E+03  0.47000000000E+01 0. -1.
         -5    1    5    5    0  503  0.22729318460E+02 -0.36861819174E+02  0.13259189575E+02  0.45533633049E+02  0.47000000000E+01 0. -1.
<mgrwt>
<rscale>  0 0.32638342E+03</rscale>
<asrwt>0</asrwt>
<pdfrwt beam="1">  1        1 0.57940187E-01 0.32638342E+03</pdfrwt>
<pdfrwt beam="2">  1       -1 0.10879015E-01 0.32638342E+03</pdfrwt>
<totfact> 0.35039268E+03</totfact>
</mgrwt>
</event>
<event>
 9    1  0.7957670E-001  0.2762585E+03  0.7818608E-02  0.1097750E+00
          1   -1    0    0  501    0  0.00000000000E+00  0.00000000000E+00  0.32642562648E+04  0.32642562648E+04  0.00000000000E+00 0.  1.
         -1   -1    0    0    0  501 -0.00000000000E+00 -0.00000000000E+00 -0.58450344644E+01  0.58450344644E+01  0.00000000000E+00 0.  1.
         35    2    1    2    0    0 -0.35527136788E-14  0.00000000000E+00  0.32584112304E+04  0.32701012993E+04  0.27625850480E+03 0.  0.
         25    2    3    3    0    0  0.11722147164E+02 -0.25144598939E+02  0.10174230713E+04  0.10254019350E+04  0.12461846927E+03 0.  0.
         25    2    3    3    0    0 -0.11722147164E+02  0.25144598939E+02  0.22409881591E+04  0.22446993642E+04  0.12600653554E+03 0.  0.
          5    1    4    4  502    0  0.44858938490E+02  0.21934704646E+02  0.75653300753E+03  0.75819373323E+03  0.47000000000E+01 0.  1.
         -5    1    4    4    0  502 -0.33136791326E+02 -0.47079303586E+02  0.26089006373E+03  0.26720820181E+03  0.47000000000E+01 0.  1.
          5    1    5    5  503    0 -0.61001260477E+01  0.13386370766E+02  0.30678451168E+02  0.34346234526E+02  0.47000000000E+01 0.  1.
         -5    1    5    5    0  503 -0.56220211164E+01  0.11758228173E+02  0.22103097079E+04  0.22103531297E+04  0.47000000000E+01 0.  1.
<mgrwt>
<rscale>  0 0.27625850E+03</rscale>
<asrwt>0</asrwt>
<pdfrwt beam="1">  1        1 0.50219182E+00 0.27625850E+03</pdfrwt>
<pdfrwt beam="2">  1       -1 0.89923868E-03 0.27625850E+03</pdfrwt>
<totfact> 0.10286336E+03</totfact>
</mgrwt>
</event>
<event>
 9    1  0.7957670E-001  0.2735556E+03  0.7818608E-02  0.1099262E+00
         -1   -1    0    0    0  501 -0.00000000000E+00  0.00000000000E+00  0.98031608956E+01  0.98031608956E+01  0.00000000000E+00 0.  1.
          1   -1    0    0  501    0  0.00000000000E+00 -0.00000000000E+00 -0.19083804057E+04  0.19083804057E+04  0.00000000000E+00 0.  1.
         35    2    1    2    0    0 -0.17763568394E-14 -0.35527136788E-14 -0.18985772448E+04  0.19181835666E+04  0.27355555317E+03 0.  0.
         25    2    3    3    0    0  0.22466223277E+01 -0.19647423804E+02 -0.13179188334E+04  0.13239616882E+04  0.12479355587E+03 0.  0.
         25    2    3    3    0    0 -0.22466223277E+01  0.19647423804E+02 -0.58065841135E+03  0.59422187843E+03  0.12467710920E+03 0.  0.
          5    1    4    4  502    0  0.28592625997E+02 -0.19224609545E+02 -0.12562964768E+04  0.12567776460E+04  0.47000000000E+01 0. -1.
         -5    1    4    4    0  502 -0.26346003669E+02 -0.42281425893E+00 -0.61622356600E+02  0.67184042109E+02  0.47000000000E+01 0. -1.
          5    1    5    5  503    0  0.99943840134E+01  0.61496538130E+02 -0.16804629380E+03  0.17928569038E+03  0.47000000000E+01 0. -1.
         -5    1    5    5    0  503 -0.12241006341E+02 -0.41849114326E+02 -0.41261211755E+03  0.41493618805E+03  0.47000000000E+01 0. -1.
<mgrwt>
<rscale>  0 0.27355555E+03</rscale>
<asrwt>0</asrwt>
<pdfrwt beam="1">  1        1 0.29359675E+00 0.27355555E+03</pdfrwt>
<pdfrwt beam="2">  1       -1 0.15081798E-02 0.27355555E+03</pdfrwt>
<totfact> 0.40064278E+03</totfact>
</mgrwt>
</event>
<event>
 9    1  0.7957670E-001  0.2784532E+03  0.7818608E-02  0.1096537E+00
         -2   -1    0    0    0  501 -0.00000000000E+00  0.00000000000E+00  0.35721513523E+03  0.35721513523E+03  0.00000000000E+00 0.  1.
          2   -1    0    0  501    0  0.00000000000E+00 -0.00000000000E+00 -0.54264355069E+02  0.54264355069E+02  0.00000000000E+00 0.  1.
         35    2    1    2    0    0  0.00000000000E+00 -0.14210854715E-13  0.30295078016E+03  0.41147949030E+03  0.27845322002E+03 0.  0.
         25    2    3    3    0    0 -0.33096700574E+02 -0.50401785469E+02  0.17724704877E+03  0.22463646383E+03  0.12413417343E+03 0.  0.
         25    2    3    3    0    0  0.33096700574E+02  0.50401785469E+02  0.12570373139E+03  0.18684302647E+03  0.12439114474E+03 0.  0.
          5    1    4    4  502    0 -0.99651730271E+01  0.12030435563E+02  0.15262515970E+03  0.15349451269E+03  0.47000000000E+01 0. -1.
         -5    1    4    4    0  502 -0.23131527547E+02 -0.62432221032E+02  0.24621889074E+02  0.71141951135E+02  0.47000000000E+01 0. -1.
          5    1    5    5  503    0  0.56913715611E+02 -0.55127500001E+01  0.10973616906E+03  0.12382923014E+03  0.47000000000E+01 0.  1.
         -5    1    5    5    0  503 -0.23817015036E+02  0.55914535469E+02  0.15967562333E+02  0.63013796337E+02  0.47000000000E+01 0.  1.
<mgrwt>
<rscale>  0 0.27845322E+03</rscale>
<asrwt>0</asrwt>
<pdfrwt beam="1">  1        2 0.83483625E-02 0.27845322E+03</pdfrwt>
<pdfrwt beam="2">  1       -2 0.54956173E-01 0.27845322E+03</pdfrwt>
<totfact> 0.25466091E+03</totfact>
</mgrwt>
</event>
<event>
 9    1  0.7957670E-001  0.2728805E+03  0.7818608E-02  0.1099642E+00
         -2   -1    0    0    0  501 -0.00000000000E+00  0.00000000000E+00  0.60888679926E+01  0.60888679926E+01  0.00000000000E+00 0.  1.
          2   -1    0    0  501    0  0.00000000000E+00 -0.00000000000E+00 -0.30573730303E+04  0.30573730303E+04  0.00000000000E+00 0.  1.
         35    2    1    2    0    0  0.71054273576E-14  0.00000000000E+00 -0.30512841623E+04  0.30634618983E+04  0.27288049242E+03 0.  0.
         25    2    3    3    0    0  0.12087981714E+02  0.24766390123E+02 -0.10278769193E+04  0.10360177758E+04  0.12665850547E+03 0.  0.
         25    2    3    3    0    0 -0.12087981714E+02 -0.24766390123E+02 -0.20234072430E+04  0.20274441225E+04  0.12487315842E+03 0.  0.
          5    1    4    4  502    0 -0.57091243887E+02  0.16369884611E+02 -0.44466331932E+03  0.44863675819E+03  0.47000000000E+01 0.  1.
         -5    1    4    4    0  502  0.69179225602E+02  0.83965055118E+01 -0.58321360000E+03  0.58738101756E+03  0.47000000000E+01 0.  1.
          5    1    5    5  503    0 -0.60347409264E+02  0.13200485459E+02 -0.12764281952E+04  0.12779307845E+04  0.47000000000E+01 0. -1.
         -5    1    5    5    0  503  0.48259427550E+02 -0.37966875582E+02 -0.74697904779E+03  0.74951333799E+03  0.47000000000E+01 0. -1.
<mgrwt>
<rscale>  0 0.27288049E+03</rscale>
<asrwt>0</asrwt>
<pdfrwt beam="1">  1        2 0.47036472E+00 0.27288049E+03</pdfrwt>
<pdfrwt beam="2">  1       -2 0.93674964E-03 0.27288049E+03</pdfrwt>
<totfact> 0.45155491E+03</totfact>
</mgrwt>
</event>
<event>
 9    1  0.7957670E-001  0.2756428E+03  0.7818608E-02  0.1098093E+00
          2   -1    0    0  501    0  0.00000000000E+00  0.00000000000E+00  0.20928986083E+04  0.20928986083E+04  0.00000000000E+00 0.  1.
         -2   -1    0    0    0  501 -0.00000000000E+00 -0.00000000000E+00 -0.90758010721E+01  0.90758010721E+01  0.00000000000E+00 0.  1.
         35    2    1    2    0    0 -0.35527136788E-14 -0.14210854715E-13  0.20838228072E+04  0.21019744093E+04  0.27564275019E+03 0.  0.
         25    2    3    3    0    0 -0.21124341988E+02  0.34489864397E+02  0.72583972986E+03  0.73760568918E+03  0.12483209003E+03 0.  0.
         25    2    3    3    0    0  0.21124341988E+02 -0.34489864397E+02  0.13579830773E+04  0.13643687201E+04  0.12549174331E+03 0.  0.
          5    1    4    4  502    0  0.23868835639E+02 -0.32237893358E+02  0.39612197222E+03  0.39817547634E+03  0.47000000000E+01 0.  1.
         -5    1    4    4    0  502 -0.44993177627E+02  0.66727757755E+02  0.32971775764E+03  0.33943021285E+03  0.47000000000E+01 0.  1.
          5    1    5    5  503    0  0.63020964948E+02 -0.53169189095E+02  0.10047557963E+04  0.10081442878E+04  0.47000000000E+01 0. -1.
         -5    1    5    5    0  503 -0.41896622960E+02  0.18679324698E+02  0.35322728099E+03  0.35622443237E+03  0.47000000000E+01 0. -1.
<mgrwt>
<rscale>  0 0.27564275E+03</rscale>
<asrwt>0</asrwt>
<pdfrwt beam="1">  1        2 0.32198402E+00 0.27564275E+03</pdfrwt>
<pdfrwt beam="2">  1       -2 0.13962788E-02 0.27564275E+03</pdfrwt>
<totfact> 0.86959339E+03</totfact>
</mgrwt>
</event>
<event>
 9    1  0.7957670E-001  0.2738996E+03  0.7818608E-02  0.1099068E+00
          1   -1    0    0  501    0  0.00000000000E+00  0.00000000000E+00  0.12540591065E+04  0.12540591065E+04  0.00000000000E+00 0. -1.
         -1   -1    0    0    0  501 -0.00000000000E+00 -0.00000000000E+00 -0.14955636227E+02  0.14955636227E+02  0.00000000000E+00 0. -1.
         35    2    1    2    0    0  0.00000000000E+00  0.00000000000E+00  0.12391034703E+04  0.12690147428E+04  0.27389962983E+03 0.  0.
         25    2    3    3    0    0 -0.11228761780E+02  0.94045331634E+01  0.36774496190E+03  0.38864446587E+03  0.12487447102E+03 0.  0.
         25    2    3    3    0    0  0.11228761780E+02 -0.94045331634E+01  0.87135850840E+03  0.88037027688E+03  0.12478639321E+03 0.  0.
          5    1    4    4  502    0 -0.20448162396E+02  0.45420297321E+02  0.57816954517E+02  0.76459276636E+02  0.47000000000E+01 0. -1.
         -5    1    4    4    0  502  0.92194006160E+01 -0.36015764157E+02  0.30992800739E+03  0.31218518924E+03  0.47000000000E+01 0. -1.
          5    1    5    5  503    0  0.12815499528E+02  0.55838221134E+02  0.31764432432E+03  0.32280357919E+03  0.47000000000E+01 0. -1.
         -5    1    5    5    0  503 -0.15867377475E+01 -0.65242754297E+02  0.55371418408E+03  0.55756669769E+03  0.47000000000E+01 0. -1.
<mgrwt>
<rscale>  0 0.27389963E+03</rscale>
<asrwt>0</asrwt>
<pdfrwt beam="1">  1        1 0.19293209E+00 0.27389963E+03</pdfrwt>
<pdfrwt beam="2">  1       -1 0.23008681E-02 0.27389963E+03</pdfrwt>
<totfact> 0.58576314E+03</totfact>
</mgrwt>
</event>
<event>
 9    1  0.7957670E-001  0.2726397E+03  0.7818608E-02  0.1099778E+00
          2   -1    0    0  501    0  0.00000000000E+00  0.00000000000E+00  0.31372783265E+03  0.31372783265E+03  0.00000000000E+00 0. -1.
         -2   -1    0    0    0  501 -0.00000000000E+00 -0.00000000000E+00 -0.59233196766E+02  0.59233196766E+02  0.00000000000E+00 0. -1.
         35    2    1    2    0    0  0.00000000000E+00  0.00000000000E+00  0.25449463588E+03  0.37296102942E+03  0.27263970688E+03 0.  0.
         25    2    3    3    0    0 -0.10014137120E+02  0.40517137693E+02  0.17538761755E+03  0.21940153663E+03  0.12503718046E+03 0.  0.
         25    2    3    3    0    0  0.10014137120E+02 -0.40517137693E+02  0.79107018339E+02  0.15355949279E+03  0.12482257843E+03 0.  0.
          5    1    4    4  502    0  0.28132835405E+02  0.41664364707E+02  0.12472381132E+02  0.52009864501E+02  0.47000000000E+01 0.  1.
         -5    1    4    4    0  502 -0.38146972525E+02 -0.11472270142E+01  0.16291523641E+03  0.16739167213E+03  0.47000000000E+01 0.  1.
          5    1    5    5  503    0 -0.54295616607E+02  0.41359024388E+00  0.41033832385E+02  0.68220601286E+02  0.47000000000E+01 0.  1.
         -5    1    5    5    0  503  0.64309753727E+02 -0.40930727937E+02  0.38073185954E+02  0.85338891501E+02  0.47000000000E+01 0.  1.
<mgrwt>
<rscale>  0 0.27263971E+03</rscale>
<asrwt>0</asrwt>
<pdfrwt beam="1">  1        2 0.48265819E-01 0.27263971E+03</pdfrwt>
<pdfrwt beam="2">  1       -2 0.91127997E-02 0.27263971E+03</pdfrwt>
<totfact> 0.79506968E+03</totfact>
</mgrwt>
</event>
<event>
 9    1  0.7957670E-001  0.2800635E+03  0.7818608E-02  0.1095654E+00
         -2   -1    0    0    0  501 -0.00000000000E+00  0.00000000000E+00  0.45742318696E+02  0.45742318696E+02  0.00000000000E+00 0.  1.
          2   -1    0    0  501    0  0.00000000000E+00 -0.00000000000E+00 -0.42868158221E+03  0.42868158221E+03  0.00000000000E+00 0.  1.
         35    2    1    2    0    0 -0.71054273576E-14 -0.71054273576E-14 -0.38293926352E+03  0.47442390091E+03  0.28006348961E+03 0.  0.
         25    2    3    3    0    0 -0.63626163963E+02  0.40122628245E+01 -0.19871262215E+03  0.24318757505E+03  0.12485633128E+03 0.  0.
         25    2    3    3    0    0  0.63626163963E+02 -0.40122628245E+01 -0.18422664137E+03  0.23123632586E+03  0.12436396590E+03 0.  0.
          5    1    4    4  502    0 -0.16058464158E+02 -0.58068606867E+02 -0.10384008785E+03  0.12014445979E+03  0.47000000000E+01 0. -1.
         -5    1    4    4    0  502 -0.47567699805E+02  0.62080869692E+02 -0.94872534306E+02  0.12304311526E+03  0.47000000000E+01 0. -1.
          5    1    5    5  503    0  0.16577226440E+02 -0.48924857176E+02 -0.14758226448E+03  0.15643228846E+03  0.47000000000E+01 0.  1.
         -5    1    5    5    0  503  0.47048937523E+02  0.44912594351E+02 -0.36644376890E+02  0.74804037398E+02  0.47000000000E+01 0.  1.
<mgrwt>
<rscale>  0 0.28006349E+03</rscale>
<asrwt>0</asrwt>
<pdfrwt beam="1">  1        2 0.65951013E-01 0.28006349E+03</pdfrwt>
<pdfrwt beam="2">  1       -2 0.70372798E-02 0.28006349E+03</pdfrwt>
<totfact> 0.85012723E+03</totfact>
</mgrwt>
</event>
<event>
 9    1  0.7957670E-001  0.2774580E+03  0.7818608E-02  0.1097085E+00
          2   -1    0    0  501    0  0.00000000000E+00  0.00000000000E+00  0.62036249221E+03  0.62036249221E+03  0.00000000000E+00 0. -1.
         -2   -1    0    0    0  501 -0.00000000000E+00 -0.00000000000E+00 -0.31023379975E+02  0.31023379975E+02  0.00000000000E+00 0. -1.
         35    2    1    2    0    0 -0.14210854715E-13  0.00000000000E+00  0.58933911223E+03  0.65138587218E+03  0.27745804236E+03 0.  0.
         25    2    3    3    0    0  0.50552676892E+02 -0.38933156951E+01  0.36763572759E+03  0.39198230323E+03  0.12618782348E+03 0.  0.
         25    2    3    3    0    0 -0.50552676892E+02  0.38933156951E+01  0.22170338464E+03  0.25940356895E+03  0.12476814408E+03 0.  0.
          5    1    4    4  502    0 -0.12954325543E+02 -0.18777399624E+02  0.54246709572E+01  0.23914897907E+02  0.47000000000E+01 0. -1.
         -5    1    4    4    0  502  0.63507002434E+02  0.14884083929E+02  0.36221105663E+03  0.36806740532E+03  0.47000000000E+01 0. -1.
          5    1    5    5  503    0 -0.88598182354E+02  0.15172056105E+02  0.11905413763E+03  0.14925081873E+03  0.47000000000E+01 0. -1.
         -5    1    5    5    0  503  0.38045505463E+02 -0.11278740410E+02  0.10264924701E+03  0.11015275023E+03  0.47000000000E+01 0. -1.
<mgrwt>
<rscale>  0 0.27745804E+03</rscale>
<asrwt>0</asrwt>
<pdfrwt beam="1">  1        2 0.95440374E-01 0.27745804E+03</pdfrwt>
<pdfrwt beam="2">  1       -2 0.47728282E-02 0.27745804E+03</pdfrwt>
<totfact> 0.10154500E+04</totfact>
</mgrwt>
</event>
<event>
 9    1  0.7957670E-001  0.2930333E+03  0.7818608E-02  0.1088776E+00
         -1   -1    0    0    0  501 -0.00000000000E+00  0.00000000000E+00  0.12781442684E+03  0.12781442684E+03  0.00000000000E+00 0. -1.
          1   -1    0    0  501    0  0.00000000000E+00 -0.00000000000E+00 -0.16795548256E+03  0.16795548256E+03  0.00000000000E+00 0. -1.
         35    2    1    2    0    0  0.14210854715E-13  0.71054273576E-14 -0.40141055725E+02  0.29576990940E+03  0.29303333420E+03 0.  0.
         25    2    3    3    0    0 -0.71190136694E+02  0.19569569601E+02 -0.43627238724E+02  0.15046323720E+03  0.12363189788E+03 0.  0.
         25    2    3    3    0    0  0.71190136694E+02 -0.19569569601E+02  0.34861829983E+01  0.14530667220E+03  0.12510344479E+03 0.  0.
          5    1    4    4  502    0  0.14721919003E+02  0.45157013107E+02 -0.37118563684E+02  0.60462951481E+02  0.47000000000E+01 0.  1.
         -5    1    4    4    0  502 -0.85912055696E+02 -0.25587443506E+02 -0.65086750392E+01  0.90000285721E+02  0.47000000000E+01 0.  1.
          5    1    5    5  503    0  0.68300779120E+02 -0.65755577303E+02  0.17924108804E+02  0.96603085102E+02  0.47000000000E+01 0.  1.
         -5    1    5    5    0  503  0.28893575737E+01  0.46186007703E+02 -0.14437925806E+02  0.48703587099E+02  0.47000000000E+01 0.  1.
<mgrwt>
<rscale>  0 0.29303333E+03</rscale>
<asrwt>0</asrwt>
<pdfrwt beam="1">  1        1 0.25839305E-01 0.29303333E+03</pdfrwt>
<pdfrwt beam="2">  1       -1 0.19663758E-01 0.29303333E+03</pdfrwt>
<totfact> 0.37898503E+03</totfact>
</mgrwt>
</event>
<event>
 9    1  0.7957670E-001  0.2775646E+03  0.7818608E-02  0.1097027E+00
          1   -1    0    0  501    0  0.00000000000E+00  0.00000000000E+00  0.81685136032E+02  0.81685136032E+02  0.00000000000E+00 0. -1.
         -1   -1    0    0    0  501 -0.00000000000E+00 -0.00000000000E+00 -0.23578993434E+03  0.23578993434E+03  0.00000000000E+00 0. -1.
         35    2    1    2    0    0  0.00000000000E+00  0.00000000000E+00 -0.15410479830E+03  0.31747507037E+03  0.27756464372E+03 0.  0.
         25    2    3    3    0    0 -0.20596150744E+02 -0.40989217564E+02 -0.11945761588E+03  0.17903669567E+03  0.12521860494E+03 0.  0.
         25    2    3    3    0    0  0.20596150744E+02  0.40989217564E+02 -0.34647182425E+02  0.13843837470E+03  0.12593823469E+03 0.  0.
          5    1    4    4  502    0  0.14717455292E+02 -0.23199457375E+02  0.19805149715E+02  0.34192868672E+02  0.47000000000E+01 0. -1.
         -5    1    4    4    0  502 -0.35313606036E+02 -0.17789760189E+02 -0.13926276559E+03  0.14484382700E+03  0.47000000000E+01 0. -1.
          5    1    5    5  503    0  0.81544973392E+01  0.80323301122E+02  0.50009373194E+01  0.81027328131E+02  0.47000000000E+01 0.  1.
         -5    1    5    5    0  503  0.12441653405E+02 -0.39334083558E+02 -0.39648119745E+02  0.57411046568E+02  0.47000000000E+01 0.  1.
<mgrwt>
<rscale>  0 0.27756464E+03</rscale>
<asrwt>0</asrwt>
<pdfrwt beam="1">  1        1 0.12566944E-01 0.27756464E+03</pdfrwt>
<pdfrwt beam="2">  1       -1 0.36275374E-01 0.27756464E+03</pdfrwt>
<totfact> 0.34485818E+03</totfact>
</mgrwt>
</event>
<event>
 9    1  0.7957670E-001  0.2765101E+03  0.7818608E-02  0.1097610E+00
          2   -1    0    0  501    0  0.00000000000E+00  0.00000000000E+00  0.31802688449E+03  0.31802688449E+03  0.00000000000E+00 0.  1.
         -2   -1    0    0    0  501 -0.00000000000E+00 -0.00000000000E+00 -0.60103298088E+02  0.60103298088E+02  0.00000000000E+00 0.  1.
         35    2    1    2    0    0  0.00000000000E+00  0.00000000000E+00  0.25792358640E+03  0.37813018257E+03  0.27651014186E+03 0.  0.
         25    2    3    3    0    0 -0.33931708075E+02  0.26750757171E+02  0.58891749656E+02  0.13876571992E+03  0.11798611370E+03 0.  0.
         25    2    3    3    0    0  0.33931708075E+02 -0.26750757171E+02  0.19903183674E+03  0.23936446265E+03  0.12575655101E+03 0.  0.
          5    1    4    4  502    0  0.36155390906E+02  0.11957125438E+02 -0.95941269296E+01  0.39551515923E+02  0.47000000000E+01 0. -1.
         -5    1    4    4    0  502 -0.70087098981E+02  0.14793631733E+02  0.68485876586E+02  0.99214203999E+02  0.47000000000E+01 0. -1.
          5    1    5    5  503    0  0.49574968631E+02 -0.58768387247E+02  0.65603421495E+02  0.10117954223E+03  0.47000000000E+01 0. -1.
         -5    1    5    5    0  503 -0.15643260556E+02  0.32017630075E+02  0.13342841525E+03  0.13818492042E+03  0.47000000000E+01 0. -1.
<mgrwt>
<rscale>  0 0.27651014E+03</rscale>
<asrwt>0</asrwt>
<pdfrwt beam="1">  1        2 0.48927212E-01 0.27651014E+03</pdfrwt>
<pdfrwt beam="2">  1       -2 0.92466614E-02 0.27651014E+03</pdfrwt>
<totfact> 0.76609804E+03</totfact>
</mgrwt>
</event>
<event>
 9    1  0.7957670E-001  0.2891138E+03  0.7818608E-02  0.1090813E+00
          1   -1    0    0  501    0  0.00000000000E+00  0.00000000000E+00  0.55018626780E+02  0.55018626780E+02  0.00000000000E+00 0. -1.
         -1   -1    0    0    0  501 -0.00000000000E+00 -0.00000000000E+00 -0.37981123808E+03  0.37981123808E+03  0.00000000000E+00 0. -1.
         35    2    1    2    0    0  0.00000000000E+00  0.00000000000E+00 -0.32479261130E+03  0.43482986486E+03  0.28911376830E+03 0.  0.
         25    2    3    3    0    0 -0.15275866498E+02 -0.70043722399E+02 -0.18492524620E+03  0.23432685313E+03  0.12478883072E+03 0.  0.
         25    2    3    3    0    0  0.15275866498E+02  0.70043722399E+02 -0.13986736509E+03  0.20050301172E+03  0.12449539247E+03 0.  0.
          5    1    4    4  502    0 -0.29609663144E+02  0.12224404226E+02 -0.11312142317E+01  0.32396571667E+02  0.47000000000E+01 0. -1.
         -5    1    4    4    0  502  0.14333796645E+02 -0.82268126625E+02 -0.18379403197E+03  0.20193028147E+03  0.47000000000E+01 0. -1.
          5    1    5    5  503    0 -0.26459159419E+01  0.94097048471E+02 -0.52231292254E+02  0.10775645360E+03  0.47000000000E+01 0.  1.
         -5    1    5    5    0  503  0.17921782440E+02 -0.24053326072E+02 -0.87636072840E+02  0.92746558123E+02  0.47000000000E+01 0.  1.
<mgrwt>
<rscale>  0 0.28911377E+03</rscale>
<asrwt>0</asrwt>
<pdfrwt beam="1">  1        1 0.84644042E-02 0.28911377E+03</pdfrwt>
<pdfrwt beam="2">  1       -1 0.58432497E-01 0.28911377E+03</pdfrwt>
<totfact> 0.24591797E+03</totfact>
</mgrwt>
</event>
<event>
 9    1  0.7957670E-001  0.2930728E+03  0.7818608E-02  0.1088756E+00
          1   -1    0    0  501    0  0.00000000000E+00  0.00000000000E+00  0.33928700833E+02  0.33928700833E+02  0.00000000000E+00 0. -1.
         -1   -1    0    0    0  501 -0.00000000000E+00 -0.00000000000E+00 -0.63288348600E+03  0.63288348600E+03  0.00000000000E+00 0. -1.
         35    2    1    2    0    0  0.35527136788E-14  0.21316282073E-13 -0.59895478516E+03  0.66681218683E+03  0.29307278590E+03 0.  0.
         25    2    3    3    0    0  0.73755216905E+01  0.63735449405E+02 -0.20709288322E+03  0.25005831344E+03  0.12459972716E+03 0.  0.
         25    2    3    3    0    0 -0.73755216905E+01 -0.63735449405E+02 -0.39186190194E+03  0.41675387339E+03  0.12653629899E+03 0.  0.
          5    1    4    4  502    0 -0.13849353217E+02  0.92228015305E+02 -0.98606686133E+02  0.13580566977E+03  0.47000000000E+01 0.  1.
         -5    1    4    4    0  502  0.21224874907E+02 -0.28492565900E+02 -0.10848619709E+03  0.11425264367E+03  0.47000000000E+01 0.  1.
          5    1    5    5  503    0 -0.53166027681E+02  0.80669539662E+01 -0.11472713061E+03  0.12679158783E+03  0.47000000000E+01 0.  1.
         -5    1    5    5    0  503  0.45790505991E+02 -0.71802403371E+02 -0.27713477133E+03  0.28996228556E+03  0.47000000000E+01 0.  1.
<mgrwt>
<rscale>  0 0.29307279E+03</rscale>
<asrwt>0</asrwt>
<pdfrwt beam="1">  1        1 0.52198004E-02 0.29307279E+03</pdfrwt>
<pdfrwt beam="2">  1       -1 0.97366684E-01 0.29307279E+03</pdfrwt>
<totfact> 0.16781411E+03</totfact>
</mgrwt>
</event>
<event>
 9    1  0.7957670E-001  0.2772175E+03  0.7818608E-02  0.1097218E+00
         -3   -1    0    0    0  501 -0.00000000000E+00  0.00000000000E+00  0.13158767935E+03  0.13158767935E+03  0.00000000000E+00 0. -1.
          3   -1    0    0  501    0  0.00000000000E+00 -0.00000000000E+00 -0.14600446610E+03  0.14600446610E+03  0.00000000000E+00 0. -1.
         35    2    1    2    0    0  0.00000000000E+00  0.21316282073E-13 -0.14416786747E+02  0.27759214545E+03  0.27721752375E+03 0.  0.
         25    2    3    3    0    0 -0.39410649035E+01  0.56648522846E+02 -0.27647209912E+02  0.14036534397E+03  0.12535339819E+03 0.  0.
         25    2    3    3    0    0  0.39410649035E+01 -0.56648522846E+02  0.13230423166E+02  0.13722680148E+03  0.12422384559E+03 0.  0.
          5    1    4    4  502    0  0.56445753096E+02  0.33648445870E+02 -0.35940001280E+02  0.75047415972E+02  0.47000000000E+01 0. -1.
         -5    1    4    4    0  502 -0.60386818000E+02  0.23000076976E+02  0.82927913678E+01  0.65317927996E+02  0.47000000000E+01 0. -1.
          5    1    5    5  503    0 -0.43910308201E+02  0.18085708785E+02  0.48891036475E+01  0.47970838673E+02  0.47000000000E+01 0. -1.
         -5    1    5    5    0  503  0.47851373104E+02 -0.74734231631E+02  0.83413195182E+01  0.89255962807E+02  0.47000000000E+01 0. -1.
<mgrwt>
<rscale>  0 0.27721752E+03</rscale>
<asrwt>0</asrwt>
<pdfrwt beam="1">  1        3 0.22462226E-01 0.27721752E+03</pdfrwt>
<pdfrwt beam="2">  1       -3 0.20244258E-01 0.27721752E+03</pdfrwt>
<totfact> 0.10194932E+03</totfact>
</mgrwt>
</event>
<event>
 9    1  0.7957670E-001  0.2714733E+03  0.7818608E-02  0.1100439E+00
          2   -1    0    0  501    0  0.00000000000E+00  0.00000000000E+00  0.10438934798E+04  0.10438934798E+04  0.00000000000E+00 0. -1.
         -2   -1    0    0    0  501 -0.00000000000E+00 -0.00000000000E+00 -0.17649723980E+02  0.17649723980E+02  0.00000000000E+00 0. -1.
         35    2    1    2    0    0  0.00000000000E+00  0.00000000000E+00  0.10262437558E+04  0.10615432038E+04  0.27147325307E+03 0.  0.
         25    2    3    3    0    0 -0.10427179647E+02  0.44766448818E+02  0.61846570906E+03  0.63255163062E+03  0.12453501959E+03 0.  0.
         25    2    3    3    0    0  0.10427179647E+02 -0.44766448818E+02  0.40777804676E+03  0.42899157316E+03  0.12505228269E+03 0.  0.
          5    1    4    4  502    0 -0.67475737389E+01 -0.32266466569E+02  0.38909738427E+03  0.39051955017E+03  0.47000000000E+01 0. -1.
         -5    1    4    4    0  502 -0.36796059084E+01  0.77032915386E+02  0.22936832479E+03  0.24203208045E+03  0.47000000000E+01 0. -1.
          5    1    5    5  503    0 -0.55988274321E+02 -0.68614503157E+01  0.17638672315E+03  0.18524614022E+03  0.47000000000E+01 0.  1.
         -5    1    5    5    0  503  0.66415453968E+02 -0.37904998502E+02  0.23139132361E+03  0.24374543294E+03  0.47000000000E+01 0.  1.
<mgrwt>
<rscale>  0 0.27147325E+03</rscale>
<asrwt>0</asrwt>
<pdfrwt beam="1">  1        2 0.16059895E+00 0.27147325E+03</pdfrwt>
<pdfrwt beam="2">  1       -2 0.27153430E-02 0.27147325E+03</pdfrwt>
<totfact> 0.12097215E+04</totfact>
</mgrwt>
</event>
<event>
 9    1  0.7957670E-001  0.2751643E+03  0.7818608E-02  0.1098360E+00
          4   -1    0    0  501    0  0.00000000000E+00  0.00000000000E+00  0.17509719217E+02  0.17509719217E+02  0.00000000000E+00 0. -1.
         -4   -1    0    0    0  501 -0.00000000000E+00 -0.00000000000E+00 -0.10810479894E+04  0.10810479894E+04  0.00000000000E+00 0. -1.
         35    2    1    2    0    0 -0.14210854715E-13 -0.71054273576E-14 -0.10635382702E+04  0.10985577086E+04  0.27516429096E+03 0.  0.
         25    2    3    3    0    0  0.21793516442E+02 -0.38543345819E+02 -0.37550834665E+03  0.39824537347E+03  0.12502924545E+03 0.  0.
         25    2    3    3    0    0 -0.21793516442E+02  0.38543345819E+02 -0.68802992352E+03  0.70031233513E+03  0.12284805339E+03 0.  0.
          5    1    4    4  502    0 -0.43112675924E+02 -0.17471628827E+02 -0.63670922333E+02  0.78993904765E+02  0.47000000000E+01 0. -1.
         -5    1    4    4    0  502  0.64906192366E+02 -0.21071716992E+02 -0.31183742432E+03  0.31925146870E+03  0.47000000000E+01 0. -1.
          5    1    5    5  503    0  0.43601511445E+02  0.35031039070E+02 -0.19458388310E+03  0.20251726608E+03  0.47000000000E+01 0.  1.
         -5    1    5    5    0  503 -0.65395027887E+02  0.35123067488E+01 -0.49344604042E+03  0.49779506906E+03  0.47000000000E+01 0.  1.
<mgrwt>
<rscale>  0 0.27516429E+03</rscale>
<asrwt>0</asrwt>
<pdfrwt beam="1">  1        4 0.26938032E-02 0.27516429E+03</pdfrwt>
<pdfrwt beam="2">  1       -4 0.16631506E+00 0.27516429E+03</pdfrwt>
<totfact> 0.28806475E+02</totfact>
</mgrwt>
</event>
<event>
 9    1  0.7957670E-001  0.2774358E+03  0.7818608E-02  0.1097098E+00
          1   -1    0    0  501    0  0.00000000000E+00  0.00000000000E+00  0.11936555586E+04  0.11936555586E+04  0.00000000000E+00 0.  1.
         -1   -1    0    0    0  501 -0.00000000000E+00 -0.00000000000E+00 -0.16120777737E+02  0.16120777737E+02  0.00000000000E+00 0.  1.
         35    2    1    2    0    0 -0.17763568394E-14  0.14210854715E-13  0.11775347808E+04  0.12097763363E+04  0.27743580125E+03 0.  0.
         25    2    3    3    0    0  0.12841155459E+02 -0.59877285778E+02  0.56070677083E+03  0.57749156425E+03  0.12391222417E+03 0.  0.
         25    2    3    3    0    0 -0.12841155459E+02  0.59877285778E+02  0.61682800998E+03  0.63228477204E+03  0.12472792159E+03 0.  0.
          5    1    4    4  502    0  0.64278296598E+01  0.34588339734E+02  0.25400908382E+03  0.25647685062E+03  0.47000000000E+01 0. -1.
         -5    1    4    4    0  502  0.64133257996E+01 -0.94465625512E+02  0.30669768701E+03  0.32101471363E+03  0.47000000000E+01 0. -1.
          5    1    5    5  503    0  0.43825587516E+02  0.68189288418E+02  0.34084640858E+03  0.35038382585E+03  0.47000000000E+01 0.  1.
         -5    1    5    5    0  503 -0.56666742975E+02 -0.83120026394E+01  0.27598160141E+03  0.28190094619E+03  0.47000000000E+01 0.  1.
<mgrwt>
<rscale>  0 0.27743580E+03</rscale>
<asrwt>0</asrwt>
<pdfrwt beam="1">  1        1 0.18363925E+00 0.27743580E+03</pdfrwt>
<pdfrwt beam="2">  1       -1 0.24801206E-02 0.27743580E+03</pdfrwt>
<totfact> 0.57810216E+03</totfact>
</mgrwt>
</event>
<event>
 9    1  0.7957670E-001  0.2803387E+03  0.7818608E-02  0.1095504E+00
         -1   -1    0    0    0  501 -0.00000000000E+00  0.00000000000E+00  0.14300361515E+02  0.14300361515E+02  0.00000000000E+00 0.  1.
          1   -1    0    0  501    0  0.00000000000E+00 -0.00000000000E+00 -0.13739128011E+04  0.13739128011E+04  0.00000000000E+00 0.  1.
         35    2    1    2    0    0  0.71054273576E-14  0.00000000000E+00 -0.13596124396E+04  0.13882131626E+04  0.28033872188E+03 0.  0.
         25    2    3    3    0    0  0.55123848331E+02  0.58344312795E+01 -0.83557044111E+03  0.84660951922E+03  0.12448709466E+03 0.  0.
         25    2    3    3    0    0 -0.55123848331E+02 -0.58344312795E+01 -0.52404199846E+03  0.54160364338E+03  0.12506722643E+03 0.  0.
          5    1    4    4  502    0  0.65450548200E+02 -0.25461239150E+01 -0.19265613979E+03  0.20354050016E+03  0.47000000000E+01 0.  1.
         -5    1    4    4    0  502 -0.10326699869E+02  0.83805551944E+01 -0.64291430131E+03  0.64306901906E+03  0.47000000000E+01 0.  1.
          5    1    5    5  503    0  0.28065467429E+02  0.60826563096E+01 -0.35680923622E+02  0.46042235831E+02  0.47000000000E+01 0.  1.
         -5    1    5    5    0  503 -0.83189315760E+02 -0.11917087589E+02 -0.48836107484E+03  0.49556140755E+03  0.47000000000E+01 0.  1.
<mgrwt>
<rscale>  0 0.28033872E+03</rscale>
<asrwt>0</asrwt>
<pdfrwt beam="1">  1        1 0.21137120E+00 0.28033872E+03</pdfrwt>
<pdfrwt beam="2">  1       -1 0.22000556E-02 0.28033872E+03</pdfrwt>
<totfact> 0.51832595E+03</totfact>
</mgrwt>
</event>
<event>
 9    1  0.7957670E-001  0.2769705E+03  0.7818608E-02  0.1097355E+00
         -1   -1    0    0    0  501 -0.00000000000E+00  0.00000000000E+00  0.26235683086E+03  0.26235683086E+03  0.00000000000E+00 0.  1.
          1   -1    0    0  501    0  0.00000000000E+00 -0.00000000000E+00 -0.73099541078E+02  0.73099541078E+02  0.00000000000E+00 0.  1.
         35    2    1    2    0    0  0.71054273576E-14  0.00000000000E+00  0.18925728979E+03  0.33545637194E+03  0.27697049615E+03 0.  0.
         25    2    3    3    0    0 -0.30329645176E+02 -0.24612155864E+02  0.17073101008E+03  0.21495220842E+03  0.12461833135E+03 0.  0.
         25    2    3    3    0    0  0.30329645176E+02  0.24612155864E+02  0.18526279710E+02  0.12050416353E+03  0.11248282000E+03 0.  0.
          5    1    4    4  502    0 -0.10725043731E+02 -0.75197787721E+02  0.10204523888E+03  0.12729907549E+03  0.47000000000E+01 0.  1.
         -5    1    4    4    0  502 -0.19604601445E+02  0.50585631857E+02  0.68685771194E+02  0.87653132931E+02  0.47000000000E+01 0.  1.
          5    1    5    5  503    0 -0.34205255963E+01 -0.60558427826E+01  0.58852228099E+02  0.59447859334E+02  0.47000000000E+01 0.  1.
         -5    1    5    5    0  503  0.33750170772E+02  0.30667998647E+02 -0.40325948388E+02  0.61056304192E+02  0.47000000000E+01 0.  1.
<mgrwt>
<rscale>  0 0.27697050E+03</rscale>
<asrwt>0</asrwt>
<pdfrwt beam="1">  1        1 0.11246083E-01 0.27697050E+03</pdfrwt>
<pdfrwt beam="2">  1       -1 0.40362589E-01 0.27697050E+03</pdfrwt>
<totfact> 0.33120546E+03</totfact>
</mgrwt>
</event>
<event>
 9    1  0.7957670E-001  0.2751420E+03  0.7818608E-02  0.1098372E+00
          1   -1    0    0  501    0  0.00000000000E+00  0.00000000000E+00  0.87878978873E+03  0.87878978873E+03  0.00000000000E+00 0.  1.
         -1   -1    0    0    0  501 -0.00000000000E+00 -0.00000000000E+00 -0.21536182048E+02  0.21536182048E+02  0.00000000000E+00 0.  1.
         35    2    1    2    0    0 -0.71054273576E-14 -0.35527136788E-14  0.85725360669E+03  0.90032597078E+03  0.27514197697E+03 0.  0.
         25    2    3    3    0    0  0.34572450750E+02  0.16437185096E+02  0.28391996237E+03  0.31225354986E+03  0.12420265282E+03 0.  0.
         25    2    3    3    0    0 -0.34572450750E+02 -0.16437185096E+02  0.57333364432E+03  0.58807242092E+03  0.12510902898E+03 0.  0.
          5    1    4    4  502    0  0.15113961758E+02  0.57816293568E+02  0.24436795077E+03  0.25161268053E+03  0.47000000000E+01 0. -1.
         -5    1    4    4    0  502  0.19458488992E+02 -0.41379108472E+02  0.39552011599E+02  0.60640869331E+02  0.47000000000E+01 0. -1.
          5    1    5    5  503    0 -0.56959262957E+02  0.25887433513E+02  0.15863109892E+03  0.17058848846E+03  0.47000000000E+01 0. -1.
         -5    1    5    5    0  503  0.22386812208E+02 -0.42324618609E+02  0.41470254539E+03  0.41748393245E+03  0.47000000000E+01 0. -1.
<mgrwt>
<rscale>  0 0.27514198E+03</rscale>
<asrwt>0</asrwt>
<pdfrwt beam="1">  1        1 0.13519840E+00 0.27514198E+03</pdfrwt>
<pdfrwt beam="2">  1       -1 0.33132595E-02 0.27514198E+03</pdfrwt>
<totfact> 0.64548822E+03</totfact>
</mgrwt>
</event>
<event>
 9    1  0.7957670E-001  0.2794925E+03  0.7818608E-02  0.1095966E+00
          2   -1    0    0  501    0  0.00000000000E+00  0.00000000000E+00  0.73522705724E+03  0.73522705724E+03  0.00000000000E+00 0. -1.
         -2   -1    0    0    0  501 -0.00000000000E+00 -0.00000000000E+00 -0.26561873359E+02  0.26561873359E+02  0.00000000000E+00 0. -1.
         35    2    1    2    0    0  0.17763568394E-14  0.00000000000E+00  0.70866518388E+03  0.76178893060E+03  0.27949245417E+03 0.  0.
         25    2    3    3    0    0  0.11772708840E+02  0.45160943180E+02  0.46835696038E+03  0.48700901059E+03  0.12506568912E+03 0.  0.
         25    2    3    3    0    0 -0.11772708840E+02 -0.45160943180E+02  0.24030822350E+03  0.27477992001E+03  0.12481127632E+03 0.  0.
          5    1    4    4  502    0  0.13437573814E+01 -0.23997113649E+02  0.16000603279E+02  0.29253657082E+02  0.47000000000E+01 0. -1.
         -5    1    4    4    0  502  0.10428951459E+02  0.69158056829E+02  0.45235635710E+03  0.45775535351E+03  0.47000000000E+01 0. -1.
          5    1    5    5  503    0 -0.87552513720E+01  0.28411665186E+02  0.81564832007E+01  0.31184857919E+02  0.47000000000E+01 0. -1.
         -5    1    5    5    0  503 -0.30174574681E+01 -0.73572608366E+02  0.23215174030E+03  0.24359506209E+03  0.47000000000E+01 0. -1.
<mgrwt>
<rscale>  0 0.27949245E+03</rscale>
<asrwt>0</asrwt>
<pdfrwt beam="1">  1        2 0.11311184E+00 0.27949245E+03</pdfrwt>
<pdfrwt beam="2">  1       -2 0.40864426E-02 0.27949245E+03</pdfrwt>
<totfact> 0.10472335E+04</totfact>
</mgrwt>
</event>
<event>
 9    1  0.7957670E-001  0.2752459E+03  0.7818608E-02  0.1098314E+00
          2   -1    0    0  501    0  0.00000000000E+00  0.00000000000E+00  0.90052422517E+03  0.90052422517E+03  0.00000000000E+00 0.  1.
         -2   -1    0    0    0  501 -0.00000000000E+00 -0.00000000000E+00 -0.21032285946E+02  0.21032285946E+02  0.00000000000E+00 0.  1.
         35    2    1    2    0    0 -0.71054273576E-14 -0.35527136788E-14  0.87949193922E+03  0.92155651111E+03  0.27524594823E+03 0.  0.
         25    2    3    3    0    0 -0.47342201857E+02 -0.27997194385E+02  0.37857749300E+03  0.40241381866E+03  0.12486327032E+03 0.  0.
         25    2    3    3    0    0  0.47342201857E+02  0.27997194385E+02  0.50091444622E+03  0.51914269245E+03  0.12477469984E+03 0.  0.
          5    1    4    4  502    0  0.41012583231E+02 -0.19134277417E+01  0.82043112111E+02  0.91863243106E+02  0.47000000000E+01 0. -1.
         -5    1    4    4    0  502 -0.88354785088E+02 -0.26083766643E+02  0.29653438089E+03  0.31055057556E+03  0.47000000000E+01 0. -1.
          5    1    5    5  503    0  0.57433155534E+02 -0.21048526066E+02  0.11853530447E+03  0.13347028212E+03  0.47000000000E+01 0. -1.
         -5    1    5    5    0  503 -0.10090953677E+02  0.49045720451E+02  0.38237914175E+03  0.38567241033E+03  0.47000000000E+01 0. -1.
<mgrwt>
<rscale>  0 0.27524595E+03</rscale>
<asrwt>0</asrwt>
<pdfrwt beam="1">  1        2 0.13854216E+00 0.27524595E+03</pdfrwt>
<pdfrwt beam="2">  1       -2 0.32357370E-02 0.27524595E+03</pdfrwt>
<totfact> 0.11447722E+04</totfact>
</mgrwt>
</event>
<event>
 9    1  0.7957670E-001  0.2739611E+03  0.7818608E-02  0.1099034E+00
         -3   -1    0    0    0  501 -0.00000000000E+00  0.00000000000E+00  0.13823728223E+02  0.13823728223E+02  0.00000000000E+00 0.  1.
          3   -1    0    0  501    0  0.00000000000E+00 -0.00000000000E+00 -0.13573525940E+04  0.13573525940E+04  0.00000000000E+00 0.  1.
         35    2    1    2    0    0 -0.35527136788E-14  0.71054273576E-14 -0.13435288658E+04  0.13711763222E+04  0.27396111668E+03 0.  0.
         25    2    3    3    0    0 -0.30161773454E+02  0.14862002097E+02 -0.89772214400E+03  0.90694178975E+03  0.12453011879E+03 0.  0.
         25    2    3    3    0    0  0.30161773454E+02 -0.14862002097E+02 -0.44580672176E+03  0.46423453246E+03  0.12505781172E+03 0.  0.
          5    1    4    4  502    0 -0.10537906759E+01  0.64206351467E+02 -0.61992977458E+03  0.62326445547E+03  0.47000000000E+01 0.  1.
         -5    1    4    4    0  502 -0.29107982778E+02 -0.49344349371E+02 -0.27779236942E+03  0.28367733428E+03  0.47000000000E+01 0.  1.
          5    1    5    5  503    0  0.39604213844E+02  0.35457915565E+02 -0.89230469825E+02  0.10397078568E+03  0.47000000000E+01 0.  1.
         -5    1    5    5    0  503 -0.94424403903E+01 -0.50319917662E+02 -0.35657625194E+03  0.36026374678E+03  0.47000000000E+01 0.  1.
<mgrwt>
<rscale>  0 0.27396112E+03</rscale>
<asrwt>0</asrwt>
<pdfrwt beam="1">  1        3 0.20882347E+00 0.27396112E+03</pdfrwt>
<pdfrwt beam="2">  1       -3 0.21267275E-02 0.27396112E+03</pdfrwt>
<totfact> 0.31181645E+02</totfact>
</mgrwt>
</event>
<event>
 9    1  0.7957670E-001  0.2715947E+03  0.7818608E-02  0.1100370E+00
         -2   -1    0    0    0  501 -0.00000000000E+00  0.00000000000E+00  0.15827571151E+03  0.15827571151E+03  0.00000000000E+00 0. -1.
          2   -1    0    0  501    0  0.00000000000E+00 -0.00000000000E+00 -0.11651140248E+03  0.11651140248E+03  0.00000000000E+00 0. -1.
         35    2    1    2    0    0  0.00000000000E+00  0.00000000000E+00  0.41764309035E+02  0.27478711399E+03  0.27159473578E+03 0.  0.
         25    2    3    3    0    0 -0.45100050949E+02 -0.16217178059E+02 -0.10954346217E+02  0.13090465200E+03  0.12132196320E+03 0.  0.
         25    2    3    3    0    0  0.45100050949E+02  0.16217178059E+02  0.52718655252E+02  0.14388246198E+03  0.12500357913E+03 0.  0.
          5    1    4    4  502    0 -0.64253287864E+01 -0.66286895023E+02 -0.95916687982E+01  0.67448702079E+02  0.47000000000E+01 0. -1.
         -5    1    4    4    0  502 -0.38674722163E+02  0.50069716964E+02 -0.13626774188E+01  0.63455949926E+02  0.47000000000E+01 0. -1.
          5    1    5    5  503    0  0.46285724059E+02 -0.49286501663E+02  0.32446311623E+02  0.75142402382E+02  0.47000000000E+01 0. -1.
         -5    1    5    5    0  503 -0.11856731097E+01  0.65503679722E+02  0.20272343628E+02  0.68740059601E+02  0.47000000000E+01 0. -1.
<mgrwt>
<rscale>  0 0.27159474E+03</rscale>
<asrwt>0</asrwt>
<pdfrwt beam="1">  1        2 0.17924831E-01 0.27159474E+03</pdfrwt>
<pdfrwt beam="2">  1       -2 0.24350110E-01 0.27159474E+03</pdfrwt>
<totfact> 0.46666339E+03</totfact>
</mgrwt>
</event>
<event>
 9    1  0.7957670E-001  0.2969653E+03  0.7818608E-02  0.1086768E+00
          1   -1    0    0  501    0  0.00000000000E+00  0.00000000000E+00  0.16671266595E+04  0.16671266595E+04  0.00000000000E+00 0. -1.
         -1   -1    0    0    0  501 -0.00000000000E+00 -0.00000000000E+00 -0.13224604631E+02  0.13224604631E+02  0.00000000000E+00 0. -1.
         35    2    1    2    0    0  0.35527136788E-14  0.00000000000E+00  0.16539020549E+04  0.16803512641E+04  0.29696525683E+03 0.  0.
         25    2    3    3    0    0 -0.31722756477E+02 -0.68750665664E+02  0.66456847335E+03  0.68040539202E+03  0.12476880382E+03 0.  0.
         25    2    3    3    0    0  0.31722756477E+02  0.68750665664E+02  0.98933358151E+03  0.99994587210E+03  0.12400735595E+03 0.  0.
          5    1    4    4  502    0 -0.17851118359E+02  0.40743687472E+00  0.81353211985E+01  0.20176765907E+02  0.47000000000E+01 0. -1.
         -5    1    4    4    0  502 -0.13871638118E+02 -0.69158102539E+02  0.65643315215E+03  0.66022862611E+03  0.47000000000E+01 0. -1.
          5    1    5    5  503    0 -0.18200787929E+02  0.67438714235E+02  0.82894861808E+03  0.83189972369E+03  0.47000000000E+01 0. -1.
         -5    1    5    5    0  503  0.49923544407E+02  0.13119514293E+01  0.16038496343E+03  0.16804614842E+03  0.47000000000E+01 0. -1.
<mgrwt>
<rscale>  0 0.29696526E+03</rscale>
<asrwt>0</asrwt>
<pdfrwt beam="1">  1        1 0.25648086E+00 0.29696526E+03</pdfrwt>
<pdfrwt beam="2">  1       -1 0.20345559E-02 0.29696526E+03</pdfrwt>
<totfact> 0.37152302E+03</totfact>
</mgrwt>
</event>
<event>
 9    1  0.7957670E-001  0.2818541E+03  0.7818608E-02  0.1094681E+00
         -1   -1    0    0    0  501 -0.00000000000E+00  0.00000000000E+00  0.61342742989E+02  0.61342742989E+02  0.00000000000E+00 0.  1.
          1   -1    0    0  501    0  0.00000000000E+00 -0.00000000000E+00 -0.32376175139E+03  0.32376175139E+03  0.00000000000E+00 0.  1.
         35    2    1    2    0    0  0.26645352591E-14  0.35527136788E-14 -0.26241900840E+03  0.38510449438E+03  0.28185410343E+03 0.  0.
         25    2    3    3    0    0  0.35591934102E+01 -0.75326861022E+01 -0.21901771147E+03  0.25269024113E+03  0.12575448624E+03 0.  0.
         25    2    3    3    0    0 -0.35591934102E+01  0.75326861022E+01 -0.43401296933E+02  0.13241425325E+03  0.12482168349E+03 0.  0.
          5    1    4    4  502    0  0.55927296397E+01  0.58769249000E+02 -0.94370759353E+02  0.11141379391E+03  0.47000000000E+01 0.  1.
         -5    1    4    4    0  502 -0.20335362295E+01 -0.66301935102E+02 -0.12464695212E+03  0.14127644722E+03  0.47000000000E+01 0.  1.
          5    1    5    5  503    0 -0.56905571792E+02 -0.24883249359E+02 -0.17775186387E+02  0.64772428168E+02  0.47000000000E+01 0.  1.
         -5    1    5    5    0  503  0.53346378382E+02  0.32415935461E+02 -0.25626110546E+02  0.67641825079E+02  0.47000000000E+01 0.  1.
<mgrwt>
<rscale>  0 0.28185410E+03</rscale>
<asrwt>0</asrwt>
<pdfrwt beam="1">  1        1 0.49809501E-01 0.28185410E+03</pdfrwt>
<pdfrwt beam="2">  1       -1 0.94373450E-02 0.28185410E+03</pdfrwt>
<totfact> 0.52761902E+03</totfact>
</mgrwt>
</event>
<event>
 9    1  0.7957670E-001  0.2783157E+03  0.7818608E-02  0.1096612E+00
         -2   -1    0    0    0  501 -0.00000000000E+00  0.00000000000E+00  0.96590132604E+02  0.96590132604E+02  0.00000000000E+00 0. -1.
          2   -1    0    0  501    0  0.00000000000E+00 -0.00000000000E+00 -0.20048534288E+03  0.20048534288E+03  0.00000000000E+00 0. -1.
         35    2    1    2    0    0 -0.35527136788E-14  0.14210854715E-13 -0.10389521028E+03  0.29707547549E+03  0.27831569021E+03 0.  0.
         25    2    3    3    0    0  0.29527214263E+02 -0.45852973160E+02 -0.19043472093E+02  0.13735655722E+03  0.12461869223E+03 0.  0.
         25    2    3    3    0    0 -0.29527214263E+02  0.45852973160E+02 -0.84851738185E+02  0.15971891826E+03  0.12383845868E+03 0.  0.
          5    1    4    4  502    0  0.10817111984E+01  0.41552745840E+02  0.52671824488E+01  0.42161997070E+02  0.47000000000E+01 0. -1.
         -5    1    4    4    0  502  0.28445503064E+02 -0.87405719000E+02 -0.24310654542E+02  0.95194560153E+02  0.47000000000E+01 0. -1.
          5    1    5    5  503    0  0.27310590218E+02  0.47750470158E+02  0.26294545506E+01  0.55271871414E+02  0.47000000000E+01 0. -1.
         -5    1    5    5    0  503 -0.56837804481E+02 -0.18974969984E+01 -0.87481192736E+02  0.10444704685E+03  0.47000000000E+01 0. -1.
<mgrwt>
<rscale>  0 0.27831569E+03</rscale>
<asrwt>0</asrwt>
<pdfrwt beam="1">  1        2 0.30843899E-01 0.27831569E+03</pdfrwt>
<pdfrwt beam="2">  1       -2 0.14860020E-01 0.27831569E+03</pdfrwt>
<totfact> 0.58730620E+03</totfact>
</mgrwt>
</event>
<event>
 9    1  0.7957670E-001  0.2756513E+03  0.7818608E-02  0.1098088E+00
          1   -1    0    0  501    0  0.00000000000E+00  0.00000000000E+00  0.19293424901E+04  0.19293424901E+04  0.00000000000E+00 0.  1.
         -1   -1    0    0    0  501 -0.00000000000E+00 -0.00000000000E+00 -0.98457970248E+01  0.98457970248E+01  0.00000000000E+00 0.  1.
         35    2    1    2    0    0  0.00000000000E+00 -0.35527136788E-14  0.19194966931E+04  0.19391882872E+04  0.27565133447E+03 0.  0.
         25    2    3    3    0    0  0.60179679290E+02  0.21000961895E+01  0.99581768560E+03  0.10055683950E+04  0.12605129826E+03 0.  0.
         25    2    3    3    0    0 -0.60179679290E+02 -0.21000961895E+01  0.92367900751E+03  0.93361989220E+03  0.12180800460E+03 0.  0.
          5    1    4    4  502    0 -0.26146493377E+02  0.18380617914E+02  0.56160840623E+03  0.56253673496E+03  0.47000000000E+01 0.  1.
         -5    1    4    4    0  502  0.86326172667E+02 -0.16280521725E+02  0.43420927937E+03  0.44303166000E+03  0.47000000000E+01 0.  1.
          5    1    5    5  503    0 -0.42570125360E+02 -0.28676401352E+02  0.13850028954E+03  0.14778014674E+03  0.47000000000E+01 0. -1.
         -5    1    5    5    0  503 -0.17609553930E+02  0.26576305162E+02  0.78517871797E+03  0.78583974546E+03  0.47000000000E+01 0. -1.
<mgrwt>
<rscale>  0 0.27565133E+03</rscale>
<asrwt>0</asrwt>
<pdfrwt beam="1">  1        1 0.29682162E+00 0.27565133E+03</pdfrwt>
<pdfrwt beam="2">  1       -1 0.15147395E-02 0.27565133E+03</pdfrwt>
<totfact> 0.38583612E+03</totfact>
</mgrwt>
</event>
<event>
 9    1  0.7957670E-001  0.2719202E+03  0.7818608E-02  0.1100186E+00
          3   -1    0    0  501    0  0.00000000000E+00  0.00000000000E+00  0.10477715914E+03  0.10477715914E+03  0.00000000000E+00 0. -1.
         -3   -1    0    0    0  501 -0.00000000000E+00 -0.00000000000E+00 -0.17642344982E+03  0.17642344982E+03  0.00000000000E+00 0. -1.
         35    2    1    2    0    0  0.00000000000E+00  0.00000000000E+00 -0.71646290683E+02  0.28120060896E+03  0.27192019327E+03 0.  0.
         25    2    3    3    0    0 -0.27131871763E+01  0.20783863385E+02 -0.87282022537E+02  0.15371803686E+03  0.12478683038E+03 0.  0.
         25    2    3    3    0    0  0.27131871763E+01 -0.20783863385E+02  0.15635731854E+02  0.12748257210E+03  0.12477179055E+03 0.  0.
          5    1    4    4  502    0 -0.27976220646E+02 -0.20407403804E+02 -0.97961493155E+02  0.10400805350E+03  0.47000000000E+01 0.  1.
         -5    1    4    4    0  502  0.25263033469E+02  0.41191267189E+02  0.10679470618E+02  0.49709983357E+02  0.47000000000E+01 0.  1.
          5    1    5    5  503    0  0.29879411714E+02  0.39921889392E+02  0.31210587132E+02  0.59014635864E+02  0.47000000000E+01 0. -1.
         -5    1    5    5    0  503 -0.27166224538E+02 -0.60705752777E+02 -0.15574855278E+02  0.68467936239E+02  0.47000000000E+01 0. -1.
<mgrwt>
<rscale>  0 0.27192019E+03</rscale>
<asrwt>0</asrwt>
<pdfrwt beam="1">  1        3 0.16119563E-01 0.27192019E+03</pdfrwt>
<pdfrwt beam="2">  1       -3 0.27142069E-01 0.27192019E+03</pdfrwt>
<totfact> 0.10759434E+03</totfact>
</mgrwt>
</event>
<event>
 9    1  0.7957670E-001  0.2745326E+03  0.7818608E-02  0.1098713E+00
          2   -1    0    0  501    0  0.00000000000E+00  0.00000000000E+00  0.26392333450E+03  0.26392333450E+03  0.00000000000E+00 0.  1.
         -2   -1    0    0    0  501 -0.00000000000E+00 -0.00000000000E+00 -0.71392105512E+02  0.71392105512E+02  0.00000000000E+00 0.  1.
         35    2    1    2    0    0 -0.71054273576E-14  0.71054273576E-14  0.19253122899E+03  0.33531544001E+03  0.27453263954E+03 0.  0.
         25    2    3    3    0    0  0.13339913070E+02 -0.28890963831E+02  0.15614845665E+03  0.20254125021E+03  0.12501190523E+03 0.  0.
         25    2    3    3    0    0 -0.13339913070E+02  0.28890963831E+02  0.36382772338E+02  0.13277418981E+03  0.12366340721E+03 0.  0.
          5    1    4    4  502    0  0.68934123213E+02 -0.16193330886E+02  0.97628846685E+02  0.12069639188E+03  0.47000000000E+01 0.  1.
         -5    1    4    4    0  502 -0.55594210143E+02 -0.12697632945E+02  0.58519609964E+02  0.81844858324E+02  0.47000000000E+01 0.  1.
          5    1    5    5  503    0  0.42111668089E+02 -0.15121868170E+02  0.42069320708E+02  0.61595302021E+02  0.47000000000E+01 0. -1.
         -5    1    5    5    0  503 -0.55451581159E+02  0.44012832001E+02 -0.56865483700E+01  0.71178887784E+02  0.47000000000E+01 0. -1.
<mgrwt>
<rscale>  0 0.27453264E+03</rscale>
<asrwt>0</asrwt>
<pdfrwt beam="1">  1        2 0.40603589E-01 0.27453264E+03</pdfrwt>
<pdfrwt beam="2">  1       -2 0.10983401E-01 0.27453264E+03</pdfrwt>
<totfact> 0.71186137E+03</totfact>
</mgrwt>
</event>
<event>
 9    1  0.7957670E-001  0.2708331E+03  0.7818608E-02  0.1100804E+00
         -3   -1    0    0    0  501 -0.00000000000E+00  0.00000000000E+00  0.62746864066E+02  0.62746864066E+02  0.00000000000E+00 0.  1.
          3   -1    0    0  501    0  0.00000000000E+00 -0.00000000000E+00 -0.29224799631E+03  0.29224799631E+03  0.00000000000E+00 0.  1.
         35    2    1    2    0    0 -0.17763568394E-14  0.71054273576E-14 -0.22950113224E+03  0.35499486038E+03  0.27083312425E+03 0.  0.
         25    2    3    3    0    0 -0.10321057441E+02 -0.85013218838E+01 -0.46797922093E+02  0.13380842281E+03  0.12464289712E+03 0.  0.
         25    2    3    3    0    0  0.10321057441E+02  0.85013218838E+01 -0.18270321015E+03  0.22118643757E+03  0.12395233142E+03 0.  0.
          5    1    4    4  502    0  0.23053017137E+02  0.44869187666E+02  0.66501219894E+01  0.51097942457E+02  0.47000000000E+01 0.  1.
         -5    1    4    4    0  502 -0.33374074578E+02 -0.53370509549E+02 -0.53448044082E+02  0.82710480350E+02  0.47000000000E+01 0.  1.
          5    1    5    5  503    0  0.87085947670E+01 -0.51533663316E+02 -0.39040449090E+02  0.65404929040E+02  0.47000000000E+01 0.  1.
         -5    1    5    5    0  503  0.16124626737E+01  0.60034985200E+02 -0.14366276106E+03  0.15578150853E+03  0.47000000000E+01 0.  1.
<mgrwt>
<rscale>  0 0.27083312E+03</rscale>
<asrwt>0</asrwt>
<pdfrwt beam="1">  1        3 0.44961230E-01 0.27083312E+03</pdfrwt>
<pdfrwt beam="2">  1       -3 0.96533637E-02 0.27083312E+03</pdfrwt>
<totfact> 0.98121604E+02</totfact>
</mgrwt>
</event>
<event>
 9    1  0.7957670E-001  0.2730397E+03  0.7818608E-02  0.1099552E+00
          2   -1    0    0  501    0  0.00000000000E+00  0.00000000000E+00  0.58000021886E+03  0.58000021886E+03  0.00000000000E+00 0. -1.
         -2   -1    0    0    0  501 -0.00000000000E+00 -0.00000000000E+00 -0.32133909950E+02  0.32133909950E+02  0.00000000000E+00 0. -1.
         35    2    1    2    0    0  0.00000000000E+00  0.35527136788E-14  0.54786630891E+03  0.61213412881E+03  0.27303973926E+03 0.  0.
         25    2    3    3    0    0 -0.50868353024E+02 -0.15620818785E+02  0.26430586232E+03  0.29745789990E+03  0.12566628043E+03 0.  0.
         25    2    3    3    0    0  0.50868353024E+02  0.15620818785E+02  0.28356044659E+03  0.31467622891E+03  0.12563042169E+03 0.  0.
          5    1    4    4  502    0  0.39744547150E+02 -0.12590880500E+02  0.53919655213E+02  0.68319678850E+02  0.47000000000E+01 0.  1.
         -5    1    4    4    0  502 -0.90612900174E+02 -0.30299382849E+01  0.21038620711E+03  0.22913822105E+03  0.47000000000E+01 0.  1.
          5    1    5    5  503    0  0.28731789683E+02 -0.53627105710E+02  0.99475513064E+02  0.11669982821E+03  0.47000000000E+01 0.  1.
         -5    1    5    5    0  503  0.22136563342E+02  0.69247924495E+02  0.18408493352E+03  0.19797640070E+03  0.47000000000E+01 0.  1.
<mgrwt>
<rscale>  0 0.27303974E+03</rscale>
<asrwt>0</asrwt>
<pdfrwt beam="1">  1        2 0.89230795E-01 0.27303974E+03</pdfrwt>
<pdfrwt beam="2">  1       -2 0.49436789E-02 0.27303974E+03</pdfrwt>
<totfact> 0.10402909E+04</totfact>
</mgrwt>
</event>
<event>
 9    1  0.7957670E-001  0.2681518E+03  0.7818608E-02  0.1102342E+00
          1   -1    0    0  501    0  0.00000000000E+00  0.00000000000E+00  0.27182156407E+04  0.27182156407E+04  0.00000000000E+00 0. -1.
         -1   -1    0    0    0  501 -0.00000000000E+00 -0.00000000000E+00 -0.66132888372E+01  0.66132888372E+01  0.00000000000E+00 0. -1.
         35    2    1    2    0    0  0.35527136788E-14 -0.35527136788E-14  0.27116023519E+04  0.27248289295E+04  0.26815178652E+03 0.  0.
         25    2    3    3    0    0  0.67868614293E+01  0.10172685598E+02  0.18342212072E+04  0.18385154949E+04  0.12498897169E+03 0.  0.
         25    2    3    3    0    0 -0.67868614293E+01 -0.10172685598E+02  0.87738114464E+03  0.88631343461E+03  0.12491711804E+03 0.  0.
          5    1    4    4  502    0  0.42130674162E+02  0.52695171592E+02  0.11843177086E+04  0.11862471495E+04  0.47000000000E+01 0.  1.
         -5    1    4    4    0  502 -0.35343812733E+02 -0.42522485994E+02  0.64990349860E+03  0.65226834540E+03  0.47000000000E+01 0.  1.
          5    1    5    5  503    0  0.23612965814E+02 -0.26771935384E+01  0.82322530971E+03  0.82358165355E+03  0.47000000000E+01 0. -1.
         -5    1    5    5    0  503 -0.30399827243E+02 -0.74954920598E+01  0.54155834926E+02  0.62731781054E+02  0.47000000000E+01 0. -1.
<mgrwt>
<rscale>  0 0.26815179E+03</rscale>
<asrwt>0</asrwt>
<pdfrwt beam="1">  1        1 0.41818613E+00 0.26815179E+03</pdfrwt>
<pdfrwt beam="2">  1       -1 0.10174312E-02 0.26815179E+03</pdfrwt>
<totfact> 0.20769437E+03</totfact>
</mgrwt>
</event>
<event>
 9    1  0.7957670E-001  0.2744728E+03  0.7818608E-02  0.1098747E+00
          1   -1    0    0  501    0  0.00000000000E+00  0.00000000000E+00  0.12720958572E+03  0.12720958572E+03  0.00000000000E+00 0. -1.
         -1   -1    0    0    0  501 -0.00000000000E+00 -0.00000000000E+00 -0.14805352837E+03  0.14805352837E+03  0.00000000000E+00 0. -1.
         35    2    1    2    0    0  0.71054273576E-14  0.14210854715E-13 -0.20843942647E+02  0.27526311409E+03  0.27447278924E+03 0.  0.
         25    2    3    3    0    0 -0.30901599328E+02 -0.47815064147E+02  0.22792778331E+02  0.13131036644E+03  0.11611077637E+03 0.  0.
         25    2    3    3    0    0  0.30901599328E+02  0.47815064147E+02 -0.43636720978E+02  0.14395274766E+03  0.12480801633E+03 0.  0.
          5    1    4    4  502    0 -0.73909903460E+01  0.19080113873E+02  0.50769819560E+02  0.54939439948E+02  0.47000000000E+01 0. -1.
         -5    1    4    4    0  502 -0.23510608982E+02 -0.66895178019E+02 -0.27977041229E+02  0.76370926489E+02  0.47000000000E+01 0. -1.
          5    1    5    5  503    0  0.53027176294E+02  0.11613414185E+01  0.24267954037E+02  0.58517123415E+02  0.47000000000E+01 0.  1.
         -5    1    5    5    0  503 -0.22125576966E+02  0.46653722728E+02 -0.67904675016E+02  0.85435624241E+02  0.47000000000E+01 0.  1.
<mgrwt>
<rscale>  0 0.27447279E+03</rscale>
<asrwt>0</asrwt>
<pdfrwt beam="1">  1        1 0.19570706E-01 0.27447279E+03</pdfrwt>
<pdfrwt beam="2">  1       -1 0.22777466E-01 0.27447279E+03</pdfrwt>
<totfact> 0.42464552E+03</totfact>
</mgrwt>
</event>
<event>
 9    1  0.7957670E-001  0.2749164E+03  0.7818608E-02  0.1098498E+00
         -1   -1    0    0    0  501 -0.00000000000E+00  0.00000000000E+00  0.45216196569E+02  0.45216196569E+02  0.00000000000E+00 0.  1.
          1   -1    0    0  501    0  0.00000000000E+00 -0.00000000000E+00 -0.41787576684E+03  0.41787576684E+03  0.00000000000E+00 0.  1.
         35    2    1    2    0    0  0.71054273576E-14  0.71054273576E-14 -0.37265957027E+03  0.46309196341E+03  0.27491637139E+03 0.  0.
         25    2    3    3    0    0  0.43499876356E+02  0.20903964663E+02 -0.18338285867E+03  0.22753075750E+03  0.12574481211E+03 0.  0.
         25    2    3    3    0    0 -0.43499876356E+02 -0.20903964663E+02 -0.18927671160E+03  0.23556120591E+03  0.13165938324E+03 0.  0.
          5    1    4    4  502    0  0.23406174162E+02  0.63708059230E+02 -0.45906307353E+02  0.82073411374E+02  0.47000000000E+01 0.  1.
         -5    1    4    4    0  502  0.20093702195E+02 -0.42804094568E+02 -0.13747655131E+03  0.14545734612E+03  0.47000000000E+01 0.  1.
          5    1    5    5  503    0 -0.38713630158E+02  0.27281398663E+01 -0.20346900252E+03  0.20719052318E+03  0.47000000000E+01 0.  1.
         -5    1    5    5    0  503 -0.47862461984E+01 -0.23632104529E+02  0.14192290921E+02  0.28370682733E+02  0.47000000000E+01 0.  1.
<mgrwt>
<rscale>  0 0.27491637E+03</rscale>
<asrwt>0</asrwt>
<pdfrwt beam="1">  1        1 0.64288581E-01 0.27491637E+03</pdfrwt>
<pdfrwt beam="2">  1       -1 0.69563378E-02 0.27491637E+03</pdfrwt>
<totfact> 0.60719584E+03</totfact>
</mgrwt>
</event>
<event>
 9    1  0.7957670E-001  0.2762675E+03  0.7818608E-02  0.1097745E+00
         -4   -1    0    0    0  501 -0.00000000000E+00  0.00000000000E+00  0.24464763716E+03  0.24464763716E+03  0.00000000000E+00 0.  1.
          4   -1    0    0  501    0  0.00000000000E+00 -0.00000000000E+00 -0.77993557019E+02  0.77993557019E+02  0.00000000000E+00 0.  1.
         35    2    1    2    0    0  0.71054273576E-14  0.71054273576E-14  0.16665408015E+03  0.32264119418E+03  0.27626754742E+03 0.  0.
         25    2    3    3    0    0 -0.19005693873E+02 -0.20582941682E+02  0.14502180105E+03  0.19361102092E+03  0.12517599911E+03 0.  0.
         25    2    3    3    0    0  0.19005693873E+02  0.20582941682E+02  0.21632279092E+02  0.12903017326E+03  0.12408044256E+03 0.  0.
          5    1    4    4  502    0 -0.36367373642E+02 -0.68038413269E+02  0.81793730857E+02  0.11253495436E+03  0.47000000000E+01 0.  1.
         -5    1    4    4    0  502  0.17361679769E+02  0.47455471588E+02  0.63228070198E+02  0.81076066561E+02  0.47000000000E+01 0.  1.
          5    1    5    5  503    0  0.10103759087E+02 -0.38589091657E+02 -0.29778257952E+02  0.50000385892E+02  0.47000000000E+01 0. -1.
         -5    1    5    5    0  503  0.89019347854E+01  0.59172033339E+02  0.51410537044E+02  0.79029787369E+02  0.47000000000E+01 0. -1.
<mgrwt>
<rscale>  0 0.27626755E+03</rscale>
<asrwt>0</asrwt>
<pdfrwt beam="1">  1        4 0.11999009E-01 0.27626755E+03</pdfrwt>
<pdfrwt beam="2">  1       -4 0.37638098E-01 0.27626755E+03</pdfrwt>
<totfact> 0.71514250E+02</totfact>
</mgrwt>
</event>
<event>
 9    1  0.7957670E-001  0.3030295E+03  0.7818608E-02  0.1083736E+00
          1   -1    0    0  501    0  0.00000000000E+00  0.00000000000E+00  0.76501439170E+02  0.76501439170E+02  0.00000000000E+00 0.  1.
         -1   -1    0    0    0  501 -0.00000000000E+00 -0.00000000000E+00 -0.30008209653E+03  0.30008209653E+03  0.00000000000E+00 0.  1.
         35    2    1    2    0    0 -0.14210854715E-13 -0.14210854715E-13 -0.22358065736E+03  0.37658353570E+03  0.30302945239E+03 0.  0.
         25    2    3    3    0    0 -0.68283617894E+02 -0.44445103526E+02 -0.14391252526E+03  0.20697383876E+03  0.12445615816E+03 0.  0.
         25    2    3    3    0    0  0.68283617894E+02  0.44445103526E+02 -0.79668132095E+02  0.16960969694E+03  0.12562809528E+03 0.  0.
          5    1    4    4  502    0  0.15883813883E+02  0.26263555031E+02 -0.79192044937E+01  0.32044869576E+02  0.47000000000E+01 0. -1.
         -5    1    4    4    0  502 -0.84167431777E+02 -0.70708658556E+02 -0.13599332077E+03  0.17492896919E+03  0.47000000000E+01 0. -1.
          5    1    5    5  503    0  0.87505589888E+02  0.26913429434E+02 -0.66032772790E+01  0.91908945247E+02  0.47000000000E+01 0.  1.
         -5    1    5    5    0  503 -0.19221971995E+02  0.17531674091E+02 -0.73064854816E+02  0.77700751689E+02  0.47000000000E+01 0.  1.
<mgrwt>
<rscale>  0 0.30302945E+03</rscale>
<asrwt>0</asrwt>
<pdfrwt beam="1">  1        1 0.11769452E-01 0.30302945E+03</pdfrwt>
<pdfrwt beam="2">  1       -1 0.46166476E-01 0.30302945E+03</pdfrwt>
<totfact> 0.24516379E+03</totfact>
</mgrwt>
</event>
<event>
 9    1  0.7957670E-001  0.2874173E+03  0.7818608E-02  0.1091705E+00
          2   -1    0    0  501    0  0.00000000000E+00  0.00000000000E+00  0.43490918687E+03  0.43490918687E+03  0.00000000000E+00 0.  1.
         -2   -1    0    0    0  501 -0.00000000000E+00 -0.00000000000E+00 -0.47486179592E+02  0.47486179592E+02  0.00000000000E+00 0.  1.
         35    2    1    2    0    0 -0.35527136788E-14  0.00000000000E+00  0.38742300728E+03  0.48239536647E+03  0.28741729770E+03 0.  0.
         25    2    3    3    0    0 -0.91147484128E+01 -0.17413308167E+01  0.30638936843E+03  0.33350135343E+03  0.13138720175E+03 0.  0.
         25    2    3    3    0    0  0.91147484128E+01  0.17413308167E+01  0.81033638856E+02  0.14889401304E+03  0.12456671153E+03 0.  0.
          5    1    4    4  502    0 -0.12817953727E+02 -0.47540525050E+02  0.27056341274E+03  0.27504736278E+03  0.47000000000E+01 0. -1.
         -5    1    4    4    0  502  0.37032053144E+01  0.45799194233E+02  0.35825955689E+02  0.58453990651E+02  0.47000000000E+01 0. -1.
          5    1    5    5  503    0  0.36184896641E+02  0.52288969274E+02  0.60244576657E+02  0.87721046900E+02  0.47000000000E+01 0. -1.
         -5    1    5    5    0  503 -0.27070148228E+02 -0.50547638458E+02  0.20789062199E+02  0.61172966136E+02  0.47000000000E+01 0. -1.
<mgrwt>
<rscale>  0 0.28741730E+03</rscale>
<asrwt>0</asrwt>
<pdfrwt beam="1">  1        2 0.66909103E-01 0.28741730E+03</pdfrwt>
<pdfrwt beam="2">  1       -2 0.73055664E-02 0.28741730E+03</pdfrwt>
<totfact> 0.79027874E+03</totfact>
</mgrwt>
</event>
<event>
 9    1  0.7957670E-001  0.2783795E+03  0.7818608E-02  0.1096577E+00
          1   -1    0    0  501    0  0.00000000000E+00  0.00000000000E+00  0.57397278359E+03  0.57397278359E+03  0.00000000000E+00 0.  1.
         -1   -1    0    0    0  501 -0.00000000000E+00 -0.00000000000E+00 -0.33753852090E+02  0.33753852090E+02  0.00000000000E+00 0.  1.
         35    2    1    2    0    0  0.71054273576E-14  0.00000000000E+00  0.54021893150E+03  0.60772663568E+03  0.27837954265E+03 0.  0.
         25    2    3    3    0    0 -0.50439123930E+02  0.10061613063E+02  0.33667414322E+03  0.36389846562E+03  0.12816892483E+03 0.  0.
         25    2    3    3    0    0  0.50439123930E+02 -0.10061613063E+02  0.20354478828E+03  0.24382817006E+03  0.12400142901E+03 0.  0.
          5    1    4    4  502    0  0.24486999088E+02 -0.34381250798E+02  0.57998806515E+02  0.71886264946E+02  0.47000000000E+01 0.  1.
         -5    1    4    4    0  502 -0.74926123018E+02  0.44442863861E+02  0.27867533670E+03  0.29201220068E+03  0.47000000000E+01 0.  1.
          5    1    5    5  503    0  0.19289973527E+02  0.42207365711E+01 -0.13283694211E+02  0.24258281632E+02  0.47000000000E+01 0.  1.
         -5    1    5    5    0  503  0.31149150403E+02 -0.14282349634E+02  0.21682848249E+03  0.21956988842E+03  0.47000000000E+01 0.  1.
<mgrwt>
<rscale>  0 0.27837954E+03</rscale>
<asrwt>0</asrwt>
<pdfrwt beam="1">  1        1 0.88303498E-01 0.27837954E+03</pdfrwt>
<pdfrwt beam="2">  1       -1 0.51929007E-02 0.27837954E+03</pdfrwt>
<totfact> 0.61983922E+03</totfact>
</mgrwt>
</event>
<event>
 9    1  0.7957670E-001  0.2766534E+03  0.7818608E-02  0.1097531E+00
         -2   -1    0    0    0  501 -0.00000000000E+00  0.00000000000E+00  0.38568019308E+02  0.38568019308E+02  0.00000000000E+00 0.  1.
          2   -1    0    0  501    0  0.00000000000E+00 -0.00000000000E+00 -0.49611773046E+03  0.49611773046E+03  0.00000000000E+00 0.  1.
         35    2    1    2    0    0 -0.71054273576E-14  0.35527136788E-14 -0.45754971115E+03  0.53468574977E+03  0.27665341644E+03 0.  0.
         25    2    3    3    0    0  0.27085121917E+02  0.38268090862E+01 -0.17149046545E+03  0.21961489927E+03  0.13443762845E+03 0.  0.
         25    2    3    3    0    0 -0.27085121917E+02 -0.38268090862E+01 -0.28605924570E+03  0.31507085050E+03  0.12919559004E+03 0.  0.
          5    1    4    4  502    0 -0.37104915216E+02 -0.40981053153E+02 -0.95305568667E+02  0.11027902280E+03  0.47000000000E+01 0.  1.
         -5    1    4    4    0  502  0.64190037133E+02  0.44807862239E+02 -0.76184896780E+02  0.10933587647E+03  0.47000000000E+01 0.  1.
          5    1    5    5  503    0 -0.56168970782E+02 -0.25204668599E+02 -0.59982967610E+02  0.86082954184E+02  0.47000000000E+01 0. -1.
         -5    1    5    5    0  503  0.29083848864E+02  0.21377859512E+02 -0.22607627809E+03  0.22898789632E+03  0.47000000000E+01 0. -1.
<mgrwt>
<rscale>  0 0.27665342E+03</rscale>
<asrwt>0</asrwt>
<pdfrwt beam="1">  1        2 0.76325797E-01 0.27665342E+03</pdfrwt>
<pdfrwt beam="2">  1       -2 0.59335421E-02 0.27665342E+03</pdfrwt>
<totfact> 0.94046364E+03</totfact>
</mgrwt>
</event>
<event>
 9    1  0.7957670E-001  0.2675152E+03  0.7818608E-02  0.1102710E+00
         -2   -1    0    0    0  501 -0.00000000000E+00  0.00000000000E+00  0.20653883660E+02  0.20653883660E+02  0.00000000000E+00 0. -1.
          2   -1    0    0  501    0  0.00000000000E+00 -0.00000000000E+00 -0.86623428569E+03  0.86623428569E+03  0.00000000000E+00 0. -1.
         35    2    1    2    0    0  0.00000000000E+00  0.00000000000E+00 -0.84558040203E+03  0.88688816935E+03  0.26751524935E+03 0.  0.
         25    2    3    3    0    0 -0.17556763600E+02  0.34137945814E+02 -0.33135761643E+03  0.35615414044E+03  0.12479688494E+03 0.  0.
         25    2    3    3    0    0  0.17556763600E+02 -0.34137945814E+02 -0.51422278560E+03  0.53073402891E+03  0.12561805971E+03 0.  0.
          5    1    4    4  502    0 -0.63056032715E+02  0.45629114711E+02 -0.15376848425E+03  0.17240915324E+03  0.47000000000E+01 0.  1.
         -5    1    4    4    0  502  0.45499269115E+02 -0.11491168897E+02 -0.17758913218E+03  0.18374498720E+03  0.47000000000E+01 0.  1.
          5    1    5    5  503    0  0.70430186087E+02 -0.17484331522E+02 -0.34570268762E+03  0.35326838407E+03  0.47000000000E+01 0.  1.
         -5    1    5    5    0  503 -0.52873422487E+02 -0.16653614292E+02 -0.16852009798E+03  0.17746564484E+03  0.47000000000E+01 0.  1.
<mgrwt>
<rscale>  0 0.26751525E+03</rscale>
<asrwt>0</asrwt>
<pdfrwt beam="1">  1        2 0.13326681E+00 0.26751525E+03</pdfrwt>
<pdfrwt beam="2">  1       -2 0.31775207E-02 0.26751525E+03</pdfrwt>
<totfact> 0.12371289E+04</totfact>
</mgrwt>
</event>
<event>
 9    1  0.7957670E-001  0.2733768E+03  0.7818608E-02  0.1099362E+00
         -2   -1    0    0    0  501 -0.00000000000E+00  0.00000000000E+00  0.16989495725E+02  0.16989495725E+02  0.00000000000E+00 0. -1.
          2   -1    0    0  501    0  0.00000000000E+00 -0.00000000000E+00 -0.10997217966E+04  0.10997217966E+04  0.00000000000E+00 0. -1.
         35    2    1    2    0    0  0.00000000000E+00  0.35527136788E-14 -0.10827323009E+04  0.11167112924E+04  0.27337680050E+03 0.  0.
         25    2    3    3    0    0 -0.54128167578E+02 -0.27619799958E+01 -0.49652635527E+03  0.51496109910E+03  0.12533564954E+03 0.  0.
         25    2    3    3    0    0  0.54128167578E+02  0.27619799958E+01 -0.58620594563E+03  0.60175019326E+03  0.12461299023E+03 0.  0.
          5    1    4    4  502    0  0.11017090920E+02  0.35643032416E+02 -0.52850008907E+02  0.64861510109E+02  0.47000000000E+01 0.  1.
         -5    1    4    4    0  502 -0.65145258497E+02 -0.38405012412E+02 -0.44367634637E+03  0.45009958899E+03  0.47000000000E+01 0.  1.
          5    1    5    5  503    0  0.71040996998E+02  0.30696242921E+02 -0.53661743633E+03  0.54218949230E+03  0.47000000000E+01 0.  1.
         -5    1    5    5    0  503 -0.16912829420E+02 -0.27934262925E+02 -0.49588509301E+02  0.59560700960E+02  0.47000000000E+01 0.  1.
<mgrwt>
<rscale>  0 0.27337680E+03</rscale>
<asrwt>0</asrwt>
<pdfrwt beam="1">  1        2 0.16918802E+00 0.27337680E+03</pdfrwt>
<pdfrwt beam="2">  1       -2 0.26137678E-02 0.27337680E+03</pdfrwt>
<totfact> 0.11862581E+04</totfact>
</mgrwt>
</event>
<event>
 9    1  0.7957670E-001  0.2780068E+03  0.7818608E-02  0.1096783E+00
         -2   -1    0    0    0  501 -0.00000000000E+00  0.00000000000E+00  0.15283662364E+02  0.15283662364E+02  0.00000000000E+00 0. -1.
          2   -1    0    0  501    0  0.00000000000E+00 -0.00000000000E+00 -0.12642226230E+04  0.12642226230E+04  0.00000000000E+00 0. -1.
         35    2    1    2    0    0  0.00000000000E+00  0.00000000000E+00 -0.12489389606E+04  0.12795062853E+04  0.27800684684E+03 0.  0.
         25    2    3    3    0    0  0.45722438610E+02 -0.15518246196E+02 -0.79885411235E+03  0.80992907834E+03  0.12444220250E+03 0.  0.
         25    2    3    3    0    0 -0.45722438610E+02  0.15518246196E+02 -0.45008484826E+03  0.46957720700E+03  0.12488004381E+03 0.  0.
          5    1    4    4  502    0  0.40006004817E+02  0.31374961475E+02 -0.13424958953E+03  0.14363116277E+03  0.47000000000E+01 0.  1.
         -5    1    4    4    0  502  0.57164337932E+01 -0.46893207671E+02 -0.66460452282E+03  0.66629791557E+03  0.47000000000E+01 0.  1.
          5    1    5    5  503    0 -0.87193925158E+01  0.47570241684E+02 -0.38472523696E+03  0.38778157983E+03  0.47000000000E+01 0. -1.
         -5    1    5    5    0  503 -0.37003046095E+02 -0.32051995488E+02 -0.65359611296E+02  0.81795627168E+02  0.47000000000E+01 0. -1.
<mgrwt>
<rscale>  0 0.27800685E+03</rscale>
<asrwt>0</asrwt>
<pdfrwt beam="1">  1        2 0.19449583E+00 0.27800685E+03</pdfrwt>
<pdfrwt beam="2">  1       -2 0.23513321E-02 0.27800685E+03</pdfrwt>
<totfact> 0.11176153E+04</totfact>
</mgrwt>
</event>
<event>
 9    1  0.7957670E-001  0.2772238E+03  0.7818608E-02  0.1097215E+00
         -4   -1    0    0    0  501 -0.00000000000E+00  0.00000000000E+00  0.52644729451E+03  0.52644729451E+03  0.00000000000E+00 0.  1.
          4   -1    0    0  501    0  0.00000000000E+00 -0.00000000000E+00 -0.36496066584E+02  0.36496066584E+02  0.00000000000E+00 0.  1.
         35    2    1    2    0    0 -0.14210854715E-13  0.35527136788E-14  0.48995122792E+03  0.56294336109E+03  0.27722377613E+03 0.  0.
         25    2    3    3    0    0 -0.34509687361E+02 -0.23244082440E+02  0.15263198294E+03  0.20171299139E+03  0.12514153104E+03 0.  0.
         25    2    3    3    0    0  0.34509687361E+02  0.23244082440E+02  0.33731924499E+03  0.36123036970E+03  0.12235971994E+03 0.  0.
          5    1    4    4  502    0 -0.67556202181E+02 -0.52704518634E+02  0.85313388195E+02  0.12100442530E+03  0.47000000000E+01 0.  1.
         -5    1    4    4    0  502  0.33046514820E+02  0.29460436194E+02  0.67318594741E+02  0.80708566090E+02  0.47000000000E+01 0.  1.
          5    1    5    5  503    0 -0.38498852080E+02  0.28601207596E+02  0.77557303883E+02  0.91309452265E+02  0.47000000000E+01 0. -1.
         -5    1    5    5    0  503  0.73008539441E+02 -0.53571251556E+01  0.25976194111E+03  0.26992091743E+03  0.47000000000E+01 0. -1.
<mgrwt>
<rscale>  0 0.27722378E+03</rscale>
<asrwt>0</asrwt>
<pdfrwt beam="1">  1        4 0.56147798E-02 0.27722378E+03</pdfrwt>
<pdfrwt beam="2">  1       -4 0.80991886E-01 0.27722378E+03</pdfrwt>
<totfact> 0.51261454E+02</totfact>
</mgrwt>
</event>
<event>
 9    1  0.7957670E-001  0.2894402E+03  0.7818608E-02  0.1090642E+00
         -2   -1    0    0    0  501 -0.00000000000E+00  0.00000000000E+00  0.22070445209E+04  0.22070445209E+04  0.00000000000E+00 0.  1.
          2   -1    0    0  501    0  0.00000000000E+00 -0.00000000000E+00 -0.94895708957E+01  0.94895708957E+01  0.00000000000E+00 0.  1.
         35    2    1    2    0    0  0.00000000000E+00  0.00000000000E+00  0.21975549500E+04  0.22165340918E+04  0.28944018692E+03 0.  0.
         25    2    3    3    0    0  0.67472807930E+02 -0.71816611045E+01  0.92606652003E+03  0.93690098219E+03  0.12482025011E+03 0.  0.
         25    2    3    3    0    0 -0.67472807930E+02  0.71816611045E+01  0.12714884300E+04  0.12796331096E+04  0.12717669433E+03 0.  0.
          5    1    4    4  502    0 -0.35988763413E+02  0.80940984776E+01  0.26501109923E+03  0.26760732097E+03  0.47000000000E+01 0. -1.
         -5    1    4    4    0  502  0.10346157134E+03 -0.15275759582E+02  0.66105542081E+03  0.66929366122E+03  0.47000000000E+01 0. -1.
          5    1    5    5  503    0 -0.10370751748E+03  0.21050233342E+00  0.10408442836E+04  0.10460087027E+04  0.47000000000E+01 0. -1.
         -5    1    5    5    0  503  0.36234709547E+02  0.69711587711E+01  0.23064414637E+03  0.23362440687E+03  0.47000000000E+01 0. -1.
<mgrwt>
<rscale>  0 0.28944019E+03</rscale>
<asrwt>0</asrwt>
<pdfrwt beam="1">  1        2 0.14599357E-02 0.28944019E+03</pdfrwt>
<pdfrwt beam="2">  1       -2 0.33954490E+00 0.28944019E+03</pdfrwt>
<totfact> 0.18103664E+02</totfact>
</mgrwt>
</event>
<event>
 9    1  0.7957670E-001  0.2745822E+03  0.7818608E-02  0.1098685E+00
          1   -1    0    0  501    0  0.00000000000E+00  0.00000000000E+00  0.76687713343E+03  0.76687713343E+03  0.00000000000E+00 0.  1.
         -1   -1    0    0    0  501 -0.00000000000E+00 -0.00000000000E+00 -0.24578710047E+02  0.24578710047E+02  0.00000000000E+00 0.  1.
         35    2    1    2    0    0  0.00000000000E+00  0.00000000000E+00  0.74229842338E+03  0.79145584348E+03  0.27458223325E+03 0.  0.
         25    2    3    3    0    0 -0.42616063425E+01  0.42215623909E+02  0.49069422324E+03  0.50808041186E+03  0.12475802180E+03 0.  0.
         25    2    3    3    0    0  0.42616063425E+01 -0.42215623909E+02  0.25160420015E+03  0.28337543162E+03  0.12327465889E+03 0.  0.
          5    1    4    4  502    0  0.54556685923E+02 -0.33453501725E+01  0.25674044079E+03  0.26253641135E+03  0.47000000000E+01 0.  1.
         -5    1    4    4    0  502 -0.58818292266E+02  0.45560974082E+02  0.23395378245E+03  0.24554400051E+03  0.47000000000E+01 0.  1.
          5    1    5    5  503    0  0.21685964877E+02 -0.77601716101E+02  0.11083241879E+03  0.13710660987E+03  0.47000000000E+01 0.  1.
         -5    1    5    5    0  503 -0.17424358535E+02  0.35386092192E+02  0.14077178135E+03  0.14626882175E+03  0.47000000000E+01 0.  1.
<mgrwt>
<rscale>  0 0.27458223E+03</rscale>
<asrwt>0</asrwt>
<pdfrwt beam="1">  1        1 0.11798108E+00 0.27458223E+03</pdfrwt>
<pdfrwt beam="2">  1       -1 0.37813406E-02 0.27458223E+03</pdfrwt>
<totfact> 0.65618144E+03</totfact>
</mgrwt>
</event>
<event>
 9    1  0.7957670E-001  0.2749392E+03  0.7818608E-02  0.1098486E+00
         -1   -1    0    0    0  501 -0.00000000000E+00  0.00000000000E+00  0.11473669512E+04  0.11473669512E+04  0.00000000000E+00 0.  1.
          1   -1    0    0  501    0  0.00000000000E+00 -0.00000000000E+00 -0.16470658078E+02  0.16470658078E+02  0.00000000000E+00 0.  1.
         35    2    1    2    0    0  0.00000000000E+00 -0.71054273576E-14  0.11308962931E+04  0.11638376093E+04  0.27493918414E+03 0.  0.
         25    2    3    3    0    0 -0.55831999335E+02 -0.11746999223E+01  0.63939559706E+03  0.65383888623E+03  0.12473959892E+03 0.  0.
         25    2    3    3    0    0  0.55831999335E+02  0.11746999223E+01  0.49150069607E+03  0.50999872306E+03  0.12412562673E+03 0.  0.
          5    1    4    4  502    0 -0.74893290593E+01 -0.55529463312E+02  0.17653654697E+03  0.18527507593E+03  0.47000000000E+01 0.  1.
         -5    1    4    4    0  502 -0.48342670276E+02  0.54354763390E+02  0.46285905009E+03  0.46856381030E+03  0.47000000000E+01 0.  1.
          5    1    5    5  503    0  0.30362071779E+02  0.48701478625E+02  0.39651261198E+03  0.40067197416E+03  0.47000000000E+01 0.  1.
         -5    1    5    5    0  503  0.25469927557E+02 -0.47526778702E+02  0.94988084095E+02  0.10932674889E+03  0.47000000000E+01 0.  1.
<mgrwt>
<rscale>  0 0.27493918E+03</rscale>
<asrwt>0</asrwt>
<pdfrwt beam="1">  1        1 0.25339483E-02 0.27493918E+03</pdfrwt>
<pdfrwt beam="2">  1       -1 0.17651793E+00 0.27493918E+03</pdfrwt>
<totfact> 0.10465579E+03</totfact>
</mgrwt>
</event>
<event>
 9    1  0.7957670E-001  0.2790004E+03  0.7818608E-02  0.1096236E+00
          2   -1    0    0  501    0  0.00000000000E+00  0.00000000000E+00  0.79295621243E+03  0.79295621243E+03  0.00000000000E+00 0. -1.
         -2   -1    0    0    0  501 -0.00000000000E+00 -0.00000000000E+00 -0.24541466246E+02  0.24541466246E+02  0.00000000000E+00 0. -1.
         35    2    1    2    0    0  0.00000000000E+00  0.00000000000E+00  0.76841474618E+03  0.81749767868E+03  0.27900041664E+03 0.  0.
         25    2    3    3    0    0 -0.24416382969E+02  0.10753810009E+02  0.53554518003E+03  0.55133053082E+03  0.12823770966E+03 0.  0.
         25    2    3    3    0    0  0.24416382969E+02 -0.10753810009E+02  0.23286956616E+03  0.26616714786E+03  0.12611467626E+03 0.  0.
          5    1    4    4  502    0 -0.25058109205E+02  0.55925942798E+02  0.13638812093E+03  0.14959755829E+03  0.47000000000E+01 0.  1.
         -5    1    4    4    0  502  0.64172623638E+00 -0.45172132789E+02  0.39915705910E+03  0.40173297253E+03  0.47000000000E+01 0.  1.
          5    1    5    5  503    0  0.71746066303E+02  0.62178332845E+01  0.94743644337E+02  0.11909915039E+03  0.47000000000E+01 0.  1.
         -5    1    5    5    0  503 -0.47329683334E+02 -0.16971643293E+02  0.13812592182E+03  0.14706799747E+03  0.47000000000E+01 0.  1.
<mgrwt>
<rscale>  0 0.27900042E+03</rscale>
<asrwt>0</asrwt>
<pdfrwt beam="1">  1        2 0.12199324E+00 0.27900042E+03</pdfrwt>
<pdfrwt beam="2">  1       -2 0.37756108E-02 0.27900042E+03</pdfrwt>
<totfact> 0.10730025E+04</totfact>
</mgrwt>
</event>
<event>
 9    1  0.7957670E-001  0.2792737E+03  0.7818608E-02  0.1096086E+00
          1   -1    0    0  501    0  0.00000000000E+00  0.00000000000E+00  0.19155014743E+03  0.19155014743E+03  0.00000000000E+00 0. -1.
         -1   -1    0    0    0  501 -0.00000000000E+00 -0.00000000000E+00 -0.10179290939E+03  0.10179290939E+03  0.00000000000E+00 0. -1.
         35    2    1    2    0    0  0.00000000000E+00  0.88817841970E-15  0.89757238036E+02  0.29334305682E+03  0.27927367796E+03 0.  0.
         25    2    3    3    0    0 -0.64446526121E+02  0.54843452201E+01  0.50246048538E+02  0.14693989120E+03  0.12199685840E+03 0.  0.
         25    2    3    3    0    0  0.64446526121E+02 -0.54843452201E+01  0.39511189498E+02  0.14640316562E+03  0.12525701591E+03 0.  0.
          5    1    4    4  502    0 -0.66660080998E+01 -0.13628335758E+02  0.78204402259E+02  0.79800913104E+02  0.47000000000E+01 0. -1.
         -5    1    4    4    0  502 -0.57780518021E+02  0.19112680978E+02 -0.27958353721E+02  0.67138978096E+02  0.47000000000E+01 0. -1.
          5    1    5    5  503    0  0.76611939918E+02 -0.36161371389E+01  0.75715146397E+02  0.10787649966E+03  0.47000000000E+01 0.  1.
         -5    1    5    5    0  503 -0.12165413797E+02 -0.18682080812E+01 -0.36203956899E+02  0.38526665953E+02  0.47000000000E+01 0.  1.
<mgrwt>
<rscale>  0 0.27927368E+03</rscale>
<asrwt>0</asrwt>
<pdfrwt beam="1">  1        1 0.29469253E-01 0.27927368E+03</pdfrwt>
<pdfrwt beam="2">  1       -1 0.15660448E-01 0.27927368E+03</pdfrwt>
<totfact> 0.46206753E+03</totfact>
</mgrwt>
</event>
<event>
 9    1  0.7957670E-001  0.2718027E+03  0.7818608E-02  0.1100252E+00
          2   -1    0    0  501    0  0.00000000000E+00  0.00000000000E+00  0.48771103162E+04  0.48771103162E+04  0.00000000000E+00 0.  1.
         -2   -1    0    0    0  501 -0.00000000000E+00 -0.00000000000E+00 -0.37869091472E+01  0.37869091472E+01  0.00000000000E+00 0.  1.
         35    2    1    2    0    0  0.71054273576E-14  0.71054273576E-14  0.48733234071E+04  0.48808972254E+04  0.27180267599E+03 0.  0.
         25    2    3    3    0    0 -0.29614611170E+02 -0.36974365975E+02  0.26895163607E+04  0.26928891408E+04  0.12613302984E+03 0.  0.
         25    2    3    3    0    0  0.29614611170E+02  0.36974365975E+02  0.21838070464E+04  0.21880080846E+04  0.12697256957E+03 0.  0.
          5    1    4    4  502    0 -0.76700314709E+02 -0.30979350434E+02  0.13633469787E+04  0.13658622671E+04  0.47000000000E+01 0.  1.
         -5    1    4    4    0  502  0.47085703539E+02 -0.59950155417E+01  0.13261693820E+04  0.13270268737E+04  0.47000000000E+01 0.  1.
          5    1    5    5  503    0 -0.96942523610E+01 -0.42824416738E+02  0.92476270103E+03  0.92581642479E+03  0.47000000000E+01 0. -1.
         -5    1    5    5    0  503  0.39308863531E+02  0.79798782714E+02  0.12590443454E+04  0.12621916598E+04  0.47000000000E+01 0. -1.
<mgrwt>
<rscale>  0 0.27180268E+03</rscale>
<asrwt>0</asrwt>
<pdfrwt beam="1">  1        2 0.75031964E+00 0.27180268E+03</pdfrwt>
<pdfrwt beam="2">  1       -2 0.58260531E-03 0.27180268E+03</pdfrwt>
<totfact> 0.32773891E+02</totfact>
</mgrwt>
</event>
<event>
 9    1  0.7957670E-001  0.2838162E+03  0.7818608E-02  0.1093623E+00
          1   -1    0    0  501    0  0.00000000000E+00  0.00000000000E+00  0.72545277553E+03  0.72545277553E+03  0.00000000000E+00 0. -1.
         -1   -1    0    0    0  501 -0.00000000000E+00 -0.00000000000E+00 -0.27759095996E+02  0.27759095996E+02  0.00000000000E+00 0. -1.
         35    2    1    2    0    0  0.71054273576E-14  0.00000000000E+00  0.69769367954E+03  0.75321187153E+03  0.28381623094E+03 0.  0.
         25    2    3    3    0    0 -0.36644244723E+02 -0.56087286013E+02  0.30531196349E+03  0.33663310885E+03  0.12497147912E+03 0.  0.
         25    2    3    3    0    0  0.36644244723E+02  0.56087286013E+02  0.39238171604E+03  0.41657876268E+03  0.12282455011E+03 0.  0.
          5    1    4    4  502    0  0.24442193005E+02 -0.23702492356E+02  0.23645966828E+03  0.23894454098E+03  0.47000000000E+01 0.  1.
         -5    1    4    4    0  502 -0.61086437728E+02 -0.32384793657E+02  0.68852295213E+02  0.97688567861E+02  0.47000000000E+01 0.  1.
          5    1    5    5  503    0 -0.39149063643E+02 -0.83036494654E+01  0.10806017217E+03  0.11532861999E+03  0.47000000000E+01 0.  1.
         -5    1    5    5    0  503  0.75793308366E+02  0.64390935479E+02  0.28432154387E+03  0.30125014269E+03  0.47000000000E+01 0.  1.
<mgrwt>
<rscale>  0 0.28381623E+03</rscale>
<asrwt>0</asrwt>
<pdfrwt beam="1">  1        1 0.11160810E+00 0.28381623E+03</pdfrwt>
<pdfrwt beam="2">  1       -1 0.42706307E-02 0.28381623E+03</pdfrwt>
<totfact> 0.59540553E+03</totfact>
</mgrwt>
</event>
<event>
 9    1  0.7957670E-001  0.2739430E+03  0.7818608E-02  0.1099044E+00
         -2   -1    0    0    0  501 -0.00000000000E+00  0.00000000000E+00  0.51451621723E+01  0.51451621723E+01  0.00000000000E+00 0.  1.
          2   -1    0    0  501    0  0.00000000000E+00 -0.00000000000E+00 -0.36463765280E+04  0.36463765280E+04  0.00000000000E+00 0.  1.
         35    2    1    2    0    0  0.71054273576E-14  0.35527136788E-14 -0.36412313658E+04  0.36515216902E+04  0.27394304939E+03 0.  0.
         25    2    3    3    0    0 -0.55888229842E+02 -0.20430019727E+02 -0.21212034518E+04  0.21252489233E+04  0.11678194275E+03 0.  0.
         25    2    3    3    0    0  0.55888229842E+02  0.20430019727E+02 -0.15200279140E+04  0.15262727669E+04  0.12442997833E+03 0.  0.
          5    1    4    4  502    0  0.13396679166E+01 -0.36711523334E+01 -0.16797809731E+04  0.16797920942E+04  0.47000000000E+01 0.  1.
         -5    1    4    4    0  502 -0.57227897758E+02 -0.16758867394E+02 -0.44142247869E+03  0.44545682912E+03  0.47000000000E+01 0.  1.
          5    1    5    5  503    0  0.81754381982E+02  0.51825438067E+02 -0.10898754912E+04  0.10941756401E+04  0.47000000000E+01 0. -1.
         -5    1    5    5    0  503 -0.25866152140E+02 -0.31395418340E+02 -0.43015242280E+03  0.43209712677E+03  0.47000000000E+01 0. -1.
<mgrwt>
<rscale>  0 0.27394305E+03</rscale>
<asrwt>0</asrwt>
<pdfrwt beam="1">  1        2 0.56097816E+00 0.27394305E+03</pdfrwt>
<pdfrwt beam="2">  1       -2 0.79156743E-03 0.27394305E+03</pdfrwt>
<totfact> 0.24177582E+03</totfact>
</mgrwt>
</event>
<event>
 9    1  0.7957670E-001  0.2745047E+03  0.7818608E-02  0.1098729E+00
          2   -1    0    0  501    0  0.00000000000E+00  0.00000000000E+00  0.14578452196E+04  0.14578452196E+04  0.00000000000E+00 0. -1.
         -2   -1    0    0    0  501 -0.00000000000E+00 -0.00000000000E+00 -0.12921949746E+02  0.12921949746E+02  0.00000000000E+00 0. -1.
         35    2    1    2    0    0 -0.71054273576E-14 -0.71054273576E-14  0.14449232699E+04  0.14707671694E+04  0.27450466419E+03 0.  0.
         25    2    3    3    0    0  0.31974084733E+02  0.46869321159E+02  0.65963484441E+03  0.67373019828E+03  0.12480054791E+03 0.  0.
         25    2    3    3    0    0 -0.31974084733E+02 -0.46869321159E+02  0.78528842549E+03  0.79703697111E+03  0.12397962229E+03 0.  0.
          5    1    4    4  502    0  0.15421000653E+02 -0.33404490118E+02  0.39290165436E+03  0.39464853632E+03  0.47000000000E+01 0.  1.
         -5    1    4    4    0  502  0.16553084080E+02  0.80273811277E+02  0.26673319005E+03  0.27908166197E+03  0.47000000000E+01 0.  1.
          5    1    5    5  503    0 -0.66168523971E+02 -0.42320007230E+02  0.70689361604E+03  0.71125939781E+03  0.47000000000E+01 0.  1.
         -5    1    5    5    0  503  0.34194439238E+02 -0.45493139292E+01  0.78394809446E+02  0.85777573294E+02  0.47000000000E+01 0.  1.
<mgrwt>
<rscale>  0 0.27450466E+03</rscale>
<asrwt>0</asrwt>
<pdfrwt beam="1">  1        2 0.22428375E+00 0.27450466E+03</pdfrwt>
<pdfrwt beam="2">  1       -2 0.19879934E-02 0.27450466E+03</pdfrwt>
<totfact> 0.11210931E+04</totfact>
</mgrwt>
</event>
<event>
 9    1  0.7957670E-001  0.2740382E+03  0.7818608E-02  0.1098990E+00
          2   -1    0    0  501    0  0.00000000000E+00  0.00000000000E+00  0.11905001718E+03  0.11905001718E+03  0.00000000000E+00 0.  1.
         -2   -1    0    0    0  501 -0.00000000000E+00 -0.00000000000E+00 -0.15770034830E+03  0.15770034830E+03  0.00000000000E+00 0.  1.
         35    2    1    2    0    0 -0.71054273576E-14  0.00000000000E+00 -0.38650331122E+02  0.27675036548E+03  0.27403816649E+03 0.  0.
         25    2    3    3    0    0  0.47177471611E+02  0.12886527776E+01  0.60778338312E+01  0.13359162816E+03  0.12482951813E+03 0.  0.
         25    2    3    3    0    0 -0.47177471611E+02 -0.12886527776E+01 -0.44728164953E+02  0.14315873731E+03  0.12753995796E+03 0.  0.
          5    1    4    4  502    0 -0.38778017176E+02 -0.18656538988E+02  0.12319008368E+02  0.45007210870E+02  0.47000000000E+01 0.  1.
         -5    1    4    4    0  502  0.85955488787E+02  0.19945191765E+02 -0.62411745371E+01  0.88584417291E+02  0.47000000000E+01 0.  1.
          5    1    5    5  503    0 -0.74966641324E+02  0.37417333937E+02 -0.45117817058E+02  0.95277287988E+02  0.47000000000E+01 0. -1.
         -5    1    5    5    0  503  0.27789169712E+02 -0.38705986715E+02  0.38965210435E+00  0.47881449327E+02  0.47000000000E+01 0. -1.
<mgrwt>
<rscale>  0 0.27403817E+03</rscale>
<asrwt>0</asrwt>
<pdfrwt beam="1">  1        2 0.18315387E-01 0.27403817E+03</pdfrwt>
<pdfrwt beam="2">  1       -2 0.24261592E-01 0.27403817E+03</pdfrwt>
<totfact> 0.45821299E+03</totfact>
</mgrwt>
</event>
<event>
 9    1  0.7957670E-001  0.2780805E+03  0.7818608E-02  0.1096742E+00
         -2   -1    0    0    0  501 -0.00000000000E+00  0.00000000000E+00  0.36892271277E+02  0.36892271277E+02  0.00000000000E+00 0.  1.
          2   -1    0    0  501    0  0.00000000000E+00 -0.00000000000E+00 -0.52401740298E+03  0.52401740298E+03  0.00000000000E+00 0.  1.
         35    2    1    2    0    0 -0.14210854715E-13 -0.71054273576E-14 -0.48712513171E+03  0.56090967426E+03  0.27808050766E+03 0.  0.
         25    2    3    3    0    0 -0.52592653778E+02 -0.20357121047E+02 -0.29333758788E+03  0.32351532212E+03  0.12423696541E+03 0.  0.
         25    2    3    3    0    0  0.52592653778E+02  0.20357121047E+02 -0.19378754383E+03  0.23739435214E+03  0.12498826616E+03 0.  0.
          5    1    4    4  502    0  0.31502932093E+02 -0.21751185598E+02 -0.36071745176E+02  0.52809181072E+02  0.47000000000E+01 0.  1.
         -5    1    4    4    0  502 -0.84095585871E+02  0.13940645518E+01 -0.25726584270E+03  0.27070614105E+03  0.47000000000E+01 0.  1.
          5    1    5    5  503    0  0.81214730414E+01 -0.47754276845E+02 -0.38598296530E+02  0.62115600105E+02  0.47000000000E+01 0.  1.
         -5    1    5    5    0  503  0.44471180737E+02  0.68111397892E+02 -0.15518924730E+03  0.17527875204E+03  0.47000000000E+01 0.  1.
<mgrwt>
<rscale>  0 0.27808051E+03</rscale>
<asrwt>0</asrwt>
<pdfrwt beam="1">  1        2 0.80618052E-01 0.27808051E+03</pdfrwt>
<pdfrwt beam="2">  1       -2 0.56757348E-02 0.27808051E+03</pdfrwt>
<totfact> 0.94687019E+03</totfact>
</mgrwt>
</event>
<event>
 9    1  0.7957670E-001  0.2764824E+03  0.7818608E-02  0.1097626E+00
         -1   -1    0    0    0  501 -0.00000000000E+00  0.00000000000E+00  0.18083410387E+02  0.18083410387E+02  0.00000000000E+00 0. -1.
          1   -1    0    0  501    0  0.00000000000E+00 -0.00000000000E+00 -0.10568047417E+04  0.10568047417E+04  0.00000000000E+00 0. -1.
         35    2    1    2    0    0  0.00000000000E+00  0.71054273576E-14 -0.10387213313E+04  0.10748881521E+04  0.27648243231E+03 0.  0.
         25    2    3    3    0    0  0.40979417164E+02  0.40218637229E+02 -0.54205071763E+03  0.55929075035E+03  0.12526097369E+03 0.  0.
         25    2    3    3    0    0 -0.40979417164E+02 -0.40218637229E+02 -0.49667061369E+03  0.51559740175E+03  0.12594495136E+03 0.  0.
          5    1    4    4  502    0  0.19395394784E+02 -0.45274473993E+02 -0.19867736073E+03  0.20474555673E+03  0.47000000000E+01 0. -1.
         -5    1    4    4    0  502  0.21584022380E+02  0.85493111222E+02 -0.34337335689E+03  0.35454519361E+03  0.47000000000E+01 0. -1.
          5    1    5    5  503    0 -0.52296531533E+02  0.18790278644E+02 -0.10109330879E+03  0.11545539772E+03  0.47000000000E+01 0.  1.
         -5    1    5    5    0  503  0.11317114369E+02 -0.59008915873E+02 -0.39557730491E+03  0.40014200403E+03  0.47000000000E+01 0.  1.
<mgrwt>
<rscale>  0 0.27648243E+03</rscale>
<asrwt>0</asrwt>
<pdfrwt beam="1">  1        1 0.16258533E+00 0.27648243E+03</pdfrwt>
<pdfrwt beam="2">  1       -1 0.27820634E-02 0.27648243E+03</pdfrwt>
<totfact> 0.61166500E+03</totfact>
</mgrwt>
</event>
<event>
 9    1  0.7957670E-001  0.2633972E+03  0.7818608E-02  0.1105119E+00
         -3   -1    0    0    0  501 -0.00000000000E+00  0.00000000000E+00  0.26477127180E+03  0.26477127180E+03  0.00000000000E+00 0. -1.
          3   -1    0    0  501    0  0.00000000000E+00 -0.00000000000E+00 -0.65507568752E+02  0.65507568752E+02  0.00000000000E+00 0. -1.
         35    2    1    2    0    0 -0.88817841970E-15  0.00000000000E+00  0.19926370304E+03  0.33027884055E+03  0.26339720796E+03 0.  0.
         25    2    3    3    0    0 -0.46010172372E+01 -0.37678404617E+02  0.78608310510E+02  0.15240735125E+03  0.12493159208E+03 0.  0.
         25    2    3    3    0    0  0.46010172372E+01  0.37678404617E+02  0.12065539253E+03  0.17787148930E+03  0.12505883185E+03 0.  0.
          5    1    4    4  502    0  0.44599799787E+01  0.18940447689E+02  0.91319858339E+02  0.93488173087E+02  0.47000000000E+01 0. -1.
         -5    1    4    4    0  502 -0.90609972158E+01 -0.56618852306E+02 -0.12711547828E+02  0.58919178161E+02  0.47000000000E+01 0. -1.
          5    1    5    5  503    0  0.46257404149E+02 -0.14109236745E+02  0.11409643909E+02  0.49910800177E+02  0.47000000000E+01 0. -1.
         -5    1    5    5    0  503 -0.41656386912E+02  0.51787641362E+02  0.10924574862E+03  0.12796068912E+03  0.47000000000E+01 0. -1.
<mgrwt>
<rscale>  0 0.26339721E+03</rscale>
<asrwt>0</asrwt>
<pdfrwt beam="1">  1        3 0.10078088E-01 0.26339721E+03</pdfrwt>
<pdfrwt beam="2">  1       -3 0.40734041E-01 0.26339721E+03</pdfrwt>
<totfact> 0.11050924E+03</totfact>
</mgrwt>
</event>
<event>
 9    1  0.7957670E-001  0.2742026E+03  0.7818608E-02  0.1098898E+00
         -1   -1    0    0    0  501 -0.00000000000E+00  0.00000000000E+00  0.19140323891E+02  0.19140323891E+02  0.00000000000E+00 0. -1.
          1   -1    0    0  501    0  0.00000000000E+00 -0.00000000000E+00 -0.98205054282E+03  0.98205054282E+03  0.00000000000E+00 0. -1.
         35    2    1    2    0    0  0.00000000000E+00 -0.71054273576E-14 -0.96291021892E+03  0.10011908667E+04  0.27420259274E+03 0.  0.
         25    2    3    3    0    0  0.38435938321E+02 -0.26452057600E+01 -0.63469357106E+03  0.64798858134E+03  0.12477561436E+03 0.  0.
         25    2    3    3    0    0 -0.38435938321E+02  0.26452057600E+01 -0.32821664786E+03  0.35320228536E+03  0.12466502309E+03 0.  0.
          5    1    4    4  502    0 -0.38164567072E+02 -0.29395154841E+02 -0.20099349632E+03  0.20673917111E+03  0.47000000000E+01 0. -1.
         -5    1    4    4    0  502  0.76600505393E+02  0.26749949081E+02 -0.43370007474E+03  0.44124941023E+03  0.47000000000E+01 0. -1.
          5    1    5    5  503    0 -0.44837370555E+02  0.36704462226E+02 -0.63135948738E+02  0.85824503312E+02  0.47000000000E+01 0.  1.
         -5    1    5    5    0  503  0.64014322340E+01 -0.34059256466E+02 -0.26508069912E+03  0.26737778205E+03  0.47000000000E+01 0.  1.
<mgrwt>
<rscale>  0 0.27420259E+03</rscale>
<asrwt>0</asrwt>
<pdfrwt beam="1">  1        1 0.15108471E+00 0.27420259E+03</pdfrwt>
<pdfrwt beam="2">  1       -1 0.29446651E-02 0.27420259E+03</pdfrwt>
<totfact> 0.63916561E+03</totfact>
</mgrwt>
</event>
<event>
 9    1  0.7957670E-001  0.2865686E+03  0.7818608E-02  0.1092154E+00
          3   -1    0    0  501    0  0.00000000000E+00  0.00000000000E+00  0.89102140600E+03  0.89102140600E+03  0.00000000000E+00 0. -1.
         -3   -1    0    0    0  501 -0.00000000000E+00 -0.00000000000E+00 -0.23041414851E+02  0.23041414851E+02  0.00000000000E+00 0. -1.
         35    2    1    2    0    0  0.28421709430E-13 -0.71054273576E-14  0.86797999115E+03  0.91406282085E+03  0.28656862255E+03 0.  0.
         25    2    3    3    0    0  0.75402557535E+02 -0.34612155655E+02  0.40379187798E+03  0.42784759218E+03  0.11455188525E+03 0.  0.
         25    2    3    3    0    0 -0.75402557535E+02  0.34612155655E+02  0.46418811317E+03  0.48621522867E+03  0.11853732399E+03 0.  0.
          5    1    4    4  502    0  0.51774255662E+02 -0.76296213517E+02  0.28830942985E+03  0.30273107387E+03  0.47000000000E+01 0.  1.
         -5    1    4    4    0  502  0.23628301873E+02  0.41684057861E+02  0.11548244813E+03  0.12511651832E+03  0.47000000000E+01 0.  1.
          5    1    5    5  503    0 -0.10770917562E+03  0.25357672388E+02  0.35622338396E+03  0.37304351937E+03  0.47000000000E+01 0. -1.
         -5    1    5    5    0  503  0.32306618085E+02  0.92544832670E+01  0.10796472921E+03  0.11317170930E+03  0.47000000000E+01 0. -1.
<mgrwt>
<rscale>  0 0.28656862E+03</rscale>
<asrwt>0</asrwt>
<pdfrwt beam="1">  1        3 0.13708019E+00 0.28656862E+03</pdfrwt>
<pdfrwt beam="2">  1       -3 0.35448338E-02 0.28656862E+03</pdfrwt>
<totfact> 0.42911315E+02</totfact>
</mgrwt>
</event>
<event>
 9    1  0.7957670E-001  0.2831707E+03  0.7818608E-02  0.1093970E+00
          4   -1    0    0  501    0  0.00000000000E+00  0.00000000000E+00  0.21246566211E+03  0.21246566211E+03  0.00000000000E+00 0. -1.
         -4   -1    0    0    0  501 -0.00000000000E+00 -0.00000000000E+00 -0.94351320372E+02  0.94351320372E+02  0.00000000000E+00 0. -1.
         35    2    1    2    0    0 -0.71054273576E-14  0.00000000000E+00  0.11811434174E+03  0.30681698248E+03  0.28317073121E+03 0.  0.
         25    2    3    3    0    0  0.49035656379E+02 -0.42152216435E+02  0.67074128148E+02  0.15569665625E+03  0.12474455962E+03 0.  0.
         25    2    3    3    0    0 -0.49035656379E+02  0.42152216435E+02  0.51040213592E+02  0.15112032623E+03  0.12669232277E+03 0.  0.
          5    1    4    4  502    0 -0.29862062686E+02 -0.11800497943E+02 -0.16781149422E+02  0.36533430109E+02  0.47000000000E+01 0. -1.
         -5    1    4    4    0  502  0.78897719065E+02 -0.30351718491E+02  0.83855277570E+02  0.11916322615E+03  0.47000000000E+01 0. -1.
          5    1    5    5  503    0 -0.82322355043E+02  0.62032477894E+02  0.36970022846E+02  0.10960780557E+03  0.47000000000E+01 0. -1.
         -5    1    5    5    0  503  0.33286698664E+02 -0.19880261459E+02  0.14070190746E+02  0.41512520657E+02  0.47000000000E+01 0. -1.
<mgrwt>
<rscale>  0 0.28317073E+03</rscale>
<asrwt>0</asrwt>
<pdfrwt beam="1">  1        4 0.32687025E-01 0.28317073E+03</pdfrwt>
<pdfrwt beam="2">  1       -4 0.14515588E-01 0.28317073E+03</pdfrwt>
<totfact> 0.67808249E+02</totfact>
</mgrwt>
</event>
<event>
 9    1  0.7957670E-001  0.2766426E+03  0.7818608E-02  0.1097537E+00
          2   -1    0    0  501    0  0.00000000000E+00  0.00000000000E+00  0.29928086757E+03  0.29928086757E+03  0.00000000000E+00 0. -1.
         -2   -1    0    0    0  501 -0.00000000000E+00 -0.00000000000E+00 -0.63929205829E+02  0.63929205829E+02  0.00000000000E+00 0. -1.
         35    2    1    2    0    0  0.17763568394E-14  0.14210854715E-13  0.23535166174E+03  0.36321007340E+03  0.27664264446E+03 0.  0.
         25    2    3    3    0    0  0.11831628207E+02  0.59471261088E+02  0.13211209006E+03  0.18982447030E+03  0.12207746255E+03 0.  0.
         25    2    3    3    0    0 -0.11831628207E+02 -0.59471261088E+02  0.10323957168E+03  0.17338560310E+03  0.12540869141E+03 0.  0.
          5    1    4    4  502    0  0.13863855882E+01 -0.36617259828E+02  0.54177817730E+02  0.65574932072E+02  0.47000000000E+01 0. -1.
         -5    1    4    4    0  502  0.10445242619E+02  0.96088520916E+02  0.77934272333E+02  0.12424953823E+03  0.47000000000E+01 0. -1.
          5    1    5    5  503    0  0.42046833164E+02  0.80795762479E+01  0.64496325905E+01  0.43553455569E+02  0.47000000000E+01 0.  1.
         -5    1    5    5    0  503 -0.53878461371E+02 -0.67550837336E+02  0.96789939089E+02  0.12983214753E+03  0.47000000000E+01 0.  1.
<mgrwt>
<rscale>  0 0.27664264E+03</rscale>
<asrwt>0</asrwt>
<pdfrwt beam="1">  1        2 0.46043210E-01 0.27664264E+03</pdfrwt>
<pdfrwt beam="2">  1       -2 0.98352626E-02 0.27664264E+03</pdfrwt>
<totfact> 0.74171399E+03</totfact>
</mgrwt>
</event>
<event>
 9    1  0.7957670E-001  0.2765959E+03  0.7818608E-02  0.1097563E+00
          1   -1    0    0  501    0  0.00000000000E+00  0.00000000000E+00  0.12393139133E+04  0.12393139133E+04  0.00000000000E+00 0. -1.
         -1   -1    0    0    0  501 -0.00000000000E+00 -0.00000000000E+00 -0.15432991581E+02  0.15432991581E+02  0.00000000000E+00 0. -1.
         35    2    1    2    0    0  0.00000000000E+00  0.00000000000E+00  0.12238809217E+04  0.12547469049E+04  0.27659588710E+03 0.  0.
         25    2    3    3    0    0  0.42507120476E+02 -0.38594937146E+02  0.67390562927E+03  0.68781016343E+03  0.12505038700E+03 0.  0.
         25    2    3    3    0    0 -0.42507120476E+02  0.38594937146E+02  0.54997529247E+03  0.56693674147E+03  0.12509205426E+03 0.  0.
          5    1    4    4  502    0  0.31149164605E+02  0.22297016420E+02  0.63907437690E+02  0.74657069250E+02  0.47000000000E+01 0.  1.
         -5    1    4    4    0  502  0.11357955871E+02 -0.60891953567E+02  0.60999819158E+03  0.61315309418E+03  0.47000000000E+01 0.  1.
          5    1    5    5  503    0 -0.41899982038E+02  0.73249244387E+02  0.49216336540E+03  0.49936752852E+03  0.47000000000E+01 0. -1.
         -5    1    5    5    0  503 -0.60713843849E+00 -0.34654307241E+02  0.57811927062E+02  0.67569212945E+02  0.47000000000E+01 0. -1.
<mgrwt>
<rscale>  0 0.27659589E+03</rscale>
<asrwt>0</asrwt>
<pdfrwt beam="1">  1        1 0.19066360E+00 0.27659589E+03</pdfrwt>
<pdfrwt beam="2">  1       -1 0.23743074E-02 0.27659589E+03</pdfrwt>
<totfact> 0.57275212E+03</totfact>
</mgrwt>
</event>
<event>
 9    1  0.7957670E-001  0.2666627E+03  0.7818608E-02  0.1103205E+00
         -1   -1    0    0    0  501 -0.00000000000E+00  0.00000000000E+00  0.89792089715E+02  0.89792089715E+02  0.00000000000E+00 0. -1.
          1   -1    0    0  501    0  0.00000000000E+00 -0.00000000000E+00 -0.19798231848E+03  0.19798231848E+03  0.00000000000E+00 0. -1.
         35    2    1    2    0    0  0.00000000000E+00  0.00000000000E+00 -0.10819022876E+03  0.28777440819E+03  0.26666267907E+03 0.  0.
         25    2    3    3    0    0  0.43676928298E+02  0.16205318556E+02 -0.53498378993E+02  0.14369097571E+03  0.12495892737E+03 0.  0.
         25    2    3    3    0    0 -0.43676928298E+02 -0.16205318556E+02 -0.54691849769E+02  0.14408343248E+03  0.12489415787E+03 0.  0.
          5    1    4    4  502    0  0.38378350788E+02  0.22319385977E+02 -0.92965630615E+02  0.10312977880E+03  0.47000000000E+01 0.  1.
         -5    1    4    4    0  502  0.52985775098E+01 -0.61140674212E+01  0.39467251622E+02  0.40561196909E+02  0.47000000000E+01 0.  1.
          5    1    5    5  503    0 -0.49986643128E+02 -0.38599839216E+02  0.19438040524E+02  0.66246052699E+02  0.47000000000E+01 0.  1.
         -5    1    5    5    0  503  0.63097148306E+01  0.22394520660E+02 -0.74129890293E+02  0.77837379785E+02  0.47000000000E+01 0.  1.
<mgrwt>
<rscale>  0 0.26666268E+03</rscale>
<asrwt>0</asrwt>
<pdfrwt beam="1">  1        1 0.30458818E-01 0.26666268E+03</pdfrwt>
<pdfrwt beam="2">  1       -1 0.13814168E-01 0.26666268E+03</pdfrwt>
<totfact> 0.53983363E+03</totfact>
</mgrwt>
</event>
<event>
 9    1  0.7957670E-001  0.2745402E+03  0.7818608E-02  0.1098709E+00
         -2   -1    0    0    0  501 -0.00000000000E+00  0.00000000000E+00  0.18008376417E+02  0.18008376417E+02  0.00000000000E+00 0.  1.
          2   -1    0    0  501    0  0.00000000000E+00 -0.00000000000E+00 -0.10463505282E+04  0.10463505282E+04  0.00000000000E+00 0.  1.
         35    2    1    2    0    0  0.71054273576E-14 -0.71054273576E-14 -0.10283421517E+04  0.10643589046E+04  0.27454015499E+03 0.  0.
         25    2    3    3    0    0  0.36670688104E+02 -0.33059371788E+02 -0.40729178234E+03  0.42887559025E+03  0.12494004369E+03 0.  0.
         25    2    3    3    0    0 -0.36670688104E+02  0.33059371788E+02 -0.62105036939E+03  0.63548331433E+03  0.12529094154E+03 0.  0.
          5    1    4    4  502    0  0.67061648349E+02 -0.53572346915E+02 -0.35214746980E+03  0.36248750533E+03  0.47000000000E+01 0. -1.
         -5    1    4    4    0  502 -0.30390960245E+02  0.20512975128E+02 -0.55144312542E+02  0.66388084917E+02  0.47000000000E+01 0. -1.
          5    1    5    5  503    0  0.20133150914E+02  0.48238075471E+02 -0.12002046542E+03  0.13099335025E+03  0.47000000000E+01 0. -1.
         -5    1    5    5    0  503 -0.56803839018E+02 -0.15178703683E+02 -0.50102990398E+03  0.50448996408E+03  0.47000000000E+01 0. -1.
<mgrwt>
<rscale>  0 0.27454015E+03</rscale>
<asrwt>0</asrwt>
<pdfrwt beam="1">  1        2 0.16097700E+00 0.27454015E+03</pdfrwt>
<pdfrwt beam="2">  1       -2 0.27705196E-02 0.27454015E+03</pdfrwt>
<totfact> 0.11705815E+04</totfact>
</mgrwt>
</event>
<event>
 9    1  0.7957670E-001  0.2742179E+03  0.7818608E-02  0.1098890E+00
         -3   -1    0    0    0  501 -0.00000000000E+00  0.00000000000E+00  0.23643514206E+02  0.23643514206E+02  0.00000000000E+00 0. -1.
          3   -1    0    0  501    0  0.00000000000E+00 -0.00000000000E+00 -0.79509579004E+03  0.79509579004E+03  0.00000000000E+00 0. -1.
         35    2    1    2    0    0 -0.35527136788E-14  0.71054273576E-14 -0.77145227583E+03  0.81873930424E+03  0.27421785943E+03 0.  0.
         25    2    3    3    0    0  0.14365470931E+02 -0.46192880337E+02 -0.29620363455E+03  0.32492690912E+03  0.12450202489E+03 0.  0.
         25    2    3    3    0    0 -0.14365470931E+02  0.46192880337E+02 -0.47524864128E+03  0.49381239512E+03  0.12509700871E+03 0.  0.
          5    1    4    4  502    0 -0.30240304734E+02  0.17549816634E+02 -0.18968567960E+03  0.19293838172E+03  0.47000000000E+01 0. -1.
         -5    1    4    4    0  502  0.44605775665E+02 -0.63742696970E+02 -0.10651795495E+03  0.13198852741E+03  0.47000000000E+01 0. -1.
          5    1    5    5  503    0 -0.43257470528E+01  0.82101671024E+02 -0.20434124894E+03  0.22031076345E+03  0.47000000000E+01 0.  1.
         -5    1    5    5    0  503 -0.10039723878E+02 -0.35908790688E+02 -0.27090739234E+03  0.27350163167E+03  0.47000000000E+01 0.  1.
<mgrwt>
<rscale>  0 0.27421786E+03</rscale>
<asrwt>0</asrwt>
<pdfrwt beam="1">  1        3 0.12232239E+00 0.27421786E+03</pdfrwt>
<pdfrwt beam="2">  1       -3 0.36374648E-02 0.27421786E+03</pdfrwt>
<totfact> 0.54125915E+02</totfact>
</mgrwt>
</event>
<event>
 9    1  0.7957670E-001  0.2743307E+03  0.7818608E-02  0.1098826E+00
         -1   -1    0    0    0  501 -0.00000000000E+00  0.00000000000E+00  0.26330782837E+02  0.26330782837E+02  0.00000000000E+00 0.  1.
          1   -1    0    0  501    0  0.00000000000E+00 -0.00000000000E+00 -0.71453773941E+03  0.71453773941E+03  0.00000000000E+00 0.  1.
         35    2    1    2    0    0  0.00000000000E+00  0.00000000000E+00 -0.68820695657E+03  0.74086852224E+03  0.27433073503E+03 0.  0.
         25    2    3    3    0    0 -0.49545547596E+02 -0.15637628310E+02 -0.40495877740E+03  0.42754558226E+03  0.12690278490E+03 0.  0.
         25    2    3    3    0    0  0.49545547596E+02  0.15637628310E+02 -0.28324817917E+03  0.31332293998E+03  0.12346026490E+03 0.  0.
          5    1    4    4  502    0 -0.53673501113E+02 -0.49303669570E+02 -0.11956986612E+03  0.14010974070E+03  0.47000000000E+01 0.  1.
         -5    1    4    4    0  502  0.41279535169E+01  0.33666041261E+02 -0.28538891128E+03  0.28743584157E+03  0.47000000000E+01 0.  1.
          5    1    5    5  503    0 -0.66102155397E+01 -0.45581572726E+02 -0.65430418701E+02  0.80153630067E+02  0.47000000000E+01 0.  1.
         -5    1    5    5    0  503  0.56155763136E+02  0.61219201036E+02 -0.21781776047E+03  0.23316930991E+03  0.47000000000E+01 0.  1.
<mgrwt>
<rscale>  0 0.27433074E+03</rscale>
<asrwt>0</asrwt>
<pdfrwt beam="1">  1        1 0.10992889E+00 0.27433074E+03</pdfrwt>
<pdfrwt beam="2">  1       -1 0.40508894E-02 0.27433074E+03</pdfrwt>
<totfact> 0.65814808E+03</totfact>
</mgrwt>
</event>
<event>
 9    1  0.7957670E-001  0.2756805E+03  0.7818608E-02  0.1098072E+00
         -3   -1    0    0    0  501 -0.00000000000E+00  0.00000000000E+00  0.22496418292E+02  0.22496418292E+02  0.00000000000E+00 0.  1.
          3   -1    0    0  501    0  0.00000000000E+00 -0.00000000000E+00 -0.84457601229E+03  0.84457601229E+03  0.00000000000E+00 0.  1.
         35    2    1    2    0    0  0.71054273576E-14  0.00000000000E+00 -0.82207959400E+03  0.86707243058E+03  0.27568050531E+03 0.  0.
         25    2    3    3    0    0  0.34710744929E+02 -0.35678013866E+02 -0.31517356042E+03  0.34278144790E+03  0.12524771995E+03 0.  0.
         25    2    3    3    0    0 -0.34710744929E+02  0.35678013866E+02 -0.50690603358E+03  0.52429098268E+03  0.12429622340E+03 0.  0.
          5    1    4    4  502    0  0.68363349227E+02 -0.49681171109E+02 -0.27762460062E+03  0.29024003024E+03  0.47000000000E+01 0.  1.
         -5    1    4    4    0  502 -0.33652604299E+02  0.14003157243E+02 -0.37548959794E+02  0.52541417667E+02  0.47000000000E+01 0.  1.
          5    1    5    5  503    0 -0.41207673675E+02  0.75178310726E+02 -0.41723780705E+03  0.42598043195E+03  0.47000000000E+01 0. -1.
         -5    1    5    5    0  503  0.64969287460E+01 -0.39500296860E+02 -0.89668226529E+02  0.98310550725E+02  0.47000000000E+01 0. -1.
<mgrwt>
<rscale>  0 0.27568051E+03</rscale>
<asrwt>0</asrwt>
<pdfrwt beam="1">  1        3 0.12993478E+00 0.27568051E+03</pdfrwt>
<pdfrwt beam="2">  1       -3 0.34609871E-02 0.27568051E+03</pdfrwt>
<totfact> 0.50609705E+02</totfact>
</mgrwt>
</event>
<event>
 9    1  0.7957670E-001  0.2769122E+03  0.7818608E-02  0.1097387E+00
          2   -1    0    0  501    0  0.00000000000E+00  0.00000000000E+00  0.14670818960E+04  0.14670818960E+04  0.00000000000E+00 0.  1.
         -2   -1    0    0    0  501 -0.00000000000E+00 -0.00000000000E+00 -0.13066818806E+02  0.13066818806E+02  0.00000000000E+00 0.  1.
         35    2    1    2    0    0  0.00000000000E+00 -0.88817841970E-15  0.14540150772E+04  0.14801487149E+04  0.27691221215E+03 0.  0.
         25    2    3    3    0    0 -0.15391905319E+02  0.63327869233E+01  0.40458934011E+03  0.42316773240E+03  0.12288767504E+03 0.  0.
         25    2    3    3    0    0  0.15391905319E+02 -0.63327869233E+01  0.10494257371E+04  0.10569809825E+04  0.12504960842E+03 0.  0.
          5    1    4    4  502    0  0.23375685855E+02  0.52508098541E+01  0.37054592917E+03  0.37134938982E+03  0.47000000000E+01 0.  1.
         -5    1    4    4    0  502 -0.38767591174E+02  0.10819770692E+01  0.34043410934E+02  0.51818342581E+02  0.47000000000E+01 0.  1.
          5    1    5    5  503    0  0.63469107791E+02 -0.29930217793E+02  0.49818278957E+03  0.50312257692E+03  0.47000000000E+01 0.  1.
         -5    1    5    5    0  503 -0.48077202472E+02  0.23597430869E+02  0.55124294756E+03  0.55385840553E+03  0.47000000000E+01 0.  1.
<mgrwt>
<rscale>  0 0.27691221E+03</rscale>
<asrwt>0</asrwt>
<pdfrwt beam="1">  1        2 0.22570478E+00 0.27691221E+03</pdfrwt>
<pdfrwt beam="2">  1       -2 0.20102810E-02 0.27691221E+03</pdfrwt>
<totfact> 0.10905128E+04</totfact>
</mgrwt>
</event>
<event>
 8    1  0.7957670E-001  0.3814525E+03  0.7818608E-02  0.1050398E+00
         -2   -1    0    0    0  501 -0.00000000000E+00  0.00000000000E+00  0.16002164988E+02  0.16002164988E+02  0.00000000000E+00 0.  1.
          2   -1    0    0  501    0  0.00000000000E+00 -0.00000000000E+00 -0.22732238652E+04  0.22732238652E+04  0.00000000000E+00 0.  1.
         25    2    1    2    0    0  0.41422064822E+02 -0.44252473418E+02 -0.19054431342E+04  0.19105905264E+04  0.12636674042E+03 0.  0.
         25    2    1    2    0    0 -0.41422064822E+02  0.44252473418E+02 -0.35177856601E+03  0.37863550377E+03  0.12626407390E+03 0.  0.
          5    1    3    3  502    0 -0.15550757641E+02  0.15805914747E+02 -0.76958603278E+02  0.80226988120E+02  0.47000000000E+01 0.  1.
         -5    1    3    3    0  502  0.56972822463E+02 -0.60058388165E+02 -0.18284845309E+04  0.18303635383E+04  0.47000000000E+01 0.  1.
          5    1    4    4  503    0 -0.12708805671E+02  0.63057907867E+02 -0.33308116174E+03  0.33926827702E+03  0.47000000000E+01 0.  1.
         -5    1    4    4    0  503 -0.28713259151E+02 -0.18805434449E+02 -0.18697404268E+02  0.39367226753E+02  0.47000000000E+01 0.  1.
<mgrwt>
<rscale>  0 0.38145250E+03</rscale>
<asrwt>0</asrwt>
<pdfrwt beam="1">  1        2 0.34972680E+00 0.38145250E+03</pdfrwt>
<pdfrwt beam="2">  1       -2 0.24618712E-02 0.38145250E+03</pdfrwt>
<totfact> 0.30075619E+03</totfact>
</mgrwt>
</event>
<event>
 9    1  0.7957670E-001  0.2798534E+03  0.7818608E-02  0.1095769E+00
         -3   -1    0    0    0  501 -0.00000000000E+00  0.00000000000E+00  0.42605870667E+02  0.42605870667E+02  0.00000000000E+00 0.  1.
          3   -1    0    0  501    0  0.00000000000E+00 -0.00000000000E+00 -0.45954882531E+03  0.45954882531E+03  0.00000000000E+00 0.  1.
         35    2    1    2    0    0  0.00000000000E+00  0.00000000000E+00 -0.41694295464E+03  0.50215469598E+03  0.27985337458E+03 0.  0.
         25    2    3    3    0    0 -0.59396811167E+02 -0.13548930644E+02 -0.23176360027E+03  0.27031521356E+03  0.12507755024E+03 0.  0.
         25    2    3    3    0    0  0.59396811167E+02  0.13548930644E+02 -0.18517935437E+03  0.23183948241E+03  0.12548544785E+03 0.  0.
          5    1    4    4  502    0  0.46776688023E+01  0.32554599406E+02 -0.16037862738E+03  0.16378362754E+03  0.47000000000E+01 0. -1.
         -5    1    4    4    0  502 -0.64074479970E+02 -0.46103530051E+02 -0.71384972889E+02  0.10653158602E+03  0.47000000000E+01 0. -1.
          5    1    5    5  503    0  0.76860866777E+02 -0.34991075062E+02 -0.90200240153E+02  0.12365331172E+03  0.47000000000E+01 0.  1.
         -5    1    5    5    0  503 -0.17464055609E+02  0.48540005706E+02 -0.94979114217E+02  0.10818617069E+03  0.47000000000E+01 0.  1.
<mgrwt>
<rscale>  0 0.27985337E+03</rscale>
<asrwt>0</asrwt>
<pdfrwt beam="1">  1        3 0.70699813E-01 0.27985337E+03</pdfrwt>
<pdfrwt beam="2">  1       -3 0.65547500E-02 0.27985337E+03</pdfrwt>
<totfact> 0.73236526E+02</totfact>
</mgrwt>
</event>
<event>
 9    1  0.7957670E-001  0.2752279E+03  0.7818608E-02  0.1098324E+00
         -1   -1    0    0    0  501 -0.00000000000E+00  0.00000000000E+00  0.14454582005E+03  0.14454582005E+03  0.00000000000E+00 0.  1.
          1   -1    0    0  501    0  0.00000000000E+00 -0.00000000000E+00 -0.13101447155E+03  0.13101447155E+03  0.00000000000E+00 0.  1.
         35    2    1    2    0    0  0.00000000000E+00  0.00000000000E+00  0.13531348498E+02  0.27556029160E+03  0.27522786362E+03 0.  0.
         25    2    3    3    0    0  0.20965857111E+02 -0.41258579905E+02 -0.16465884167E+02  0.13901213223E+03  0.13004387716E+03 0.  0.
         25    2    3    3    0    0 -0.20965857111E+02  0.41258579905E+02  0.29997232664E+02  0.13654815936E+03  0.12491488413E+03 0.  0.
          5    1    4    4  502    0 -0.40175867842E+02 -0.57773329938E+02  0.79510326057E+01  0.70973001405E+02  0.47000000000E+01 0.  1.
         -5    1    4    4    0  502  0.61141724953E+02  0.16514750033E+02 -0.24416916773E+02  0.68039130826E+02  0.47000000000E+01 0.  1.
          5    1    5    5  503    0  0.35416313643E+02 -0.20722305008E+02  0.32553700430E+02  0.52588616721E+02  0.47000000000E+01 0.  1.
         -5    1    5    5    0  503 -0.56382170754E+02  0.61980884914E+02 -0.25564677657E+01  0.83959542644E+02  0.47000000000E+01 0.  1.
<mgrwt>
<rscale>  0 0.27522786E+03</rscale>
<asrwt>0</asrwt>
<pdfrwt beam="1">  1        1 0.20156073E-01 0.27522786E+03</pdfrwt>
<pdfrwt beam="2">  1       -1 0.22237818E-01 0.27522786E+03</pdfrwt>
<totfact> 0.42529444E+03</totfact>
</mgrwt>
</event>
<event>
 9    1  0.7957670E-001  0.2677894E+03  0.7818608E-02  0.1102551E+00
          1   -1    0    0  501    0  0.00000000000E+00  0.00000000000E+00  0.16264205797E+03  0.16264205797E+03  0.00000000000E+00 0. -1.
         -1   -1    0    0    0  501 -0.00000000000E+00 -0.00000000000E+00 -0.11022854200E+03  0.11022854200E+03  0.00000000000E+00 0. -1.
         35    2    1    2    0    0  0.00000000000E+00  0.00000000000E+00  0.52413515970E+02  0.27287059997E+03  0.26778944652E+03 0.  0.
         25    2    3    3    0    0  0.14550517534E+01  0.37871022441E+02  0.56656369827E+02  0.14230863772E+03  0.12492186602E+03 0.  0.
         25    2    3    3    0    0 -0.14550517534E+01 -0.37871022441E+02 -0.42428538569E+01  0.13056196225E+03  0.12486830127E+03 0.  0.
          5    1    4    4  502    0  0.33926870193E+02 -0.85713830954E+01 -0.24671879082E+02  0.43073109323E+02  0.47000000000E+01 0.  1.
         -5    1    4    4    0  502 -0.32471818440E+02  0.46442405536E+02  0.81328248909E+02  0.99235528393E+02  0.47000000000E+01 0.  1.
          5    1    5    5  503    0  0.45203447590E+02 -0.57933162441E+02  0.16569429114E+02  0.75473432184E+02  0.47000000000E+01 0. -1.
         -5    1    5    5    0  503 -0.46658499343E+02  0.20062140000E+02 -0.20812282971E+02  0.55088530066E+02  0.47000000000E+01 0. -1.
<mgrwt>
<rscale>  0 0.26778945E+03</rscale>
<asrwt>0</asrwt>
<pdfrwt beam="1">  1        1 0.25021855E-01 0.26778945E+03</pdfrwt>
<pdfrwt beam="2">  1       -1 0.16958237E-01 0.26778945E+03</pdfrwt>
<totfact> 0.49997916E+03</totfact>
</mgrwt>
</event>
<event>
 9    1  0.7957670E-001  0.2771337E+03  0.7818608E-02  0.1097265E+00
          1   -1    0    0  501    0  0.00000000000E+00  0.00000000000E+00  0.67648883944E+03  0.67648883944E+03  0.00000000000E+00 0. -1.
         -1   -1    0    0    0  501 -0.00000000000E+00 -0.00000000000E+00 -0.28382992502E+02  0.28382992502E+02  0.00000000000E+00 0. -1.
         35    2    1    2    0    0 -0.17763568394E-14  0.00000000000E+00  0.64810584694E+03  0.70487183194E+03  0.27713374141E+03 0.  0.
         25    2    3    3    0    0  0.44344926370E+01 -0.53618711455E+02  0.27071392816E+03  0.30369484502E+03  0.12668818828E+03 0.  0.
         25    2    3    3    0    0 -0.44344926370E+01  0.53618711455E+02  0.37739191878E+03  0.40117698692E+03  0.12499473401E+03 0.  0.
          5    1    4    4  502    0  0.87702352627E+01  0.10631687474E+02 -0.86697785401E+01  0.16947119668E+02  0.47000000000E+01 0. -1.
         -5    1    4    4    0  502 -0.43357426257E+01 -0.64250398930E+02  0.27938370670E+03  0.28674772535E+03  0.47000000000E+01 0. -1.
          5    1    5    5  503    0  0.23822359744E+02  0.82511585140E+02  0.17818446213E+03  0.19785716831E+03  0.47000000000E+01 0. -1.
         -5    1    5    5    0  503 -0.28256852381E+02 -0.28892873684E+02  0.19920745664E+03  0.20331981861E+03  0.47000000000E+01 0. -1.
<mgrwt>
<rscale>  0 0.27713374E+03</rscale>
<asrwt>0</asrwt>
<pdfrwt beam="1">  1        1 0.10407519E+00 0.27713374E+03</pdfrwt>
<pdfrwt beam="2">  1       -1 0.43666148E-02 0.27713374E+03</pdfrwt>
<totfact> 0.63752662E+03</totfact>
</mgrwt>
</event>
<event>
 9    1  0.7957670E-001  0.3086073E+03  0.7818608E-02  0.1081015E+00
          2   -1    0    0  501    0  0.00000000000E+00  0.00000000000E+00  0.16515790433E+04  0.16515790433E+04  0.00000000000E+00 0.  1.
         -2   -1    0    0    0  501 -0.00000000000E+00 -0.00000000000E+00 -0.14416272760E+02  0.14416272760E+02  0.00000000000E+00 0.  1.
         35    2    1    2    0    0  0.00000000000E+00  0.00000000000E+00  0.16371627706E+04  0.16659953161E+04  0.30860728425E+03 0.  0.
         25    2    3    3    0    0 -0.28516074657E+02  0.44489773782E+02  0.38635932420E+03  0.40773448222E+03  0.11908557474E+03 0.  0.
         25    2    3    3    0    0  0.28516074657E+02 -0.44489773782E+02  0.12508034463E+04  0.12582608338E+04  0.12616876835E+03 0.  0.
          5    1    4    4  502    0 -0.59849139072E+02  0.55397709862E+02  0.34482353280E+03  0.35436730165E+03  0.47000000000E+01 0.  1.
         -5    1    4    4    0  502  0.31333064416E+02 -0.10907936079E+02  0.41535791404E+02  0.53367180577E+02  0.47000000000E+01 0.  1.
          5    1    5    5  503    0 -0.32999653000E+02  0.16577211906E+02  0.17262444389E+03  0.17659294913E+03  0.47000000000E+01 0. -1.
         -5    1    5    5    0  503  0.61515727657E+02 -0.61066985688E+02  0.10781790025E+04  0.10816678847E+04  0.47000000000E+01 0. -1.
<mgrwt>
<rscale>  0 0.30860728E+03</rscale>
<asrwt>0</asrwt>
<pdfrwt beam="1">  1        2 0.25408893E+00 0.30860728E+03</pdfrwt>
<pdfrwt beam="2">  1       -2 0.22178894E-02 0.30860728E+03</pdfrwt>
<totfact> 0.75318592E+03</totfact>
</mgrwt>
</event>
<event>
 9    1  0.7957670E-001  0.2753154E+03  0.7818608E-02  0.1098275E+00
          2   -1    0    0  501    0  0.00000000000E+00  0.00000000000E+00  0.17474122807E+04  0.17474122807E+04  0.00000000000E+00 0.  1.
         -2   -1    0    0    0  501 -0.00000000000E+00 -0.00000000000E+00 -0.10844399562E+02  0.10844399562E+02  0.00000000000E+00 0.  1.
         35    2    1    2    0    0  0.00000000000E+00  0.00000000000E+00  0.17365678812E+04  0.17582566803E+04  0.27531536079E+03 0.  0.
         25    2    3    3    0    0 -0.56198855371E+02  0.95409429862E+01  0.86007308835E+03  0.87096207819E+03  0.12489949315E+03 0.  0.
         25    2    3    3    0    0  0.56198855371E+02 -0.95409429862E+01  0.87649479283E+03  0.88729460212E+03  0.12569506019E+03 0.  0.
          5    1    4    4  502    0  0.27580307248E+02  0.24621680787E+02  0.11181145019E+03  0.11785919950E+03  0.47000000000E+01 0.  1.
         -5    1    4    4    0  502 -0.83779162619E+02 -0.15080737801E+02  0.74826163816E+03  0.75310287869E+03  0.47000000000E+01 0.  1.
          5    1    5    5  503    0  0.35155863128E+02 -0.13653544112E+02  0.85728095043E+03  0.85812299349E+03  0.47000000000E+01 0. -1.
         -5    1    5    5    0  503  0.21042992243E+02  0.41126011261E+01  0.19213842399E+02  0.29171608634E+02  0.47000000000E+01 0. -1.
<mgrwt>
<rscale>  0 0.27531536E+03</rscale>
<asrwt>0</asrwt>
<pdfrwt beam="1">  1        2 0.26883244E+00 0.27531536E+03</pdfrwt>
<pdfrwt beam="2">  1       -2 0.16683705E-02 0.27531536E+03</pdfrwt>
<totfact> 0.10181271E+04</totfact>
</mgrwt>
</event>
<event>
 9    1  0.7957670E-001  0.2753948E+03  0.7818608E-02  0.1098231E+00
          2   -1    0    0  501    0  0.00000000000E+00  0.00000000000E+00  0.57025858627E+03  0.57025858627E+03  0.00000000000E+00 0.  1.
         -2   -1    0    0    0  501 -0.00000000000E+00 -0.00000000000E+00 -0.33249076865E+02  0.33249076865E+02  0.00000000000E+00 0.  1.
         35    2    1    2    0    0  0.00000000000E+00  0.00000000000E+00  0.53700950940E+03  0.60350766314E+03  0.27539478258E+03 0.  0.
         25    2    3    3    0    0  0.49107553497E+02  0.87304642173E+01  0.33872362372E+03  0.36406669708E+03  0.12378648488E+03 0.  0.
         25    2    3    3    0    0 -0.49107553497E+02 -0.87304642173E+01  0.19828588568E+03  0.23944096605E+03  0.12460702608E+03 0.  0.
          5    1    4    4  502    0  0.55656754365E+02  0.55725554620E+02  0.15085873977E+03  0.17024529688E+03  0.47000000000E+01 0. -1.
         -5    1    4    4    0  502 -0.65492008672E+01 -0.46995090403E+02  0.18786488395E+03  0.19382140020E+03  0.47000000000E+01 0. -1.
          5    1    5    5  503    0 -0.79257386824E+02  0.17218901921E+02  0.77858474404E+02  0.11252669011E+03  0.47000000000E+01 0.  1.
         -5    1    5    5    0  503  0.30149833327E+02 -0.25949366138E+02  0.12042741128E+03  0.12691427595E+03  0.47000000000E+01 0.  1.
<mgrwt>
<rscale>  0 0.27539478E+03</rscale>
<asrwt>0</asrwt>
<pdfrwt beam="1">  1        2 0.87732083E-01 0.27539478E+03</pdfrwt>
<pdfrwt beam="2">  1       -2 0.51152430E-02 0.27539478E+03</pdfrwt>
<totfact> 0.10074769E+04</totfact>
</mgrwt>
</event>
<event>
 9    1  0.7957670E-001  0.2751481E+03  0.7818608E-02  0.1098369E+00
          2   -1    0    0  501    0  0.00000000000E+00  0.00000000000E+00  0.20355056780E+04  0.20355056780E+04  0.00000000000E+00 0.  1.
         -2   -1    0    0    0  501 -0.00000000000E+00 -0.00000000000E+00 -0.92982400080E+01  0.92982400080E+01  0.00000000000E+00 0.  1.
         35    2    1    2    0    0  0.00000000000E+00 -0.71054273576E-14  0.20262074380E+04  0.20448039180E+04  0.27514810798E+03 0.  0.
         25    2    3    3    0    0 -0.11573366666E+02  0.52303561117E+02  0.10634068745E+04  0.10724752381E+04  0.12844979631E+03 0.  0.
         25    2    3    3    0    0  0.11573366666E+02 -0.52303561117E+02  0.96280056342E+03  0.97232867989E+03  0.12477392150E+03 0.  0.
          5    1    4    4  502    0  0.55869933489E+02  0.99142974602E+01  0.54448173943E+03  0.54745063461E+03  0.47000000000E+01 0.  1.
         -5    1    4    4    0  502 -0.67443300155E+02  0.42389263656E+02  0.51892513512E+03  0.52502460349E+03  0.47000000000E+01 0.  1.
          5    1    5    5  503    0  0.52361163504E+02 -0.67527526035E+02  0.48201243404E+03  0.48955054365E+03  0.47000000000E+01 0.  1.
         -5    1    5    5    0  503 -0.40787796838E+02  0.15223964918E+02  0.48078812938E+03  0.48277813624E+03  0.47000000000E+01 0.  1.
<mgrwt>
<rscale>  0 0.27514811E+03</rscale>
<asrwt>0</asrwt>
<pdfrwt beam="1">  1        2 0.31315436E+00 0.27514811E+03</pdfrwt>
<pdfrwt beam="2">  1       -2 0.14305001E-02 0.27514811E+03</pdfrwt>
<totfact> 0.89995898E+03</totfact>
</mgrwt>
</event>
<event>
 9    1  0.7957670E-001  0.2757785E+03  0.7818608E-02  0.1098017E+00
         -2   -1    0    0    0  501 -0.00000000000E+00  0.00000000000E+00  0.12711488426E+02  0.12711488426E+02  0.00000000000E+00 0.  1.
          2   -1    0    0  501    0  0.00000000000E+00 -0.00000000000E+00 -0.14957685342E+04  0.14957685342E+04  0.00000000000E+00 0.  1.
         35    2    1    2    0    0  0.35527136788E-14  0.00000000000E+00 -0.14830570458E+04  0.15084800227E+04  0.27577849380E+03 0.  0.
         25    2    3    3    0    0  0.88951068487E+01  0.18393139141E+02 -0.44601057362E+03  0.46359001246E+03  0.12479117509E+03 0.  0.
         25    2    3    3    0    0 -0.88951068487E+01 -0.18393139141E+02 -0.10370464722E+04  0.10448900102E+04  0.12614403449E+03 0.  0.
          5    1    4    4  502    0 -0.33956723711E+02 -0.25302001189E+02 -0.65351314428E+02  0.78013682433E+02  0.47000000000E+01 0. -1.
         -5    1    4    4    0  502  0.42851830559E+02  0.43695140330E+02 -0.38065925919E+03  0.38557633003E+03  0.47000000000E+01 0. -1.
          5    1    5    5  503    0  0.14047317880E+02  0.48797004793E+02 -0.28878776983E+03  0.29325576008E+03  0.47000000000E+01 0. -1.
         -5    1    5    5    0  503 -0.22942424729E+02 -0.67190143934E+02 -0.74825870237E+03  0.75163425013E+03  0.47000000000E+01 0. -1.
<mgrwt>
<rscale>  0 0.27577849E+03</rscale>
<asrwt>0</asrwt>
<pdfrwt beam="1">  1        2 0.23011832E+00 0.27577849E+03</pdfrwt>
<pdfrwt beam="2">  1       -2 0.19556129E-02 0.27577849E+03</pdfrwt>
<totfact> 0.10960046E+04</totfact>
</mgrwt>
</event>
<event>
 9    1  0.7957670E-001  0.2749499E+03  0.7818608E-02  0.1098480E+00
         -1   -1    0    0    0  501 -0.00000000000E+00  0.00000000000E+00  0.30579929229E+03  0.30579929229E+03  0.00000000000E+00 0. -1.
          1   -1    0    0  501    0  0.00000000000E+00 -0.00000000000E+00 -0.61803137622E+02  0.61803137622E+02  0.00000000000E+00 0. -1.
         35    2    1    2    0    0 -0.35527136788E-14  0.00000000000E+00  0.24399615467E+03  0.36760242991E+03  0.27494985540E+03 0.  0.
         25    2    3    3    0    0 -0.12276667652E+02  0.48059765538E+02  0.16014506712E+03  0.20904807193E+03  0.12487672411E+03 0.  0.
         25    2    3    3    0    0  0.12276667652E+02 -0.48059765538E+02  0.83851087551E+02  0.15855435798E+03  0.12509205378E+03 0.  0.
          5    1    4    4  502    0  0.52977691047E+02  0.12193984151E+01  0.74383459119E+02  0.91450050146E+02  0.47000000000E+01 0.  1.
         -5    1    4    4    0  502 -0.65254358699E+02  0.46840367123E+02  0.85761607997E+02  0.11759802179E+03  0.47000000000E+01 0.  1.
          5    1    5    5  503    0  0.17585857157E+02 -0.38629318517E+02 -0.24721220059E+02  0.49342834761E+02  0.47000000000E+01 0. -1.
         -5    1    5    5    0  503 -0.53091895046E+01 -0.94304470207E+01  0.10857230761E+03  0.10921152322E+03  0.47000000000E+01 0. -1.
<mgrwt>
<rscale>  0 0.27494986E+03</rscale>
<asrwt>0</asrwt>
<pdfrwt beam="1">  1        1 0.95081752E-02 0.27494986E+03</pdfrwt>
<pdfrwt beam="2">  1       -1 0.47046044E-01 0.27494986E+03</pdfrwt>
<totfact> 0.31469356E+03</totfact>
</mgrwt>
</event>
<event>
 9    1  0.7957670E-001  0.2763187E+03  0.7818608E-02  0.1097717E+00
          1   -1    0    0  501    0  0.00000000000E+00  0.00000000000E+00  0.16776719946E+04  0.16776719946E+04  0.00000000000E+00 0.  1.
         -1   -1    0    0    0  501 -0.00000000000E+00 -0.00000000000E+00 -0.11377671078E+02  0.11377671078E+02  0.00000000000E+00 0.  1.
         35    2    1    2    0    0  0.35527136788E-14  0.00000000000E+00  0.16662943235E+04  0.16890496656E+04  0.27631865757E+03 0.  0.
         25    2    3    3    0    0  0.19712808141E+02 -0.44996151916E+00  0.47565989013E+03  0.49159120899E+03  0.12255932609E+03 0.  0.
         25    2    3    3    0    0 -0.19712808141E+02  0.44996151916E+00  0.11906344333E+04  0.11974584566E+04  0.12612535127E+03 0.  0.
          5    1    4    4  502    0  0.55567041651E+02  0.36730042040E+02  0.19332990597E+03  0.20453687845E+03  0.47000000000E+01 0.  1.
         -5    1    4    4    0  502 -0.35854233511E+02 -0.37180003559E+02  0.28232998416E+03  0.28705433054E+03  0.47000000000E+01 0.  1.
          5    1    5    5  503    0 -0.13791063449E+02 -0.35865584774E+02  0.11810249018E+03  0.12428524364E+03  0.47000000000E+01 0. -1.
         -5    1    5    5    0  503 -0.59217446923E+01  0.36315546294E+02  0.10725319432E+04  0.10731732130E+04  0.47000000000E+01 0. -1.
<mgrwt>
<rscale>  0 0.27631866E+03</rscale>
<asrwt>0</asrwt>
<pdfrwt beam="1">  1        1 0.25810319E+00 0.27631866E+03</pdfrwt>
<pdfrwt beam="2">  1       -1 0.17504123E-02 0.27631866E+03</pdfrwt>
<totfact> 0.45559413E+03</totfact>
</mgrwt>
</event>
<event>
 9    1  0.7957670E-001  0.2776624E+03  0.7818608E-02  0.1096973E+00
          2   -1    0    0  501    0  0.00000000000E+00  0.00000000000E+00  0.44394830416E+03  0.44394830416E+03  0.00000000000E+00 0. -1.
         -2   -1    0    0    0  501 -0.00000000000E+00 -0.00000000000E+00 -0.43415188040E+02  0.43415188040E+02  0.00000000000E+00 0. -1.
         35    2    1    2    0    0  0.71054273576E-14 -0.35527136788E-14  0.40053311612E+03  0.48736349220E+03  0.27766237848E+03 0.  0.
         25    2    3    3    0    0  0.53108978714E+02 -0.28389193060E+02  0.20582479285E+03  0.24831310906E+03  0.12517605552E+03 0.  0.
         25    2    3    3    0    0 -0.53108978714E+02  0.28389193060E+02  0.19470832327E+03  0.23905038314E+03  0.12492895832E+03 0.  0.
          5    1    4    4  502    0  0.13396507925E+02 -0.22236077295E+02  0.20617032166E+03  0.20785139184E+03  0.47000000000E+01 0.  1.
         -5    1    4    4    0  502  0.39712470788E+02 -0.61531157652E+01 -0.34552881301E+00  0.40461717214E+02  0.47000000000E+01 0.  1.
          5    1    5    5  503    0 -0.52088188494E+02  0.17329650744E+02  0.12568248902E+02  0.56511477205E+02  0.47000000000E+01 0. -1.
         -5    1    5    5    0  503 -0.10207902197E+01  0.11059542317E+02  0.18214007437E+03  0.18253890594E+03  0.47000000000E+01 0. -1.
<mgrwt>
<rscale>  0 0.27766238E+03</rscale>
<asrwt>0</asrwt>
<pdfrwt beam="1">  1        2 0.68299736E-01 0.27766238E+03</pdfrwt>
<pdfrwt beam="2">  1       -2 0.66792600E-02 0.27766238E+03</pdfrwt>
<totfact> 0.88664219E+03</totfact>
</mgrwt>
</event>
<event>
 9    1  0.7957670E-001  0.2740176E+03  0.7818608E-02  0.1099002E+00
          2   -1    0    0  501    0  0.00000000000E+00  0.00000000000E+00  0.25534429991E+03  0.25534429991E+03  0.00000000000E+00 0.  1.
         -2   -1    0    0    0  501 -0.00000000000E+00 -0.00000000000E+00 -0.73514116959E+02  0.73514116959E+02  0.00000000000E+00 0.  1.
         35    2    1    2    0    0  0.00000000000E+00  0.00000000000E+00  0.18183018295E+03  0.32885841687E+03  0.27401759599E+03 0.  0.
         25    2    3    3    0    0 -0.49425326354E+02 -0.84511154154E+01  0.59736915089E+02  0.14693818380E+03  0.12453130770E+03 0.  0.
         25    2    3    3    0    0  0.49425326354E+02  0.84511154154E+01  0.12209326786E+03  0.18192023307E+03  0.12519553070E+03 0.  0.
          5    1    4    4  502    0 -0.24339646993E+02  0.54105271551E+02  0.51821594967E+02  0.78913665041E+02  0.47000000000E+01 0.  1.
         -5    1    4    4    0  502 -0.25085679361E+02 -0.62556386967E+02  0.79153201223E+01  0.68024518756E+02  0.47000000000E+01 0.  1.
          5    1    5    5  503    0 -0.31279640107E+02 -0.25134067767E+02  0.13851225480E+02  0.42709292842E+02  0.47000000000E+01 0.  1.
         -5    1    5    5    0  503  0.80704966461E+02  0.33585183182E+02  0.10824204238E+03  0.13921094023E+03  0.47000000000E+01 0.  1.
<mgrwt>
<rscale>  0 0.27401760E+03</rscale>
<asrwt>0</asrwt>
<pdfrwt beam="1">  1        2 0.39283738E-01 0.27401760E+03</pdfrwt>
<pdfrwt beam="2">  1       -2 0.11309864E-01 0.27401760E+03</pdfrwt>
<totfact> 0.70376816E+03</totfact>
</mgrwt>
</event>
<event>
 9    1  0.7957670E-001  0.2641715E+03  0.7818608E-02  0.1104662E+00
         -2   -1    0    0    0  501 -0.00000000000E+00  0.00000000000E+00  0.56490432623E+03  0.56490432623E+03  0.00000000000E+00 0.  1.
          2   -1    0    0  501    0  0.00000000000E+00 -0.00000000000E+00 -0.30884251932E+02  0.30884251932E+02  0.00000000000E+00 0.  1.
         35    2    1    2    0    0  0.71054273576E-14  0.00000000000E+00  0.53402007430E+03  0.59578857817E+03  0.26417151647E+03 0.  0.
         25    2    3    3    0    0 -0.15444843171E+02  0.10340071734E+02  0.28058904060E+03  0.31246081423E+03  0.13622074168E+03 0.  0.
         25    2    3    3    0    0  0.15444843171E+02 -0.10340071734E+02  0.25343103370E+03  0.28332776393E+03  0.12530711355E+03 0.  0.
          5    1    4    4  502    0  0.17203574834E+02 -0.54575106748E+02  0.17516774261E+03  0.18433728140E+03  0.47000000000E+01 0.  1.
         -5    1    4    4    0  502 -0.32648418005E+02  0.64915178482E+02  0.10542129799E+03  0.12812353283E+03  0.47000000000E+01 0.  1.
          5    1    5    5  503    0  0.64149036462E+02  0.86857781491E+01  0.85266083335E+02  0.10715846485E+03  0.47000000000E+01 0.  1.
         -5    1    5    5    0  503 -0.48704193291E+02 -0.19025849883E+02  0.16816495037E+03  0.17616929909E+03  0.47000000000E+01 0.  1.
<mgrwt>
<rscale>  0 0.26417152E+03</rscale>
<asrwt>0</asrwt>
<pdfrwt beam="1">  1        2 0.47514238E-02 0.26417152E+03</pdfrwt>
<pdfrwt beam="2">  1       -2 0.86908350E-01 0.26417152E+03</pdfrwt>
<totfact> 0.19845445E+03</totfact>
</mgrwt>
</event>
<event>
 9    1  0.7957670E-001  0.2760045E+03  0.7818608E-02  0.1097891E+00
         -1   -1    0    0    0  501 -0.00000000000E+00  0.00000000000E+00  0.25447402520E+02  0.25447402520E+02  0.00000000000E+00 0. -1.
          1   -1    0    0  501    0  0.00000000000E+00 -0.00000000000E+00 -0.74839135049E+03  0.74839135049E+03  0.00000000000E+00 0. -1.
         35    2    1    2    0    0 -0.71054273576E-14  0.00000000000E+00 -0.72294394797E+03  0.77383875301E+03  0.27600446329E+03 0.  0.
         25    2    3    3    0    0 -0.48368459678E+02 -0.96103625261E+01 -0.27345759604E+03  0.30467174091E+03  0.12495577586E+03 0.  0.
         25    2    3    3    0    0  0.48368459678E+02  0.96103625261E+01 -0.44948635193E+03  0.46916701210E+03  0.12509131747E+03 0.  0.
          5    1    4    4  502    0  0.35317264148E+02 -0.13380388415E+02 -0.15439369171E+03  0.15901523821E+03  0.47000000000E+01 0. -1.
         -5    1    4    4    0  502 -0.83685723826E+02  0.37700258891E+01 -0.11906390432E+03  0.14565650271E+03  0.47000000000E+01 0. -1.
          5    1    5    5  503    0 -0.23455065650E+02  0.70738743981E+01 -0.15771395446E+02  0.29512822942E+02  0.47000000000E+01 0. -1.
         -5    1    5    5    0  503  0.71823525328E+02  0.25364881280E+01 -0.43371495648E+03  0.43965418915E+03  0.47000000000E+01 0. -1.
<mgrwt>
<rscale>  0 0.27600446E+03</rscale>
<asrwt>0</asrwt>
<pdfrwt beam="1">  1        1 0.11513711E+00 0.27600446E+03</pdfrwt>
<pdfrwt beam="2">  1       -1 0.39149856E-02 0.27600446E+03</pdfrwt>
<totfact> 0.64656405E+03</totfact>
</mgrwt>
</event>
<event>
 9    1  0.7957670E-001  0.2741413E+03  0.7818608E-02  0.1098933E+00
         -1   -1    0    0    0  501 -0.00000000000E+00  0.00000000000E+00  0.30281215918E+02  0.30281215918E+02  0.00000000000E+00 0. -1.
          1   -1    0    0  501    0  0.00000000000E+00 -0.00000000000E+00 -0.62046273417E+03  0.62046273417E+03  0.00000000000E+00 0. -1.
         35    2    1    2    0    0 -0.17763568394E-14  0.35527136788E-14 -0.59018151825E+03  0.65074395009E+03  0.27414132138E+03 0.  0.
         25    2    3    3    0    0 -0.60306121396E+01 -0.66820711718E+00 -0.16324925112E+03  0.20550464793E+03  0.12467969982E+03 0.  0.
         25    2    3    3    0    0  0.60306121396E+01  0.66820711718E+00 -0.42693226714E+03  0.44523930216E+03  0.12621434421E+03 0.  0.
          5    1    4    4  502    0 -0.56673882092E+02 -0.25066524436E+02 -0.11730823921E+03  0.13275380426E+03  0.47000000000E+01 0. -1.
         -5    1    4    4    0  502  0.50643269952E+02  0.24398317319E+02 -0.45941011907E+02  0.72750843668E+02  0.47000000000E+01 0. -1.
          5    1    5    5  503    0 -0.27042449863E+00  0.52220672381E+02 -0.33881009587E+03  0.34284317525E+03  0.47000000000E+01 0. -1.
         -5    1    5    5    0  503  0.63010366382E+01 -0.51552465263E+02 -0.88122171264E+02  0.10239612691E+03  0.47000000000E+01 0. -1.
<mgrwt>
<rscale>  0 0.27414132E+03</rscale>
<asrwt>0</asrwt>
<pdfrwt beam="1">  1        1 0.95455808E-01 0.27414132E+03</pdfrwt>
<pdfrwt beam="2">  1       -1 0.46586485E-02 0.27414132E+03</pdfrwt>
<totfact> 0.65429915E+03</totfact>
</mgrwt>
</event>
<event>
 9    1  0.7957670E-001  0.2763991E+03  0.7818608E-02  0.1097672E+00
          1   -1    0    0  501    0  0.00000000000E+00  0.00000000000E+00  0.14629533957E+04  0.14629533957E+04  0.00000000000E+00 0. -1.
         -1   -1    0    0    0  501 -0.00000000000E+00 -0.00000000000E+00 -0.13055180361E+02  0.13055180361E+02  0.00000000000E+00 0. -1.
         35    2    1    2    0    0  0.00000000000E+00  0.71054273576E-14  0.14498982154E+04  0.14760085761E+04  0.27639913488E+03 0.  0.
         25    2    3    3    0    0 -0.84504500108E+01 -0.40165046641E+02  0.49501737702E+03  0.51215547643E+03  0.12480539816E+03 0.  0.
         25    2    3    3    0    0  0.84504500108E+01  0.40165046641E+02  0.95488083837E+03  0.96385309968E+03  0.12462239445E+03 0.  0.
          5    1    4    4  502    0  0.12867359677E+02 -0.45137623513E+02  0.48556848856E+03  0.48785430313E+03  0.47000000000E+01 0.  1.
         -5    1    4    4    0  502 -0.21317809688E+02  0.49725768715E+01  0.94488884584E+01  0.24301173299E+02  0.47000000000E+01 0.  1.
          5    1    5    5  503    0 -0.58012601238E+02  0.20995043329E+02  0.44773736909E+03  0.45199236214E+03  0.47000000000E+01 0. -1.
         -5    1    5    5    0  503  0.66463051249E+02  0.19170003312E+02  0.50714346927E+03  0.51186073754E+03  0.47000000000E+01 0. -1.
<mgrwt>
<rscale>  0 0.27639913E+03</rscale>
<asrwt>0</asrwt>
<pdfrwt beam="1">  1        1 0.22506962E+00 0.27639913E+03</pdfrwt>
<pdfrwt beam="2">  1       -1 0.20084904E-02 0.27639913E+03</pdfrwt>
<totfact> 0.51617431E+03</totfact>
</mgrwt>
</event>
<event>
 9    1  0.7957670E-001  0.2739322E+03  0.7818608E-02  0.1099050E+00
         -2   -1    0    0    0  501 -0.00000000000E+00  0.00000000000E+00  0.91318432187E+01  0.91318432187E+01  0.00000000000E+00 0. -1.
          2   -1    0    0  501    0  0.00000000000E+00 -0.00000000000E+00 -0.20543190367E+04  0.20543190367E+04  0.00000000000E+00 0. -1.
         35    2    1    2    0    0  0.00000000000E+00 -0.71054273576E-14 -0.20451871935E+04  0.20634508799E+04  0.27393224976E+03 0.  0.
         25    2    3    3    0    0  0.45226275518E+02  0.35852095115E+02 -0.10093177218E+04  0.10184544205E+04  0.12327349414E+03 0.  0.
         25    2    3    3    0    0 -0.45226275518E+02 -0.35852095115E+02 -0.10358694717E+04  0.10449964595E+04  0.12514491253E+03 0.  0.
          5    1    4    4  502    0  0.45593207620E+02  0.10505665307E+02 -0.97177410185E+03  0.97291114939E+03  0.47000000000E+01 0. -1.
         -5    1    4    4    0  502 -0.36693210205E+00  0.25346429808E+02 -0.37543619925E+02  0.45543271075E+02  0.47000000000E+01 0. -1.
          5    1    5    5  503    0 -0.57879330067E+02 -0.29755695272E+02 -0.10238370528E+04  0.10259141382E+04  0.47000000000E+01 0. -1.
         -5    1    5    5    0  503  0.12653054549E+02 -0.60963998426E+01 -0.12032418937E+02  0.19082321293E+02  0.47000000000E+01 0. -1.
<mgrwt>
<rscale>  0 0.27393225E+03</rscale>
<asrwt>0</asrwt>
<pdfrwt beam="1">  1        2 0.31604919E+00 0.27393225E+03</pdfrwt>
<pdfrwt beam="2">  1       -2 0.14048985E-02 0.27393225E+03</pdfrwt>
<totfact> 0.90313125E+03</totfact>
</mgrwt>
</event>
<event>
 9    1  0.7957670E-001  0.2666942E+03  0.7818608E-02  0.1103187E+00
          1   -1    0    0  501    0  0.00000000000E+00  0.00000000000E+00  0.11879459646E+04  0.11879459646E+04  0.00000000000E+00 0. -1.
         -1   -1    0    0    0  501 -0.00000000000E+00 -0.00000000000E+00 -0.14968230217E+02  0.14968230217E+02  0.00000000000E+00 0. -1.
         35    2    1    2    0    0 -0.17763568394E-14  0.71054273576E-14  0.11729777343E+04  0.12029141948E+04  0.26669419703E+03 0.  0.
         25    2    3    3    0    0 -0.83288869977E+01  0.37217770144E+02  0.69646276657E+03  0.70878399067E+03  0.12593580682E+03 0.  0.
         25    2    3    3    0    0  0.83288869977E+01 -0.37217770144E+02  0.47651496777E+03  0.49413020410E+03  0.12507442315E+03 0.  0.
          5    1    4    4  502    0 -0.61639730718E+02 -0.68406210333E+01  0.31801676326E+03  0.32404166740E+03  0.47000000000E+01 0.  1.
         -5    1    4    4    0  502  0.53310843720E+02  0.44058391177E+02  0.37844600331E+03  0.38474232327E+03  0.47000000000E+01 0.  1.
          5    1    5    5  503    0 -0.12600908105E+02  0.40211315848E+02  0.25485256581E+03  0.25835567171E+03  0.47000000000E+01 0.  1.
         -5    1    5    5    0  503  0.20929795103E+02 -0.77429085991E+02  0.22166240196E+03  0.23577453239E+03  0.47000000000E+01 0.  1.
<mgrwt>
<rscale>  0 0.26669420E+03</rscale>
<asrwt>0</asrwt>
<pdfrwt beam="1">  1        1 0.18276084E+00 0.26669420E+03</pdfrwt>
<pdfrwt beam="2">  1       -1 0.23028056E-02 0.26669420E+03</pdfrwt>
<totfact> 0.65010487E+03</totfact>
</mgrwt>
</event>
<event>
 9    1  0.7957670E-001  0.2749503E+03  0.7818608E-02  0.1098479E+00
          2   -1    0    0  501    0  0.00000000000E+00  0.00000000000E+00  0.13879202299E+03  0.13879202299E+03  0.00000000000E+00 0. -1.
         -2   -1    0    0    0  501 -0.00000000000E+00 -0.00000000000E+00 -0.13617080802E+03  0.13617080802E+03  0.00000000000E+00 0. -1.
         35    2    1    2    0    0  0.00000000000E+00  0.00000000000E+00  0.26212149766E+01  0.27496283101E+03  0.27495033673E+03 0.  0.
         25    2    3    3    0    0  0.36676603152E+02  0.40497365901E+01  0.48124854707E+02  0.13651108598E+03  0.12230168179E+03 0.  0.
         25    2    3    3    0    0 -0.36676603152E+02 -0.40497365901E+01 -0.45503639731E+02  0.13845174503E+03  0.12544612744E+03 0.  0.
          5    1    4    4  502    0 -0.28772257139E+02 -0.13222772290E+02 -0.22070054640E+02  0.38882667086E+02  0.47000000000E+01 0. -1.
         -5    1    4    4    0  502  0.65448860291E+02  0.17272508880E+02  0.70194909348E+02  0.97628418889E+02  0.47000000000E+01 0. -1.
          5    1    5    5  503    0  0.19684205572E+02  0.46642807805E+02 -0.19091409186E+01  0.50879802358E+02  0.47000000000E+01 0.  1.
         -5    1    5    5    0  503 -0.56360808723E+02 -0.50692544395E+02 -0.43594498812E+02  0.87571942675E+02  0.47000000000E+01 0.  1.
<mgrwt>
<rscale>  0 0.27495034E+03</rscale>
<asrwt>0</asrwt>
<pdfrwt beam="1">  1        2 0.21352619E-01 0.27495034E+03</pdfrwt>
<pdfrwt beam="2">  1       -2 0.20949355E-01 0.27495034E+03</pdfrwt>
<totfact> 0.49606607E+03</totfact>
</mgrwt>
</event>
<event>
 9    1  0.7957670E-001  0.2749505E+03  0.7818608E-02  0.1098479E+00
         -2   -1    0    0    0  501 -0.00000000000E+00  0.00000000000E+00  0.12521273745E+02  0.12521273745E+02  0.00000000000E+00 0.  1.
          2   -1    0    0  501    0  0.00000000000E+00 -0.00000000000E+00 -0.15093866110E+04  0.15093866110E+04  0.00000000000E+00 0.  1.
         35    2    1    2    0    0  0.71054273576E-14  0.00000000000E+00 -0.14968653372E+04  0.15219078847E+04  0.27495048967E+03 0.  0.
         25    2    3    3    0    0  0.31756630057E+02 -0.84208988258E+01 -0.10179801470E+04  0.10260044533E+04  0.12378272675E+03 0.  0.
         25    2    3    3    0    0 -0.31756630057E+02  0.84208988258E+01 -0.47888519022E+03  0.49590343139E+03  0.12453831848E+03 0.  0.
          5    1    4    4  502    0  0.39336156981E+02 -0.41300883315E+02 -0.22078110481E+03  0.22807779911E+03  0.47000000000E+01 0.  1.
         -5    1    4    4    0  502 -0.75795269235E+01  0.32879984489E+02 -0.79719904219E+03  0.79792665419E+03  0.47000000000E+01 0.  1.
          5    1    5    5  503    0 -0.38075813301E+01 -0.42032329061E+01  0.63210714317E+01  0.97062241110E+01  0.47000000000E+01 0. -1.
         -5    1    5    5    0  503 -0.27949048727E+02  0.12624131732E+02 -0.48520626165E+03  0.48619720728E+03  0.47000000000E+01 0. -1.
<mgrwt>
<rscale>  0 0.27495049E+03</rscale>
<asrwt>0</asrwt>
<pdfrwt beam="1">  1        2 0.23221345E+00 0.27495049E+03</pdfrwt>
<pdfrwt beam="2">  1       -2 0.19263487E-02 0.27495049E+03</pdfrwt>
<totfact> 0.11018554E+04</totfact>
</mgrwt>
</event>
<event>
 9    1  0.7957670E-001  0.2755102E+03  0.7818608E-02  0.1098167E+00
          1   -1    0    0  501    0  0.00000000000E+00  0.00000000000E+00  0.19180052178E+04  0.19180052178E+04  0.00000000000E+00 0. -1.
         -1   -1    0    0    0  501 -0.00000000000E+00 -0.00000000000E+00 -0.98938568485E+01  0.98938568485E+01  0.00000000000E+00 0. -1.
         35    2    1    2    0    0  0.00000000000E+00 -0.71054273576E-14  0.19081113610E+04  0.19278990747E+04  0.27551021077E+03 0.  0.
         25    2    3    3    0    0  0.89778504572E+01  0.56618180780E+01  0.56115749763E+03  0.57526086644E+03  0.12615335639E+03 0.  0.
         25    2    3    3    0    0 -0.89778504572E+01 -0.56618180780E+01  0.13469538633E+04  0.13526382082E+04  0.12342104523E+03 0.  0.
          5    1    4    4  502    0  0.14478928726E+02 -0.25958901057E+02  0.52806411833E+03  0.52892088916E+03  0.47000000000E+01 0. -1.
         -5    1    4    4    0  502 -0.55010782688E+01  0.31620719135E+02  0.33093379292E+02  0.46339977273E+02  0.47000000000E+01 0. -1.
          5    1    5    5  503    0 -0.30969990474E+02 -0.42639205238E+02  0.28924118420E+03  0.29404046452E+03  0.47000000000E+01 0.  1.
         -5    1    5    5    0  503  0.21992140016E+02  0.36977387160E+02  0.10577126791E+04  0.10585977437E+04  0.47000000000E+01 0.  1.
<mgrwt>
<rscale>  0 0.27551021E+03</rscale>
<asrwt>0</asrwt>
<pdfrwt beam="1">  1        1 0.29507743E+00 0.27551021E+03</pdfrwt>
<pdfrwt beam="2">  1       -1 0.15221333E-02 0.27551021E+03</pdfrwt>
<totfact> 0.38965794E+03</totfact>
</mgrwt>
</event>
<event>
 9    1  0.7957670E-001  0.2757490E+03  0.7818608E-02  0.1098034E+00
         -2   -1    0    0    0  501 -0.00000000000E+00  0.00000000000E+00  0.47551673309E+02  0.47551673309E+02  0.00000000000E+00 0.  1.
          2   -1    0    0  501    0  0.00000000000E+00 -0.00000000000E+00 -0.39976260649E+03  0.39976260649E+03  0.00000000000E+00 0.  1.
         35    2    1    2    0    0  0.00000000000E+00  0.53290705182E-14 -0.35221093318E+03  0.44731427980E+03  0.27574902259E+03 0.  0.
         25    2    3    3    0    0  0.45500853206E+02  0.12090384806E+02 -0.22300723864E+03  0.25996858944E+03  0.12503972953E+03 0.  0.
         25    2    3    3    0    0 -0.45500853206E+02 -0.12090384806E+02 -0.12920369453E+03  0.18734569036E+03  0.12723328168E+03 0.  0.
          5    1    4    4  502    0  0.76548511598E+02  0.31351988026E+01 -0.21206818250E+03  0.22553161226E+03  0.47000000000E+01 0. -1.
         -5    1    4    4    0  502 -0.31047658392E+02  0.89551860036E+01 -0.10939056144E+02  0.34436977180E+02  0.47000000000E+01 0. -1.
          5    1    5    5  503    0 -0.26660507443E+02 -0.61815715324E+02 -0.28272131416E+02  0.73166718752E+02  0.47000000000E+01 0. -1.
         -5    1    5    5    0  503 -0.18840345763E+02  0.49725330518E+02 -0.10093156312E+03  0.11417897161E+03  0.47000000000E+01 0. -1.
<mgrwt>
<rscale>  0 0.27574902E+03</rscale>
<asrwt>0</asrwt>
<pdfrwt beam="1">  1        2 0.61501941E-01 0.27574902E+03</pdfrwt>
<pdfrwt beam="2">  1       -2 0.73156419E-02 0.27574902E+03</pdfrwt>
<totfact> 0.86334217E+03</totfact>
</mgrwt>
</event>
<event>
 9    1  0.7957670E-001  0.2769022E+03  0.7818608E-02  0.1097393E+00
         -2   -1    0    0    0  501 -0.00000000000E+00  0.00000000000E+00  0.12181202369E+02  0.12181202369E+02  0.00000000000E+00 0. -1.
          2   -1    0    0  501    0  0.00000000000E+00 -0.00000000000E+00 -0.15736297982E+04  0.15736297982E+04  0.00000000000E+00 0. -1.
         35    2    1    2    0    0 -0.71054273576E-14 -0.35527136788E-14 -0.15614485958E+04  0.15858110006E+04  0.27690217063E+03 0.  0.
         25    2    3    3    0    0 -0.48237873248E+02 -0.54405710570E+01 -0.59865361166E+03  0.61368694087E+03  0.12597230810E+03 0.  0.
         25    2    3    3    0    0  0.48237873248E+02  0.54405710570E+01 -0.96279498417E+03  0.97212405970E+03  0.12527774614E+03 0.  0.
          5    1    4    4  502    0 -0.10880883672E+02 -0.64120946470E+02 -0.27919370038E+03  0.28670734510E+03  0.47000000000E+01 0. -1.
         -5    1    4    4    0  502 -0.37356989575E+02  0.58680375413E+02 -0.31945991129E+03  0.32697959577E+03  0.47000000000E+01 0. -1.
          5    1    5    5  503    0  0.74269376000E+02 -0.18502095822E+02 -0.35050178000E+03  0.35879221779E+03  0.47000000000E+01 0. -1.
         -5    1    5    5    0  503 -0.26031502752E+02  0.23942666879E+02 -0.61229320417E+03  0.61333184191E+03  0.47000000000E+01 0. -1.
<mgrwt>
<rscale>  0 0.27690217E+03</rscale>
<asrwt>0</asrwt>
<pdfrwt beam="1">  1        2 0.24209680E+00 0.27690217E+03</pdfrwt>
<pdfrwt beam="2">  1       -2 0.18740318E-02 0.27690217E+03</pdfrwt>
<totfact> 0.10605314E+04</totfact>
</mgrwt>
</event>
<event>
 9    1  0.7957670E-001  0.2817081E+03  0.7818608E-02  0.1094760E+00
         -2   -1    0    0    0  501 -0.00000000000E+00  0.00000000000E+00  0.43763474646E+02  0.43763474646E+02  0.00000000000E+00 0.  1.
          2   -1    0    0  501    0  0.00000000000E+00 -0.00000000000E+00 -0.45334298191E+03  0.45334298191E+03  0.00000000000E+00 0.  1.
         35    2    1    2    0    0  0.71054273576E-14  0.00000000000E+00 -0.40957950726E+03  0.49710645655E+03  0.28170810492E+03 0.  0.
         25    2    3    3    0    0  0.59712516697E+02  0.26231948645E+00 -0.23910555553E+03  0.27741554580E+03  0.12736665539E+03 0.  0.
         25    2    3    3    0    0 -0.59712516697E+02 -0.26231948645E+00 -0.17047395173E+03  0.21969091075E+03  0.12504828902E+03 0.  0.
          5    1    4    4  502    0 -0.27471591173E+02 -0.36211185692E+02 -0.68882386488E+02  0.82660821790E+02  0.47000000000E+01 0. -1.
         -5    1    4    4    0  502  0.87184107870E+02  0.36473505178E+02 -0.17022316904E+03  0.19475472401E+03  0.47000000000E+01 0. -1.
          5    1    5    5  503    0  0.26641932179E+02  0.35034317620E+02 -0.66905915576E+02  0.80222736805E+02  0.47000000000E+01 0. -1.
         -5    1    5    5    0  503 -0.86354448876E+02 -0.35296637106E+02 -0.10356803615E+03  0.13946817395E+03  0.47000000000E+01 0. -1.
<mgrwt>
<rscale>  0 0.28170810E+03</rscale>
<asrwt>0</asrwt>
<pdfrwt beam="1">  1        2 0.69745077E-01 0.28170810E+03</pdfrwt>
<pdfrwt beam="2">  1       -2 0.67328419E-02 0.28170810E+03</pdfrwt>
<totfact> 0.85625664E+03</totfact>
</mgrwt>
</event>
<event>
 9    1  0.7957670E-001  0.2752822E+03  0.7818608E-02  0.1098294E+00
         -4   -1    0    0    0  501 -0.00000000000E+00  0.00000000000E+00  0.90393262999E+03  0.90393262999E+03  0.00000000000E+00 0. -1.
          4   -1    0    0  501    0  0.00000000000E+00 -0.00000000000E+00 -0.20958496520E+02  0.20958496520E+02  0.00000000000E+00 0. -1.
         35    2    1    2    0    0  0.00000000000E+00  0.00000000000E+00  0.88297413347E+03  0.92489112651E+03  0.27528217436E+03 0.  0.
         25    2    3    3    0    0 -0.42975696300E+02  0.37377871764E+01  0.56332563667E+03  0.57884036545E+03  0.12593456327E+03 0.  0.
         25    2    3    3    0    0  0.42975696300E+02 -0.37377871764E+01  0.31964849680E+03  0.34605076105E+03  0.12535982688E+03 0.  0.
          5    1    4    4  502    0  0.85642869824E+01  0.43882064410E+02  0.85997399856E+02  0.97039298073E+02  0.47000000000E+01 0. -1.
         -5    1    4    4    0  502 -0.51539983283E+02 -0.40144277234E+02  0.47732823681E+03  0.48180106738E+03  0.47000000000E+01 0. -1.
          5    1    5    5  503    0  0.17665277021E+02  0.45739801359E+02  0.48147081838E+02  0.68879771560E+02  0.47000000000E+01 0.  1.
         -5    1    5    5    0  503  0.25310419279E+02 -0.49477588536E+02  0.27150141496E+03  0.27717098949E+03  0.47000000000E+01 0.  1.
<mgrwt>
<rscale>  0 0.27528217E+03</rscale>
<asrwt>0</asrwt>
<pdfrwt beam="1">  1        4 0.32243848E-02 0.27528217E+03</pdfrwt>
<pdfrwt beam="2">  1       -4 0.13906653E+00 0.27528217E+03</pdfrwt>
<totfact> 0.34592510E+02</totfact>
</mgrwt>
</event>
<event>
 9    1  0.7957670E-001  0.2692842E+03  0.7818608E-02  0.1101690E+00
         -1   -1    0    0    0  501 -0.00000000000E+00  0.00000000000E+00  0.88380990974E+03  0.88380990974E+03  0.00000000000E+00 0.  1.
          1   -1    0    0  501    0  0.00000000000E+00 -0.00000000000E+00 -0.20511760643E+02  0.20511760643E+02  0.00000000000E+00 0.  1.
         35    2    1    2    0    0  0.71054273576E-14  0.71054273576E-14  0.86329814909E+03  0.90432167038E+03  0.26928421656E+03 0.  0.
         25    2    3    3    0    0  0.41346008588E+02  0.37930054783E+02  0.43777026820E+03  0.45719689792E+03  0.11932315055E+03 0.  0.
         25    2    3    3    0    0 -0.41346008588E+02 -0.37930054783E+02  0.42552788089E+03  0.44712477246E+03  0.12529326899E+03 0.  0.
          5    1    4    4  502    0  0.43990341569E+02  0.66082414243E+02  0.16759457979E+03  0.18550490236E+03  0.47000000000E+01 0.  1.
         -5    1    4    4    0  502 -0.26443329817E+01 -0.28152359460E+02  0.27017568842E+03  0.27169199556E+03  0.47000000000E+01 0.  1.
          5    1    5    5  503    0 -0.71303467223E+02  0.11520214782E+02  0.30349450107E+03  0.31200625309E+03  0.47000000000E+01 0. -1.
         -5    1    5    5    0  503  0.29957458636E+02 -0.49450269565E+02  0.12203337982E+03  0.13511851938E+03  0.47000000000E+01 0. -1.
<mgrwt>
<rscale>  0 0.26928422E+03</rscale>
<asrwt>0</asrwt>
<pdfrwt beam="1">  1        1 0.31556562E-02 0.26928422E+03</pdfrwt>
<pdfrwt beam="2">  1       -1 0.13597073E+00 0.26928422E+03</pdfrwt>
<totfact> 0.15433823E+03</totfact>
</mgrwt>
</event>
<event>
 9    1  0.7957670E-001  0.2746713E+03  0.7818608E-02  0.1098635E+00
          2   -1    0    0  501    0  0.00000000000E+00  0.00000000000E+00  0.43271665068E+03  0.43271665068E+03  0.00000000000E+00 0.  1.
         -2   -1    0    0    0  501 -0.00000000000E+00 -0.00000000000E+00 -0.43587605024E+02  0.43587605024E+02  0.00000000000E+00 0.  1.
         35    2    1    2    0    0  0.00000000000E+00  0.00000000000E+00  0.38912904565E+03  0.47630425570E+03  0.27467131235E+03 0.  0.
         25    2    3    3    0    0 -0.29951784521E+02  0.30770354515E+02  0.13682319679E+03  0.19171841263E+03  0.12724558322E+03 0.  0.
         25    2    3    3    0    0  0.29951784521E+02 -0.30770354515E+02  0.25230584886E+03  0.28458584307E+03  0.12444652102E+03 0.  0.
          5    1    4    4  502    0 -0.30091911812E+02  0.44242975792E+02 -0.44098686225E+00  0.53714509519E+02  0.47000000000E+01 0. -1.
         -5    1    4    4    0  502  0.14012729117E+00 -0.13472621278E+02  0.13726418365E+03  0.13800390311E+03  0.47000000000E+01 0. -1.
          5    1    5    5  503    0 -0.20943633691E+02  0.19176874346E+02  0.77589124940E+01  0.29810719967E+02  0.47000000000E+01 0.  1.
         -5    1    5    5    0  503  0.50895418212E+02 -0.49947228861E+02  0.24454693637E+03  0.25477512310E+03  0.47000000000E+01 0.  1.
<mgrwt>
<rscale>  0 0.27467131E+03</rscale>
<asrwt>0</asrwt>
<pdfrwt beam="1">  1        2 0.66571789E-01 0.27467131E+03</pdfrwt>
<pdfrwt beam="2">  1       -2 0.67057857E-02 0.27467131E+03</pdfrwt>
<totfact> 0.90599266E+03</totfact>
</mgrwt>
</event>
<event>
 9    1  0.7957670E-001  0.2656021E+03  0.7818608E-02  0.1103823E+00
         -2   -1    0    0    0  501 -0.00000000000E+00  0.00000000000E+00  0.12615502933E+03  0.12615502933E+03  0.00000000000E+00 0. -1.
          2   -1    0    0  501    0  0.00000000000E+00 -0.00000000000E+00 -0.13979721702E+03  0.13979721702E+03  0.00000000000E+00 0. -1.
         35    2    1    2    0    0  0.71054273576E-14  0.71054273576E-14 -0.13642187697E+02  0.26595224635E+03  0.26560212359E+03 0.  0.
         25    2    3    3    0    0 -0.36901760927E+02  0.94605402988E+01  0.17162536323E+02  0.13215512583E+03  0.12537616539E+03 0.  0.
         25    2    3    3    0    0  0.36901760927E+02 -0.94605402988E+01 -0.30804724020E+02  0.13379712052E+03  0.12450500654E+03 0.  0.
          5    1    4    4  502    0 -0.27210755262E+02  0.17890659483E+02  0.70122184495E+02  0.77457805656E+02  0.47000000000E+01 0. -1.
         -5    1    4    4    0  502 -0.96910056648E+01 -0.84301191844E+01 -0.52959648172E+02  0.54697320179E+02  0.47000000000E+01 0. -1.
          5    1    5    5  503    0  0.12209568360E+02 -0.48011574430E+02 -0.61023686995E+02  0.78741127839E+02  0.47000000000E+01 0. -1.
         -5    1    5    5    0  503  0.24692192566E+02  0.38551034131E+02  0.30218962975E+02  0.55055992677E+02  0.47000000000E+01 0. -1.
<mgrwt>
<rscale>  0 0.26560212E+03</rscale>
<asrwt>0</asrwt>
<pdfrwt beam="1">  1        2 0.21507264E-01 0.26560212E+03</pdfrwt>
<pdfrwt beam="2">  1       -2 0.19408466E-01 0.26560212E+03</pdfrwt>
<totfact> 0.56006565E+03</totfact>
</mgrwt>
</event>
<event>
 9    1  0.7957670E-001  0.2638489E+03  0.7818608E-02  0.1104853E+00
          1   -1    0    0  501    0  0.00000000000E+00  0.00000000000E+00  0.57754369567E+03  0.57754369567E+03  0.00000000000E+00 0.  1.
         -1   -1    0    0    0  501 -0.00000000000E+00 -0.00000000000E+00 -0.30134625767E+02  0.30134625767E+02  0.00000000000E+00 0.  1.
         35    2    1    2    0    0 -0.35527136788E-14  0.00000000000E+00  0.54740906990E+03  0.60767832144E+03  0.26384891990E+03 0.  0.
         25    2    3    3    0    0 -0.13700014054E+02 -0.25244251843E+02  0.20450228690E+03  0.24151749519E+03  0.12523798344E+03 0.  0.
         25    2    3    3    0    0  0.13700014054E+02  0.25244251843E+02  0.34290678300E+03  0.36616082625E+03  0.12515480900E+03 0.  0.
          5    1    4    4  502    0 -0.50749193513E+02 -0.17960386519E+02  0.27809613776E+02  0.60774342814E+02  0.47000000000E+01 0. -1.
         -5    1    4    4    0  502  0.37049179459E+02 -0.72838653244E+01  0.17669267313E+03  0.18074315237E+03  0.47000000000E+01 0. -1.
          5    1    5    5  503    0  0.27351343241E+00 -0.49320627414E+02  0.17527086598E+03  0.18213886339E+03  0.47000000000E+01 0. -1.
         -5    1    5    5    0  503  0.13426500622E+02  0.74564879257E+02  0.16763591703E+03  0.18402196286E+03  0.47000000000E+01 0. -1.
<mgrwt>
<rscale>  0 0.26384892E+03</rscale>
<asrwt>0</asrwt>
<pdfrwt beam="1">  1        1 0.88852868E-01 0.26384892E+03</pdfrwt>
<pdfrwt beam="2">  1       -1 0.46360967E-02 0.26384892E+03</pdfrwt>
<totfact> 0.72709920E+03</totfact>
</mgrwt>
</event>
<event>
 9    1  0.7957670E-001  0.2970757E+03  0.7818608E-02  0.1086712E+00
          2   -1    0    0  501    0  0.00000000000E+00  0.00000000000E+00  0.21428543642E+04  0.21428543642E+04  0.00000000000E+00 0. -1.
         -2   -1    0    0    0  501 -0.00000000000E+00 -0.00000000000E+00 -0.10296309812E+02  0.10296309812E+02  0.00000000000E+00 0. -1.
         35    2    1    2    0    0  0.00000000000E+00  0.71054273576E-14  0.21325580544E+04  0.21531506740E+04  0.29707569686E+03 0.  0.
         25    2    3    3    0    0  0.39635644593E+02  0.18913229951E+02  0.15534883955E+04  0.15591589783E+04  0.12538672257E+03 0.  0.
         25    2    3    3    0    0 -0.39635644593E+02 -0.18913229951E+02  0.57906965889E+03  0.59399169568E+03  0.12480292502E+03 0.  0.
          5    1    4    4  502    0  0.51969111115E+02 -0.22892542255E+02  0.32986213292E+03  0.33474762693E+03  0.47000000000E+01 0. -1.
         -5    1    4    4    0  502 -0.12333466522E+02  0.41805772206E+02  0.12236262625E+04  0.12244113514E+04  0.47000000000E+01 0. -1.
          5    1    5    5  503    0 -0.26434193909E+02 -0.69274356942E+02  0.25035074621E+03  0.26114227782E+03  0.47000000000E+01 0. -1.
         -5    1    5    5    0  503 -0.13201450684E+02  0.50361126991E+02  0.32871891268E+03  0.33284941786E+03  0.47000000000E+01 0. -1.
<mgrwt>
<rscale>  0 0.29707570E+03</rscale>
<asrwt>0</asrwt>
<pdfrwt beam="1">  1        2 0.32966955E+00 0.29707570E+03</pdfrwt>
<pdfrwt beam="2">  1       -2 0.15840494E-02 0.29707570E+03</pdfrwt>
<totfact> 0.68034678E+03</totfact>
</mgrwt>
</event>
<event>
 9    1  0.7957670E-001  0.2714131E+03  0.7818608E-02  0.1100474E+00
          2   -1    0    0  501    0  0.00000000000E+00  0.00000000000E+00  0.15433969600E+03  0.15433969600E+03  0.00000000000E+00 0.  1.
         -2   -1    0    0    0  501 -0.00000000000E+00 -0.00000000000E+00 -0.11932294265E+03  0.11932294265E+03  0.00000000000E+00 0.  1.
         35    2    1    2    0    0  0.00000000000E+00  0.00000000000E+00  0.35016753349E+02  0.27366263866E+03  0.27141309250E+03 0.  0.
         25    2    3    3    0    0 -0.27026416105E+02  0.90249717766E+01  0.63267666634E+02  0.14308310795E+03  0.12513233338E+03 0.  0.
         25    2    3    3    0    0  0.27026416105E+02 -0.90249717766E+01 -0.28250913285E+02  0.13057953070E+03  0.12426191071E+03 0.  0.
          5    1    4    4  502    0 -0.40656597007E+02  0.59541764277E+02  0.19847499178E+02  0.74927924014E+02  0.47000000000E+01 0.  1.
         -5    1    4    4    0  502  0.13630180902E+02 -0.50516792500E+02  0.43420167456E+02  0.68155183939E+02  0.47000000000E+01 0.  1.
          5    1    5    5  503    0  0.45969145569E+02  0.11901132568E+02 -0.67095647523E+02  0.82332953410E+02  0.47000000000E+01 0. -1.
         -5    1    5    5    0  503 -0.18942729464E+02 -0.20926104345E+02  0.38844734238E+02  0.48246577294E+02  0.47000000000E+01 0. -1.
<mgrwt>
<rscale>  0 0.27141309E+03</rscale>
<asrwt>0</asrwt>
<pdfrwt beam="1">  1        2 0.23744569E-01 0.27141309E+03</pdfrwt>
<pdfrwt beam="2">  1       -2 0.18357376E-01 0.27141309E+03</pdfrwt>
<totfact> 0.55093425E+03</totfact>
</mgrwt>
</event>
<event>
 9    1  0.7957670E-001  0.2753495E+03  0.7818608E-02  0.1098256E+00
         -1   -1    0    0    0  501 -0.00000000000E+00  0.00000000000E+00  0.70594466031E+02  0.70594466031E+02  0.00000000000E+00 0.  1.
          1   -1    0    0  501    0  0.00000000000E+00 -0.00000000000E+00 -0.26849609707E+03  0.26849609707E+03  0.00000000000E+00 0.  1.
         35    2    1    2    0    0  0.00000000000E+00 -0.71054273576E-14 -0.19790163104E+03  0.33909056310E+03  0.27534951319E+03 0.  0.
         25    2    3    3    0    0  0.11543236870E+02  0.34684661048E+02 -0.15221668859E+03  0.20061491605E+03  0.12545976337E+03 0.  0.
         25    2    3    3    0    0 -0.11543236870E+02 -0.34684661048E+02 -0.45684942446E+02  0.13847564705E+03  0.12550744532E+03 0.  0.
          5    1    4    4  502    0 -0.14806021692E+02  0.26139025397E+02  0.12969021486E+02  0.33056806340E+02  0.47000000000E+01 0.  1.
         -5    1    4    4    0  502  0.26349258562E+02  0.85456356509E+01 -0.16518571008E+03  0.16755810971E+03  0.47000000000E+01 0.  1.
          5    1    5    5  503    0 -0.11077262578E+02  0.40580725378E+02 -0.46736784701E+02  0.63054881355E+02  0.47000000000E+01 0. -1.
         -5    1    5    5    0  503 -0.46597429177E+00 -0.75265386426E+02  0.10518422555E+01  0.75420765695E+02  0.47000000000E+01 0. -1.
<mgrwt>
<rscale>  0 0.27534951E+03</rscale>
<asrwt>0</asrwt>
<pdfrwt beam="1">  1        1 0.41307092E-01 0.27534951E+03</pdfrwt>
<pdfrwt beam="2">  1       -1 0.10860687E-01 0.27534951E+03</pdfrwt>
<totfact> 0.53686965E+03</totfact>
</mgrwt>
</event>
<event>
 9    1  0.7957670E-001  0.2749464E+03  0.7818608E-02  0.1098482E+00
         -2   -1    0    0    0  501 -0.00000000000E+00  0.00000000000E+00  0.71062393073E+02  0.71062393073E+02  0.00000000000E+00 0. -1.
          2   -1    0    0  501    0  0.00000000000E+00 -0.00000000000E+00 -0.26594774305E+03  0.26594774305E+03  0.00000000000E+00 0. -1.
         35    2    1    2    0    0 -0.71054273576E-14  0.35527136788E-14 -0.19488534997E+03  0.33701013612E+03  0.27494641699E+03 0.  0.
         25    2    3    3    0    0  0.23202218507E+02 -0.10122896892E+02 -0.14978427494E+03  0.19670280654E+03  0.12496339103E+03 0.  0.
         25    2    3    3    0    0 -0.23202218507E+02  0.10122896892E+02 -0.45101075033E+02  0.14030732958E+03  0.13042708223E+03 0.  0.
          5    1    4    4  502    0 -0.23053979986E+02  0.26712236421E+02 -0.12904461738E+03  0.13386423287E+03  0.47000000000E+01 0. -1.
         -5    1    4    4    0  502  0.46256198493E+02 -0.36835133313E+02 -0.20739657563E+02  0.62838573671E+02  0.47000000000E+01 0. -1.
          5    1    5    5  503    0 -0.16815853040E+02  0.57127237000E+02  0.16918080686E+02  0.62085469917E+02  0.47000000000E+01 0. -1.
         -5    1    5    5    0  503 -0.63863654672E+01 -0.47004340108E+02 -0.62019155719E+02  0.78221859662E+02  0.47000000000E+01 0. -1.
<mgrwt>
<rscale>  0 0.27494642E+03</rscale>
<asrwt>0</asrwt>
<pdfrwt beam="1">  1        2 0.40915038E-01 0.27494642E+03</pdfrwt>
<pdfrwt beam="2">  1       -2 0.10932676E-01 0.27494642E+03</pdfrwt>
<totfact> 0.71132188E+03</totfact>
</mgrwt>
</event>
<event>
 9    1  0.7957670E-001  0.2676339E+03  0.7818608E-02  0.1102641E+00
         -1   -1    0    0    0  501 -0.00000000000E+00  0.00000000000E+00  0.12410461025E+02  0.12410461025E+02  0.00000000000E+00 0.  1.
          1   -1    0    0  501    0  0.00000000000E+00 -0.00000000000E+00 -0.14428935308E+04  0.14428935308E+04  0.00000000000E+00 0.  1.
         35    2    1    2    0    0  0.35527136788E-14  0.00000000000E+00 -0.14304830697E+04  0.14553039918E+04  0.26763388371E+03 0.  0.
         25    2    3    3    0    0 -0.94975832917E+01 -0.20065084832E+02 -0.10593061894E+04  0.10669079067E+04  0.12518013694E+03 0.  0.
         25    2    3    3    0    0  0.94975832917E+01  0.20065084832E+02 -0.37117688035E+03  0.38839608513E+03  0.11218926296E+03 0.  0.
          5    1    4    4  502    0  0.52660820255E+02  0.94402643208E+01 -0.32925122319E+03  0.33360266569E+03  0.47000000000E+01 0. -1.
         -5    1    4    4    0  502 -0.62158403547E+02 -0.29505349153E+02 -0.73005496619E+03  0.73330524096E+03  0.47000000000E+01 0. -1.
          5    1    5    5  503    0 -0.29866181526E+02  0.52173199624E+02 -0.15585673996E+03  0.16711506500E+03  0.47000000000E+01 0. -1.
         -5    1    5    5    0  503  0.39363764817E+02 -0.32108114792E+02 -0.21532014039E+03  0.22128102013E+03  0.47000000000E+01 0. -1.
<mgrwt>
<rscale>  0 0.26763388E+03</rscale>
<asrwt>0</asrwt>
<pdfrwt beam="1">  1        1 0.22198351E+00 0.26763388E+03</pdfrwt>
<pdfrwt beam="2">  1       -1 0.19093026E-02 0.26763388E+03</pdfrwt>
<totfact> 0.57300675E+03</totfact>
</mgrwt>
</event>
<event>
 9    1  0.7957670E-001  0.2750764E+03  0.7818608E-02  0.1098409E+00
          2   -1    0    0  501    0  0.00000000000E+00  0.00000000000E+00  0.13642942837E+03  0.13642942837E+03  0.00000000000E+00 0. -1.
         -2   -1    0    0    0  501 -0.00000000000E+00 -0.00000000000E+00 -0.13865603265E+03  0.13865603265E+03  0.00000000000E+00 0. -1.
         35    2    1    2    0    0  0.71054273576E-14 -0.17763568394E-14 -0.22266042836E+01  0.27508546101E+03  0.27507644955E+03 0.  0.
         25    2    3    3    0    0  0.45167306284E+02  0.66375233879E+01  0.34879678107E+02  0.13731197759E+03  0.12471505511E+03 0.  0.
         25    2    3    3    0    0 -0.45167306284E+02 -0.66375233879E+01 -0.37106282390E+02  0.13777348343E+03  0.12458135603E+03 0.  0.
          5    1    4    4  502    0  0.67641404923E+02  0.12256095420E+02  0.67877504862E+02  0.96721337879E+02  0.47000000000E+01 0.  1.
         -5    1    4    4    0  502 -0.22474098639E+02 -0.56185720319E+01 -0.32997826756E+02  0.40590639708E+02  0.47000000000E+01 0.  1.
          5    1    5    5  503    0 -0.84064373606E+02 -0.21675342526E+02 -0.40011991688E+02  0.95706263443E+02  0.47000000000E+01 0.  1.
         -5    1    5    5    0  503  0.38897067322E+02  0.15037819139E+02  0.29057092978E+01  0.42067219984E+02  0.47000000000E+01 0.  1.
<mgrwt>
<rscale>  0 0.27507645E+03</rscale>
<asrwt>0</asrwt>
<pdfrwt beam="1">  1        2 0.20989143E-01 0.27507645E+03</pdfrwt>
<pdfrwt beam="2">  1       -2 0.21331697E-01 0.27507645E+03</pdfrwt>
<totfact> 0.49033592E+03</totfact>
</mgrwt>
</event>
<event>
 9    1  0.7957670E-001  0.2736328E+03  0.7818608E-02  0.1099218E+00
          2   -1    0    0  501    0  0.00000000000E+00  0.00000000000E+00  0.37452779209E+03  0.37452779209E+03  0.00000000000E+00 0. -1.
         -2   -1    0    0    0  501 -0.00000000000E+00 -0.00000000000E+00 -0.49979526378E+02  0.49979526378E+02  0.00000000000E+00 0. -1.
         35    2    1    2    0    0  0.00000000000E+00 -0.71054273576E-14  0.32454826572E+03  0.42450731847E+03  0.27363275874E+03 0.  0.
         25    2    3    3    0    0  0.17368822668E+02  0.47671417389E+02  0.18063652377E+03  0.22560370956E+03  0.12527266267E+03 0.  0.
         25    2    3    3    0    0 -0.17368822668E+02 -0.47671417389E+02  0.14391174195E+03  0.19890360891E+03  0.12758454503E+03 0.  0.
          5    1    4    4  502    0 -0.36223167627E+02  0.67663287169E+02  0.90606017086E+02  0.11883593159E+03  0.47000000000E+01 0. -1.
         -5    1    4    4    0  502  0.53591990294E+02 -0.19991869780E+02  0.90030506680E+02  0.10676777798E+03  0.47000000000E+01 0. -1.
          5    1    5    5  503    0 -0.62306215329E+01 -0.44718927562E+02 -0.83310881791E+01  0.46153008106E+02  0.47000000000E+01 0. -1.
         -5    1    5    5    0  503 -0.11138201135E+02 -0.29524898274E+01  0.15224283013E+03  0.15275060081E+03  0.47000000000E+01 0. -1.
<mgrwt>
<rscale>  0 0.27363276E+03</rscale>
<asrwt>0</asrwt>
<pdfrwt beam="1">  1        2 0.57619658E-01 0.27363276E+03</pdfrwt>
<pdfrwt beam="2">  1       -2 0.76891581E-02 0.27363276E+03</pdfrwt>
<totfact> 0.85726056E+03</totfact>
</mgrwt>
</event>
<event>
 9    1  0.7957670E-001  0.2735995E+03  0.7818608E-02  0.1099237E+00
         -1   -1    0    0    0  501 -0.00000000000E+00  0.00000000000E+00  0.78841481884E+03  0.78841481884E+03  0.00000000000E+00 0. -1.
          1   -1    0    0  501    0  0.00000000000E+00 -0.00000000000E+00 -0.23736445061E+02  0.23736445061E+02  0.00000000000E+00 0. -1.
         35    2    1    2    0    0  0.35527136788E-14  0.00000000000E+00  0.76467837378E+03  0.81215126390E+03  0.27359945199E+03 0.  0.
         25    2    3    3    0    0  0.99763675646E+01  0.27931817489E+02  0.24467884289E+03  0.27653185436E+03  0.12538905847E+03 0.  0.
         25    2    3    3    0    0 -0.99763675646E+01 -0.27931817489E+02  0.51999953089E+03  0.53561940954E+03  0.12493568508E+03 0.  0.
          5    1    4    4  502    0  0.25020745562E+02 -0.44279210840E+02  0.13437413845E+03  0.14375390536E+03  0.47000000000E+01 0. -1.
         -5    1    4    4    0  502 -0.15044377997E+02  0.72211028329E+02  0.11030470444E+03  0.13277794901E+03  0.47000000000E+01 0. -1.
          5    1    5    5  503    0  0.44210669583E+02 -0.38094372363E+02  0.38947598701E+03  0.39385200135E+03  0.47000000000E+01 0. -1.
         -5    1    5    5    0  503 -0.54187037148E+02  0.10162554874E+02  0.13052354388E+03  0.14176740819E+03  0.47000000000E+01 0. -1.
<mgrwt>
<rscale>  0 0.27359945E+03</rscale>
<asrwt>0</asrwt>
<pdfrwt beam="1">  1        1 0.36517614E-02 0.27359945E+03</pdfrwt>
<pdfrwt beam="2">  1       -1 0.12129457E+00 0.27359945E+03</pdfrwt>
<totfact> 0.16642325E+03</totfact>
</mgrwt>
</event>
<event>
 9    1  0.7957670E-001  0.2733387E+03  0.7818608E-02  0.1099384E+00
          1   -1    0    0  501    0  0.00000000000E+00  0.00000000000E+00  0.78607174960E+03  0.78607174960E+03  0.00000000000E+00 0. -1.
         -1   -1    0    0    0  501 -0.00000000000E+00 -0.00000000000E+00 -0.23761835735E+02  0.23761835735E+02  0.00000000000E+00 0. -1.
         35    2    1    2    0    0  0.00000000000E+00 -0.35527136788E-14  0.76230991387E+03  0.80983358534E+03  0.27333867483E+03 0.  0.
         25    2    3    3    0    0 -0.22566198068E+02  0.26158934164E+02  0.24799951161E+03  0.27942024678E+03  0.12400965050E+03 0.  0.
         25    2    3    3    0    0  0.22566198068E+02 -0.26158934164E+02  0.51431040225E+03  0.53041333856E+03  0.12501838554E+03 0.  0.
          5    1    4    4  502    0 -0.25846834511E+02  0.73632686619E+02  0.12478676176E+03  0.14725371746E+03  0.47000000000E+01 0.  1.
         -5    1    4    4    0  502  0.32806364429E+01 -0.47473752455E+02  0.12321274985E+03  0.13216652932E+03  0.47000000000E+01 0.  1.
          5    1    5    5  503    0 -0.22052738674E+02  0.25220168644E+02  0.36138561646E+03  0.36296560991E+03  0.47000000000E+01 0. -1.
         -5    1    5    5    0  503  0.44618936742E+02 -0.51379102808E+02  0.15292478579E+03  0.16744772865E+03  0.47000000000E+01 0. -1.
<mgrwt>
<rscale>  0 0.27333867E+03</rscale>
<asrwt>0</asrwt>
<pdfrwt beam="1">  1        1 0.12093410E+00 0.27333867E+03</pdfrwt>
<pdfrwt beam="2">  1       -1 0.36556676E-02 0.27333867E+03</pdfrwt>
<totfact> 0.66440565E+03</totfact>
</mgrwt>
</event>
<event>
 9    1  0.7957670E-001  0.2748334E+03  0.7818608E-02  0.1098545E+00
         -1   -1    0    0    0  501 -0.00000000000E+00  0.00000000000E+00  0.41696929452E+03  0.41696929452E+03  0.00000000000E+00 0. -1.
          1   -1    0    0  501    0  0.00000000000E+00 -0.00000000000E+00 -0.45287139645E+02  0.45287139645E+02  0.00000000000E+00 0. -1.
         35    2    1    2    0    0 -0.71054273576E-14 -0.62172489379E-14  0.37168215487E+03  0.46225643416E+03  0.27483337984E+03 0.  0.
         25    2    3    3    0    0  0.42799887254E+01 -0.26928904173E+01  0.76273099769E+02  0.14161358766E+03  0.11921095797E+03 0.  0.
         25    2    3    3    0    0 -0.42799887254E+01  0.26928904173E+01  0.29540905510E+03  0.32064284650E+03  0.12457830955E+03 0.  0.
          5    1    4    4  502    0 -0.24400791890E+02  0.51769787975E+02  0.33084027897E+02  0.66273316604E+02  0.47000000000E+01 0. -1.
         -5    1    4    4    0  502  0.28680780615E+02 -0.54462678392E+02  0.43189071871E+02  0.75340271061E+02  0.47000000000E+01 0. -1.
          5    1    5    5  503    0 -0.39604040349E+02  0.97321373359E+01  0.27680349506E+03  0.27983112655E+03  0.47000000000E+01 0. -1.
         -5    1    5    5    0  503  0.35324051624E+02 -0.70392469186E+01  0.18605560038E+02  0.40811719942E+02  0.47000000000E+01 0. -1.
<mgrwt>
<rscale>  0 0.27483338E+03</rscale>
<asrwt>0</asrwt>
<pdfrwt beam="1">  1        1 0.69672525E-02 0.27483338E+03</pdfrwt>
<pdfrwt beam="2">  1       -1 0.64149120E-01 0.27483338E+03</pdfrwt>
<totfact> 0.26736899E+03</totfact>
</mgrwt>
</event>
<event>
 9    1  0.7957670E-001  0.2723895E+03  0.7818608E-02  0.1099920E+00
          2   -1    0    0  501    0  0.00000000000E+00  0.00000000000E+00  0.18920913103E+04  0.18920913103E+04  0.00000000000E+00 0.  1.
         -2   -1    0    0    0  501 -0.00000000000E+00 -0.00000000000E+00 -0.98034420781E+01  0.98034420781E+01  0.00000000000E+00 0.  1.
         35    2    1    2    0    0  0.00000000000E+00  0.71054273576E-14  0.18822878683E+04  0.19018947524E+04  0.27238948267E+03 0.  0.
         25    2    3    3    0    0 -0.54473479611E+02 -0.61594565663E+01  0.91781070648E+03  0.92774796800E+03  0.12383254950E+03 0.  0.
         25    2    3    3    0    0  0.54473479611E+02  0.61594565663E+01  0.96447716178E+03  0.97414678441E+03  0.12546100232E+03 0.  0.
          5    1    4    4  502    0  0.30000182043E+02  0.27925893609E+02  0.38292627464E+03  0.38514216631E+03  0.47000000000E+01 0.  1.
         -5    1    4    4    0  502 -0.84473661654E+02 -0.34085350176E+02  0.53488443183E+03  0.54260580169E+03  0.47000000000E+01 0.  1.
          5    1    5    5  503    0 -0.13446157196E+02  0.37855481520E+02  0.12644429983E+03  0.13275574408E+03  0.47000000000E+01 0.  1.
         -5    1    5    5    0  503  0.67919636807E+02 -0.31696024954E+02  0.83803286194E+03  0.84139104034E+03  0.47000000000E+01 0.  1.
<mgrwt>
<rscale>  0 0.27238948E+03</rscale>
<asrwt>0</asrwt>
<pdfrwt beam="1">  1        2 0.29109068E+00 0.27238948E+03</pdfrwt>
<pdfrwt beam="2">  1       -2 0.15082234E-02 0.27238948E+03</pdfrwt>
<totfact> 0.99073007E+03</totfact>
</mgrwt>
</event>
<event>
 9    1  0.7957670E-001  0.2748115E+03  0.7818608E-02  0.1098557E+00
         -3   -1    0    0    0  501 -0.00000000000E+00  0.00000000000E+00  0.14036197870E+02  0.14036197870E+02  0.00000000000E+00 0. -1.
          3   -1    0    0  501    0  0.00000000000E+00 -0.00000000000E+00 -0.13451175087E+04  0.13451175087E+04  0.00000000000E+00 0. -1.
         35    2    1    2    0    0  0.71054273576E-14  0.00000000000E+00 -0.13310813108E+04  0.13591537066E+04  0.27481146636E+03 0.  0.
         25    2    3    3    0    0 -0.33548047826E+02  0.46975906846E+02 -0.70577979302E+03  0.71915263956E+03  0.12539216643E+03 0.  0.
         25    2    3    3    0    0  0.33548047826E+02 -0.46975906846E+02 -0.62530151781E+03  0.64000106701E+03  0.12356039120E+03 0.  0.
          5    1    4    4  502    0  0.34761473802E+02 -0.71227977221E+01 -0.84414226155E+02  0.91689398982E+02  0.47000000000E+01 0. -1.
         -5    1    4    4    0  502 -0.68309521628E+02  0.54098704569E+02 -0.62136556687E+03  0.62746324057E+03  0.47000000000E+01 0. -1.
          5    1    5    5  503    0  0.34928863077E+02  0.13739576829E+02 -0.56785209065E+02  0.68230868497E+02  0.47000000000E+01 0. -1.
         -5    1    5    5    0  503 -0.13808152513E+01 -0.60715483675E+02 -0.56851630874E+03  0.57177019852E+03  0.47000000000E+01 0. -1.
<mgrwt>
<rscale>  0 0.27481147E+03</rscale>
<asrwt>0</asrwt>
<pdfrwt beam="1">  1        3 0.20694117E+00 0.27481147E+03</pdfrwt>
<pdfrwt beam="2">  1       -3 0.21594149E-02 0.27481147E+03</pdfrwt>
<totfact> 0.31260884E+02</totfact>
</mgrwt>
</event>
<event>
 9    1  0.7957670E-001  0.2519174E+03  0.7818608E-02  0.1112099E+00
         -1   -1    0    0    0  501 -0.00000000000E+00  0.00000000000E+00  0.18425868891E+03  0.18425868891E+03  0.00000000000E+00 0.  1.
          1   -1    0    0  501    0  0.00000000000E+00 -0.00000000000E+00 -0.86105014878E+02  0.86105014878E+02  0.00000000000E+00 0.  1.
         35    2    1    2    0    0  0.35527136788E-14  0.35527136788E-14  0.98153674027E+02  0.27036370378E+03  0.25191742417E+03 0.  0.
         25    2    3    3    0    0 -0.98259183930E+01 -0.11991865753E+02  0.50151993202E+02  0.13568056011E+03  0.12511450137E+03 0.  0.
         25    2    3    3    0    0  0.98259183930E+01  0.11991865753E+02  0.48001680825E+02  0.13468314368E+03  0.12488007972E+03 0.  0.
          5    1    4    4  502    0  0.28765752277E+02  0.28939126734E+02 -0.19960358469E+02  0.45666699798E+02  0.47000000000E+01 0.  1.
         -5    1    4    4    0  502 -0.38591670670E+02 -0.40930992487E+02  0.70112351671E+02  0.90013860310E+02  0.47000000000E+01 0.  1.
          5    1    5    5  503    0 -0.51153241841E+02 -0.10248231699E+02  0.45779948227E+02  0.69567047253E+02  0.47000000000E+01 0. -1.
         -5    1    5    5    0  503  0.60979160234E+02  0.22240097451E+02  0.22217325985E+01  0.65116096422E+02  0.47000000000E+01 0. -1.
<mgrwt>
<rscale>  0 0.25191742E+03</rscale>
<asrwt>0</asrwt>
<pdfrwt beam="1">  1        1 0.13246925E-01 0.25191742E+03</pdfrwt>
<pdfrwt beam="2">  1       -1 0.28347490E-01 0.25191742E+03</pdfrwt>
<totfact> 0.48949336E+03</totfact>
</mgrwt>
</event>
<event>
 9    1  0.7957670E-001  0.2758872E+03  0.7818608E-02  0.1097957E+00
         -1   -1    0    0    0  501 -0.00000000000E+00  0.00000000000E+00  0.23290417127E+02  0.23290417127E+02  0.00000000000E+00 0.  1.
          1   -1    0    0  501    0  0.00000000000E+00 -0.00000000000E+00 -0.81700733527E+03  0.81700733527E+03  0.00000000000E+00 0.  1.
         35    2    1    2    0    0  0.00000000000E+00  0.00000000000E+00 -0.79371691814E+03  0.84029775240E+03  0.27588723518E+03 0.  0.
         25    2    3    3    0    0  0.41806999270E+02  0.34740417678E+02 -0.32605420097E+03  0.35310415694E+03  0.12416312605E+03 0.  0.
         25    2    3    3    0    0 -0.41806999270E+02 -0.34740417678E+02 -0.46766271718E+03  0.48719359546E+03  0.12527753434E+03 0.  0.
          5    1    4    4  502    0  0.35131660483E+02  0.63244985248E+02 -0.31196074686E+03  0.32027450618E+03  0.47000000000E+01 0. -1.
         -5    1    4    4    0  502  0.66753387871E+01 -0.28504567570E+02 -0.14093454107E+02  0.32829650758E+02  0.47000000000E+01 0. -1.
          5    1    5    5  503    0  0.72936787525E+01 -0.73198055242E+02 -0.26914523311E+03  0.27905626592E+03  0.47000000000E+01 0. -1.
         -5    1    5    5    0  503 -0.49100678022E+02  0.38457637564E+02 -0.19851748406E+03  0.20813732954E+03  0.47000000000E+01 0. -1.
<mgrwt>
<rscale>  0 0.27588724E+03</rscale>
<asrwt>0</asrwt>
<pdfrwt beam="1">  1        1 0.12569345E+00 0.27588724E+03</pdfrwt>
<pdfrwt beam="2">  1       -1 0.35831407E-02 0.27588724E+03</pdfrwt>
<totfact> 0.64506452E+03</totfact>
</mgrwt>
</event>
<event>
 9    1  0.7957670E-001  0.2757667E+03  0.7818608E-02  0.1098024E+00
         -4   -1    0    0    0  501 -0.00000000000E+00  0.00000000000E+00  0.86576701562E+03  0.86576701562E+03  0.00000000000E+00 0.  1.
          4   -1    0    0  501    0  0.00000000000E+00 -0.00000000000E+00 -0.21959506203E+02  0.21959506203E+02  0.00000000000E+00 0.  1.
         35    2    1    2    0    0 -0.17763568394E-14  0.71054273576E-14  0.84380750942E+03  0.88772652183E+03  0.27576668508E+03 0.  0.
         25    2    3    3    0    0  0.14389606281E+01  0.55333678805E+02  0.47292756208E+03  0.49231958446E+03  0.12511677607E+03 0.  0.
         25    2    3    3    0    0 -0.14389606281E+01 -0.55333678805E+02  0.37087994734E+03  0.39540693736E+03  0.12542258233E+03 0.  0.
          5    1    4    4  502    0 -0.56521940495E+02  0.25977950510E+02  0.14287846767E+03  0.15590359262E+03  0.47000000000E+01 0.  1.
         -5    1    4    4    0  502  0.57960901123E+02  0.29355728295E+02  0.33004909441E+03  0.33641599184E+03  0.47000000000E+01 0.  1.
          5    1    5    5  503    0  0.51274192109E+01  0.31667555434E+02  0.32419312982E+02  0.45850041975E+02  0.47000000000E+01 0.  1.
         -5    1    5    5    0  503 -0.65663798390E+01 -0.87001234239E+02  0.33846063436E+03  0.34955689539E+03  0.47000000000E+01 0.  1.
<mgrwt>
<rscale>  0 0.27576669E+03</rscale>
<asrwt>0</asrwt>
<pdfrwt beam="1">  1        4 0.33783862E-02 0.27576669E+03</pdfrwt>
<pdfrwt beam="2">  1       -4 0.13319490E+00 0.27576669E+03</pdfrwt>
<totfact> 0.35815208E+02</totfact>
</mgrwt>
</event>
<event>
 9    1  0.7957670E-001  0.2789187E+03  0.7818608E-02  0.1096281E+00
          2   -1    0    0  501    0  0.00000000000E+00  0.00000000000E+00  0.67537119455E+02  0.67537119455E+02  0.00000000000E+00 0.  1.
         -2   -1    0    0    0  501 -0.00000000000E+00 -0.00000000000E+00 -0.28797362766E+03  0.28797362766E+03  0.00000000000E+00 0.  1.
         35    2    1    2    0    0  0.00000000000E+00  0.71054273576E-14 -0.22043650820E+03  0.35551074711E+03  0.27891869275E+03 0.  0.
         25    2    3    3    0    0  0.19366947086E+02 -0.38831727085E+02 -0.16707662306E+03  0.21295604073E+03  0.12471044720E+03 0.  0.
         25    2    3    3    0    0 -0.19366947086E+02  0.38831727085E+02 -0.53359885138E+02  0.14255470638E+03  0.12486626968E+03 0.  0.
          5    1    4    4  502    0 -0.27317604275E+01 -0.22129632236E+02  0.15931061242E+02  0.27804169655E+02  0.47000000000E+01 0. -1.
         -5    1    4    4    0  502  0.22098707513E+02 -0.16702094849E+02 -0.18300768431E+03  0.18515187107E+03  0.47000000000E+01 0. -1.
          5    1    5    5  503    0 -0.28423544872E+02 -0.34700348094E+02 -0.51276342973E+02  0.68288838104E+02  0.47000000000E+01 0.  1.
         -5    1    5    5    0  503  0.90565977862E+01  0.73532075179E+02 -0.20835421647E+01  0.74265868281E+02  0.47000000000E+01 0.  1.
<mgrwt>
<rscale>  0 0.27891869E+03</rscale>
<asrwt>0</asrwt>
<pdfrwt beam="1">  1        2 0.10390326E-01 0.27891869E+03</pdfrwt>
<pdfrwt beam="2">  1       -2 0.44303635E-01 0.27891869E+03</pdfrwt>
<totfact> 0.29735110E+03</totfact>
</mgrwt>
</event>
<event>
 9    1  0.7957670E-001  0.2767196E+03  0.7818608E-02  0.1097494E+00
          3   -1    0    0  501    0  0.00000000000E+00  0.00000000000E+00  0.12044330596E+02  0.12044330596E+02  0.00000000000E+00 0.  1.
         -3   -1    0    0    0  501 -0.00000000000E+00 -0.00000000000E+00 -0.15894149540E+04  0.15894149540E+04  0.00000000000E+00 0.  1.
         35    2    1    2    0    0  0.00000000000E+00  0.00000000000E+00 -0.15773706234E+04  0.16014592846E+04  0.27671963544E+03 0.  0.
         25    2    3    3    0    0 -0.21120570661E+01  0.44232294598E+01 -0.11297351784E+04  0.11366209259E+04  0.12482599913E+03 0.  0.
         25    2    3    3    0    0  0.21120570661E+01 -0.44232294598E+01 -0.44763544496E+03  0.46483835868E+03  0.12519258116E+03 0.  0.
          5    1    4    4  502    0 -0.49815968103E+02  0.36988138343E+02 -0.73855779136E+03  0.74117437506E+03  0.47000000000E+01 0. -1.
         -5    1    4    4    0  502  0.47703911036E+02 -0.32564908883E+02 -0.39117738704E+03  0.39544655081E+03  0.47000000000E+01 0. -1.
          5    1    5    5  503    0 -0.31203544145E+02 -0.51524207990E+02 -0.15158789587E+03  0.16318512601E+03  0.47000000000E+01 0. -1.
         -5    1    5    5    0  503  0.33315601211E+02  0.47100978530E+02 -0.29604754908E+03  0.30165323267E+03  0.47000000000E+01 0. -1.
<mgrwt>
<rscale>  0 0.27671964E+03</rscale>
<asrwt>0</asrwt>
<pdfrwt beam="1">  1        3 0.18529748E-02 0.27671964E+03</pdfrwt>
<pdfrwt beam="2">  1       -3 0.24452526E+00 0.27671964E+03</pdfrwt>
<totfact> 0.23840839E+02</totfact>
</mgrwt>
</event>
<event>
 9    1  0.7957670E-001  0.2697006E+03  0.7818608E-02  0.1101451E+00
          1   -1    0    0  501    0  0.00000000000E+00  0.00000000000E+00  0.77031675754E+03  0.77031675754E+03  0.00000000000E+00 0.  1.
         -1   -1    0    0    0  501 -0.00000000000E+00 -0.00000000000E+00 -0.23606652577E+02  0.23606652577E+02  0.00000000000E+00 0.  1.
         35    2    1    2    0    0  0.17763568394E-14  0.71054273576E-14  0.74671010496E+03  0.79392341012E+03  0.26970057523E+03 0.  0.
         25    2    3    3    0    0  0.58862529837E+01  0.19513382533E+02  0.50544044221E+03  0.52115286337E+03  0.12535887005E+03 0.  0.
         25    2    3    3    0    0 -0.58862529837E+01 -0.19513382533E+02  0.24126966275E+03  0.27277054675E+03  0.12560772643E+03 0.  0.
          5    1    4    4  502    0  0.19915846385E+02 -0.26558664716E+02  0.35883938274E+02  0.49109577831E+02  0.47000000000E+01 0.  1.
         -5    1    4    4    0  502 -0.14029593402E+02  0.46072047249E+02  0.46955650394E+03  0.47204328554E+03  0.47000000000E+01 0.  1.
          5    1    5    5  503    0  0.19333204001E+01  0.11047974728E+02  0.24056142545E+03  0.24086860503E+03  0.47000000000E+01 0.  1.
         -5    1    5    5    0  503 -0.78195733837E+01 -0.30561357261E+02  0.70823730061E+00  0.31901941721E+02  0.47000000000E+01 0.  1.
<mgrwt>
<rscale>  0 0.26970058E+03</rscale>
<asrwt>0</asrwt>
<pdfrwt beam="1">  1        1 0.11851025E+00 0.26970058E+03</pdfrwt>
<pdfrwt beam="2">  1       -1 0.36317933E-02 0.26970058E+03</pdfrwt>
<totfact> 0.69162933E+03</totfact>
</mgrwt>
</event>
<event>
 9    1  0.7957670E-001  0.2746324E+03  0.7818608E-02  0.1098657E+00
         -2   -1    0    0    0  501 -0.00000000000E+00  0.00000000000E+00  0.62213138306E+03  0.62213138306E+03  0.00000000000E+00 0. -1.
          2   -1    0    0  501    0  0.00000000000E+00 -0.00000000000E+00 -0.30308291090E+02  0.30308291090E+02  0.00000000000E+00 0. -1.
         35    2    1    2    0    0  0.00000000000E+00 -0.14210854715E-13  0.59182309197E+03  0.65243967415E+03  0.27463240198E+03 0.  0.
         25    2    3    3    0    0  0.36412235391E+02 -0.40189668792E+02  0.33774627737E+03  0.36425555563E+03  0.12517388533E+03 0.  0.
         25    2    3    3    0    0 -0.36412235391E+02  0.40189668792E+02  0.25407681460E+03  0.28818411851E+03  0.12471566896E+03 0.  0.
          5    1    4    4  502    0  0.16000522624E+02 -0.59049110898E+02  0.32910408704E+03  0.33477515489E+03  0.47000000000E+01 0.  1.
         -5    1    4    4    0  502  0.20411712767E+02  0.18859442105E+02  0.86421903314E+01  0.29480400749E+02  0.47000000000E+01 0.  1.
          5    1    5    5  503    0  0.52716541021E+00 -0.39174251404E+02  0.13281346814E+03  0.13855109958E+03  0.47000000000E+01 0. -1.
         -5    1    5    5    0  503 -0.36939400801E+02  0.79363920196E+02  0.12126334646E+03  0.14963301893E+03  0.47000000000E+01 0. -1.
<mgrwt>
<rscale>  0 0.27463240E+03</rscale>
<asrwt>0</asrwt>
<pdfrwt beam="1">  1        2 0.46628145E-02 0.27463240E+03</pdfrwt>
<pdfrwt beam="2">  1       -2 0.95712511E-01 0.27463240E+03</pdfrwt>
<totfact> 0.16363446E+03</totfact>
</mgrwt>
</event>
<event>
 9    1  0.7957670E-001  0.2995531E+03  0.7818608E-02  0.1085464E+00
          2   -1    0    0  501    0  0.00000000000E+00  0.00000000000E+00  0.62056972432E+03  0.62056972432E+03  0.00000000000E+00 0. -1.
         -2   -1    0    0    0  501 -0.00000000000E+00 -0.00000000000E+00 -0.36149052935E+02  0.36149052935E+02  0.00000000000E+00 0. -1.
         35    2    1    2    0    0  0.00000000000E+00  0.17763568394E-14  0.58442067138E+03  0.65671877725E+03  0.29955305249E+03 0.  0.
         25    2    3    3    0    0  0.16872956143E+02  0.57441343609E+01  0.46624467387E+03  0.48348505533E+03  0.12671231623E+03 0.  0.
         25    2    3    3    0    0 -0.16872956143E+02 -0.57441343609E+01  0.11817599751E+03  0.17323372193E+03  0.12540599785E+03 0.  0.
          5    1    4    4  502    0 -0.26316373884E+02  0.12836179539E+02  0.41445848338E+03  0.41551804231E+03  0.47000000000E+01 0.  1.
         -5    1    4    4    0  502  0.43189330027E+02 -0.70920451782E+01  0.51786190491E+02  0.67967013018E+02  0.47000000000E+01 0.  1.
          5    1    5    5  503    0 -0.34618018838E+02  0.26379240457E+02 -0.55200402113E+01  0.44122923739E+02  0.47000000000E+01 0. -1.
         -5    1    5    5    0  503  0.17745062695E+02 -0.32123374818E+02  0.12369603772E+03  0.12911079819E+03  0.47000000000E+01 0. -1.
<mgrwt>
<rscale>  0 0.29955305E+03</rscale>
<asrwt>0</asrwt>
<pdfrwt beam="1">  1        2 0.95472257E-01 0.29955305E+03</pdfrwt>
<pdfrwt beam="2">  1       -2 0.55613932E-02 0.29955305E+03</pdfrwt>
<totfact> 0.80608510E+03</totfact>
</mgrwt>
</event>
<event>
 9    1  0.7957670E-001  0.2851291E+03  0.7818608E-02  0.1092920E+00
          3   -1    0    0  501    0  0.00000000000E+00  0.00000000000E+00  0.50790398535E+03  0.50790398535E+03  0.00000000000E+00 0.  1.
         -3   -1    0    0    0  501 -0.00000000000E+00 -0.00000000000E+00 -0.40016729955E+02  0.40016729955E+02  0.00000000000E+00 0.  1.
         35    2    1    2    0    0  0.00000000000E+00  0.00000000000E+00  0.46788725540E+03  0.54792071531E+03  0.28512914004E+03 0.  0.
         25    2    3    3    0    0  0.41807922846E+02 -0.21748359783E+02  0.32798618197E+03  0.35421931195E+03  0.12520180444E+03 0.  0.
         25    2    3    3    0    0 -0.41807922846E+02  0.21748359783E+02  0.13990107343E+03  0.19370140335E+03  0.12540745492E+03 0.  0.
          5    1    4    4  502    0  0.71936658735E+02  0.26407084019E+02  0.18673087628E+03  0.20189781354E+03  0.47000000000E+01 0.  1.
         -5    1    4    4    0  502 -0.30128735889E+02 -0.48155443802E+02  0.14125530569E+03  0.15232149841E+03  0.47000000000E+01 0.  1.
          5    1    5    5  503    0  0.33527248747E+02  0.38421616815E+02  0.30039838088E+02  0.59369848573E+02  0.47000000000E+01 0. -1.
         -5    1    5    5    0  503 -0.75335171593E+02 -0.16673257032E+02  0.10986123534E+03  0.13433155478E+03  0.47000000000E+01 0. -1.
<mgrwt>
<rscale>  0 0.28512914E+03</rscale>
<asrwt>0</asrwt>
<pdfrwt beam="1">  1        3 0.78139070E-01 0.28512914E+03</pdfrwt>
<pdfrwt beam="2">  1       -3 0.61564204E-02 0.28512914E+03</pdfrwt>
<totfact> 0.65404505E+02</totfact>
</mgrwt>
</event>
<event>
 9    1  0.7957670E-001  0.2745716E+03  0.7818608E-02  0.1098691E+00
          2   -1    0    0  501    0  0.00000000000E+00  0.00000000000E+00  0.79469688860E+03  0.79469688860E+03  0.00000000000E+00 0.  1.
         -2   -1    0    0    0  501 -0.00000000000E+00 -0.00000000000E+00 -0.23716460830E+02  0.23716460830E+02  0.00000000000E+00 0.  1.
         35    2    1    2    0    0  0.71054273576E-14  0.00000000000E+00  0.77098042777E+03  0.81841334943E+03  0.27457164916E+03 0.  0.
         25    2    3    3    0    0  0.52238141129E+02  0.88138789625E+01  0.34494903505E+03  0.37180593440E+03  0.12823146347E+03 0.  0.
         25    2    3    3    0    0 -0.52238141129E+02 -0.88138789625E+01  0.42603139272E+03  0.44660741503E+03  0.12308098036E+03 0.  0.
          5    1    4    4  502    0  0.76967375995E+02 -0.37190311913E+02  0.23151578528E+03  0.24683748723E+03  0.47000000000E+01 0. -1.
         -5    1    4    4    0  502 -0.24729234866E+02  0.46004190875E+02  0.11343324977E+03  0.12496844717E+03  0.47000000000E+01 0. -1.
          5    1    5    5  503    0 -0.63806424316E+02 -0.98048068971E+01  0.92812556239E+02  0.11315323512E+03  0.47000000000E+01 0. -1.
         -5    1    5    5    0  503  0.11568283187E+02  0.99092793457E+00  0.33321883648E+03  0.33345417991E+03  0.47000000000E+01 0. -1.
<mgrwt>
<rscale>  0 0.27457165E+03</rscale>
<asrwt>0</asrwt>
<pdfrwt beam="1">  1        2 0.12226104E+00 0.27457165E+03</pdfrwt>
<pdfrwt beam="2">  1       -2 0.36486869E-02 0.27457165E+03</pdfrwt>
<totfact> 0.11257081E+04</totfact>
</mgrwt>
</event>
<event>
 9    1  0.7957670E-001  0.2784244E+03  0.7818608E-02  0.1096553E+00
          2   -1    0    0  501    0  0.00000000000E+00  0.00000000000E+00  0.37897934575E+03  0.37897934575E+03  0.00000000000E+00 0.  1.
         -2   -1    0    0    0  501 -0.00000000000E+00 -0.00000000000E+00 -0.51137436566E+02  0.51137436566E+02  0.00000000000E+00 0.  1.
         35    2    1    2    0    0  0.00000000000E+00  0.00000000000E+00  0.32784190919E+03  0.43011678232E+03  0.27842436857E+03 0.  0.
         25    2    3    3    0    0 -0.45152870665E+02  0.40649487543E+02  0.17288564282E+03  0.22238501115E+03  0.12599398845E+03 0.  0.
         25    2    3    3    0    0  0.45152870665E+02 -0.40649487543E+02  0.15495626637E+03  0.20773177117E+03  0.12429755306E+03 0.  0.
          5    1    4    4  502    0  0.14295299481E+02 -0.55090628339E+01 -0.13733988722E+02  0.21104923756E+02  0.47000000000E+01 0.  1.
         -5    1    4    4    0  502 -0.59448170146E+02  0.46158550377E+02  0.18661963154E+03  0.20128008740E+03  0.47000000000E+01 0.  1.
          5    1    5    5  503    0  0.10035670537E+02 -0.30621884511E+01  0.15564930776E+03  0.15607334393E+03  0.47000000000E+01 0. -1.
         -5    1    5    5    0  503  0.35117200128E+02 -0.37587299092E+02 -0.69304138679E+00  0.51658427234E+02  0.47000000000E+01 0. -1.
<mgrwt>
<rscale>  0 0.27842437E+03</rscale>
<asrwt>0</asrwt>
<pdfrwt beam="1">  1        2 0.58304513E-01 0.27842437E+03</pdfrwt>
<pdfrwt beam="2">  1       -2 0.78672982E-02 0.27842437E+03</pdfrwt>
<totfact> 0.81721947E+03</totfact>
</mgrwt>
</event>
<event>
 9    1  0.7957670E-001  0.2754382E+03  0.7818608E-02  0.1098207E+00
         -1   -1    0    0    0  501 -0.00000000000E+00  0.00000000000E+00  0.12784063742E+03  0.12784063742E+03  0.00000000000E+00 0. -1.
          1   -1    0    0  501    0  0.00000000000E+00 -0.00000000000E+00 -0.14836093503E+03  0.14836093503E+03  0.00000000000E+00 0. -1.
         35    2    1    2    0    0 -0.71054273576E-14  0.71054273576E-14 -0.20520297608E+02  0.27620157244E+03  0.27543824354E+03 0.  0.
         25    2    3    3    0    0  0.38371324125E+02 -0.41302599820E+02  0.29653243440E+01  0.13745217156E+03  0.12532375294E+03 0.  0.
         25    2    3    3    0    0 -0.38371324125E+02  0.41302599820E+02 -0.23485621952E+02  0.13874940088E+03  0.12458554707E+03 0.  0.
          5    1    4    4  502    0  0.69639936789E+02  0.15944258158E+02 -0.38458795270E+01  0.71699518503E+02  0.47000000000E+01 0. -1.
         -5    1    4    4    0  502 -0.31268612664E+02 -0.57246857978E+02  0.68112038710E+01  0.65752653060E+02  0.47000000000E+01 0. -1.
          5    1    5    5  503    0 -0.33723565744E+02  0.70265633914E+01 -0.71430985794E+02  0.79442603250E+02  0.47000000000E+01 0. -1.
         -5    1    5    5    0  503 -0.46477583809E+01  0.34276036428E+02  0.47945363843E+02  0.59306797631E+02  0.47000000000E+01 0. -1.
<mgrwt>
<rscale>  0 0.27543824E+03</rscale>
<asrwt>0</asrwt>
<pdfrwt beam="1">  1        1 0.22824759E-01 0.27543824E+03</pdfrwt>
<pdfrwt beam="2">  1       -1 0.19667791E-01 0.27543824E+03</pdfrwt>
<totfact> 0.44308492E+03</totfact>
</mgrwt>
</event>
<event>
 9    1  0.7957670E-001  0.2711288E+03  0.7818608E-02  0.1100635E+00
          2   -1    0    0  501    0  0.00000000000E+00  0.00000000000E+00  0.32784059659E+03  0.32784059659E+03  0.00000000000E+00 0.  1.
         -2   -1    0    0    0  501 -0.00000000000E+00 -0.00000000000E+00 -0.56056827742E+02  0.56056827742E+02  0.00000000000E+00 0.  1.
         35    2    1    2    0    0  0.71054273576E-14  0.00000000000E+00  0.27178376884E+03  0.38389742433E+03  0.27112878010E+03 0.  0.
         25    2    3    3    0    0 -0.46070410676E+02 -0.37690043624E+02  0.17467287430E+03  0.21498234255E+03  0.11028949390E+03 0.  0.
         25    2    3    3    0    0  0.46070410676E+02  0.37690043624E+02  0.97110894542E+02  0.16891508178E+03  0.12473474610E+03 0.  0.
          5    1    4    4  502    0 -0.69809048789E+02  0.76245488941E+01  0.75013572345E+02  0.10286186404E+03  0.47000000000E+01 0. -1.
         -5    1    4    4    0  502  0.23738638113E+02 -0.45314592519E+02  0.99659301956E+02  0.11212047851E+03  0.47000000000E+01 0. -1.
          5    1    5    5  503    0  0.66127915029E+02 -0.13344689456E+02  0.91237883994E+02  0.11356682332E+03  0.47000000000E+01 0.  1.
         -5    1    5    5    0  503 -0.20057504353E+02  0.51034733081E+02  0.58730105484E+01  0.55348258459E+02  0.47000000000E+01 0.  1.
<mgrwt>
<rscale>  0 0.27112878E+03</rscale>
<asrwt>0</asrwt>
<pdfrwt beam="1">  1        2 0.50437014E-01 0.27112878E+03</pdfrwt>
<pdfrwt beam="2">  1       -2 0.86241275E-02 0.27112878E+03</pdfrwt>
<totfact> 0.82683768E+03</totfact>
</mgrwt>
</event>
<event>
 8    1  0.7957670E-001  0.3474832E+03  0.7818608E-02  0.1063653E+00
          2   -1    0    0  501    0  0.00000000000E+00  0.00000000000E+00  0.60590532957E+03  0.60590532957E+03  0.00000000000E+00 0. -1.
         -2   -1    0    0    0  501 -0.00000000000E+00 -0.00000000000E+00 -0.49819889001E+02  0.49819889001E+02  0.00000000000E+00 0. -1.
         25    2    1    2    0    0 -0.31543262515E+02  0.11555951470E+03  0.25637463038E+03  0.30969430719E+03  0.12583176846E+03 0.  0.
         25    2    1    2    0    0  0.31543262515E+02 -0.11555951470E+03  0.29971081019E+03  0.34603091138E+03  0.12474711636E+03 0.  0.
          5    1    3    3  502    0 -0.50447113451E+02  0.64734207479E+02  0.49896181822E+02  0.96162091460E+02  0.47000000000E+01 0.  1.
         -5    1    3    3    0  502  0.18903850936E+02  0.50825307223E+02  0.20647844856E+03  0.21353221573E+03  0.47000000000E+01 0.  1.
          5    1    4    4  503    0  0.30173689680E+02 -0.45014998654E+02  0.25854913995E+03  0.26420929095E+03  0.47000000000E+01 0. -1.
         -5    1    4    4    0  503  0.13695728348E+01 -0.70544516048E+02  0.41161670235E+02  0.81821620436E+02  0.47000000000E+01 0. -1.
<mgrwt>
<rscale>  0 0.34748316E+03</rscale>
<asrwt>0</asrwt>
<pdfrwt beam="1">  1        2 0.93216199E-01 0.34748316E+03</pdfrwt>
<pdfrwt beam="2">  1       -2 0.76645987E-02 0.34748316E+03</pdfrwt>
<totfact> 0.50637353E+03</totfact>
</mgrwt>
</event>
<event>
 9    1  0.7957670E-001  0.2714678E+03  0.7818608E-02  0.1100442E+00
          1   -1    0    0  501    0  0.00000000000E+00  0.00000000000E+00  0.58937907947E+03  0.58937907947E+03  0.00000000000E+00 0. -1.
         -1   -1    0    0    0  501 -0.00000000000E+00 -0.00000000000E+00 -0.31259492730E+02  0.31259492730E+02  0.00000000000E+00 0. -1.
         35    2    1    2    0    0  0.71054273576E-14  0.00000000000E+00  0.55811958674E+03  0.62063857220E+03  0.27146779588E+03 0.  0.
         25    2    3    3    0    0 -0.43689712809E+02 -0.79849390064E+01  0.25861207156E+03  0.29297060599E+03  0.13030357693E+03 0.  0.
         25    2    3    3    0    0  0.43689712809E+02  0.79849390064E+01  0.29950751518E+03  0.32766796621E+03  0.12525571514E+03 0.  0.
          5    1    4    4  502    0 -0.82740690113E+02 -0.26972286451E+02  0.12486180524E+03  0.15226978178E+03  0.47000000000E+01 0.  1.
         -5    1    4    4    0  502  0.39050977304E+02  0.18987347445E+02  0.13375026632E+03  0.14070082421E+03  0.47000000000E+01 0.  1.
          5    1    5    5  503    0  0.33778177867E+02 -0.57078928634E+02  0.13725482333E+03  0.15251211730E+03  0.47000000000E+01 0. -1.
         -5    1    5    5    0  503  0.99115349415E+01  0.65063867640E+02  0.16225269185E+03  0.17515584891E+03  0.47000000000E+01 0. -1.
<mgrwt>
<rscale>  0 0.27146780E+03</rscale>
<asrwt>0</asrwt>
<pdfrwt beam="1">  1        1 0.90673696E-01 0.27146780E+03</pdfrwt>
<pdfrwt beam="2">  1       -1 0.48091532E-02 0.27146780E+03</pdfrwt>
<totfact> 0.66998917E+03</totfact>
</mgrwt>
</event>
<event>
 9    1  0.7957670E-001  0.2720837E+03  0.7818608E-02  0.1100093E+00
         -1   -1    0    0    0  501 -0.00000000000E+00  0.00000000000E+00  0.51775247849E+01  0.51775247849E+01  0.00000000000E+00 0. -1.
          1   -1    0    0  501    0  0.00000000000E+00 -0.00000000000E+00 -0.35745621088E+04  0.35745621088E+04  0.00000000000E+00 0. -1.
         35    2    1    2    0    0  0.00000000000E+00  0.00000000000E+00 -0.35693845840E+04  0.35797396336E+04  0.27208369237E+03 0.  0.
         25    2    3    3    0    0  0.19206291659E+02  0.46258807025E+02 -0.17355757470E+04  0.17408285342E+04  0.12550718394E+03 0.  0.
         25    2    3    3    0    0 -0.19206291659E+02 -0.46258807025E+02 -0.18338088370E+04  0.18389110993E+04  0.12739867217E+03 0.  0.
          5    1    4    4  502    0  0.67997471977E+01  0.65170720557E+02 -0.42482281943E+03  0.42987204758E+03  0.47000000000E+01 0.  1.
         -5    1    4    4    0  502  0.12406544461E+02 -0.18911913532E+02 -0.13107529275E+04  0.13109564866E+04  0.47000000000E+01 0.  1.
          5    1    5    5  503    0  0.15652530627E+02  0.15874483473E+02 -0.69114395661E+02  0.72772870138E+02  0.47000000000E+01 0. -1.
         -5    1    5    5    0  503 -0.34858822286E+02 -0.62133290498E+02 -0.17646944414E+04  0.17661382292E+04  0.47000000000E+01 0. -1.
<mgrwt>
<rscale>  0 0.27208369E+03</rscale>
<asrwt>0</asrwt>
<pdfrwt beam="1">  1        1 0.54993301E+00 0.27208369E+03</pdfrwt>
<pdfrwt beam="2">  1       -1 0.79654173E-03 0.27208369E+03</pdfrwt>
<totfact> 0.71979105E+02</totfact>
</mgrwt>
</event>
<event>
 9    1  0.7957670E-001  0.2733416E+03  0.7818608E-02  0.1099382E+00
          2   -1    0    0  501    0  0.00000000000E+00  0.00000000000E+00  0.11033448897E+03  0.11033448897E+03  0.00000000000E+00 0.  1.
         -2   -1    0    0    0  501 -0.00000000000E+00 -0.00000000000E+00 -0.16929341728E+03  0.16929341728E+03  0.00000000000E+00 0.  1.
         35    2    1    2    0    0  0.00000000000E+00  0.00000000000E+00 -0.58958928311E+02  0.27962790624E+03  0.27334156420E+03 0.  0.
         25    2    3    3    0    0  0.27950957263E+02  0.39859738147E+02 -0.30212824571E+01  0.13436571224E+03  0.12519968746E+03 0.  0.
         25    2    3    3    0    0 -0.27950957263E+02 -0.39859738147E+02 -0.55937645854E+02  0.14526219400E+03  0.12490808639E+03 0.  0.
          5    1    4    4  502    0  0.21033770856E+02  0.52227774657E+02  0.52345393071E+02  0.77021361568E+02  0.47000000000E+01 0.  1.
         -5    1    4    4    0  502  0.69171864068E+01 -0.12368036510E+02 -0.55366675528E+02  0.57344350671E+02  0.47000000000E+01 0.  1.
          5    1    5    5  503    0  0.47933917237E+01  0.11430655788E+02  0.34044456214E+02  0.36534250983E+02  0.47000000000E+01 0. -1.
         -5    1    5    5    0  503 -0.32744348987E+02 -0.51290393935E+02 -0.89982102068E+02  0.10872794302E+03  0.47000000000E+01 0. -1.
<mgrwt>
<rscale>  0 0.27334156E+03</rscale>
<asrwt>0</asrwt>
<pdfrwt beam="1">  1        2 0.16974537E-01 0.27334156E+03</pdfrwt>
<pdfrwt beam="2">  1       -2 0.26045141E-01 0.27334156E+03</pdfrwt>
<totfact> 0.44159492E+03</totfact>
</mgrwt>
</event>
<event>
 9    1  0.7957670E-001  0.2729395E+03  0.7818608E-02  0.1099609E+00
          2   -1    0    0  501    0  0.00000000000E+00  0.00000000000E+00  0.21502215668E+04  0.21502215668E+04  0.00000000000E+00 0.  1.
         -4   -1    0    0    0  501 -0.00000000000E+00 -0.00000000000E+00 -0.86614318862E+01  0.86614318862E+01  0.00000000000E+00 0.  1.
         35    2    1    2    0    0 -0.26645352591E-14 -0.71054273576E-14  0.21415601349E+04  0.21588829987E+04  0.27293953646E+03 0.  0.
         25    2    3    3    0    0 -0.23206298068E+01 -0.46937443529E+01  0.15023049861E+04  0.15074752297E+04  0.12463498782E+03 0.  0.
         25    2    3    3    0    0  0.23206298068E+01  0.46937443529E+01  0.63925514882E+03  0.65140776904E+03  0.12513001126E+03 0.  0.
          5    1    4    4  502    0  0.74854645209E+01 -0.41820035946E+02  0.13377978718E+04  0.13384805502E+04  0.47000000000E+01 0.  1.
         -5    1    4    4    0  502 -0.98060943277E+01  0.37126291593E+02  0.16450711438E+03  0.16899467948E+03  0.47000000000E+01 0.  1.
          5    1    5    5  503    0 -0.31451044394E+02  0.54667391521E+02  0.37676347449E+03  0.38203468114E+03  0.47000000000E+01 0.  1.
         -5    1    5    5    0  503  0.33771674201E+02 -0.49973647168E+02  0.26249167433E+03  0.26937308790E+03  0.47000000000E+01 0.  1.
<mgrwt>
<rscale>  0 0.27293954E+03</rscale>
<asrwt>0</asrwt>
<pdfrwt beam="1">  1        2 0.33080289E+00 0.27293954E+03</pdfrwt>
<pdfrwt beam="2">  1       -4 0.13325297E-02 0.27293954E+03</pdfrwt>
<totfact> 0.65881801E+03</totfact>
</mgrwt>
</event>
<event>
 9    1  0.7957670E-001  0.2720377E+03  0.7818608E-02  0.1100119E+00
         -3   -1    0    0    0  501 -0.00000000000E+00  0.00000000000E+00  0.10680503729E+03  0.10680503729E+03  0.00000000000E+00 0. -1.
          3   -1    0    0  501    0  0.00000000000E+00 -0.00000000000E+00 -0.17322336084E+03  0.17322336084E+03  0.00000000000E+00 0. -1.
         35    2    1    2    0    0  0.00000000000E+00  0.00000000000E+00 -0.66418323557E+02  0.28002839813E+03  0.27203769970E+03 0.  0.
         25    2    3    3    0    0 -0.17814993212E+02  0.45076708345E+02 -0.12473725074E+02  0.13426682509E+03  0.12459013959E+03 0.  0.
         25    2    3    3    0    0  0.17814993212E+02 -0.45076708345E+02 -0.53944598483E+02  0.14576157305E+03  0.12644023431E+03 0.  0.
          5    1    4    4  502    0  0.29861769853E+01  0.18542631235E+02  0.55209077268E+02  0.58505372735E+02  0.47000000000E+01 0. -1.
         -5    1    4    4    0  502 -0.20801170197E+02  0.26534077111E+02 -0.67682802342E+02  0.75761452352E+02  0.47000000000E+01 0. -1.
          5    1    5    5  503    0  0.65694902443E+02 -0.19932979068E+02  0.58893936195E+00  0.68815555735E+02  0.47000000000E+01 0.  1.
         -5    1    5    5    0  503 -0.47879909231E+02 -0.25143729277E+02 -0.54533537845E+02  0.76946017310E+02  0.47000000000E+01 0.  1.
<mgrwt>
<rscale>  0 0.27203770E+03</rscale>
<asrwt>0</asrwt>
<pdfrwt beam="1">  1        3 0.26649748E-01 0.27203770E+03</pdfrwt>
<pdfrwt beam="2">  1       -3 0.16431544E-01 0.27203770E+03</pdfrwt>
<totfact> 0.10764588E+03</totfact>
</mgrwt>
</event>
<event>
 9    1  0.7957670E-001  0.2715390E+03  0.7818608E-02  0.1100402E+00
         -1   -1    0    0    0  501 -0.00000000000E+00  0.00000000000E+00  0.28118850070E+02  0.28118850070E+02  0.00000000000E+00 0.  1.
          1   -1    0    0  501    0  0.00000000000E+00 -0.00000000000E+00 -0.65555149891E+03  0.65555149891E+03  0.00000000000E+00 0.  1.
         35    2    1    2    0    0 -0.17763568394E-14 -0.17763568394E-13 -0.62743264884E+03  0.68367034898E+03  0.27153897923E+03 0.  0.
         25    2    3    3    0    0  0.85416588376E+01  0.28880328011E+02 -0.42609586945E+03  0.44480765680E+03  0.12405292539E+03 0.  0.
         25    2    3    3    0    0 -0.85416588376E+01 -0.28880328011E+02 -0.20133677938E+03  0.23886269218E+03  0.12494740374E+03 0.  0.
          5    1    4    4  502    0 -0.80504858467E+01 -0.26395253878E+02 -0.19514090857E+02  0.34123444897E+02  0.47000000000E+01 0.  1.
         -5    1    4    4    0  502  0.16592144684E+02  0.55275581889E+02 -0.40658177860E+03  0.41068421190E+03  0.47000000000E+01 0.  1.
          5    1    5    5  503    0 -0.23853453828E+02  0.40135579153E+02 -0.13047760064E+03  0.13865910083E+03  0.47000000000E+01 0.  1.
         -5    1    5    5    0  503  0.15311794991E+02 -0.69015907164E+02 -0.70859178743E+02  0.10020359135E+03  0.47000000000E+01 0.  1.
<mgrwt>
<rscale>  0 0.27153898E+03</rscale>
<asrwt>0</asrwt>
<pdfrwt beam="1">  1        1 0.10085407E+00 0.27153898E+03</pdfrwt>
<pdfrwt beam="2">  1       -1 0.43259770E-02 0.27153898E+03</pdfrwt>
<totfact> 0.67591911E+03</totfact>
</mgrwt>
</event>
<event>
 9    1  0.7957670E-001  0.2848065E+03  0.7818608E-02  0.1093092E+00
         -1   -1    0    0    0  501 -0.00000000000E+00  0.00000000000E+00  0.78860788212E+02  0.78860788212E+02  0.00000000000E+00 0.  1.
          1   -1    0    0  501    0  0.00000000000E+00 -0.00000000000E+00 -0.25714538570E+03  0.25714538570E+03  0.00000000000E+00 0.  1.
         35    2    1    2    0    0  0.00000000000E+00  0.00000000000E+00 -0.17828459748E+03  0.33600617391E+03  0.28480651538E+03 0.  0.
         25    2    3    3    0    0  0.57758137889E+02  0.23362333356E+02 -0.56385123073E+02  0.15110925967E+03  0.12559030671E+03 0.  0.
         25    2    3    3    0    0 -0.57758137889E+02 -0.23362333356E+02 -0.12189947441E+03  0.18489691424E+03  0.12428027165E+03 0.  0.
          5    1    4    4  502    0  0.14816124910E+02 -0.34115615950E+02  0.23015761258E+02  0.43990999935E+02  0.47000000000E+01 0. -1.
         -5    1    4    4    0  502  0.42942012979E+02  0.57477949306E+02 -0.79400884332E+02  0.10711825973E+03  0.47000000000E+01 0. -1.
          5    1    5    5  503    0 -0.24909640304E+02  0.50834559076E+02 -0.60854390998E+02  0.83246558369E+02  0.47000000000E+01 0.  1.
         -5    1    5    5    0  503 -0.32848497585E+02 -0.74196892432E+02 -0.61045083413E+02  0.10165035587E+03  0.47000000000E+01 0.  1.
<mgrwt>
<rscale>  0 0.28480652E+03</rscale>
<asrwt>0</asrwt>
<pdfrwt beam="1">  1        1 0.39560829E-01 0.28480652E+03</pdfrwt>
<pdfrwt beam="2">  1       -1 0.12132429E-01 0.28480652E+03</pdfrwt>
<totfact> 0.47742239E+03</totfact>
</mgrwt>
</event>
<event>
 9    1  0.7957670E-001  0.2797317E+03  0.7818608E-02  0.1095836E+00
          2   -1    0    0  501    0  0.00000000000E+00  0.00000000000E+00  0.25560617982E+04  0.25560617982E+04  0.00000000000E+00 0.  1.
         -2   -1    0    0    0  501 -0.00000000000E+00 -0.00000000000E+00 -0.76533574523E+01  0.76533574523E+01  0.00000000000E+00 0.  1.
         35    2    1    2    0    0 -0.35527136788E-14 -0.71054273576E-14  0.25484084407E+04  0.25637151556E+04  0.27973169010E+03 0.  0.
         25    2    3    3    0    0  0.28394880729E+02 -0.40914002669E+01  0.17763404176E+04  0.17810208580E+04  0.12580543932E+03 0.  0.
         25    2    3    3    0    0 -0.28394880729E+02  0.40914002669E+01  0.77206802306E+03  0.78269429759E+03  0.12529294644E+03 0.  0.
          5    1    4    4  502    0  0.20922244997E+02 -0.41164021290E+02  0.15970826696E+04  0.15977569780E+04  0.47000000000E+01 0.  1.
         -5    1    4    4    0  502  0.74726357317E+01  0.37072621023E+02  0.17925774800E+03  0.18326388005E+03  0.47000000000E+01 0.  1.
          5    1    5    5  503    0 -0.51605669547E+01 -0.59766688746E+02  0.33804528235E+03  0.34335898336E+03  0.47000000000E+01 0.  1.
         -5    1    5    5    0  503 -0.23234313774E+02  0.63858089013E+02  0.43402274071E+03  0.43933531422E+03  0.47000000000E+01 0.  1.
<mgrwt>
<rscale>  0 0.27973169E+03</rscale>
<asrwt>0</asrwt>
<pdfrwt beam="1">  1        2 0.39323960E+00 0.27973169E+03</pdfrwt>
<pdfrwt beam="2">  1       -2 0.11774416E-02 0.27973169E+03</pdfrwt>
<totfact> 0.62782687E+03</totfact>
</mgrwt>
</event>
<event>
 9    1  0.7957670E-001  0.2768657E+03  0.7818608E-02  0.1097413E+00
          2   -1    0    0  501    0  0.00000000000E+00  0.00000000000E+00  0.54743371615E+03  0.54743371615E+03  0.00000000000E+00 0.  1.
         -2   -1    0    0    0  501 -0.00000000000E+00 -0.00000000000E+00 -0.35006345165E+02  0.35006345165E+02  0.00000000000E+00 0.  1.
         35    2    1    2    0    0  0.71054273576E-14 -0.17763568394E-14  0.51242737099E+03  0.58244006132E+03  0.27686569757E+03 0.  0.
         25    2    3    3    0    0  0.16527158576E+02  0.58564072566E+01  0.37416378372E+03  0.39507509940E+03  0.12561191280E+03 0.  0.
         25    2    3    3    0    0 -0.16527158576E+02 -0.58564072566E+01  0.13826358727E+03  0.18736496192E+03  0.12522525670E+03 0.  0.
          5    1    4    4  502    0  0.68984300679E+02 -0.13765800709E+02  0.19944783532E+03  0.21154162717E+03  0.47000000000E+01 0. -1.
         -5    1    4    4    0  502 -0.52457142103E+02  0.19622207965E+02  0.17471594840E+03  0.18353347223E+03  0.47000000000E+01 0. -1.
          5    1    5    5  503    0 -0.60462925058E+02  0.29498812859E+02  0.56785088319E+02  0.88162245446E+02  0.47000000000E+01 0. -1.
         -5    1    5    5    0  503  0.43935766482E+02 -0.35355220116E+02  0.81478498948E+02  0.99202716478E+02  0.47000000000E+01 0. -1.
<mgrwt>
<rscale>  0 0.27686570E+03</rscale>
<asrwt>0</asrwt>
<pdfrwt beam="1">  1        2 0.84220565E-01 0.27686570E+03</pdfrwt>
<pdfrwt beam="2">  1       -2 0.53855920E-02 0.27686570E+03</pdfrwt>
<totfact> 0.97615203E+03</totfact>
</mgrwt>
</event>
<event>
 9    1  0.7957670E-001  0.2727580E+03  0.7818608E-02  0.1099711E+00
         -2   -1    0    0    0  501 -0.00000000000E+00  0.00000000000E+00  0.58196525112E+01  0.58196525112E+01  0.00000000000E+00 0. -1.
          2   -1    0    0  501    0  0.00000000000E+00 -0.00000000000E+00 -0.31959361103E+04  0.31959361103E+04  0.00000000000E+00 0. -1.
         35    2    1    2    0    0  0.00000000000E+00  0.71054273576E-14 -0.31901164578E+04  0.32017557628E+04  0.27275804377E+03 0.  0.
         25    2    3    3    0    0  0.18552024860E+02 -0.38595115462E+02 -0.19823106632E+04  0.19867474223E+04  0.12560252291E+03 0.  0.
         25    2    3    3    0    0 -0.18552024860E+02  0.38595115462E+02 -0.12078057946E+04  0.12150083405E+04  0.12496667420E+03 0.  0.
          5    1    4    4  502    0  0.35519785565E+02 -0.79938356562E+02 -0.12625488494E+04  0.12655842458E+04  0.47000000000E+01 0. -1.
         -5    1    4    4    0  502 -0.16967760705E+02  0.41343241100E+02 -0.71976181382E+03  0.72116317648E+03  0.47000000000E+01 0. -1.
          5    1    5    5  503    0  0.48586184107E+02  0.20236082998E+02 -0.30779234337E+03  0.31229526570E+03  0.47000000000E+01 0. -1.
         -5    1    5    5    0  503 -0.67138208967E+02  0.18359032464E+02 -0.90001345118E+03  0.90271307484E+03  0.47000000000E+01 0. -1.
<mgrwt>
<rscale>  0 0.27275804E+03</rscale>
<asrwt>0</asrwt>
<pdfrwt beam="1">  1        2 0.49168170E+00 0.27275804E+03</pdfrwt>
<pdfrwt beam="2">  1       -2 0.89533258E-03 0.27275804E+03</pdfrwt>
<totfact> 0.39717429E+03</totfact>
</mgrwt>
</event>
<event>
 9    1  0.7957670E-001  0.2751878E+03  0.7818608E-02  0.1098347E+00
          2   -1    0    0  501    0  0.00000000000E+00  0.00000000000E+00  0.68072760148E+03  0.68072760148E+03  0.00000000000E+00 0. -1.
         -2   -1    0    0    0  501 -0.00000000000E+00 -0.00000000000E+00 -0.27811543885E+02  0.27811543885E+02  0.00000000000E+00 0. -1.
         35    2    1    2    0    0  0.35527136788E-14 -0.17763568394E-14  0.65291605760E+03  0.70853914537E+03  0.27518783085E+03 0.  0.
         25    2    3    3    0    0  0.56267470425E+01 -0.13007799564E+02  0.17992277597E+03  0.21912445918E+03  0.12426769559E+03 0.  0.
         25    2    3    3    0    0 -0.56267470425E+01  0.13007799564E+02  0.47299328163E+03  0.48941468619E+03  0.12491287948E+03 0.  0.
          5    1    4    4  502    0  0.55316716488E+02 -0.13163373156E+02  0.15104211220E+03  0.16145904488E+03  0.47000000000E+01 0.  1.
         -5    1    4    4    0  502 -0.49689969445E+02  0.15557359238E+00  0.28880663770E+02  0.57665414300E+02  0.47000000000E+01 0.  1.
          5    1    5    5  503    0  0.31995849045E+02 -0.29908807554E+01  0.42480971470E+03  0.42604936736E+03  0.47000000000E+01 0.  1.
         -5    1    5    5    0  503 -0.37622596087E+02  0.15998680319E+02  0.48183566929E+02  0.63365318829E+02  0.47000000000E+01 0.  1.
<mgrwt>
<rscale>  0 0.27518783E+03</rscale>
<asrwt>0</asrwt>
<pdfrwt beam="1">  1        2 0.10472731E+00 0.27518783E+03</pdfrwt>
<pdfrwt beam="2">  1       -2 0.42786996E-02 0.27518783E+03</pdfrwt>
<totfact> 0.10726403E+04</totfact>
</mgrwt>
</event>
<event>
 9    1  0.7957670E-001  0.2747847E+03  0.7818608E-02  0.1098572E+00
         -4   -1    0    0    0  501 -0.00000000000E+00  0.00000000000E+00  0.19211619900E+02  0.19211619900E+02  0.00000000000E+00 0. -1.
          4   -1    0    0  501    0  0.00000000000E+00 -0.00000000000E+00 -0.98256495372E+03  0.98256495372E+03  0.00000000000E+00 0. -1.
         35    2    1    2    0    0 -0.53290705182E-14  0.00000000000E+00 -0.96335333382E+03  0.10017765736E+04  0.27478474789E+03 0.  0.
         25    2    3    3    0    0  0.12478017855E+02  0.47657125637E+02 -0.38448319252E+03  0.40732478433E+03  0.12513693316E+03 0.  0.
         25    2    3    3    0    0 -0.12478017855E+02 -0.47657125637E+02 -0.57887014129E+03  0.59445178929E+03  0.12591817483E+03 0.  0.
          5    1    4    4  502    0  0.16956755444E+02  0.30268793423E+02 -0.16206596995E+02  0.38580762002E+02  0.47000000000E+01 0. -1.
         -5    1    4    4    0  502 -0.44787375889E+01  0.17388332215E+02 -0.36827659553E+03  0.36874402233E+03  0.47000000000E+01 0. -1.
          5    1    5    5  503    0 -0.53862648657E+02 -0.25634884702E+02 -0.49202225085E+03  0.49564737219E+03  0.47000000000E+01 0. -1.
         -5    1    5    5    0  503  0.41384630802E+02 -0.22022240936E+02 -0.86847890446E+02  0.98804417095E+02  0.47000000000E+01 0. -1.
<mgrwt>
<rscale>  0 0.27478475E+03</rscale>
<asrwt>0</asrwt>
<pdfrwt beam="1">  1        4 0.15116384E+00 0.27478475E+03</pdfrwt>
<pdfrwt beam="2">  1       -4 0.29556338E-02 0.27478475E+03</pdfrwt>
<totfact> 0.32038311E+02</totfact>
</mgrwt>
</event>
<event>
 9    1  0.7957670E-001  0.2810341E+03  0.7818608E-02  0.1095125E+00
         -2   -1    0    0    0  501 -0.00000000000E+00  0.00000000000E+00  0.36440794501E+02  0.36440794501E+02  0.00000000000E+00 0. -1.
          2   -1    0    0  501    0  0.00000000000E+00 -0.00000000000E+00 -0.54183896682E+03  0.54183896682E+03  0.00000000000E+00 0. -1.
         35    2    1    2    0    0  0.00000000000E+00  0.14210854715E-13 -0.50539817231E+03  0.57827976132E+03  0.28103410784E+03 0.  0.
         25    2    3    3    0    0  0.16699384462E+02 -0.59493018828E+02 -0.27248303036E+03  0.30685670547E+03  0.12686901564E+03 0.  0.
         25    2    3    3    0    0 -0.16699384462E+02  0.59493018828E+02 -0.23291514195E+03  0.27142305584E+03  0.12491086086E+03 0.  0.
          5    1    4    4  502    0  0.48872857069E+02 -0.84071788375E+02 -0.16090296295E+03  0.18806508247E+03  0.47000000000E+01 0. -1.
         -5    1    4    4    0  502 -0.32173472607E+02  0.24578769547E+02 -0.11158006742E+03  0.11879162301E+03  0.47000000000E+01 0. -1.
          5    1    5    5  503    0 -0.54979670686E+02  0.15504790318E+01 -0.45622316930E+02  0.71614621245E+02  0.47000000000E+01 0.  1.
         -5    1    5    5    0  503  0.38280286224E+02  0.57942539796E+02 -0.18729282502E+03  0.19980843460E+03  0.47000000000E+01 0.  1.
<mgrwt>
<rscale>  0 0.28103411E+03</rscale>
<asrwt>0</asrwt>
<pdfrwt beam="1">  1        2 0.83359836E-01 0.28103411E+03</pdfrwt>
<pdfrwt beam="2">  1       -2 0.56062764E-02 0.28103411E+03</pdfrwt>
<totfact> 0.92937648E+03</totfact>
</mgrwt>
</event>
<event>
 9    1  0.7957670E-001  0.2790514E+03  0.7818608E-02  0.1096208E+00
         -1   -1    0    0    0  501 -0.00000000000E+00  0.00000000000E+00  0.53191472462E+02  0.53191472462E+02  0.00000000000E+00 0. -1.
          1   -1    0    0  501    0  0.00000000000E+00 -0.00000000000E+00 -0.36598770148E+03  0.36598770148E+03  0.00000000000E+00 0. -1.
         35    2    1    2    0    0  0.00000000000E+00  0.17763568394E-14 -0.31279622902E+03  0.41917917395E+03  0.27905142712E+03 0.  0.
         25    2    3    3    0    0 -0.36277294227E+02  0.12593705400E+02 -0.23266683893E+03  0.26701259846E+03  0.12524865790E+03 0.  0.
         25    2    3    3    0    0  0.36277294227E+02 -0.12593705400E+02 -0.80129390094E+02  0.15216657549E+03  0.12352855559E+03 0.  0.
          5    1    4    4  502    0 -0.77190018628E+02  0.23839571835E+02 -0.19065143794E+03  0.20711514901E+03  0.47000000000E+01 0.  1.
         -5    1    4    4    0  502  0.40912724401E+02 -0.11245866435E+02 -0.42015400984E+02  0.59897449442E+02  0.47000000000E+01 0.  1.
          5    1    5    5  503    0  0.42596130737E+02 -0.63763362836E+02 -0.39692545028E+02  0.86474186465E+02  0.47000000000E+01 0. -1.
         -5    1    5    5    0  503 -0.63188365098E+01  0.51169657436E+02 -0.40436845066E+02  0.65692389025E+02  0.47000000000E+01 0. -1.
<mgrwt>
<rscale>  0 0.27905143E+03</rscale>
<asrwt>0</asrwt>
<pdfrwt beam="1">  1        1 0.56305801E-01 0.27905143E+03</pdfrwt>
<pdfrwt beam="2">  1       -1 0.81833034E-02 0.27905143E+03</pdfrwt>
<totfact> 0.56204792E+03</totfact>
</mgrwt>
</event>
<event>
 9    1  0.7957670E-001  0.2551992E+03  0.7818608E-02  0.1110062E+00
          2   -1    0    0  501    0  0.00000000000E+00  0.00000000000E+00  0.51426865912E+03  0.51426865912E+03  0.00000000000E+00 0. -1.
         -2   -1    0    0    0  501 -0.00000000000E+00 -0.00000000000E+00 -0.31659839440E+02  0.31659839440E+02  0.00000000000E+00 0. -1.
         35    2    1    2    0    0  0.35527136788E-14  0.00000000000E+00  0.48260881968E+03  0.54592849856E+03  0.25519924119E+03 0.  0.
         25    2    3    3    0    0 -0.10299121694E+02 -0.16313325113E+02  0.27338220394E+03  0.30167100435E+03  0.12607683749E+03 0.  0.
         25    2    3    3    0    0  0.10299121694E+02  0.16313325113E+02  0.20922661574E+03  0.24425749421E+03  0.12455420611E+03 0.  0.
          5    1    4    4  502    0  0.28960256684E+02  0.33812250970E+02  0.41091122901E+02  0.60766233749E+02  0.47000000000E+01 0. -1.
         -5    1    4    4    0  502 -0.39259378378E+02 -0.50125576082E+02  0.23229108104E+03  0.24090477060E+03  0.47000000000E+01 0. -1.
          5    1    5    5  503    0 -0.23975902788E+02  0.54188589558E+02  0.16875306370E+03  0.17891599610E+03  0.47000000000E+01 0. -1.
         -5    1    5    5    0  503  0.34275024482E+02 -0.37875264445E+02  0.40473552036E+02  0.65341498104E+02  0.47000000000E+01 0. -1.
<mgrwt>
<rscale>  0 0.25519924E+03</rscale>
<asrwt>0</asrwt>
<pdfrwt beam="1">  1        2 0.79118249E-01 0.25519924E+03</pdfrwt>
<pdfrwt beam="2">  1       -2 0.48707449E-02 0.25519924E+03</pdfrwt>
<totfact> 0.12163808E+04</totfact>
</mgrwt>
</event>
<event>
 9    1  0.7957670E-001  0.2797515E+03  0.7818608E-02  0.1095825E+00
          2   -1    0    0  501    0  0.00000000000E+00  0.00000000000E+00  0.99632586490E+03  0.99632586490E+03  0.00000000000E+00 0.  1.
         -2   -1    0    0    0  501 -0.00000000000E+00 -0.00000000000E+00 -0.19637377365E+02  0.19637377365E+02  0.00000000000E+00 0.  1.
         35    2    1    2    0    0 -0.71054273576E-14  0.00000000000E+00  0.97668848754E+03  0.10159632423E+04  0.27975151108E+03 0.  0.
         25    2    3    3    0    0 -0.50459487838E+02  0.37706699740E+02  0.48109339952E+03  0.50108683354E+03  0.12517667739E+03 0.  0.
         25    2    3    3    0    0  0.50459487838E+02 -0.37706699740E+02  0.49559508801E+03  0.51487640873E+03  0.12456030621E+03 0.  0.
          5    1    4    4  502    0  0.29870212644E+02 -0.16332643509E+02  0.21827998572E+03  0.22096883720E+03  0.47000000000E+01 0.  1.
         -5    1    4    4    0  502 -0.80329700482E+02  0.54039343249E+02  0.26281341380E+03  0.28011799634E+03  0.47000000000E+01 0.  1.
          5    1    5    5  503    0  0.70446339605E+02 -0.42115626785E+02  0.48391142070E+03  0.49084495095E+03  0.47000000000E+01 0.  1.
         -5    1    5    5    0  503 -0.19986851767E+02  0.44089270446E+01  0.11683667310E+02  0.24031457780E+02  0.47000000000E+01 0.  1.
<mgrwt>
<rscale>  0 0.27975151E+03</rscale>
<asrwt>0</asrwt>
<pdfrwt beam="1">  1        2 0.15328086E+00 0.27975151E+03</pdfrwt>
<pdfrwt beam="2">  1       -2 0.30211358E-02 0.27975151E+03</pdfrwt>
<totfact> 0.11043150E+04</totfact>
</mgrwt>
</event>
<event>
 9    1  0.7957670E-001  0.2747669E+03  0.7818608E-02  0.1098582E+00
          2   -1    0    0  501    0  0.00000000000E+00  0.00000000000E+00  0.37373349458E+03  0.37373349458E+03  0.00000000000E+00 0. -1.
         -2   -1    0    0    0  501 -0.00000000000E+00 -0.00000000000E+00 -0.50501797195E+02  0.50501797195E+02  0.00000000000E+00 0. -1.
         35    2    1    2    0    0  0.14210854715E-13  0.35527136788E-14  0.32323169738E+03  0.42423529177E+03  0.27476690593E+03 0.  0.
         25    2    3    3    0    0 -0.49145665497E+02 -0.27950717878E+02  0.16717731672E+03  0.21610947789E+03  0.12473376503E+03 0.  0.
         25    2    3    3    0    0  0.49145665497E+02  0.27950717878E+02  0.15605438066E+03  0.20812581388E+03  0.12556610058E+03 0.  0.
          5    1    4    4  502    0  0.90671817795E+01  0.16860960013E+02 -0.11528127147E+02  0.22836231596E+02  0.47000000000E+01 0. -1.
         -5    1    4    4    0  502 -0.58212847276E+02 -0.44811677891E+02  0.17870544387E+03  0.19327324629E+03  0.47000000000E+01 0. -1.
          5    1    5    5  503    0 -0.40880770259E+02  0.77315948367E+01  0.71649649122E+02  0.82986608287E+02  0.47000000000E+01 0.  1.
         -5    1    5    5    0  503  0.90026435756E+02  0.20219123041E+02  0.84404731538E+02  0.12513920560E+03  0.47000000000E+01 0.  1.
<mgrwt>
<rscale>  0 0.27476691E+03</rscale>
<asrwt>0</asrwt>
<pdfrwt beam="1">  1        2 0.57497459E-01 0.27476691E+03</pdfrwt>
<pdfrwt beam="2">  1       -2 0.77695075E-02 0.27476691E+03</pdfrwt>
<totfact> 0.84555828E+03</totfact>
</mgrwt>
</event>
<event>
 9    1  0.7957670E-001  0.2753157E+03  0.7818608E-02  0.1098275E+00
         -4   -1    0    0    0  501 -0.00000000000E+00  0.00000000000E+00  0.63399279996E+03  0.63399279996E+03  0.00000000000E+00 0. -1.
          4   -1    0    0  501    0  0.00000000000E+00 -0.00000000000E+00 -0.29889424789E+02  0.29889424789E+02  0.00000000000E+00 0. -1.
         35    2    1    2    0    0 -0.14210854715E-13  0.71054273576E-14  0.60410337517E+03  0.66388222475E+03  0.27531567417E+03 0.  0.
         25    2    3    3    0    0  0.51427660616E+02 -0.12933586807E+01  0.23829701431E+03  0.27389863422E+03  0.12485398570E+03 0.  0.
         25    2    3    3    0    0 -0.51427660616E+02  0.12933586807E+01  0.36580636086E+03  0.38998359053E+03  0.12500572059E+03 0.  0.
          5    1    4    4  502    0  0.57993918613E+02  0.52161318208E+02  0.11248884955E+03  0.13696689011E+03  0.47000000000E+01 0. -1.
         -5    1    4    4    0  502 -0.65662579970E+01 -0.53454676888E+02  0.12580816476E+03  0.13693174411E+03  0.47000000000E+01 0. -1.
          5    1    5    5  503    0 -0.44975028486E+02  0.58191067562E+02  0.15732679931E+03  0.17373187765E+03  0.47000000000E+01 0.  1.
         -5    1    5    5    0  503 -0.64526321301E+01 -0.56897708881E+02  0.20847956155E+03  0.21625171287E+03  0.47000000000E+01 0.  1.
<mgrwt>
<rscale>  0 0.27531567E+03</rscale>
<asrwt>0</asrwt>
<pdfrwt beam="1">  1        4 0.45983735E-02 0.27531567E+03</pdfrwt>
<pdfrwt beam="2">  1       -4 0.97537344E-01 0.27531567E+03</pdfrwt>
<totfact> 0.46338806E+02</totfact>
</mgrwt>
</event>
<event>
 9    1  0.7957670E-001  0.2748789E+03  0.7818608E-02  0.1098519E+00
         -2   -1    0    0    0  501 -0.00000000000E+00  0.00000000000E+00  0.51882787965E+02  0.51882787965E+02  0.00000000000E+00 0. -1.
          2   -1    0    0  501    0  0.00000000000E+00 -0.00000000000E+00 -0.36408234914E+03  0.36408234914E+03  0.00000000000E+00 0. -1.
         35    2    1    2    0    0  0.00000000000E+00 -0.71054273576E-14 -0.31219956118E+03  0.41596513711E+03  0.27487893570E+03 0.  0.
         25    2    3    3    0    0  0.31330030716E+02 -0.26985342935E+02 -0.14423698916E+03  0.20255033241E+03  0.13606082669E+03 0.  0.
         25    2    3    3    0    0 -0.31330030716E+02  0.26985342935E+02 -0.16796257202E+03  0.21341480470E+03  0.12499869482E+03 0.  0.
          5    1    4    4  502    0  0.62863429680E+01 -0.43569009686E+02 -0.16158980080E+03  0.16754441333E+03  0.47000000000E+01 0. -1.
         -5    1    4    4    0  502  0.25043687748E+02  0.16583666751E+02  0.17352811645E+02  0.35005919084E+02  0.47000000000E+01 0. -1.
          5    1    5    5  503    0  0.99665053737E+01 -0.39529801723E+02 -0.19339885851E+02  0.45365820155E+02  0.47000000000E+01 0. -1.
         -5    1    5    5    0  503 -0.41296536090E+02  0.66515144658E+02 -0.14862268617E+03  0.16804898454E+03  0.47000000000E+01 0. -1.
<mgrwt>
<rscale>  0 0.27487894E+03</rscale>
<asrwt>0</asrwt>
<pdfrwt beam="1">  1        2 0.56012669E-01 0.27487894E+03</pdfrwt>
<pdfrwt beam="2">  1       -2 0.79819675E-02 0.27487894E+03</pdfrwt>
<totfact> 0.83398969E+03</totfact>
</mgrwt>
</event>
<event>
 9    1  0.7957670E-001  0.2752312E+03  0.7818608E-02  0.1098322E+00
          2   -1    0    0  501    0  0.00000000000E+00  0.00000000000E+00  0.10926212472E+04  0.10926212472E+04  0.00000000000E+00 0.  1.
         -2   -1    0    0    0  501 -0.00000000000E+00 -0.00000000000E+00 -0.17332676365E+02  0.17332676365E+02  0.00000000000E+00 0.  1.
         35    2    1    2    0    0  0.00000000000E+00  0.00000000000E+00  0.10752885708E+04  0.11099539236E+04  0.27523117895E+03 0.  0.
         25    2    3    3    0    0  0.34815362176E+02  0.93891254185E+01  0.34981923574E+03  0.37321752659E+03  0.12497023381E+03 0.  0.
         25    2    3    3    0    0 -0.34815362176E+02 -0.93891254185E+01  0.72546933508E+03  0.73673639697E+03  0.12318480973E+03 0.  0.
          5    1    4    4  502    0 -0.28003507226E+01 -0.50622527363E+02  0.21393496234E+03  0.21991075543E+03  0.47000000000E+01 0.  1.
         -5    1    4    4    0  502  0.37615712898E+02  0.60011652782E+02  0.13588427340E+03  0.15330677116E+03  0.47000000000E+01 0.  1.
          5    1    5    5  503    0 -0.59723919717E+01 -0.90760540840E+01  0.69280628793E+03  0.69290741577E+03  0.47000000000E+01 0.  1.
         -5    1    5    5    0  503 -0.28842970204E+02 -0.31307133451E+00  0.32663047150E+02  0.43828981200E+02  0.47000000000E+01 0.  1.
<mgrwt>
<rscale>  0 0.27523118E+03</rscale>
<asrwt>0</asrwt>
<pdfrwt beam="1">  1        2 0.16809552E+00 0.27523118E+03</pdfrwt>
<pdfrwt beam="2">  1       -2 0.26665665E-02 0.27523118E+03</pdfrwt>
<totfact> 0.11629767E+04</totfact>
</mgrwt>
</event>
<event>
 9    1  0.7957670E-001  0.2751474E+03  0.7818608E-02  0.1098369E+00
          2   -1    0    0  501    0  0.00000000000E+00  0.00000000000E+00  0.11535721111E+03  0.11535721111E+03  0.00000000000E+00 0. -1.
         -2   -1    0    0    0  501 -0.00000000000E+00 -0.00000000000E+00 -0.16406883154E+03  0.16406883154E+03  0.00000000000E+00 0. -1.
         35    2    1    2    0    0  0.71054273576E-14 -0.71054273576E-14 -0.48711620426E+02  0.27942604265E+03  0.27514739931E+03 0.  0.
         25    2    3    3    0    0  0.45891789454E+02  0.26503749549E+02 -0.48495655397E+01  0.13697074169E+03  0.12620998659E+03 0.  0.
         25    2    3    3    0    0 -0.45891789454E+02 -0.26503749549E+02 -0.43862054887E+02  0.14245530096E+03  0.12474424970E+03 0.  0.
          5    1    4    4  502    0  0.63807487324E+02  0.51858061765E+02  0.32179749494E+02  0.88421039839E+02  0.47000000000E+01 0.  1.
         -5    1    4    4    0  502 -0.17915697870E+02 -0.25354312216E+02 -0.37029315034E+02  0.48549701853E+02  0.47000000000E+01 0.  1.
          5    1    5    5  503    0 -0.52863221178E+02  0.41023336071E+02 -0.27294453180E+02  0.72418999097E+02  0.47000000000E+01 0. -1.
         -5    1    5    5    0  503  0.69714317247E+01 -0.67527085620E+02 -0.16567601706E+02  0.70036301865E+02  0.47000000000E+01 0. -1.
<mgrwt>
<rscale>  0 0.27514740E+03</rscale>
<asrwt>0</asrwt>
<pdfrwt beam="1">  1        2 0.17747263E-01 0.27514740E+03</pdfrwt>
<pdfrwt beam="2">  1       -2 0.25241358E-01 0.27514740E+03</pdfrwt>
<totfact> 0.44330990E+03</totfact>
</mgrwt>
</event>
<event>
 9    1  0.7957670E-001  0.2751516E+03  0.7818608E-02  0.1098367E+00
          2   -1    0    0  501    0  0.00000000000E+00  0.00000000000E+00  0.11387632744E+04  0.11387632744E+04  0.00000000000E+00 0. -1.
         -2   -1    0    0    0  501 -0.00000000000E+00 -0.00000000000E+00 -0.16620752273E+02  0.16620752273E+02  0.00000000000E+00 0. -1.
         35    2    1    2    0    0  0.00000000000E+00  0.00000000000E+00  0.11221425221E+04  0.11553840267E+04  0.27515161116E+03 0.  0.
         25    2    3    3    0    0 -0.11538425458E+02  0.19735979728E+02  0.78768307498E+03  0.79798247472E+03  0.12573288823E+03 0.  0.
         25    2    3    3    0    0  0.11538425458E+02 -0.19735979728E+02  0.33445944716E+03  0.35740155197E+03  0.12389553422E+03 0.  0.
          5    1    4    4  502    0 -0.63383271865E+02  0.63561323400E+01  0.57805492659E+03  0.58157323505E+03  0.47000000000E+01 0. -1.
         -5    1    4    4    0  502  0.51844846407E+02  0.13379847388E+02  0.20962814840E+03  0.21640923967E+03  0.47000000000E+01 0. -1.
          5    1    5    5  503    0  0.67473568523E+02 -0.55323802223E+01  0.19101714889E+03  0.20271391381E+03  0.47000000000E+01 0. -1.
         -5    1    5    5    0  503 -0.55935143065E+02 -0.14203599505E+02  0.14344229827E+03  0.15468763817E+03  0.47000000000E+01 0. -1.
<mgrwt>
<rscale>  0 0.27515161E+03</rscale>
<asrwt>0</asrwt>
<pdfrwt beam="1">  1        2 0.17519429E+00 0.27515161E+03</pdfrwt>
<pdfrwt beam="2">  1       -2 0.25570397E-02 0.27515161E+03</pdfrwt>
<totfact> 0.11630719E+04</totfact>
</mgrwt>
</event>
<event>
 9    1  0.7957670E-001  0.2743843E+03  0.7818608E-02  0.1098796E+00
          2   -1    0    0  501    0  0.00000000000E+00  0.00000000000E+00  0.87912296393E+03  0.87912296393E+03  0.00000000000E+00 0.  1.
         -2   -1    0    0    0  501 -0.00000000000E+00 -0.00000000000E+00 -0.21409624092E+02  0.21409624092E+02  0.00000000000E+00 0.  1.
         35    2    1    2    0    0  0.71054273576E-14  0.00000000000E+00  0.85771333984E+03  0.90053258802E+03  0.27438434495E+03 0.  0.
         25    2    3    3    0    0  0.52886958105E+02  0.27899075149E+01  0.49676544363E+03  0.51497218834E+03  0.12496253384E+03 0.  0.
         25    2    3    3    0    0 -0.52886958105E+02 -0.27899075149E+01  0.36094789621E+03  0.38556039968E+03  0.12477429262E+03 0.  0.
          5    1    4    4  502    0  0.33402589590E+02  0.53304611466E+02  0.13337141524E+03  0.14753690724E+03  0.47000000000E+01 0.  1.
         -5    1    4    4    0  502  0.19484368516E+02 -0.50514703951E+02  0.36339402839E+03  0.36743528110E+03  0.47000000000E+01 0.  1.
          5    1    5    5  503    0  0.21085111279E+02 -0.45232208855E+02  0.13123438989E+03  0.14048163483E+03  0.47000000000E+01 0. -1.
         -5    1    5    5    0  503 -0.73972069384E+02  0.42442301341E+02  0.22971350632E+03  0.24507876485E+03  0.47000000000E+01 0. -1.
<mgrwt>
<rscale>  0 0.27438434E+03</rscale>
<asrwt>0</asrwt>
<pdfrwt beam="1">  1        2 0.13524966E+00 0.27438434E+03</pdfrwt>
<pdfrwt beam="2">  1       -2 0.32937890E-02 0.27438434E+03</pdfrwt>
<totfact> 0.11509523E+04</totfact>
</mgrwt>
</event>
<event>
 9    1  0.7957670E-001  0.2730734E+03  0.7818608E-02  0.1099533E+00
         -2   -1    0    0    0  501 -0.00000000000E+00  0.00000000000E+00  0.21018083404E+02  0.21018083404E+02  0.00000000000E+00 0.  1.
          2   -1    0    0  501    0  0.00000000000E+00 -0.00000000000E+00 -0.88696370422E+03  0.88696370422E+03  0.00000000000E+00 0.  1.
         35    2    1    2    0    0 -0.14210854715E-13  0.71054273576E-14 -0.86594562082E+03  0.90798178763E+03  0.27307344881E+03 0.  0.
         25    2    3    3    0    0 -0.38071528552E+02  0.42524117797E+02 -0.50443738303E+03  0.52126054201E+03  0.11831203395E+03 0.  0.
         25    2    3    3    0    0  0.38071528552E+02 -0.42524117797E+02 -0.36150823779E+03  0.38672124562E+03  0.12492947587E+03 0.  0.
          5    1    4    4  502    0 -0.22150118877E+02  0.47920781544E+02 -0.50058714702E+03  0.50338515158E+03  0.47000000000E+01 0. -1.
         -5    1    4    4    0  502 -0.15921409675E+02 -0.53966637472E+01 -0.38502360097E+01  0.17875390429E+02  0.47000000000E+01 0. -1.
          5    1    5    5  503    0  0.78270414661E+02 -0.57148322905E+00 -0.18860883920E+03  0.20425956191E+03  0.47000000000E+01 0.  1.
         -5    1    5    5    0  503 -0.40198886109E+02 -0.41952634568E+02 -0.17289939858E+03  0.18246168371E+03  0.47000000000E+01 0.  1.
<mgrwt>
<rscale>  0 0.27307345E+03</rscale>
<asrwt>0</asrwt>
<pdfrwt beam="1">  1        2 0.13645598E+00 0.27307345E+03</pdfrwt>
<pdfrwt beam="2">  1       -2 0.32335506E-02 0.27307345E+03</pdfrwt>
<totfact> 0.11690503E+04</totfact>
</mgrwt>
</event>
<event>
 9    1  0.7957670E-001  0.2724580E+03  0.7818608E-02  0.1099881E+00
          2   -1    0    0  501    0  0.00000000000E+00  0.00000000000E+00  0.15568268798E+04  0.15568268798E+04  0.00000000000E+00 0.  1.
         -2   -1    0    0    0  501 -0.00000000000E+00 -0.00000000000E+00 -0.11920620885E+02  0.11920620885E+02  0.00000000000E+00 0.  1.
         35    2    1    2    0    0 -0.71054273576E-14  0.44408920985E-15  0.15449062589E+04  0.15687475007E+04  0.27245801891E+03 0.  0.
         25    2    3    3    0    0  0.12333545502E+02  0.31827289666E+01  0.46902730685E+03  0.48541594379E+03  0.12441775521E+03 0.  0.
         25    2    3    3    0    0 -0.12333545502E+02 -0.31827289666E+01  0.10758789521E+04  0.10833315569E+04  0.12621210935E+03 0.  0.
          5    1    4    4  502    0 -0.14329977602E+02 -0.56901925553E+02  0.20461626116E+03  0.21291566810E+03  0.47000000000E+01 0.  1.
         -5    1    4    4    0  502  0.26663523104E+02  0.60084654519E+02  0.26441104568E+03  0.27250027569E+03  0.47000000000E+01 0.  1.
          5    1    5    5  503    0 -0.60582343556E+02  0.49207071870E+00  0.85542600618E+03  0.85758160226E+03  0.47000000000E+01 0.  1.
         -5    1    5    5    0  503  0.48248798054E+02 -0.36747996853E+01  0.22045294590E+03  0.22574995465E+03  0.47000000000E+01 0.  1.
<mgrwt>
<rscale>  0 0.27245802E+03</rscale>
<asrwt>0</asrwt>
<pdfrwt beam="1">  1        2 0.23951167E+00 0.27245802E+03</pdfrwt>
<pdfrwt beam="2">  1       -2 0.18339429E-02 0.27245802E+03</pdfrwt>
<totfact> 0.11171467E+04</totfact>
</mgrwt>
</event>
<event>
 9    1  0.7957670E-001  0.2741937E+03  0.7818608E-02  0.1098903E+00
          2   -1    0    0  501    0  0.00000000000E+00  0.00000000000E+00  0.53878483637E+03  0.53878483637E+03  0.00000000000E+00 0.  1.
         -2   -1    0    0    0  501 -0.00000000000E+00 -0.00000000000E+00 -0.34885064978E+02  0.34885064978E+02  0.00000000000E+00 0.  1.
         35    2    1    2    0    0  0.00000000000E+00 -0.71054273576E-14  0.50389977139E+03  0.57366990135E+03  0.27419368356E+03 0.  0.
         25    2    3    3    0    0 -0.50933795338E+02 -0.15323265508E+02  0.22586626694E+03  0.26368697247E+03  0.12524454054E+03 0.  0.
         25    2    3    3    0    0  0.50933795338E+02  0.15323265508E+02  0.27803350445E+03  0.30998292888E+03  0.12632391945E+03 0.  0.
          5    1    4    4  502    0 -0.40156580664E+02 -0.36180761493E+02  0.22206120919E+02  0.58624229454E+02  0.47000000000E+01 0. -1.
         -5    1    4    4    0  502 -0.10777214674E+02  0.20857495985E+02  0.20366014602E+03  0.20506274302E+03  0.47000000000E+01 0. -1.
          5    1    5    5  503    0  0.15819721136E+02 -0.37676808006E+02  0.23049824332E+02  0.47150714099E+02  0.47000000000E+01 0.  1.
         -5    1    5    5    0  503  0.35114074202E+02  0.53000073514E+02  0.25498368012E+03  0.26283221478E+03  0.47000000000E+01 0.  1.
<mgrwt>
<rscale>  0 0.27419368E+03</rscale>
<asrwt>0</asrwt>
<pdfrwt beam="1">  1        2 0.82889969E-01 0.27419368E+03</pdfrwt>
<pdfrwt beam="2">  1       -2 0.53669335E-02 0.27419368E+03</pdfrwt>
<totfact> 0.99887295E+03</totfact>
</mgrwt>
</event>
<event>
 9    1  0.7957670E-001  0.2737941E+03  0.7818608E-02  0.1099128E+00
          2   -1    0    0  501    0  0.00000000000E+00  0.00000000000E+00  0.15808780722E+03  0.15808780722E+03  0.00000000000E+00 0. -1.
         -2   -1    0    0    0  501 -0.00000000000E+00 -0.00000000000E+00 -0.11854677961E+03  0.11854677961E+03  0.00000000000E+00 0. -1.
         35    2    1    2    0    0  0.88817841970E-15  0.00000000000E+00  0.39541027616E+02  0.27663458683E+03  0.27379408643E+03 0.  0.
         25    2    3    3    0    0 -0.19006030161E+01  0.51615456029E+02  0.47548709227E+02  0.14191838667E+03  0.12333767118E+03 0.  0.
         25    2    3    3    0    0  0.19006030161E+01 -0.51615456029E+02 -0.80076816105E+01  0.13471620016E+03  0.12416345690E+03 0.  0.
          5    1    4    4  502    0  0.19126663060E+02  0.78637582193E+02 -0.24898903209E+01  0.81104797187E+02  0.47000000000E+01 0. -1.
         -5    1    4    4    0  502 -0.21027266076E+02 -0.27022126163E+02  0.50038599547E+02  0.60813589482E+02  0.47000000000E+01 0. -1.
          5    1    5    5  503    0 -0.26401317252E+01 -0.37804284217E+02  0.56627251321E+02  0.68299852070E+02  0.47000000000E+01 0.  1.
         -5    1    5    5    0  503  0.45407347413E+01 -0.13811171812E+02 -0.64634932931E+02  0.66416348092E+02  0.47000000000E+01 0.  1.
<mgrwt>
<rscale>  0 0.27379409E+03</rscale>
<asrwt>0</asrwt>
<pdfrwt beam="1">  1        2 0.24321201E-01 0.27379409E+03</pdfrwt>
<pdfrwt beam="2">  1       -2 0.18237966E-01 0.27379409E+03</pdfrwt>
<totfact> 0.54242081E+03</totfact>
</mgrwt>
</event>
<event>
 9    1  0.7957670E-001  0.2764491E+03  0.7818608E-02  0.1097644E+00
          1   -1    0    0  501    0  0.00000000000E+00  0.00000000000E+00  0.13307147639E+04  0.13307147639E+04  0.00000000000E+00 0.  1.
         -1   -1    0    0    0  501 -0.00000000000E+00 -0.00000000000E+00 -0.14357718362E+02  0.14357718362E+02  0.00000000000E+00 0.  1.
         35    2    1    2    0    0  0.00000000000E+00  0.00000000000E+00  0.13163570455E+04  0.13450724823E+04  0.27644911142E+03 0.  0.
         25    2    3    3    0    0  0.52190724116E+02 -0.42840476632E+01  0.56101279098E+03  0.57770501287E+03  0.12753629094E+03 0.  0.
         25    2    3    3    0    0 -0.52190724116E+02  0.42840476632E+01  0.75534425457E+03  0.76736746940E+03  0.12476243600E+03 0.  0.
          5    1    4    4  502    0 -0.37619781590E+02 -0.79349876771E+01  0.27903062469E+03  0.28170621490E+03  0.47000000000E+01 0.  1.
         -5    1    4    4    0  502  0.89810505706E+02  0.36509400139E+01  0.28198216629E+03  0.29599879797E+03  0.47000000000E+01 0.  1.
          5    1    5    5  503    0 -0.40563703227E+02 -0.59945269996E+01  0.66064987105E+02  0.77897502493E+02  0.47000000000E+01 0.  1.
         -5    1    5    5    0  503 -0.11627020889E+02  0.10278574663E+02  0.68927926746E+03  0.68946996691E+03  0.47000000000E+01 0.  1.
<mgrwt>
<rscale>  0 0.27644911E+03</rscale>
<asrwt>0</asrwt>
<pdfrwt beam="1">  1        1 0.20472525E+00 0.27644911E+03</pdfrwt>
<pdfrwt beam="2">  1       -1 0.22088808E-02 0.27644911E+03</pdfrwt>
<totfact> 0.55112294E+03</totfact>
</mgrwt>
</event>
<event>
 9    1  0.7957670E-001  0.2738287E+03  0.7818608E-02  0.1099108E+00
         -1   -1    0    0    0  501 -0.00000000000E+00  0.00000000000E+00  0.27302834619E+02  0.27302834619E+02  0.00000000000E+00 0. -1.
          1   -1    0    0  501    0  0.00000000000E+00 -0.00000000000E+00 -0.68657861565E+03  0.68657861565E+03  0.00000000000E+00 0. -1.
         35    2    1    2    0    0  0.00000000000E+00 -0.71054273576E-14 -0.65927578103E+03  0.71388145027E+03  0.27382872308E+03 0.  0.
         25    2    3    3    0    0 -0.49714746654E+02 -0.18252347032E+02 -0.39578843013E+03  0.41818455317E+03  0.12419796647E+03 0.  0.
         25    2    3    3    0    0  0.49714746654E+02  0.18252347032E+02 -0.26348735090E+03  0.29569689710E+03  0.12331409759E+03 0.  0.
          5    1    4    4  502    0  0.96555801999E+01  0.10651403599E+02 -0.30731070181E+03  0.30768269382E+03  0.47000000000E+01 0.  1.
         -5    1    4    4    0  502 -0.59370326854E+02 -0.28903750631E+02 -0.88477728324E+02  0.11050185935E+03  0.47000000000E+01 0.  1.
          5    1    5    5  503    0 -0.15654720805E+02 -0.35472337467E+02 -0.36703113874E+02  0.53596320554E+02  0.47000000000E+01 0.  1.
         -5    1    5    5    0  503  0.65369467460E+02  0.53724684499E+02 -0.22678423702E+03  0.24210057655E+03  0.47000000000E+01 0.  1.
<mgrwt>
<rscale>  0 0.27382872E+03</rscale>
<asrwt>0</asrwt>
<pdfrwt beam="1">  1        1 0.10562748E+00 0.27382872E+03</pdfrwt>
<pdfrwt beam="2">  1       -1 0.42004359E-02 0.27382872E+03</pdfrwt>
<totfact> 0.66095771E+03</totfact>
</mgrwt>
</event>
<event>
 9    1  0.7957670E-001  0.2738039E+03  0.7818608E-02  0.1099122E+00
          2   -1    0    0  501    0  0.00000000000E+00  0.00000000000E+00  0.79395580804E+02  0.79395580804E+02  0.00000000000E+00 0.  1.
         -2   -1    0    0    0  501 -0.00000000000E+00 -0.00000000000E+00 -0.23606030722E+03  0.23606030722E+03  0.00000000000E+00 0.  1.
         35    2    1    2    0    0  0.00000000000E+00  0.00000000000E+00 -0.15666472641E+03  0.31545588802E+03  0.27380390937E+03 0.  0.
         25    2    3    3    0    0 -0.65117453840E+01  0.42373036082E+02 -0.11965122795E+03  0.17807300332E+03  0.12472249656E+03 0.  0.
         25    2    3    3    0    0  0.65117453840E+01 -0.42373036082E+02 -0.37013498468E+02  0.13738288470E+03  0.12516461531E+03 0.  0.
          5    1    4    4  502    0  0.35318940796E+02 -0.29176785206E+02 -0.60993722661E+02  0.76426674518E+02  0.47000000000E+01 0. -1.
         -5    1    4    4    0  502 -0.41830686180E+02  0.71549821288E+02 -0.58657505285E+02  0.10164632880E+03  0.47000000000E+01 0. -1.
          5    1    5    5  503    0  0.39345763216E+02  0.94042518168E+01 -0.59334522707E+02  0.71966691047E+02  0.47000000000E+01 0. -1.
         -5    1    5    5    0  503 -0.32834017832E+02 -0.51777287899E+02  0.22321024239E+02  0.65416193654E+02  0.47000000000E+01 0. -1.
<mgrwt>
<rscale>  0 0.27380391E+03</rscale>
<asrwt>0</asrwt>
<pdfrwt beam="1">  1        2 0.12214705E-01 0.27380391E+03</pdfrwt>
<pdfrwt beam="2">  1       -2 0.36316970E-01 0.27380391E+03</pdfrwt>
<totfact> 0.35636836E+03</totfact>
</mgrwt>
</event>
<event>
 9    1  0.7957670E-001  0.2715851E+03  0.7818608E-02  0.1100376E+00
          2   -1    0    0  501    0  0.00000000000E+00  0.00000000000E+00  0.22943488856E+04  0.22943488856E+04  0.00000000000E+00 0.  1.
         -2   -1    0    0    0  501 -0.00000000000E+00 -0.00000000000E+00 -0.80369718197E+01  0.80369718197E+01  0.00000000000E+00 0.  1.
         35    2    1    2    0    0  0.71054273576E-14  0.35527136788E-14  0.22863119138E+04  0.23023858574E+04  0.27158510517E+03 0.  0.
         25    2    3    3    0    0  0.47130587100E+02  0.22299618064E+02  0.97557393883E+03  0.98474362681E+03  0.12351896707E+03 0.  0.
         25    2    3    3    0    0 -0.47130587100E+02 -0.22299618064E+02  0.13107379749E+04  0.13176422306E+04  0.12421128646E+03 0.  0.
          5    1    4    4  502    0  0.78428531547E+02 -0.11721024759E+02  0.43640491796E+03  0.44357610328E+03  0.47000000000E+01 0.  1.
         -5    1    4    4    0  502 -0.31297944447E+02  0.34020642823E+02  0.53916902087E+03  0.54116752353E+03  0.47000000000E+01 0.  1.
          5    1    5    5  503    0 -0.44575763076E+02 -0.38895014899E+02  0.25711676907E+03  0.26387675868E+03  0.47000000000E+01 0.  1.
         -5    1    5    5    0  503 -0.25548240240E+01  0.16595396835E+02  0.10536212059E+04  0.10537654719E+04  0.47000000000E+01 0.  1.
<mgrwt>
<rscale>  0 0.27158511E+03</rscale>
<asrwt>0</asrwt>
<pdfrwt beam="1">  1        2 0.35297623E+00 0.27158511E+03</pdfrwt>
<pdfrwt beam="2">  1       -2 0.12364590E-02 0.27158511E+03</pdfrwt>
<totfact> 0.81131649E+03</totfact>
</mgrwt>
</event>
<event>
 9    1  0.7957670E-001  0.2751971E+03  0.7818608E-02  0.1098341E+00
         -2   -1    0    0    0  501 -0.00000000000E+00  0.00000000000E+00  0.29667295580E+02  0.29667295580E+02  0.00000000000E+00 0.  1.
          2   -1    0    0  501    0  0.00000000000E+00 -0.00000000000E+00 -0.63818977169E+03  0.63818977169E+03  0.00000000000E+00 0.  1.
         35    2    1    2    0    0  0.71054273576E-14  0.00000000000E+00 -0.60852247611E+03  0.66785706727E+03  0.27519712638E+03 0.  0.
         25    2    3    3    0    0 -0.38569059717E+02 -0.40052378710E+02 -0.31718432673E+03  0.34606181759E+03  0.12673247045E+03 0.  0.
         25    2    3    3    0    0  0.38569059717E+02  0.40052378710E+02 -0.29133814938E+03  0.32179524967E+03  0.12482988432E+03 0.  0.
          5    1    4    4  502    0  0.45014224367E+01 -0.53289181820E+02 -0.44761075622E+02  0.69897379020E+02  0.47000000000E+01 0. -1.
         -5    1    4    4    0  502 -0.43070482154E+02  0.13236803110E+02 -0.27242325111E+03  0.27616443857E+03  0.47000000000E+01 0. -1.
          5    1    5    5  503    0  0.78908345745E+02  0.67669082757E+01 -0.13178489742E+03  0.15382349386E+03  0.47000000000E+01 0. -1.
         -5    1    5    5    0  503 -0.40339286028E+02  0.33285470434E+02 -0.15955325196E+03  0.16797175581E+03  0.47000000000E+01 0. -1.
<mgrwt>
<rscale>  0 0.27519713E+03</rscale>
<asrwt>0</asrwt>
<pdfrwt beam="1">  1        2 0.98183026E-01 0.27519713E+03</pdfrwt>
<pdfrwt beam="2">  1       -2 0.45642001E-02 0.27519713E+03</pdfrwt>
<totfact> 0.10506542E+04</totfact>
</mgrwt>
</event>
<event>
 9    1  0.7957670E-001  0.2763164E+03  0.7818608E-02  0.1097718E+00
          2   -1    0    0  501    0  0.00000000000E+00  0.00000000000E+00  0.15046569961E+03  0.15046569961E+03  0.00000000000E+00 0.  1.
         -2   -1    0    0    0  501 -0.00000000000E+00 -0.00000000000E+00 -0.12685742851E+03  0.12685742851E+03  0.00000000000E+00 0.  1.
         35    2    1    2    0    0  0.35527136788E-14  0.00000000000E+00  0.23608271106E+02  0.27732312812E+03  0.27631642536E+03 0.  0.
         25    2    3    3    0    0 -0.17325057613E+02  0.33194554696E+02 -0.35017547749E+02  0.13485782704E+03  0.12473319037E+03 0.  0.
         25    2    3    3    0    0  0.17325057613E+02 -0.33194554696E+02  0.58625818854E+02  0.14246530108E+03  0.12432754841E+03 0.  0.
          5    1    4    4  502    0  0.16624700938E+02 -0.13026975957E+02  0.36886225165E+02  0.42764078275E+02  0.47000000000E+01 0. -1.
         -5    1    4    4    0  502 -0.33949758550E+02  0.46221530653E+02 -0.71903772913E+02  0.92093748760E+02  0.47000000000E+01 0. -1.
          5    1    5    5  503    0 -0.59916032836E+01  0.33807024942E+02  0.62281215155E+02  0.71273094549E+02  0.47000000000E+01 0.  1.
         -5    1    5    5    0  503  0.23316660896E+02 -0.67001579638E+02 -0.36553963005E+01  0.71192206536E+02  0.47000000000E+01 0.  1.
<mgrwt>
<rscale>  0 0.27631643E+03</rscale>
<asrwt>0</asrwt>
<pdfrwt beam="1">  1        2 0.23148569E-01 0.27631643E+03</pdfrwt>
<pdfrwt beam="2">  1       -2 0.19516527E-01 0.27631643E+03</pdfrwt>
<totfact> 0.51125616E+03</totfact>
</mgrwt>
</event>
<event>
 9    1  0.7957670E-001  0.2716297E+03  0.7818608E-02  0.1100351E+00
          1   -1    0    0  501    0  0.00000000000E+00  0.00000000000E+00  0.16072634819E+04  0.16072634819E+04  0.00000000000E+00 0.  1.
         -1   -1    0    0    0  501 -0.00000000000E+00 -0.00000000000E+00 -0.11476443925E+02  0.11476443925E+02  0.00000000000E+00 0.  1.
         35    2    1    2    0    0  0.00000000000E+00 -0.71054273576E-14  0.15957870379E+04  0.16187399258E+04  0.27162966865E+03 0.  0.
         25    2    3    3    0    0  0.42273369663E+02  0.24931978342E+02  0.91900843159E+03  0.92875763126E+03  0.12492237176E+03 0.  0.
         25    2    3    3    0    0 -0.42273369663E+02 -0.24931978342E+02  0.67677860636E+03  0.68998229454E+03  0.12505056346E+03 0.  0.
          5    1    4    4  502    0  0.15200458650E+02  0.72517838849E+02  0.39851402860E+03  0.40537070921E+03  0.47000000000E+01 0. -1.
         -5    1    4    4    0  502  0.27072911013E+02 -0.47585860506E+02  0.52049440299E+03  0.52338692205E+03  0.47000000000E+01 0. -1.
          5    1    5    5  503    0  0.31784110169E+02 -0.46867337965E+02  0.27150573856E+03  0.27738823532E+03  0.47000000000E+01 0. -1.
         -5    1    5    5    0  503 -0.74057479832E+02  0.21935359623E+02  0.40527286780E+03  0.41259405921E+03  0.47000000000E+01 0. -1.
<mgrwt>
<rscale>  0 0.27162967E+03</rscale>
<asrwt>0</asrwt>
<pdfrwt beam="1">  1        1 0.24727113E+00 0.27162967E+03</pdfrwt>
<pdfrwt beam="2">  1       -1 0.17656080E-02 0.27162967E+03</pdfrwt>
<totfact> 0.50021424E+03</totfact>
</mgrwt>
</event>
<event>
 9    1  0.7957670E-001  0.2708025E+03  0.7818608E-02  0.1100821E+00
          3   -1    0    0  501    0  0.00000000000E+00  0.00000000000E+00  0.14060357452E+03  0.14060357452E+03  0.00000000000E+00 0. -1.
         -3   -1    0    0    0  501 -0.00000000000E+00 -0.00000000000E+00 -0.13039138156E+03  0.13039138156E+03  0.00000000000E+00 0. -1.
         35    2    1    2    0    0  0.00000000000E+00  0.00000000000E+00  0.10212192954E+02  0.27099495608E+03  0.27080246922E+03 0.  0.
         25    2    3    3    0    0  0.26427441921E+01 -0.50110426576E+02  0.16387626137E+02  0.13556961953E+03  0.12487004645E+03 0.  0.
         25    2    3    3    0    0 -0.26427441921E+01  0.50110426576E+02 -0.61754331826E+01  0.13542533656E+03  0.12563378072E+03 0.  0.
          5    1    4    4  502    0  0.34083392157E+02 -0.25141382937E+02 -0.45059735594E+02  0.62018033899E+02  0.47000000000E+01 0. -1.
         -5    1    4    4    0  502 -0.31440647965E+02 -0.24969043639E+02  0.61447361731E+02  0.73551585628E+02  0.47000000000E+01 0. -1.
          5    1    5    5  503    0  0.13474796053E+02 -0.54484727419E+01 -0.56547732195E+02  0.58574670296E+02  0.47000000000E+01 0.  1.
         -5    1    5    5    0  503 -0.16117540245E+02  0.55558899317E+02  0.50372299013E+02  0.76850666261E+02  0.47000000000E+01 0.  1.
<mgrwt>
<rscale>  0 0.27080247E+03</rscale>
<asrwt>0</asrwt>
<pdfrwt beam="1">  1        3 0.21631319E-01 0.27080247E+03</pdfrwt>
<pdfrwt beam="2">  1       -3 0.20060212E-01 0.27080247E+03</pdfrwt>
<totfact> 0.11060569E+03</totfact>
</mgrwt>
</event>
<event>
 9    1  0.7957670E-001  0.2795582E+03  0.7818608E-02  0.1095930E+00
          1   -1    0    0  501    0  0.00000000000E+00  0.00000000000E+00  0.69401914510E+03  0.69401914510E+03  0.00000000000E+00 0.  1.
         -1   -1    0    0    0  501 -0.00000000000E+00 -0.00000000000E+00 -0.28152241249E+02  0.28152241249E+02  0.00000000000E+00 0.  1.
         35    2    1    2    0    0  0.00000000000E+00  0.00000000000E+00  0.66586690385E+03  0.72217138635E+03  0.27955818288E+03 0.  0.
         25    2    3    3    0    0 -0.18321706365E+02 -0.74696165246E+01  0.18067174055E+03  0.22068436610E+03  0.12517120881E+03 0.  0.
         25    2    3    3    0    0  0.18321706365E+02  0.74696165246E+01  0.48519516330E+03  0.50148702024E+03  0.12523340165E+03 0.  0.
          5    1    4    4  502    0 -0.57987588910E+02  0.29505766464E+02  0.61416292313E+02  0.89594652093E+02  0.47000000000E+01 0. -1.
         -5    1    4    4    0  502  0.39665882544E+02 -0.36975382989E+02  0.11925544824E+03  0.13108971401E+03  0.47000000000E+01 0. -1.
          5    1    5    5  503    0  0.31220196086E+02  0.62409915582E+02  0.28257392678E+03  0.29110103453E+03  0.47000000000E+01 0. -1.
         -5    1    5    5    0  503 -0.12898489721E+02 -0.54940299057E+02  0.20262123652E+03  0.21038598572E+03  0.47000000000E+01 0. -1.
<mgrwt>
<rscale>  0 0.27955818E+03</rscale>
<asrwt>0</asrwt>
<pdfrwt beam="1">  1        1 0.10677216E+00 0.27955818E+03</pdfrwt>
<pdfrwt beam="2">  1       -1 0.43311146E-02 0.27955818E+03</pdfrwt>
<totfact> 0.62199104E+03</totfact>
</mgrwt>
</event>
<event>
 9    1  0.7957670E-001  0.2732028E+03  0.7818608E-02  0.1099460E+00
          1   -1    0    0  501    0  0.00000000000E+00  0.00000000000E+00  0.39854321200E+03  0.39854321200E+03  0.00000000000E+00 0.  1.
         -1   -1    0    0    0  501 -0.00000000000E+00 -0.00000000000E+00 -0.46820368894E+02  0.46820368894E+02  0.00000000000E+00 0.  1.
         35    2    1    2    0    0 -0.35527136788E-14  0.00000000000E+00  0.35172284311E+03  0.44536358090E+03  0.27320278334E+03 0.  0.
         25    2    3    3    0    0  0.72034208207E+01 -0.51133518957E+02  0.20131404722E+03  0.24253689058E+03  0.12502108483E+03 0.  0.
         25    2    3    3    0    0 -0.72034208207E+01  0.51133518957E+02  0.15040879588E+03  0.20282669031E+03  0.12589413962E+03 0.  0.
          5    1    4    4  502    0  0.50012383421E+02 -0.12297077209E+02  0.16773276970E+03  0.17552443886E+03  0.47000000000E+01 0. -1.
         -5    1    4    4    0  502 -0.42808962600E+02 -0.38836441748E+02  0.33581277522E+02  0.67012451728E+02  0.47000000000E+01 0. -1.
          5    1    5    5  503    0  0.95632284933E+01 -0.18205222876E+02  0.12528566626E+03  0.12704909936E+03  0.47000000000E+01 0. -1.
         -5    1    5    5    0  503 -0.16766649314E+02  0.69338741833E+02  0.25123129627E+02  0.75777590952E+02  0.47000000000E+01 0. -1.
<mgrwt>
<rscale>  0 0.27320278E+03</rscale>
<asrwt>0</asrwt>
<pdfrwt beam="1">  1        1 0.61314338E-01 0.27320278E+03</pdfrwt>
<pdfrwt beam="2">  1       -1 0.72031340E-02 0.27320278E+03</pdfrwt>
<totfact> 0.61192375E+03</totfact>
</mgrwt>
</event>
<event>
 9    1  0.7957670E-001  0.2790833E+03  0.7818608E-02  0.1096191E+00
         -1   -1    0    0    0  501 -0.00000000000E+00  0.00000000000E+00  0.21226101449E+04  0.21226101449E+04  0.00000000000E+00 0.  1.
          1   -1    0    0  501    0  0.00000000000E+00 -0.00000000000E+00 -0.91735533830E+01  0.91735533830E+01  0.00000000000E+00 0.  1.
         35    2    1    2    0    0  0.71054273576E-14  0.00000000000E+00  0.21134365915E+04  0.21317836982E+04  0.27908333863E+03 0.  0.
         25    2    3    3    0    0 -0.37169689491E+02 -0.14176204435E+02  0.66624958011E+03  0.67868330790E+03  0.12304462134E+03 0.  0.
         25    2    3    3    0    0  0.37169689491E+02  0.14176204435E+02  0.14471870114E+04  0.14531003903E+04  0.12477158309E+03 0.  0.
          5    1    4    4  502    0  0.19367954727E+02 -0.54871614530E+02  0.25956733387E+03  0.26605131565E+03  0.47000000000E+01 0.  1.
         -5    1    4    4    0  502 -0.56537644218E+02  0.40695410095E+02  0.40668224624E+03  0.41263199224E+03  0.47000000000E+01 0.  1.
          5    1    5    5  503    0 -0.40276851872E+02  0.31448597061E+02  0.60269817967E+03  0.60487885137E+03  0.47000000000E+01 0. -1.
         -5    1    5    5    0  503  0.77446541363E+02 -0.17272392626E+02  0.84448883170E+03  0.84822153898E+03  0.47000000000E+01 0. -1.
<mgrwt>
<rscale>  0 0.27908334E+03</rscale>
<asrwt>0</asrwt>
<pdfrwt beam="1">  1        1 0.14113176E-02 0.27908334E+03</pdfrwt>
<pdfrwt beam="2">  1       -1 0.32655502E+00 0.27908334E+03</pdfrwt>
<totfact> 0.26095088E+02</totfact>
</mgrwt>
</event>
<event>
 9    1  0.7957670E-001  0.2737272E+03  0.7818608E-02  0.1099165E+00
         -2   -1    0    0    0  501 -0.00000000000E+00  0.00000000000E+00  0.28864699502E+02  0.28864699502E+02  0.00000000000E+00 0.  1.
          2   -1    0    0  501    0  0.00000000000E+00 -0.00000000000E+00 -0.64894651959E+03  0.64894651959E+03  0.00000000000E+00 0.  1.
         35    2    1    2    0    0 -0.71054273576E-14  0.00000000000E+00 -0.62008182009E+03  0.67781121909E+03  0.27372720932E+03 0.  0.
         25    2    3    3    0    0 -0.10011528820E+02 -0.54464280643E+02 -0.29513328337E+03  0.32521040016E+03  0.12486617174E+03 0.  0.
         25    2    3    3    0    0  0.10011528820E+02  0.54464280643E+02 -0.32494853672E+03  0.35260081893E+03  0.12517666484E+03 0.  0.
          5    1    4    4  502    0 -0.63624991004E+02 -0.11341594567E+02 -0.17608404891E+03  0.18762849871E+03  0.47000000000E+01 0. -1.
         -5    1    4    4    0  502  0.53613462184E+02 -0.43122686076E+02 -0.11904923446E+03  0.13758190145E+03  0.47000000000E+01 0. -1.
          5    1    5    5  503    0  0.66930607606E+02  0.35846958524E+02 -0.16321789171E+03  0.18007465353E+03  0.47000000000E+01 0. -1.
         -5    1    5    5    0  503 -0.56919078786E+02  0.18617322119E+02 -0.16173064501E+03  0.17252616540E+03  0.47000000000E+01 0. -1.
<mgrwt>
<rscale>  0 0.27372721E+03</rscale>
<asrwt>0</asrwt>
<pdfrwt beam="1">  1        2 0.99837928E-01 0.27372721E+03</pdfrwt>
<pdfrwt beam="2">  1       -2 0.44407229E-02 0.27372721E+03</pdfrwt>
<totfact> 0.10734815E+04</totfact>
</mgrwt>
</event>
<event>
 9    1  0.7957670E-001  0.2729522E+03  0.7818608E-02  0.1099602E+00
          1   -1    0    0  501    0  0.00000000000E+00  0.00000000000E+00  0.28946563395E+02  0.28946563395E+02  0.00000000000E+00 0. -1.
         -1   -1    0    0    0  501 -0.00000000000E+00 -0.00000000000E+00 -0.64345212944E+03  0.64345212944E+03  0.00000000000E+00 0. -1.
         35    2    1    2    0    0  0.00000000000E+00  0.00000000000E+00 -0.61450556605E+03  0.67239869284E+03  0.27295221455E+03 0.  0.
         25    2    3    3    0    0 -0.37789115918E+02  0.34967174992E+02 -0.26401609469E+03  0.29692804892E+03  0.12574198732E+03 0.  0.
         25    2    3    3    0    0  0.37789115918E+02 -0.34967174992E+02 -0.35048947136E+03  0.37547064392E+03  0.12443719017E+03 0.  0.
          5    1    4    4  502    0  0.83400502829E+01  0.63306879894E+02 -0.67496392713E+02  0.93033168869E+02  0.47000000000E+01 0.  1.
         -5    1    4    4    0  502 -0.46129166201E+02 -0.28339704903E+02 -0.19651970197E+03  0.20389488005E+03  0.47000000000E+01 0.  1.
          5    1    5    5  503    0  0.43013729579E+02  0.28557934261E+02 -0.25729365344E+03  0.26246495127E+03  0.47000000000E+01 0.  1.
         -5    1    5    5    0  503 -0.52246136602E+01 -0.63525109252E+02 -0.93195817919E+02  0.11300569265E+03  0.47000000000E+01 0.  1.
<mgrwt>
<rscale>  0 0.27295221E+03</rscale>
<asrwt>0</asrwt>
<pdfrwt beam="1">  1        1 0.44533177E-02 0.27295221E+03</pdfrwt>
<pdfrwt beam="2">  1       -1 0.98992630E-01 0.27295221E+03</pdfrwt>
<totfact> 0.20144496E+03</totfact>
</mgrwt>
</event>
<event>
 9    1  0.7957670E-001  0.2628718E+03  0.7818608E-02  0.1105430E+00
          1   -1    0    0  501    0  0.00000000000E+00  0.00000000000E+00  0.67336407727E+03  0.67336407727E+03  0.00000000000E+00 0.  1.
         -1   -1    0    0    0  501 -0.00000000000E+00 -0.00000000000E+00 -0.25655354171E+02  0.25655354171E+02  0.00000000000E+00 0.  1.
         35    2    1    2    0    0 -0.10658141036E-13  0.00000000000E+00  0.64770872310E+03  0.69901943144E+03  0.26287178539E+03 0.  0.
         25    2    3    3    0    0  0.21146148056E+02 -0.29543731716E+02  0.38221323971E+03  0.40362792902E+03  0.12453334017E+03 0.  0.
         25    2    3    3    0    0 -0.21146148056E+02  0.29543731716E+02  0.26549548339E+03  0.29539150242E+03  0.12429117564E+03 0.  0.
          5    1    4    4  502    0 -0.25760237384E+02  0.38720412514E+02  0.14131950614E+03  0.14884943060E+03  0.47000000000E+01 0. -1.
         -5    1    4    4    0  502  0.46906385440E+02 -0.68264144229E+02  0.24089373356E+03  0.25477849841E+03  0.47000000000E+01 0. -1.
          5    1    5    5  503    0  0.44902655754E+02  0.25216949636E+02  0.17932264542E+03  0.18663023390E+03  0.47000000000E+01 0. -1.
         -5    1    5    5    0  503 -0.66048803810E+02  0.43267820798E+01  0.86172837970E+02  0.10876126853E+03  0.47000000000E+01 0. -1.
<mgrwt>
<rscale>  0 0.26287179E+03</rscale>
<asrwt>0</asrwt>
<pdfrwt beam="1">  1        1 0.10359446E+00 0.26287179E+03</pdfrwt>
<pdfrwt beam="2">  1       -1 0.39469781E-02 0.26287179E+03</pdfrwt>
<totfact> 0.74478306E+03</totfact>
</mgrwt>
</event>
<event>
 9    1  0.7957670E-001  0.2772302E+03  0.7818608E-02  0.1097211E+00
          2   -1    0    0  501    0  0.00000000000E+00  0.00000000000E+00  0.72680551811E+03  0.72680551811E+03  0.00000000000E+00 0.  1.
         -2   -1    0    0    0  501 -0.00000000000E+00 -0.00000000000E+00 -0.26436426799E+02  0.26436426799E+02  0.00000000000E+00 0.  1.
         35    2    1    2    0    0  0.00000000000E+00  0.00000000000E+00  0.70036909131E+03  0.75324194490E+03  0.27723016341E+03 0.  0.
         25    2    3    3    0    0 -0.35672764761E+02  0.23206733796E+02  0.45920695863E+03  0.47782601792E+03  0.12504228847E+03 0.  0.
         25    2    3    3    0    0  0.35672764761E+02 -0.23206733796E+02  0.24116213268E+03  0.27541592699E+03  0.12603039301E+03 0.  0.
          5    1    4    4  502    0 -0.28547715276E+02  0.40664076285E+02  0.45527217688E+03  0.45799932772E+03  0.47000000000E+01 0.  1.
         -5    1    4    4    0  502 -0.71250494846E+01 -0.17457342488E+02  0.39347817494E+01  0.19826690201E+02  0.47000000000E+01 0.  1.
          5    1    5    5  503    0  0.26941378434E+02 -0.70475391294E+02  0.19269470252E+03  0.20699264970E+03  0.47000000000E+01 0. -1.
         -5    1    5    5    0  503  0.87313863265E+01  0.47268657497E+02  0.48467430154E+02  0.68423277285E+02  0.47000000000E+01 0. -1.
<mgrwt>
<rscale>  0 0.27723016E+03</rscale>
<asrwt>0</asrwt>
<pdfrwt beam="1">  1        2 0.11181622E+00 0.27723016E+03</pdfrwt>
<pdfrwt beam="2">  1       -2 0.40671431E-02 0.27723016E+03</pdfrwt>
<totfact> 0.10694915E+04</totfact>
</mgrwt>
</event>
<event>
 9    1  0.7957670E-001  0.2774010E+03  0.7818608E-02  0.1097117E+00
          2   -1    0    0  501    0  0.00000000000E+00  0.00000000000E+00  0.18079281743E+04  0.18079281743E+04  0.00000000000E+00 0. -1.
         -2   -1    0    0    0  501 -0.00000000000E+00 -0.00000000000E+00 -0.10640818201E+02  0.10640818201E+02  0.00000000000E+00 0. -1.
         35    2    1    2    0    0  0.35527136788E-14  0.71054273576E-14  0.17972873561E+04  0.18185689925E+04  0.27740104558E+03 0.  0.
         25    2    3    3    0    0 -0.34025194477E+01 -0.56450398447E+02  0.10290358442E+04  0.10380656124E+04  0.12436728810E+03 0.  0.
         25    2    3    3    0    0  0.34025194477E+01  0.56450398447E+02  0.76825151186E+03  0.78050338007E+03  0.12560619495E+03 0.  0.
          5    1    4    4  502    0  0.53123564663E+02 -0.47351924298E+01  0.58493170639E+03  0.58737698824E+03  0.47000000000E+01 0.  1.
         -5    1    4    4    0  502 -0.56526084111E+02 -0.51715206017E+02  0.44410413780E+03  0.45068862414E+03  0.47000000000E+01 0.  1.
          5    1    5    5  503    0  0.29098266028E+02  0.16647299960E+02  0.67456493138E+03  0.67541378305E+03  0.47000000000E+01 0.  1.
         -5    1    5    5    0  503 -0.25695746580E+02  0.39803098486E+02  0.93686580480E+02  0.10508959703E+03  0.47000000000E+01 0.  1.
<mgrwt>
<rscale>  0 0.27740105E+03</rscale>
<asrwt>0</asrwt>
<pdfrwt beam="1">  1        2 0.27814255E+00 0.27740105E+03</pdfrwt>
<pdfrwt beam="2">  1       -2 0.16370504E-02 0.27740105E+03</pdfrwt>
<totfact> 0.97300931E+03</totfact>
</mgrwt>
</event>
<event>
 9    1  0.7957670E-001  0.2761898E+03  0.7818608E-02  0.1097788E+00
         -1   -1    0    0    0  501 -0.00000000000E+00  0.00000000000E+00  0.83775791603E+02  0.83775791603E+02  0.00000000000E+00 0. -1.
          1   -1    0    0  501    0  0.00000000000E+00 -0.00000000000E+00 -0.22763373343E+03  0.22763373343E+03  0.00000000000E+00 0. -1.
         35    2    1    2    0    0 -0.17763568394E-14  0.00000000000E+00 -0.14385794183E+03  0.31140952504E+03  0.27618976240E+03 0.  0.
         25    2    3    3    0    0  0.39778348193E+01  0.31283545172E+02 -0.12966852141E+03  0.18163627611E+03  0.12322064756E+03 0.  0.
         25    2    3    3    0    0 -0.39778348193E+01 -0.31283545172E+02 -0.14189420423E+02  0.12977324893E+03  0.12508106618E+03 0.  0.
          5    1    4    4  502    0  0.58863479433E+02  0.31444807759E+02 -0.96211184240E+02  0.11718518302E+03  0.47000000000E+01 0.  1.
         -5    1    4    4    0  502 -0.54885644614E+02 -0.16126258629E+00 -0.33457337166E+02  0.64451093090E+02  0.47000000000E+01 0.  1.
          5    1    5    5  503    0 -0.13946489035E+02 -0.57054690508E+02 -0.54775136809E+02  0.80449660521E+02  0.47000000000E+01 0.  1.
         -5    1    5    5    0  503  0.99686542162E+01  0.25771145336E+02  0.40585716386E+02  0.49323588407E+02  0.47000000000E+01 0.  1.
<mgrwt>
<rscale>  0 0.27618976E+03</rscale>
<asrwt>0</asrwt>
<pdfrwt beam="1">  1        1 0.35020574E-01 0.27618976E+03</pdfrwt>
<pdfrwt beam="2">  1       -1 0.12888583E-01 0.27618976E+03</pdfrwt>
<totfact> 0.50568895E+03</totfact>
</mgrwt>
</event>
<event>
 9    1  0.7957670E-001  0.2744364E+03  0.7818608E-02  0.1098767E+00
          2   -1    0    0  501    0  0.00000000000E+00  0.00000000000E+00  0.28815074343E+04  0.28815074343E+04  0.00000000000E+00 0. -1.
         -2   -1    0    0    0  501 -0.00000000000E+00 -0.00000000000E+00 -0.65343695732E+01  0.65343695732E+01  0.00000000000E+00 0. -1.
         35    2    1    2    0    0  0.00000000000E+00  0.00000000000E+00  0.28749730647E+04  0.28880418039E+04  0.27443640067E+03 0.  0.
         25    2    3    3    0    0 -0.32843726370E+02 -0.38788926066E+01  0.96470440212E+03  0.97328740572E+03  0.12465967474E+03 0.  0.
         25    2    3    3    0    0  0.32843726370E+02  0.38788926066E+01  0.19102686626E+04  0.19147543981E+04  0.12674496328E+03 0.  0.
          5    1    4    4  502    0 -0.24611632146E+02  0.58629033265E+02  0.56949690844E+03  0.57305489676E+03  0.47000000000E+01 0.  1.
         -5    1    4    4    0  502 -0.82320942240E+01 -0.62507925871E+02  0.39520749368E+03  0.40023250897E+03  0.47000000000E+01 0.  1.
          5    1    5    5  503    0 -0.78751434351E+01 -0.56501518523E+02  0.73822183442E+03  0.74043771264E+03  0.47000000000E+01 0. -1.
         -5    1    5    5    0  503  0.40718869806E+02  0.60380411130E+02  0.11720468282E+04  0.11743166855E+04  0.47000000000E+01 0. -1.
<mgrwt>
<rscale>  0 0.27443640E+03</rscale>
<asrwt>0</asrwt>
<pdfrwt beam="1">  1        2 0.44330782E+00 0.27443640E+03</pdfrwt>
<pdfrwt beam="2">  1       -2 0.10052899E-02 0.27443640E+03</pdfrwt>
<totfact> 0.51737742E+03</totfact>
</mgrwt>
</event>
<event>
 9    1  0.7957670E-001  0.2725302E+03  0.7818608E-02  0.1099840E+00
         -1   -1    0    0    0  501 -0.00000000000E+00  0.00000000000E+00  0.64364511096E+03  0.64364511096E+03  0.00000000000E+00 0. -1.
          1   -1    0    0  501    0  0.00000000000E+00 -0.00000000000E+00 -0.28848464235E+02  0.28848464235E+02  0.00000000000E+00 0. -1.
         35    2    1    2    0    0  0.71054273576E-14  0.35527136788E-14  0.61479664673E+03  0.67249357520E+03  0.27253016687E+03 0.  0.
         25    2    3    3    0    0 -0.50957023402E+02 -0.10141306450E+01  0.33405645131E+03  0.36075404179E+03  0.12630169954E+03 0.  0.
         25    2    3    3    0    0  0.50957023402E+02  0.10141306450E+01  0.28074019541E+03  0.31173953341E+03  0.12557401274E+03 0.  0.
          5    1    4    4  502    0  0.34008987966E+02 -0.30449928668E+02  0.12360928480E+03  0.13185277664E+03  0.47000000000E+01 0.  1.
         -5    1    4    4    0  502 -0.84966011368E+02  0.29435798023E+02  0.21044716651E+03  0.22890126515E+03  0.47000000000E+01 0.  1.
          5    1    5    5  503    0  0.44397614256E+02 -0.59216113968E+02  0.16868723127E+03  0.18426928202E+03  0.47000000000E+01 0.  1.
         -5    1    5    5    0  503  0.65594091463E+01  0.60230244613E+02  0.11205296415E+03  0.12747025139E+03  0.47000000000E+01 0.  1.
<mgrwt>
<rscale>  0 0.27253017E+03</rscale>
<asrwt>0</asrwt>
<pdfrwt beam="1">  1        1 0.44382258E-02 0.27253017E+03</pdfrwt>
<pdfrwt beam="2">  1       -1 0.99022314E-01 0.27253017E+03</pdfrwt>
<totfact> 0.20225733E+03</totfact>
</mgrwt>
</event>
<event>
 9    1  0.7957670E-001  0.2755391E+03  0.7818608E-02  0.1098151E+00
          1   -1    0    0  501    0  0.00000000000E+00  0.00000000000E+00  0.25385720630E+03  0.25385720630E+03  0.00000000000E+00 0.  1.
         -1   -1    0    0    0  501 -0.00000000000E+00 -0.00000000000E+00 -0.74768195801E+02  0.74768195801E+02  0.00000000000E+00 0.  1.
         35    2    1    2    0    0 -0.35527136788E-14  0.00000000000E+00  0.17908901050E+03  0.32862540210E+03  0.27553907386E+03 0.  0.
         25    2    3    3    0    0  0.31683448932E+02  0.12977594586E+02  0.13168138014E+03  0.19130515978E+03  0.13448204113E+03 0.  0.
         25    2    3    3    0    0 -0.31683448932E+02 -0.12977594586E+02  0.47407630358E+02  0.13732024232E+03  0.12424615341E+03 0.  0.
          5    1    4    4  502    0  0.92262554584E+01 -0.54037957751E+01 -0.27265783708E+02  0.29662059264E+02  0.47000000000E+01 0.  1.
         -5    1    4    4    0  502  0.22457193473E+02  0.18381390361E+02  0.15894716385E+03  0.16164310052E+03  0.47000000000E+01 0.  1.
          5    1    5    5  503    0 -0.65781337837E+02  0.69164322986E+00  0.68178497471E+02  0.94858106113E+02  0.47000000000E+01 0. -1.
         -5    1    5    5    0  503  0.34097888905E+02 -0.13669237816E+02 -0.20770867113E+02  0.42462136203E+02  0.47000000000E+01 0. -1.
<mgrwt>
<rscale>  0 0.27553907E+03</rscale>
<asrwt>0</asrwt>
<pdfrwt beam="1">  1        1 0.39054954E-01 0.27553907E+03</pdfrwt>
<pdfrwt beam="2">  1       -1 0.11502799E-01 0.27553907E+03</pdfrwt>
<totfact> 0.52677370E+03</totfact>
</mgrwt>
</event>
<event>
 9    1  0.7957670E-001  0.2728162E+03  0.7818608E-02  0.1099679E+00
          3   -1    0    0  501    0  0.00000000000E+00  0.00000000000E+00  0.56776857807E+02  0.56776857807E+02  0.00000000000E+00 0. -1.
         -3   -1    0    0    0  501 -0.00000000000E+00 -0.00000000000E+00 -0.32772450653E+03  0.32772450653E+03  0.00000000000E+00 0. -1.
         35    2    1    2    0    0 -0.71054273576E-14  0.00000000000E+00 -0.27094764872E+03  0.38450136433E+03  0.27281618506E+03 0.  0.
         25    2    3    3    0    0 -0.21369817203E+02 -0.49541375888E+02 -0.11904499504E+03  0.18074892308E+03  0.12484969099E+03 0.  0.
         25    2    3    3    0    0  0.21369817203E+02  0.49541375888E+02 -0.15190265368E+03  0.20375244125E+03  0.12461791247E+03 0.  0.
          5    1    4    4  502    0 -0.40354645478E+02 -0.48589783093E+02 -0.33679672374E+01  0.63426316588E+02  0.47000000000E+01 0.  1.
         -5    1    4    4    0  502  0.18984828276E+02 -0.95159279527E+00 -0.11567702780E+03  0.11732260649E+03  0.47000000000E+01 0.  1.
          5    1    5    5  503    0 -0.23895671095E+02  0.71180979537E+02 -0.12683873009E+03  0.14747165285E+03  0.47000000000E+01 0. -1.
         -5    1    5    5    0  503  0.45265488297E+02 -0.21639603649E+02 -0.25063923591E+02  0.56280788397E+02  0.47000000000E+01 0. -1.
<mgrwt>
<rscale>  0 0.27281619E+03</rscale>
<asrwt>0</asrwt>
<pdfrwt beam="1">  1        3 0.87349012E-02 0.27281619E+03</pdfrwt>
<pdfrwt beam="2">  1       -3 0.50419155E-01 0.27281619E+03</pdfrwt>
<totfact> 0.92129056E+02</totfact>
</mgrwt>
</event>
<event>
 9    1  0.7957670E-001  0.2770978E+03  0.7818608E-02  0.1097285E+00
          2   -1    0    0  501    0  0.00000000000E+00  0.00000000000E+00  0.47561324971E+03  0.47561324971E+03  0.00000000000E+00 0. -1.
         -2   -1    0    0    0  501 -0.00000000000E+00 -0.00000000000E+00 -0.40360095461E+02  0.40360095461E+02  0.00000000000E+00 0. -1.
         35    2    1    2    0    0  0.00000000000E+00  0.71054273576E-14  0.43525315425E+03  0.51597334517E+03  0.27709778895E+03 0.  0.
         25    2    3    3    0    0  0.61247956394E+02  0.72554725241E+01  0.15879289874E+03  0.20579193641E+03  0.11546073946E+03 0.  0.
         25    2    3    3    0    0 -0.61247956394E+02 -0.72554725241E+01  0.27646025551E+03  0.31018140876E+03  0.12640521911E+03 0.  0.
          5    1    4    4  502    0  0.72372118375E+02 -0.25813141799E+02  0.15135930972E+03  0.16981099036E+03  0.47000000000E+01 0. -1.
         -5    1    4    4    0  502 -0.11124161981E+02  0.33068614323E+02  0.74335890173E+01  0.35980946051E+02  0.47000000000E+01 0. -1.
          5    1    5    5  503    0 -0.80823071031E+02 -0.35106751374E+02  0.25458442725E+03  0.26944419348E+03  0.47000000000E+01 0. -1.
         -5    1    5    5    0  503  0.19575114637E+02  0.27851278850E+02  0.21875828265E+02  0.40737215282E+02  0.47000000000E+01 0. -1.
<mgrwt>
<rscale>  0 0.27709779E+03</rscale>
<asrwt>0</asrwt>
<pdfrwt beam="1">  1        2 0.73171265E-01 0.27709779E+03</pdfrwt>
<pdfrwt beam="2">  1       -2 0.62092458E-02 0.27709779E+03</pdfrwt>
<totfact> 0.91938621E+03</totfact>
</mgrwt>
</event>
<event>
 9    1  0.7957670E-001  0.2752963E+03  0.7818608E-02  0.1098286E+00
         -2   -1    0    0    0  501 -0.00000000000E+00  0.00000000000E+00  0.62860319262E+03  0.62860319262E+03  0.00000000000E+00 0.  1.
          2   -1    0    0  501    0  0.00000000000E+00 -0.00000000000E+00 -0.30141443415E+02  0.30141443415E+02  0.00000000000E+00 0.  1.
         35    2    1    2    0    0  0.00000000000E+00 -0.17763568394E-14  0.59846174921E+03  0.65874463604E+03  0.27529625905E+03 0.  0.
         25    2    3    3    0    0  0.61586486045E+00  0.15196448218E+02  0.16455807367E+03  0.20701654563E+03  0.12468030809E+03 0.  0.
         25    2    3    3    0    0 -0.61586486045E+00 -0.15196448218E+02  0.43390367554E+03  0.45172809041E+03  0.12471790848E+03 0.  0.
          5    1    4    4  502    0  0.56310729746E+02  0.21992368609E+02  0.47164705670E+02  0.76819021229E+02  0.47000000000E+01 0.  1.
         -5    1    4    4    0  502 -0.55694864886E+02 -0.67959203908E+01  0.11739336800E+03  0.13019752440E+03  0.47000000000E+01 0.  1.
          5    1    5    5  503    0  0.41729553191E+02  0.34880596341E+02  0.13382951901E+03  0.14453526134E+03  0.47000000000E+01 0.  1.
         -5    1    5    5    0  503 -0.42345418051E+02 -0.50077044559E+02  0.30007415652E+03  0.30719282907E+03  0.47000000000E+01 0.  1.
<mgrwt>
<rscale>  0 0.27529626E+03</rscale>
<asrwt>0</asrwt>
<pdfrwt beam="1">  1        2 0.46371456E-02 0.27529626E+03</pdfrwt>
<pdfrwt beam="2">  1       -2 0.96708174E-01 0.27529626E+03</pdfrwt>
<totfact> 0.16097366E+03</totfact>
</mgrwt>
</event>
<event>
 9    1  0.7957670E-001  0.2765676E+03  0.7818608E-02  0.1097579E+00
         -2   -1    0    0    0  501 -0.00000000000E+00  0.00000000000E+00  0.17873267911E+02  0.17873267911E+02  0.00000000000E+00 0. -1.
          2   -1    0    0  501    0  0.00000000000E+00 -0.00000000000E+00 -0.10698884932E+04  0.10698884932E+04  0.00000000000E+00 0. -1.
         35    2    1    2    0    0  0.71054273576E-14  0.00000000000E+00 -0.10520152253E+04  0.10877617611E+04  0.27656755901E+03 0.  0.
         25    2    3    3    0    0  0.37345171603E+02  0.16763499166E+02 -0.36041188605E+03  0.38375622941E+03  0.12528543113E+03 0.  0.
         25    2    3    3    0    0 -0.37345171603E+02 -0.16763499166E+02 -0.69160333921E+03  0.70400553168E+03  0.12503172829E+03 0.  0.
          5    1    4    4  502    0  0.70600878636E+02  0.48327486745E+02 -0.23802452859E+03  0.25297785723E+03  0.47000000000E+01 0. -1.
         -5    1    4    4    0  502 -0.33255707033E+02 -0.31563987579E+02 -0.12238735746E+03  0.13077837218E+03  0.47000000000E+01 0. -1.
          5    1    5    5  503    0  0.40807553441E+01 -0.17169467684E+02 -0.62605044309E+03  0.62631676528E+03  0.47000000000E+01 0.  1.
         -5    1    5    5    0  503 -0.41425926947E+02  0.40596851797E+00 -0.65552896122E+02  0.77688766394E+02  0.47000000000E+01 0.  1.
<mgrwt>
<rscale>  0 0.27656756E+03</rscale>
<asrwt>0</asrwt>
<pdfrwt beam="1">  1        2 0.16459825E+00 0.27656756E+03</pdfrwt>
<pdfrwt beam="2">  1       -2 0.27497333E-02 0.27656756E+03</pdfrwt>
<totfact> 0.11462976E+04</totfact>
</mgrwt>
</event>
<event>
 9    1  0.7957670E-001  0.2779801E+03  0.7818608E-02  0.1096797E+00
         -2   -1    0    0    0  501 -0.00000000000E+00  0.00000000000E+00  0.14378044534E+03  0.14378044534E+03  0.00000000000E+00 0.  1.
          2   -1    0    0  501    0  0.00000000000E+00 -0.00000000000E+00 -0.13435927217E+03  0.13435927217E+03  0.00000000000E+00 0.  1.
         35    2    1    2    0    0  0.35527136788E-14 -0.14210854715E-13  0.94211731658E+01  0.27813971751E+03  0.27798011432E+03 0.  0.
         25    2    3    3    0    0 -0.28971208737E+02 -0.53502987155E+02 -0.76042938612E+01  0.13844658753E+03  0.12412788463E+03 0.  0.
         25    2    3    3    0    0  0.28971208737E+02  0.53502987155E+02  0.17025467027E+02  0.13969312999E+03  0.12458893798E+03 0.  0.
          5    1    4    4  502    0 -0.48156384058E+02  0.26837755138E+02  0.35831738825E+00  0.55331011357E+02  0.47000000000E+01 0. -1.
         -5    1    4    4    0  502  0.19185175321E+02 -0.80340742293E+02 -0.79626112494E+01  0.83115576171E+02  0.47000000000E+01 0. -1.
          5    1    5    5  503    0  0.65695283949E+02  0.71232521484E+02  0.60636022445E+01  0.97204936718E+02  0.47000000000E+01 0.  1.
         -5    1    5    5    0  503 -0.36724075212E+02 -0.17729534329E+02  0.10961864783E+02  0.42488193269E+02  0.47000000000E+01 0.  1.
<mgrwt>
<rscale>  0 0.27798011E+03</rscale>
<asrwt>0</asrwt>
<pdfrwt beam="1">  1        2 0.20670657E-01 0.27798011E+03</pdfrwt>
<pdfrwt beam="2">  1       -2 0.22120069E-01 0.27798011E+03</pdfrwt>
<totfact> 0.46876567E+03</totfact>
</mgrwt>
</event>
<event>
 9    1  0.7957670E-001  0.2730855E+03  0.7818608E-02  0.1099527E+00
         -2   -1    0    0    0  501 -0.00000000000E+00  0.00000000000E+00  0.24506115811E+03  0.24506115811E+03  0.00000000000E+00 0. -1.
          2   -1    0    0  501    0  0.00000000000E+00 -0.00000000000E+00 -0.76078626444E+02  0.76078626444E+02  0.00000000000E+00 0. -1.
         35    2    1    2    0    0  0.17763568394E-14  0.00000000000E+00  0.16898253167E+03  0.32113978456E+03  0.27308545405E+03 0.  0.
         25    2    3    3    0    0 -0.14352134219E+02 -0.44334198123E+02  0.97602280367E+02  0.16507064402E+03  0.12470207498E+03 0.  0.
         25    2    3    3    0    0  0.14352134219E+02  0.44334198123E+02  0.71380251300E+02  0.15606914054E+03  0.13073228932E+03 0.  0.
          5    1    4    4  502    0 -0.37326922832E+02  0.19049176315E+02  0.86973696661E+02  0.96657561511E+02  0.47000000000E+01 0.  1.
         -5    1    4    4    0  502  0.22974788612E+02 -0.63383374438E+02  0.10628583706E+02  0.68413082510E+02  0.47000000000E+01 0.  1.
          5    1    5    5  503    0  0.14597189994E+02 -0.36011776660E+02  0.64297932055E+02  0.75274431785E+02  0.47000000000E+01 0.  1.
         -5    1    5    5    0  503 -0.24505577498E+00  0.80345974783E+02  0.70823192451E+01  0.80794708751E+02  0.47000000000E+01 0.  1.
<mgrwt>
<rscale>  0 0.27308545E+03</rscale>
<asrwt>0</asrwt>
<pdfrwt beam="1">  1        2 0.11704404E-01 0.27308545E+03</pdfrwt>
<pdfrwt beam="2">  1       -2 0.37701716E-01 0.27308545E+03</pdfrwt>
<totfact> 0.34981321E+03</totfact>
</mgrwt>
</event>
<event>
 9    1  0.7957670E-001  0.2733040E+03  0.7818608E-02  0.1099403E+00
          2   -1    0    0  501    0  0.00000000000E+00  0.00000000000E+00  0.34000848578E+03  0.34000848578E+03  0.00000000000E+00 0. -1.
         -2   -1    0    0    0  501 -0.00000000000E+00 -0.00000000000E+00 -0.54921489464E+02  0.54921489464E+02  0.00000000000E+00 0. -1.
         35    2    1    2    0    0  0.71054273576E-14 -0.35527136788E-14  0.28508699631E+03  0.39492997524E+03  0.27330402462E+03 0.  0.
         25    2    3    3    0    0  0.46627323249E+02  0.23827052598E+02  0.11613701991E+03  0.17838714341E+03  0.12486925094E+03 0.  0.
         25    2    3    3    0    0 -0.46627323249E+02 -0.23827052598E+02  0.16894997641E+03  0.21654283183E+03  0.12491944517E+03 0.  0.
          5    1    4    4  502    0 -0.41414197450E+02  0.81505090721E+01  0.56963643808E+02  0.71052890613E+02  0.47000000000E+01 0. -1.
         -5    1    4    4    0  502  0.88041520699E+02  0.15676543526E+02  0.59173376098E+02  0.10733425279E+03  0.47000000000E+01 0. -1.
          5    1    5    5  503    0 -0.15081949956E+02 -0.65334101367E+02  0.42089381677E+02  0.79307099719E+02  0.47000000000E+01 0. -1.
         -5    1    5    5    0  503 -0.31545373293E+02  0.41507048769E+02  0.12686059473E+03  0.13723573211E+03  0.47000000000E+01 0. -1.
<mgrwt>
<rscale>  0 0.27330402E+03</rscale>
<asrwt>0</asrwt>
<pdfrwt beam="1">  1        2 0.52308996E-01 0.27330402E+03</pdfrwt>
<pdfrwt beam="2">  1       -2 0.84494602E-02 0.27330402E+03</pdfrwt>
<totfact> 0.82120726E+03</totfact>
</mgrwt>
</event>
<event>
 9    1  0.7957670E-001  0.2758982E+03  0.7818608E-02  0.1097951E+00
         -2   -1    0    0    0  501 -0.00000000000E+00  0.00000000000E+00  0.26068330970E+02  0.26068330970E+02  0.00000000000E+00 0.  1.
          2   -1    0    0  501    0  0.00000000000E+00 -0.00000000000E+00 -0.73000286525E+03  0.73000286525E+03  0.00000000000E+00 0.  1.
         35    2    1    2    0    0  0.00000000000E+00  0.71054273576E-14 -0.70393453428E+03  0.75607119622E+03  0.27589821529E+03 0.  0.
         25    2    3    3    0    0  0.30507725445E+02 -0.18144112946E+02 -0.22648636346E+03  0.26104535321E+03  0.12485460927E+03 0.  0.
         25    2    3    3    0    0 -0.30507725445E+02  0.18144112946E+02 -0.47744817082E+03  0.49502584300E+03  0.12583282274E+03 0.  0.
          5    1    4    4  502    0 -0.26411830950E+02  0.19220170487E+02 -0.10652860918E+02  0.34678137399E+02  0.47000000000E+01 0. -1.
         -5    1    4    4    0  502  0.56919556395E+02 -0.37364283433E+02 -0.21583350254E+03  0.22636721582E+03  0.47000000000E+01 0. -1.
          5    1    5    5  503    0 -0.74021309788E+02  0.20155022594E+02 -0.20225282487E+03  0.21636467920E+03  0.47000000000E+01 0.  1.
         -5    1    5    5    0  503  0.43513584343E+02 -0.20109096482E+01 -0.27519534595E+03  0.27866116380E+03  0.47000000000E+01 0.  1.
<mgrwt>
<rscale>  0 0.27589822E+03</rscale>
<asrwt>0</asrwt>
<pdfrwt beam="1">  1        2 0.11230813E+00 0.27589822E+03</pdfrwt>
<pdfrwt beam="2">  1       -2 0.40105125E-02 0.27589822E+03</pdfrwt>
<totfact> 0.10862323E+04</totfact>
</mgrwt>
</event>
<event>
 9    1  0.7957670E-001  0.2702886E+03  0.7818608E-02  0.1101115E+00
         -2   -1    0    0    0  501 -0.00000000000E+00  0.00000000000E+00  0.17718005507E+02  0.17718005507E+02  0.00000000000E+00 0.  1.
          2   -1    0    0  501    0  0.00000000000E+00 -0.00000000000E+00 -0.10308144396E+04  0.10308144396E+04  0.00000000000E+00 0.  1.
         35    2    1    2    0    0  0.00000000000E+00  0.35527136788E-14 -0.10130964341E+04  0.10485324451E+04  0.27028855630E+03 0.  0.
         25    2    3    3    0    0 -0.48461869366E+02  0.41128891665E+01 -0.52858539234E+03  0.54544933268E+03  0.12548700686E+03 0.  0.
         25    2    3    3    0    0  0.48461869366E+02 -0.41128891665E+01 -0.48451104172E+03  0.50308311239E+03  0.12639699278E+03 0.  0.
          5    1    4    4  502    0 -0.72685300440E+01  0.59717449168E+02 -0.31984087119E+03  0.32548314572E+03  0.47000000000E+01 0.  1.
         -5    1    4    4    0  502 -0.41193339322E+02 -0.55604560002E+02 -0.20874452115E+03  0.21996618697E+03  0.47000000000E+01 0.  1.
          5    1    5    5  503    0  0.36116661172E+02 -0.64292914403E+00 -0.48769958638E+03  0.48905807746E+03  0.47000000000E+01 0. -1.
         -5    1    5    5    0  503  0.12345208194E+02 -0.34699600225E+01  0.31885446563E+01  0.14025034935E+02  0.47000000000E+01 0. -1.
<mgrwt>
<rscale>  0 0.27028856E+03</rscale>
<asrwt>0</asrwt>
<pdfrwt beam="1">  1        2 0.15858682E+00 0.27028856E+03</pdfrwt>
<pdfrwt beam="2">  1       -2 0.27258474E-02 0.27028856E+03</pdfrwt>
<totfact> 0.12246467E+04</totfact>
</mgrwt>
</event>
<event>
 9    1  0.7957670E-001  0.2606823E+03  0.7818608E-02  0.1106734E+00
         -1   -1    0    0    0  501 -0.00000000000E+00  0.00000000000E+00  0.30766001869E+02  0.30766001869E+02  0.00000000000E+00 0. -1.
          1   -1    0    0  501    0  0.00000000000E+00 -0.00000000000E+00 -0.55219434643E+03  0.55219434643E+03  0.00000000000E+00 0. -1.
         35    2    1    2    0    0  0.71054273576E-14  0.00000000000E+00 -0.52142834456E+03  0.58296034830E+03  0.26068227630E+03 0.  0.
         25    2    3    3    0    0 -0.29325845267E+02 -0.48226808061E+01 -0.20887891642E+03  0.24486702732E+03  0.12428272564E+03 0.  0.
         25    2    3    3    0    0  0.29325845267E+02  0.48226808061E+01 -0.31254942814E+03  0.33809332098E+03  0.12544594537E+03 0.  0.
          5    1    4    4  502    0 -0.24941091331E+02 -0.51023667500E+02 -0.39897332967E+02  0.69565507687E+02  0.47000000000E+01 0. -1.
         -5    1    4    4    0  502 -0.43847539364E+01  0.46200986694E+02 -0.16898158346E+03  0.17530151964E+03  0.47000000000E+01 0. -1.
          5    1    5    5  503    0  0.73782776026E+02 -0.17940985073E+02 -0.22058378722E+03  0.23333468274E+03  0.47000000000E+01 0. -1.
         -5    1    5    5    0  503 -0.44456930759E+02  0.22763665879E+02 -0.91965640915E+02  0.10475863824E+03  0.47000000000E+01 0. -1.
<mgrwt>
<rscale>  0 0.26068228E+03</rscale>
<asrwt>0</asrwt>
<pdfrwt beam="1">  1        1 0.84952971E-01 0.26068228E+03</pdfrwt>
<pdfrwt beam="2">  1       -1 0.47332313E-02 0.26068228E+03</pdfrwt>
<totfact> 0.74915068E+03</totfact>
</mgrwt>
</event>
<event>
 9    1  0.7957670E-001  0.2757530E+03  0.7818608E-02  0.1098031E+00
         -1   -1    0    0    0  501 -0.00000000000E+00  0.00000000000E+00  0.80785837563E+02  0.80785837563E+02  0.00000000000E+00 0. -1.
          1   -1    0    0  501    0  0.00000000000E+00 -0.00000000000E+00 -0.23531266883E+03  0.23531266883E+03  0.00000000000E+00 0. -1.
         35    2    1    2    0    0 -0.71054273576E-14  0.00000000000E+00 -0.15452683127E+03  0.31609850639E+03  0.27575301297E+03 0.  0.
         25    2    3    3    0    0  0.48936250611E+02  0.39014457468E+01 -0.11174048147E+03  0.17519720719E+03  0.12569068503E+03 0.  0.
         25    2    3    3    0    0 -0.48936250611E+02 -0.39014457468E+01 -0.42786349794E+02  0.14090129921E+03  0.12495009599E+03 0.  0.
          5    1    4    4  502    0  0.81497259308E+02 -0.24521290386E+02 -0.97372367690E+02  0.12940851961E+03  0.47000000000E+01 0. -1.
         -5    1    4    4    0  502 -0.32561008697E+02  0.28422736132E+02 -0.14368113782E+02  0.45788687580E+02  0.47000000000E+01 0. -1.
          5    1    5    5  503    0 -0.30337795815E+02  0.35784937379E+02 -0.73396539952E+02  0.87235805006E+02  0.47000000000E+01 0.  1.
         -5    1    5    5    0  503 -0.18598454796E+02 -0.39686383126E+02  0.30610190158E+02  0.53665494202E+02  0.47000000000E+01 0.  1.
<mgrwt>
<rscale>  0 0.27575301E+03</rscale>
<asrwt>0</asrwt>
<pdfrwt beam="1">  1        1 0.36201950E-01 0.27575301E+03</pdfrwt>
<pdfrwt beam="2">  1       -1 0.12428590E-01 0.27575301E+03</pdfrwt>
<totfact> 0.51345124E+03</totfact>
</mgrwt>
</event>
