<event>
 9    1  0.4236486E-036  0.9938624E+03  0.7818608E-02  0.8686905E-01
         -1   -1    0    0    0  501 -0.00000000000E+00  0.00000000000E+00  0.11816710683E+03  0.11816710683E+03  0.00000000000E+00 0. -1.
          1   -1    0    0  501    0  0.00000000000E+00 -0.00000000000E+00 -0.20897575072E+04  0.20897575072E+04  0.00000000000E+00 0. -1.
         36    2    1    2    0    0  0.00000000000E+00 -0.14210854715E-13 -0.19715904004E+04  0.22079246140E+04  0.99386236193E+03 0.  0.
         25    2    3    3    0    0 -0.82205945345E+02 -0.10782504976E+03 -0.39974353999E+03  0.43975679659E+03  0.12331700441E+03 0.  0.
         35    2    3    3    0    0  0.82205945345E+02  0.10782504976E+03 -0.15718468604E+04  0.17681678175E+04  0.79833001909E+03 0.  0.
         22    1    5    5    0    0  0.10161284014E+02  0.34913008060E+03 -0.14441964800E+04  0.14858326076E+04  0.00000000000E+00 0. -1.
         22    1    5    5    0    0  0.72044661331E+02 -0.24130503084E+03 -0.12765038040E+03  0.28233520990E+03  0.00000000000E+00 0. -1.
          5    1    4    4  502    0 -0.83173689613E+02 -0.12825529526E+03 -0.38455740358E+03  0.41385235297E+03  0.47000000000E+01 0. -1.
         -5    1    4    4    0  502  0.96774426796E+00  0.20430245505E+02 -0.15186136410E+02  0.25904443623E+02  0.47000000000E+01 0. -1.
<mgrwt>
<rscale>  0 0.99386236E+03</rscale>
<asrwt>0</asrwt>
<pdfrwt beam="1">  1        1 0.32150115E+00 0.99386236E+03</pdfrwt>
<pdfrwt beam="2">  1       -1 0.18179555E-01 0.99386236E+03</pdfrwt>
<totfact> 0.64503090E+01</totfact>
</mgrwt>
</event>
<event>
 9    1  0.4236486E-036  0.1000518E+04  0.7818608E-02  0.8680545E-01
         -1   -1    0    0    0  501 -0.00000000000E+00  0.00000000000E+00  0.31012664086E+03  0.31012664086E+03  0.00000000000E+00 0. -1.
          1   -1    0    0  501    0  0.00000000000E+00 -0.00000000000E+00 -0.80695809213E+03  0.80695809213E+03  0.00000000000E+00 0. -1.
         36    2    1    2    0    0 -0.71054273576E-14  0.71054273576E-14 -0.49683145127E+03  0.11170847330E+04  0.10005182706E+04 0.  0.
         25    2    3    3    0    0  0.90048338383E+01 -0.35964245505E+02  0.58836272211E+02  0.14282719364E+03  0.12475330187E+03 0.  0.
         35    2    3    3    0    0 -0.90048338383E+01  0.35964245505E+02 -0.55566772348E+03  0.97425753936E+03  0.79939766080E+03 0.  0.
         22    1    5    5    0    0  0.20544587392E+03  0.24549168212E+03 -0.59123822821E+03  0.67233683195E+03  0.00000000000E+00 0.  1.
         22    1    5    5    0    0 -0.21445070776E+03 -0.20952743662E+03  0.35570504734E+02  0.30192070740E+03  0.00000000000E+00 0.  1.
          5    1    4    4  502    0 -0.45841597444E+02 -0.21221464460E+02 -0.11781325507E+02  0.52083512178E+02  0.47000000000E+01 0.  1.
         -5    1    4    4    0  502  0.54846431283E+02 -0.14742781045E+02  0.70617597718E+02  0.90743681460E+02  0.47000000000E+01 0.  1.
<mgrwt>
<rscale>  0 0.10005183E+04</rscale>
<asrwt>0</asrwt>
<pdfrwt beam="1">  1        1 0.12414740E+00 0.10005183E+04</pdfrwt>
<pdfrwt beam="2">  1       -1 0.47711791E-01 0.10005183E+04</pdfrwt>
<totfact> 0.10886410E+02</totfact>
</mgrwt>
</event>
<event>
 9    1  0.4236486E-036  0.1000380E+04  0.7818608E-02  0.8680676E-01
         -2   -1    0    0    0  501 -0.00000000000E+00  0.00000000000E+00  0.36804806943E+03  0.36804806943E+03  0.00000000000E+00 0.  1.
          2   -1    0    0  501    0  0.00000000000E+00 -0.00000000000E+00 -0.67977501522E+03  0.67977501522E+03  0.00000000000E+00 0.  1.
         36    2    1    2    0    0 -0.14210854715E-13 -0.56843418861E-13 -0.31172694579E+03  0.10478230847E+04  0.10003796919E+04 0.  0.
         25    2    3    3    0    0  0.80899787368E+01  0.48482865513E+02 -0.19650930512E+03  0.23808489156E+03  0.12510984209E+03 0.  0.
         35    2    3    3    0    0 -0.80899787368E+01 -0.48482865513E+02 -0.11521764067E+03  0.80973819309E+03  0.79999050033E+03 0.  0.
         22    1    5    5    0    0 -0.22206459226E+03  0.28695600247E+03  0.72156921921E+02  0.36995006672E+03  0.00000000000E+00 0.  1.
         22    1    5    5    0    0  0.21397461353E+03 -0.33543886798E+03 -0.18737456259E+03  0.43978812636E+03  0.00000000000E+00 0.  1.
          5    1    4    4  502    0  0.55308387424E+02  0.49892010956E+02 -0.16503384839E+03  0.18112562378E+03  0.47000000000E+01 0. -1.
         -5    1    4    4    0  502 -0.47218408687E+02 -0.14091454429E+01 -0.31475456733E+02  0.56959267783E+02  0.47000000000E+01 0. -1.
<mgrwt>
<rscale>  0 0.10003797E+04</rscale>
<asrwt>0</asrwt>
<pdfrwt beam="1">  1        2 0.10458077E+00 0.10003797E+04</pdfrwt>
<pdfrwt beam="2">  1       -2 0.56622780E-01 0.10003797E+04</pdfrwt>
<totfact> 0.15054159E+02</totfact>
</mgrwt>
</event>
<event>
 9    1  0.4236486E-036  0.9998258E+03  0.7818608E-02  0.8681204E-01
         -4   -1    0    0    0  501 -0.00000000000E+00  0.00000000000E+00  0.42877753200E+03  0.42877753200E+03  0.00000000000E+00 0.  1.
          4   -1    0    0  501    0  0.00000000000E+00 -0.00000000000E+00 -0.58284982313E+03  0.58284982313E+03  0.00000000000E+00 0.  1.
         36    2    1    2    0    0  0.00000000000E+00  0.00000000000E+00 -0.15407229113E+03  0.10116273551E+04  0.99982580220E+03 0.  0.
         25    2    3    3    0    0 -0.12031955173E+03  0.37902116531E+02 -0.90101196484E+02  0.19927843392E+03  0.12522101921E+03 0.  0.
         35    2    3    3    0    0  0.12031955173E+03 -0.37902116531E+02 -0.63971094647E+02  0.81234892120E+03  0.79994068771E+03 0.  0.
         22    1    5    5    0    0  0.22105478465E+03 -0.67139231169E+01 -0.40169123877E+03  0.45854786651E+03  0.00000000000E+00 0. -1.
         22    1    5    5    0    0 -0.10073523291E+03 -0.31188193414E+02  0.33772014412E+03  0.35380105469E+03  0.00000000000E+00 0. -1.
          5    1    4    4  502    0 -0.43078506147E+01  0.46991329879E+02  0.66308902431E+01  0.47883205471E+02  0.47000000000E+01 0. -1.
         -5    1    4    4    0  502 -0.11601170112E+03 -0.90892133485E+01 -0.96732086727E+02  0.15139522845E+03  0.47000000000E+01 0. -1.
<mgrwt>
<rscale>  0 0.99982580E+03</rscale>
<asrwt>0</asrwt>
<pdfrwt beam="1">  1        4 0.89669204E-01 0.99982580E+03</pdfrwt>
<pdfrwt beam="2">  1       -4 0.65965774E-01 0.99982580E+03</pdfrwt>
<totfact> 0.51763416E+00</totfact>
</mgrwt>
</event>
<event>
 9    1  0.4236486E-036  0.9991863E+03  0.7818608E-02  0.8681813E-01
         -1   -1    0    0    0  501 -0.00000000000E+00  0.00000000000E+00  0.14324072870E+03  0.14324072870E+03  0.00000000000E+00 0.  1.
          1   -1    0    0  501    0  0.00000000000E+00 -0.00000000000E+00 -0.17424745190E+04  0.17424745190E+04  0.00000000000E+00 0.  1.
         36    2    1    2    0    0 -0.28421709430E-13  0.35527136788E-14 -0.15992337904E+04  0.18857152477E+04  0.99918630864E+03 0.  0.
         25    2    3    3    0    0  0.44595091400E+02 -0.93279146226E+01 -0.65731977228E+02  0.15561063744E+03  0.13348500098E+03 0.  0.
         35    2    3    3    0    0 -0.44595091400E+02  0.93279146226E+01 -0.15335018131E+04  0.17301046103E+04  0.79972396461E+03 0.  0.
         22    1    5    5    0    0 -0.33581951936E+03  0.20733187558E+03 -0.11170234266E+04  0.11846951472E+04  0.00000000000E+00 0.  1.
         22    1    5    5    0    0  0.29122442796E+03 -0.19800396096E+03 -0.41647838649E+03  0.54540946307E+03  0.00000000000E+00 0.  1.
          5    1    4    4  502    0  0.89364641435E+02 -0.13977591357E+02 -0.23180146829E+02  0.93492360148E+02  0.47000000000E+01 0. -1.
         -5    1    4    4    0  502 -0.44769550035E+02  0.46496767343E+01 -0.42551830398E+02  0.62118277297E+02  0.47000000000E+01 0. -1.
<mgrwt>
<rscale>  0 0.99918631E+03</rscale>
<asrwt>0</asrwt>
<pdfrwt beam="1">  1        1 0.26807301E+00 0.99918631E+03</pdfrwt>
<pdfrwt beam="2">  1       -1 0.22037035E-01 0.99918631E+03</pdfrwt>
<totfact> 0.82219749E+01</totfact>
</mgrwt>
</event>
<event>
 9    1  0.4236486E-036  0.9997968E+03  0.7818608E-02  0.8681231E-01
         -1   -1    0    0    0  501 -0.00000000000E+00  0.00000000000E+00  0.31518679398E+03  0.31518679398E+03  0.00000000000E+00 0. -1.
          1   -1    0    0  501    0  0.00000000000E+00 -0.00000000000E+00 -0.79285813890E+03  0.79285813890E+03  0.00000000000E+00 0. -1.
         36    2    1    2    0    0 -0.42632564146E-13 -0.28421709430E-13 -0.47767134491E+03  0.11080449329E+04  0.99979680912E+03 0.  0.
         25    2    3    3    0    0 -0.67601387995E+02  0.11910764663E+03 -0.52281620529E+02  0.19264343978E+03  0.12498619084E+03 0.  0.
         35    2    3    3    0    0  0.67601387995E+02 -0.11910764663E+03 -0.42538972439E+03  0.91540149310E+03  0.79890355915E+03 0.  0.
         22    1    5    5    0    0  0.29160983072E+03 -0.13572239345E+03  0.10585670133E+03  0.33861852087E+03  0.00000000000E+00 0.  1.
         22    1    5    5    0    0 -0.22400844273E+03  0.16614746817E+02 -0.53124642572E+03  0.57678297224E+03  0.00000000000E+00 0.  1.
          5    1    4    4  502    0 -0.29094084589E+02 -0.23447173711E+02 -0.11569465337E+02  0.39397693350E+02  0.47000000000E+01 0. -1.
         -5    1    4    4    0  502 -0.38507303406E+02  0.14255482034E+03 -0.40712155192E+02  0.15324574643E+03  0.47000000000E+01 0. -1.
<mgrwt>
<rscale>  0 0.99979681E+03</rscale>
<asrwt>0</asrwt>
<pdfrwt beam="1">  1        1 0.12197818E+00 0.99979681E+03</pdfrwt>
<pdfrwt beam="2">  1       -1 0.48490276E-01 0.99979681E+03</pdfrwt>
<totfact> 0.10875995E+02</totfact>
</mgrwt>
</event>
<event>
 9    1  0.4236486E-036  0.1000271E+04  0.7818608E-02  0.8680780E-01
         -1   -1    0    0    0  501 -0.00000000000E+00  0.00000000000E+00  0.17236880883E+03  0.17236880883E+03  0.00000000000E+00 0.  1.
          1   -1    0    0  501    0  0.00000000000E+00 -0.00000000000E+00 -0.14511653213E+04  0.14511653213E+04  0.00000000000E+00 0.  1.
         36    2    1    2    0    0  0.56843418861E-13  0.00000000000E+00 -0.12787965125E+04  0.16235341302E+04  0.10002712389E+04 0.  0.
         25    2    3    3    0    0 -0.67658876443E+02 -0.11669414327E+03 -0.16099963474E+03  0.24429426460E+03  0.12475399270E+03 0.  0.
         35    2    3    3    0    0  0.67658876443E+02  0.11669414327E+03 -0.11177968778E+04  0.13792398656E+04  0.79664138744E+03 0.  0.
         22    1    5    5    0    0  0.36254839859E+03 -0.92619917957E+01 -0.95096721104E+03  0.10177749075E+04  0.00000000000E+00 0. -1.
         22    1    5    5    0    0 -0.29488952215E+03  0.12595613507E+03 -0.16682966674E+03  0.36146495810E+03  0.00000000000E+00 0. -1.
          5    1    4    4  502    0 -0.89123877329E+02 -0.31810811453E+02 -0.69041654435E+02  0.11723409608E+03  0.47000000000E+01 0.  1.
         -5    1    4    4    0  502  0.21465000886E+02 -0.84883331817E+02 -0.91957980305E+02  0.12706016852E+03  0.47000000000E+01 0.  1.
<mgrwt>
<rscale>  0 0.10002712E+04</rscale>
<asrwt>0</asrwt>
<pdfrwt beam="1">  1        1 0.22325620E+00 0.10002712E+04</pdfrwt>
<pdfrwt beam="2">  1       -1 0.26518279E-01 0.10002712E+04</pdfrwt>
<totfact> 0.96961436E+01</totfact>
</mgrwt>
</event>
<event>
 9    1  0.4236486E-036  0.9994710E+03  0.7818608E-02  0.8681542E-01
          2   -1    0    0  501    0  0.00000000000E+00  0.00000000000E+00  0.11344332283E+04  0.11344332283E+04  0.00000000000E+00 0.  1.
         -2   -1    0    0    0  501 -0.00000000000E+00 -0.00000000000E+00 -0.22014126992E+03  0.22014126992E+03  0.00000000000E+00 0.  1.
         36    2    1    2    0    0  0.71054273576E-14  0.28421709430E-13  0.91429195840E+03  0.13545744982E+04  0.99947100312E+03 0.  0.
         25    2    3    3    0    0 -0.81268949163E+01 -0.13260341249E+03  0.22799685707E+03  0.29220083793E+03  0.12549522472E+03 0.  0.
         35    2    3    3    0    0  0.81268949163E+01  0.13260341249E+03  0.68629510133E+03  0.10623736603E+04  0.79999194781E+03 0.  0.
         22    1    5    5    0    0 -0.58447459437E+02 -0.13271134178E+03  0.76429512144E+03  0.77793022721E+03  0.00000000000E+00 0.  1.
         22    1    5    5    0    0  0.66574354354E+02  0.26531475427E+03 -0.78000020110E+02  0.28444343309E+03  0.00000000000E+00 0.  1.
          5    1    4    4  502    0 -0.32571074229E+02  0.95174854521E+00  0.10100261677E+03  0.10623276000E+03  0.47000000000E+01 0.  1.
         -5    1    4    4    0  502  0.24444179313E+02 -0.13355516104E+03  0.12699424030E+03  0.18596807793E+03  0.47000000000E+01 0.  1.
<mgrwt>
<rscale>  0 0.99947100E+03</rscale>
<asrwt>0</asrwt>
<pdfrwt beam="1">  1        2 0.17452819E+00 0.99947100E+03</pdfrwt>
<pdfrwt beam="2">  1       -2 0.33867888E-01 0.99947100E+03</pdfrwt>
<totfact> 0.20412887E+02</totfact>
</mgrwt>
</event>
<event>
 9    1  0.4236486E-036  0.9996998E+03  0.7818608E-02  0.8681324E-01
          2   -1    0    0  501    0  0.00000000000E+00  0.00000000000E+00  0.15570722201E+04  0.15570722201E+04  0.00000000000E+00 0. -1.
         -2   -1    0    0    0  501 -0.00000000000E+00 -0.00000000000E+00 -0.16046135859E+03  0.16046135859E+03  0.00000000000E+00 0. -1.
         36    2    1    2    0    0  0.14210854715E-13  0.14210854715E-13  0.13966108615E+04  0.17175335787E+04  0.99969980266E+03 0.  0.
         25    2    3    3    0    0  0.76357804111E+02  0.73212549910E+01  0.46180827474E+03  0.48439875145E+03  0.12446345959E+03 0.  0.
         35    2    3    3    0    0 -0.76357804111E+02 -0.73212549910E+01  0.93480258675E+03  0.12331348272E+04  0.80055075471E+03 0.  0.
         22    1    5    5    0    0 -0.41386107509E+03  0.11763341731E+03  0.62197302844E+03  0.75628636008E+03  0.00000000000E+00 0. -1.
         22    1    5    5    0    0  0.33750327098E+03 -0.12495467230E+03  0.31282955831E+03  0.47684846713E+03  0.00000000000E+00 0. -1.
          5    1    4    4  502    0  0.52525287926E+02  0.24762099025E+02  0.68369249310E+02  0.89824894495E+02  0.47000000000E+01 0.  1.
         -5    1    4    4    0  502  0.23832516185E+02 -0.17440844034E+02  0.39343902543E+03  0.39457385696E+03  0.47000000000E+01 0.  1.
<mgrwt>
<rscale>  0 0.99969980E+03</rscale>
<asrwt>0</asrwt>
<pdfrwt beam="1">  1        2 0.23954956E+00 0.99969980E+03</pdfrwt>
<pdfrwt beam="2">  1       -2 0.24686364E-01 0.99969980E+03</pdfrwt>
<totfact> 0.20633944E+02</totfact>
</mgrwt>
</event>
<event>
 9    1  0.4236486E-036  0.1002042E+04  0.7818608E-02  0.8679095E-01
         -1   -1    0    0    0  501 -0.00000000000E+00  0.00000000000E+00  0.12634183529E+03  0.12634183529E+03  0.00000000000E+00 0.  1.
          1   -1    0    0  501    0  0.00000000000E+00 -0.00000000000E+00 -0.19868500227E+04  0.19868500227E+04  0.00000000000E+00 0.  1.
         36    2    1    2    0    0  0.00000000000E+00  0.14210854715E-13 -0.18605081875E+04  0.21131918580E+04  0.10020424708E+04 0.  0.
         25    2    3    3    0    0 -0.98566046279E+02 -0.31083729643E+02 -0.55972866893E+03  0.58275392704E+03  0.12499797170E+03 0.  0.
         35    2    3    3    0    0  0.98566046279E+02  0.31083729643E+02 -0.13007795185E+04  0.15304379310E+04  0.79970709707E+03 0.  0.
         22    1    5    5    0    0  0.16855545619E+03 -0.30231118566E+03 -0.10551114658E+04  0.11104337891E+04  0.00000000000E+00 0. -1.
         22    1    5    5    0    0 -0.69989409911E+02  0.33339491531E+03 -0.24566805270E+03  0.42000414185E+03  0.00000000000E+00 0. -1.
          5    1    4    4  502    0 -0.13138141740E+02 -0.44834134333E+02 -0.63274616816E+02  0.78793892548E+02  0.47000000000E+01 0. -1.
         -5    1    4    4    0  502 -0.85427904539E+02  0.13750404690E+02 -0.49645405212E+03  0.50396003449E+03  0.47000000000E+01 0. -1.
<mgrwt>
<rscale>  0 0.10020425E+04</rscale>
<asrwt>0</asrwt>
<pdfrwt beam="1">  1        1 0.30566923E+00 0.10020425E+04</pdfrwt>
<pdfrwt beam="2">  1       -1 0.19437205E-01 0.10020425E+04</pdfrwt>
<totfact> 0.68191607E+01</totfact>
</mgrwt>
</event>
<event>
 9    1  0.4236486E-036  0.1000927E+04  0.7818608E-02  0.8680155E-01
         -3   -1    0    0    0  501 -0.00000000000E+00  0.00000000000E+00  0.49015162447E+03  0.49015162447E+03  0.00000000000E+00 0.  1.
          3   -1    0    0  501    0  0.00000000000E+00 -0.00000000000E+00 -0.51099268990E+03  0.51099268990E+03  0.00000000000E+00 0.  1.
         36    2    1    2    0    0  0.14210854715E-13 -0.14210854715E-13 -0.20841065431E+02  0.10011443144E+04  0.10009273641E+04 0.  0.
         25    2    3    3    0    0  0.92426976209E+02 -0.62335371833E+02 -0.88364252035E+02  0.19013991114E+03  0.12616061295E+03 0.  0.
         35    2    3    3    0    0 -0.92426976209E+02  0.62335371833E+02  0.67523186604E+02  0.81100440323E+03  0.80046256428E+03 0.  0.
         22    1    5    5    0    0 -0.12223851687E+03  0.72858295780E+02 -0.35751324989E+03  0.38479385405E+03  0.00000000000E+00 0.  1.
         22    1    5    5    0    0  0.29811540659E+02 -0.10522923947E+02  0.42503643649E+03  0.42621054918E+03  0.00000000000E+00 0.  1.
          5    1    4    4  502    0 -0.21708707882E+02  0.14788578399E+02 -0.50660185603E+00  0.26689261781E+02  0.47000000000E+01 0. -1.
         -5    1    4    4    0  502  0.11413568409E+03 -0.77123950232E+02 -0.87857650179E+02  0.16345064936E+03  0.47000000000E+01 0. -1.
<mgrwt>
<rscale>  0 0.10009274E+04</rscale>
<asrwt>0</asrwt>
<pdfrwt beam="1">  1        3 0.78614260E-01 0.10009274E+04</pdfrwt>
<pdfrwt beam="2">  1       -3 0.75407943E-01 0.10009274E+04</pdfrwt>
<totfact> 0.10022451E+01</totfact>
</mgrwt>
</event>
<event>
 9    1  0.4236486E-036  0.9994350E+03  0.7818608E-02  0.8681576E-01
         -1   -1    0    0    0  501 -0.00000000000E+00  0.00000000000E+00  0.96855793544E+03  0.96855793544E+03  0.00000000000E+00 0.  1.
          1   -1    0    0  501    0  0.00000000000E+00 -0.00000000000E+00 -0.25782408848E+03  0.25782408848E+03  0.00000000000E+00 0.  1.
         36    2    1    2    0    0 -0.14210854715E-13  0.14210854715E-13  0.71073384696E+03  0.12263820239E+04  0.99943497406E+03 0.  0.
         25    2    3    3    0    0  0.90474683231E+02 -0.94379396246E+02  0.19273355425E+03  0.26435365651E+03  0.12507395425E+03 0.  0.
         35    2    3    3    0    0 -0.90474683231E+02  0.94379396246E+02  0.51800029271E+03  0.96202836741E+03  0.80005070946E+03 0.  0.
         22    1    5    5    0    0  0.65827873739E+02  0.37945697444E+03  0.44541903614E+02  0.38769174042E+03  0.00000000000E+00 0. -1.
         22    1    5    5    0    0 -0.15630255697E+03 -0.28507757819E+03  0.47345838909E+03  0.57433662699E+03  0.00000000000E+00 0. -1.
          5    1    4    4  502    0  0.11171925646E+03 -0.75654483956E+02  0.19313602654E+03  0.23564466460E+03  0.47000000000E+01 0. -1.
         -5    1    4    4    0  502 -0.21244573233E+02 -0.18724912290E+02 -0.40247228881E+00  0.28708991903E+02  0.47000000000E+01 0. -1.
<mgrwt>
<rscale>  0 0.99943497E+03</rscale>
<asrwt>0</asrwt>
<pdfrwt beam="1">  1        1 0.39665245E-01 0.99943497E+03</pdfrwt>
<pdfrwt beam="2">  1       -1 0.14900891E+00 0.99943497E+03</pdfrwt>
<totfact> 0.44637104E+01</totfact>
</mgrwt>
</event>
<event>
 9    1  0.4236486E-036  0.9950468E+03  0.7818608E-02  0.8685769E-01
         -1   -1    0    0    0  501 -0.00000000000E+00  0.00000000000E+00  0.12720038776E+03  0.12720038776E+03  0.00000000000E+00 0.  1.
          1   -1    0    0  501    0  0.00000000000E+00 -0.00000000000E+00 -0.19459809827E+04  0.19459809827E+04  0.00000000000E+00 0.  1.
         36    2    1    2    0    0 -0.17763568394E-13  0.14210854715E-13 -0.18187805949E+04  0.20731813705E+04  0.99504680409E+03 0.  0.
         25    2    3    3    0    0 -0.15489138355E+02  0.63894325315E+02 -0.92660809769E+02  0.17174301545E+03  0.12879145730E+03 0.  0.
         35    2    3    3    0    0  0.15489138355E+02 -0.63894325315E+02 -0.17261197852E+04  0.19014383550E+04  0.79476783212E+03 0.  0.
         22    1    5    5    0    0 -0.29252036706E+03 -0.10736946682E+03 -0.14575207636E+04  0.14904573607E+04  0.00000000000E+00 0. -1.
         22    1    5    5    0    0  0.30800950541E+03  0.43475141500E+02 -0.26859902155E+03  0.41098099437E+03  0.00000000000E+00 0. -1.
          5    1    4    4  502    0 -0.43615322682E+02  0.29707964722E+02 -0.11146554217E+03  0.12341603069E+03  0.47000000000E+01 0.  1.
         -5    1    4    4    0  502  0.28126184328E+02  0.34186360593E+02  0.18804732398E+02  0.48326984760E+02  0.47000000000E+01 0.  1.
<mgrwt>
<rscale>  0 0.99504680E+03</rscale>
<asrwt>0</asrwt>
<pdfrwt beam="1">  1        1 0.29938170E+00 0.99504680E+03</pdfrwt>
<pdfrwt beam="2">  1       -1 0.19569290E-01 0.99504680E+03</pdfrwt>
<totfact> 0.72061967E+01</totfact>
</mgrwt>
</event>
<event>
 9    1  0.4236486E-036  0.9982293E+03  0.7818608E-02  0.8682726E-01
         -2   -1    0    0    0  501 -0.00000000000E+00  0.00000000000E+00  0.17218218286E+03  0.17218218286E+03  0.00000000000E+00 0. -1.
          2   -1    0    0  501    0  0.00000000000E+00 -0.00000000000E+00 -0.14468132180E+04  0.14468132180E+04  0.00000000000E+00 0. -1.
         36    2    1    2    0    0  0.00000000000E+00 -0.28421709430E-13 -0.12746310352E+04  0.16189954009E+04  0.99822934855E+03 0.  0.
         25    2    3    3    0    0  0.83611770502E+02  0.10952534374E+03 -0.29547515198E+03  0.34846398306E+03  0.12302379025E+03 0.  0.
         35    2    3    3    0    0 -0.83611770502E+02 -0.10952534374E+03 -0.97915588318E+03  0.12705314178E+04  0.79782022476E+03 0.  0.
         22    1    5    5    0    0 -0.33687257697E+03 -0.79221455931E+02 -0.95328482659E+03  0.10141553790E+04  0.00000000000E+00 0. -1.
         22    1    5    5    0    0  0.25326080646E+03 -0.30303887805E+02 -0.25871056594E+02  0.25637603881E+03  0.00000000000E+00 0. -1.
          5    1    4    4  502    0 -0.24505709161E+02  0.25211985995E+02 -0.12339160992E+03  0.12838907048E+03  0.47000000000E+01 0. -1.
         -5    1    4    4    0  502  0.10811747966E+03  0.84313357741E+02 -0.17208354206E+03  0.22007491259E+03  0.47000000000E+01 0. -1.
<mgrwt>
<rscale>  0 0.99822935E+03</rscale>
<asrwt>0</asrwt>
<pdfrwt beam="1">  1        2 0.22258665E+00 0.99822935E+03</pdfrwt>
<pdfrwt beam="2">  1       -2 0.26489567E-01 0.99822935E+03</pdfrwt>
<totfact> 0.21015726E+02</totfact>
</mgrwt>
</event>
<event>
 9    1  0.4236486E-036  0.9991903E+03  0.7818608E-02  0.8681809E-01
         -1   -1    0    0    0  501 -0.00000000000E+00  0.00000000000E+00  0.27416923205E+03  0.27416923205E+03  0.00000000000E+00 0.  1.
          1   -1    0    0  501    0  0.00000000000E+00 -0.00000000000E+00 -0.91036949222E+03  0.91036949222E+03  0.00000000000E+00 0.  1.
         36    2    1    2    0    0  0.71054273576E-14  0.14210854715E-13 -0.63620026016E+03  0.11845387243E+04  0.99919028131E+03 0.  0.
         25    2    3    3    0    0 -0.11454393731E+02  0.11090647784E+03 -0.21292947536E+03  0.27231280847E+03  0.12799943053E+03 0.  0.
         35    2    3    3    0    0  0.11454393731E+02 -0.11090647784E+03 -0.42327078480E+03  0.91222591580E+03  0.80035399307E+03 0.  0.
         22    1    5    5    0    0 -0.11354252302E+03 -0.41087252131E+03 -0.40301897756E+03  0.58662801636E+03  0.00000000000E+00 0. -1.
         22    1    5    5    0    0  0.12499691675E+03  0.29996604346E+03 -0.20251807242E+02  0.32559789945E+03  0.00000000000E+00 0. -1.
          5    1    4    4  502    0 -0.29611131089E+02 -0.18162176797E+02 -0.73267817889E+02  0.81221591271E+02  0.47000000000E+01 0. -1.
         -5    1    4    4    0  502  0.18156737357E+02  0.12906865464E+03 -0.13966165747E+03  0.19109121720E+03  0.47000000000E+01 0. -1.
<mgrwt>
<rscale>  0 0.99919028E+03</rscale>
<asrwt>0</asrwt>
<pdfrwt beam="1">  1        1 0.14005684E+00 0.99919028E+03</pdfrwt>
<pdfrwt beam="2">  1       -1 0.42179882E-01 0.99919028E+03</pdfrwt>
<totfact> 0.11114214E+02</totfact>
</mgrwt>
</event>
<event>
 9    1  0.4236486E-036  0.1000107E+04  0.7818608E-02  0.8680936E-01
         -2   -1    0    0    0  501 -0.00000000000E+00  0.00000000000E+00  0.10779563135E+03  0.10779563135E+03  0.00000000000E+00 0. -1.
          2   -1    0    0  501    0  0.00000000000E+00 -0.00000000000E+00 -0.23196987065E+04  0.23196987065E+04  0.00000000000E+00 0. -1.
         36    2    1    2    0    0 -0.56843418861E-13  0.00000000000E+00 -0.22119030752E+04  0.24274943379E+04  0.10001067675E+04 0.  0.
         25    2    3    3    0    0 -0.12043257468E+03 -0.69492475518E+02 -0.36837135057E+03  0.41297053682E+03  0.12455522134E+03 0.  0.
         35    2    3    3    0    0  0.12043257468E+03  0.69492475518E+02 -0.18435317246E+04  0.20145238010E+04  0.80022729034E+03 0.  0.
         22    1    5    5    0    0 -0.31328536927E+03  0.17828857501E+03 -0.93035036831E+03  0.99774062080E+03  0.00000000000E+00 0.  1.
         22    1    5    5    0    0  0.43371794395E+03 -0.10879609949E+03 -0.91318135628E+03  0.10167831802E+04  0.00000000000E+00 0.  1.
          5    1    4    4  502    0 -0.12605401364E+03 -0.35905224755E+02 -0.18722795731E+03  0.22859395775E+03  0.47000000000E+01 0. -1.
         -5    1    4    4    0  502  0.56214389569E+01 -0.33587250763E+02 -0.18114339326E+03  0.18437657908E+03  0.47000000000E+01 0. -1.
<mgrwt>
<rscale>  0 0.10001068E+04</rscale>
<asrwt>0</asrwt>
<pdfrwt beam="1">  1        2 0.35687676E+00 0.10001068E+04</pdfrwt>
<pdfrwt beam="2">  1       -2 0.16583942E-01 0.10001068E+04</pdfrwt>
<totfact> 0.15081180E+02</totfact>
</mgrwt>
</event>
<event>
 9    1  0.4236486E-036  0.1001234E+04  0.7818608E-02  0.8679864E-01
         -1   -1    0    0    0  501 -0.00000000000E+00  0.00000000000E+00  0.97398536227E+02  0.97398536227E+02  0.00000000000E+00 0. -1.
          1   -1    0    0  501    0  0.00000000000E+00 -0.00000000000E+00 -0.25731115212E+04  0.25731115212E+04  0.00000000000E+00 0. -1.
         36    2    1    2    0    0  0.71054273576E-14  0.28421709430E-13 -0.24757129850E+04  0.26705100574E+04  0.10012338303E+04 0.  0.
         25    2    3    3    0    0  0.29605451034E+02 -0.12556072154E+03 -0.33291100749E+03  0.38013880598E+03  0.13051358311E+03 0.  0.
         35    2    3    3    0    0 -0.29605451034E+02  0.12556072154E+03 -0.21428019775E+04  0.22903712514E+04  0.79847240230E+03 0.  0.
         22    1    5    5    0    0 -0.20168585930E+03  0.30588540522E+03 -0.19243979414E+04  0.19589666929E+04  0.00000000000E+00 0. -1.
         22    1    5    5    0    0  0.17208040827E+03 -0.18032468367E+03 -0.21840403604E+03  0.33140455852E+03  0.00000000000E+00 0. -1.
          5    1    4    4  502    0 -0.60697958593E+01 -0.78965179805E+02 -0.56178872855E+02  0.97213670843E+02  0.47000000000E+01 0.  1.
         -5    1    4    4    0  502  0.35675246893E+02 -0.46595541739E+02 -0.27673213464E+03  0.28292513514E+03  0.47000000000E+01 0.  1.
<mgrwt>
<rscale>  0 0.10012338E+04</rscale>
<asrwt>0</asrwt>
<pdfrwt beam="1">  1        1 0.39586324E+00 0.10012338E+04</pdfrwt>
<pdfrwt beam="2">  1       -1 0.14984393E-01 0.10012338E+04</pdfrwt>
<totfact> 0.40407011E+01</totfact>
</mgrwt>
</event>
<event>
 9    1  0.4236486E-036  0.1001093E+04  0.7818608E-02  0.8679998E-01
         -2   -1    0    0    0  501 -0.00000000000E+00  0.00000000000E+00  0.20236430958E+03  0.20236430958E+03  0.00000000000E+00 0. -1.
          2   -1    0    0  501    0  0.00000000000E+00 -0.00000000000E+00 -0.12380969264E+04  0.12380969264E+04  0.00000000000E+00 0. -1.
         36    2    1    2    0    0  0.00000000000E+00 -0.28421709430E-13 -0.10357326168E+04  0.14404612360E+04  0.10010926624E+04 0.  0.
         25    2    3    3    0    0  0.54343734675E+02  0.10543514747E+03 -0.87520455946E+02  0.19306298967E+03  0.12467427943E+03 0.  0.
         35    2    3    3    0    0 -0.54343734675E+02 -0.10543514747E+03 -0.94821216089E+03  0.12473982463E+04  0.80176447355E+03 0.  0.
         22    1    5    5    0    0  0.10999917244E+03 -0.39598432477E+03 -0.76046844449E+03  0.86441636869E+03  0.00000000000E+00 0.  1.
         22    1    5    5    0    0 -0.16434290711E+03  0.29054917729E+03 -0.18774371640E+03  0.38298187763E+03  0.00000000000E+00 0.  1.
          5    1    4    4  502    0 -0.14910833593E+02  0.51345099600E+02 -0.90268785670E+02  0.10501997847E+03  0.47000000000E+01 0.  1.
         -5    1    4    4    0  502  0.69254568268E+02  0.54090047872E+02  0.27483297243E+01  0.88043011200E+02  0.47000000000E+01 0.  1.
<mgrwt>
<rscale>  0 0.10010927E+04</rscale>
<asrwt>0</asrwt>
<pdfrwt beam="1">  1        2 0.19047645E+00 0.10010927E+04</pdfrwt>
<pdfrwt beam="2">  1       -2 0.31132971E-01 0.10010927E+04</pdfrwt>
<totfact> 0.20693846E+02</totfact>
</mgrwt>
</event>
<event>
 9    1  0.4236486E-036  0.9998398E+03  0.7818608E-02  0.8681191E-01
         -2   -1    0    0    0  501 -0.00000000000E+00  0.00000000000E+00  0.34175034793E+03  0.34175034793E+03  0.00000000000E+00 0. -1.
          2   -1    0    0  501    0  0.00000000000E+00 -0.00000000000E+00 -0.73129375150E+03  0.73129375150E+03  0.00000000000E+00 0. -1.
         36    2    1    2    0    0  0.00000000000E+00 -0.35527136788E-13 -0.38954340357E+03  0.10730440994E+04  0.99983977520E+03 0.  0.
         25    2    3    3    0    0  0.13736134257E+03 -0.76654575318E+00 -0.55654822305E+02  0.19511719961E+03  0.12690364972E+03 0.  0.
         35    2    3    3    0    0 -0.13736134257E+03  0.76654575318E+00 -0.33388858127E+03  0.87792689983E+03  0.80025329160E+03 0.  0.
         22    1    5    5    0    0  0.21825429757E+03  0.26915074571E+03 -0.24298050138E+03  0.42322167522E+03  0.00000000000E+00 0.  1.
         22    1    5    5    0    0 -0.35561564014E+03 -0.26838419995E+03 -0.90908079891E+02  0.45470522461E+03  0.00000000000E+00 0.  1.
          5    1    4    4  502    0  0.35338147547E+02  0.46639386325E+02  0.16998097270E+02  0.61114992756E+02  0.47000000000E+01 0.  1.
         -5    1    4    4    0  502  0.10202319502E+03 -0.47405932078E+02 -0.72652919575E+02  0.13400220685E+03  0.47000000000E+01 0.  1.
<mgrwt>
<rscale>  0 0.99983978E+03</rscale>
<asrwt>0</asrwt>
<pdfrwt beam="1">  1        2 0.11250673E+00 0.99983978E+03</pdfrwt>
<pdfrwt beam="2">  1       -2 0.52576978E-01 0.99983978E+03</pdfrwt>
<totfact> 0.16006914E+02</totfact>
</mgrwt>
</event>
<event>
 9    1  0.4236486E-036  0.9955229E+03  0.7818608E-02  0.8685313E-01
         -1   -1    0    0    0  501 -0.00000000000E+00  0.00000000000E+00  0.14267330639E+03  0.14267330639E+03  0.00000000000E+00 0.  1.
          1   -1    0    0  501    0  0.00000000000E+00 -0.00000000000E+00 -0.17366001396E+04  0.17366001396E+04  0.00000000000E+00 0.  1.
         36    2    1    2    0    0 -0.14210854715E-13  0.00000000000E+00 -0.15939268332E+04  0.18792734460E+04  0.99552294557E+03 0.  0.
         25    2    3    3    0    0 -0.87076608840E+02  0.96267072368E+02 -0.37185443446E+03  0.41322383778E+03  0.12501413781E+03 0.  0.
         35    2    3    3    0    0  0.87076608840E+02 -0.96267072368E+02 -0.12220723987E+04  0.14660496082E+04  0.79936901423E+03 0.  0.
         22    1    5    5    0    0  0.36636762446E+02 -0.44789840745E+03 -0.59913657564E+03  0.74894584052E+03  0.00000000000E+00 0.  1.
         22    1    5    5    0    0  0.50439846394E+02  0.35163133509E+03 -0.62293582308E+03  0.71710376766E+03  0.00000000000E+00 0.  1.
          5    1    4    4  502    0 -0.68166280730E+02  0.11554103391E+03 -0.21119558755E+03  0.25024395806E+03  0.47000000000E+01 0.  1.
         -5    1    4    4    0  502 -0.18910328111E+02 -0.19273961539E+02 -0.16065884691E+03  0.16297987972E+03  0.47000000000E+01 0.  1.
<mgrwt>
<rscale>  0 0.99552295E+03</rscale>
<asrwt>0</asrwt>
<pdfrwt beam="1">  1        1 0.26716925E+00 0.99552295E+03</pdfrwt>
<pdfrwt beam="2">  1       -1 0.21949739E-01 0.99552295E+03</pdfrwt>
<totfact> 0.83575827E+01</totfact>
</mgrwt>
</event>
<event>
 9    1  0.4236486E-036  0.1000668E+04  0.7818608E-02  0.8680402E-01
         -2   -1    0    0    0  501 -0.00000000000E+00  0.00000000000E+00  0.56651770336E+03  0.56651770336E+03  0.00000000000E+00 0. -1.
          2   -1    0    0  501    0  0.00000000000E+00 -0.00000000000E+00 -0.44188259849E+03  0.44188259849E+03  0.00000000000E+00 0. -1.
         36    2    1    2    0    0  0.00000000000E+00 -0.28421709430E-13  0.12463510487E+03  0.10084003018E+04  0.10006684063E+04 0.  0.
         25    2    3    3    0    0 -0.68265764963E+01 -0.95009843725E+02  0.12791162499E+03  0.20273789642E+03  0.12517107606E+03 0.  0.
         35    2    3    3    0    0  0.68265764963E+01  0.95009843725E+02 -0.32765201218E+01  0.80566240543E+03  0.80000481460E+03 0.  0.
         22    1    5    5    0    0  0.35388703736E+03 -0.14569880328E+03  0.13772639568E+02  0.38295412531E+03  0.00000000000E+00 0. -1.
         22    1    5    5    0    0 -0.34706046086E+03  0.24070864700E+03 -0.17049159690E+02  0.42270828012E+03  0.00000000000E+00 0. -1.
          5    1    4    4  502    0 -0.65421307353E+02 -0.51359285597E+02  0.58036813297E+02  0.10152874160E+03  0.47000000000E+01 0.  1.
         -5    1    4    4    0  502  0.58594730857E+02 -0.43650558128E+02  0.69874811697E+02  0.10120915482E+03  0.47000000000E+01 0.  1.
<mgrwt>
<rscale>  0 0.10006684E+04</rscale>
<asrwt>0</asrwt>
<pdfrwt beam="1">  1        2 0.67981938E-01 0.10006684E+04</pdfrwt>
<pdfrwt beam="2">  1       -2 0.87156570E-01 0.10006684E+04</pdfrwt>
<totfact> 0.96742997E+01</totfact>
</mgrwt>
</event>
<event>
 9    1  0.4236486E-036  0.1000439E+04  0.7818608E-02  0.8680620E-01
         -1   -1    0    0    0  501 -0.00000000000E+00  0.00000000000E+00  0.79878541508E+03  0.79878541508E+03  0.00000000000E+00 0.  1.
          1   -1    0    0  501    0  0.00000000000E+00 -0.00000000000E+00 -0.31324998272E+03  0.31324998272E+03  0.00000000000E+00 0.  1.
         36    2    1    2    0    0 -0.71054273576E-14  0.10658141036E-13  0.48553543236E+03  0.11120353978E+04  0.10004389386E+04 0.  0.
         25    2    3    3    0    0 -0.36695106072E+02  0.16410644607E+02 -0.58819187679E+02  0.14391697918E+03  0.12504623141E+03 0.  0.
         35    2    3    3    0    0  0.36695106072E+02 -0.16410644607E+02  0.54435462004E+03  0.96811841862E+03  0.79957206057E+03 0.  0.
         22    1    5    5    0    0  0.29428892964E+03  0.24777753163E+03  0.44040588162E+03  0.58477091228E+03  0.00000000000E+00 0.  1.
         22    1    5    5    0    0 -0.25759382356E+03 -0.26418817623E+03  0.10394873842E+03  0.38334750634E+03  0.00000000000E+00 0.  1.
          5    1    4    4  502    0  0.28733186030E+02 -0.20883619177E+02  0.14548585510E+02  0.38671344297E+02  0.47000000000E+01 0. -1.
         -5    1    4    4    0  502 -0.65428292102E+02  0.37294263784E+02 -0.73367773189E+02  0.10524563488E+03  0.47000000000E+01 0. -1.
<mgrwt>
<rscale>  0 0.10004389E+04</rscale>
<asrwt>0</asrwt>
<pdfrwt beam="1">  1        1 0.48192305E-01 0.10004389E+04</pdfrwt>
<pdfrwt beam="2">  1       -1 0.12289006E+00 0.10004389E+04</pdfrwt>
<totfact> 0.58098835E+01</totfact>
</mgrwt>
</event>
<event>
 9    1  0.4236486E-036  0.1000328E+04  0.7818608E-02  0.8680726E-01
          1   -1    0    0  501    0  0.00000000000E+00  0.00000000000E+00  0.95793166934E+03  0.95793166934E+03  0.00000000000E+00 0. -1.
         -1   -1    0    0    0  501 -0.00000000000E+00 -0.00000000000E+00 -0.26115023980E+03  0.26115023980E+03  0.00000000000E+00 0. -1.
         36    2    1    2    0    0  0.00000000000E+00  0.28421709430E-13  0.69678142953E+03  0.12190819091E+04  0.10003281165E+04 0.  0.
         25    2    3    3    0    0 -0.11969535204E+03  0.70352957601E+02  0.15637954912E+03  0.24360805863E+03  0.12495521958E+03 0.  0.
         35    2    3    3    0    0  0.11969535204E+03 -0.70352957601E+02  0.54040188041E+03  0.97547385051E+03  0.80014906407E+03 0.  0.
         22    1    5    5    0    0  0.11174856219E+03 -0.35129324335E+03  0.25850091420E+01  0.36864802488E+03  0.00000000000E+00 0. -1.
         22    1    5    5    0    0  0.79467898497E+01  0.28094028575E+03  0.53781687127E+03  0.60682582562E+03  0.00000000000E+00 0. -1.
          5    1    4    4  502    0 -0.74524205645E+02 -0.10642603334E+02  0.18989835517E+02  0.77780627959E+02  0.47000000000E+01 0.  1.
         -5    1    4    4    0  502 -0.45171146399E+02  0.80995560935E+02  0.13738971361E+03  0.16582743067E+03  0.47000000000E+01 0.  1.
<mgrwt>
<rscale>  0 0.10003281E+04</rscale>
<asrwt>0</asrwt>
<pdfrwt beam="1">  1        1 0.14737410E+00 0.10003281E+04</pdfrwt>
<pdfrwt beam="2">  1       -1 0.40176961E-01 0.10003281E+04</pdfrwt>
<totfact> 0.11083663E+02</totfact>
</mgrwt>
</event>
<event>
 9    1  0.4236486E-036  0.1000553E+04  0.7818608E-02  0.8680511E-01
         -1   -1    0    0    0  501 -0.00000000000E+00  0.00000000000E+00  0.17841736687E+03  0.17841736687E+03  0.00000000000E+00 0. -1.
          1   -1    0    0  501    0  0.00000000000E+00 -0.00000000000E+00 -0.14027601303E+04  0.14027601303E+04  0.00000000000E+00 0. -1.
         36    2    1    2    0    0 -0.10658141036E-13  0.00000000000E+00 -0.12243427634E+04  0.15811774972E+04  0.10005533845E+04 0.  0.
         25    2    3    3    0    0 -0.83287064180E+01 -0.12664350827E+03 -0.13681206921E+03  0.22463050471E+03  0.12503349881E+03 0.  0.
         35    2    3    3    0    0  0.83287064180E+01  0.12664350827E+03 -0.10875306942E+04  0.13565469925E+04  0.80086752111E+03 0.  0.
         22    1    5    5    0    0 -0.10374027131E+03  0.39988785578E+03 -0.93922411522E+03  0.10260673856E+04  0.00000000000E+00 0.  1.
         22    1    5    5    0    0  0.11206897773E+03 -0.27324434751E+03 -0.14830657901E+03  0.33047960692E+03  0.00000000000E+00 0.  1.
          5    1    4    4  502    0 -0.11287876256E+02 -0.65905777029E+02 -0.14813725699E+03  0.16259681578E+03  0.47000000000E+01 0. -1.
         -5    1    4    4    0  502  0.29591698378E+01 -0.60737731245E+02  0.11325187779E+02  0.62033688921E+02  0.47000000000E+01 0. -1.
<mgrwt>
<rscale>  0 0.10005534E+04</rscale>
<asrwt>0</asrwt>
<pdfrwt beam="1">  1        1 0.21580925E+00 0.10005534E+04</pdfrwt>
<pdfrwt beam="2">  1       -1 0.27448826E-01 0.10005534E+04</pdfrwt>
<totfact> 0.99075753E+01</totfact>
</mgrwt>
</event>
<event>
 9    1  0.4236486E-036  0.9997563E+03  0.7818608E-02  0.8681270E-01
          1   -1    0    0  501    0  0.00000000000E+00  0.00000000000E+00  0.42355616055E+03  0.42355616055E+03  0.00000000000E+00 0. -1.
         -1   -1    0    0    0  501 -0.00000000000E+00 -0.00000000000E+00 -0.58995281832E+03  0.58995281832E+03  0.00000000000E+00 0. -1.
         36    2    1    2    0    0 -0.14210854715E-13  0.28421709430E-13 -0.16639665776E+03  0.10135089789E+04  0.99975627157E+03 0.  0.
         25    2    3    3    0    0 -0.67877606131E+02  0.11752200405E+03 -0.32154849040E+02  0.18836259982E+03  0.12660072608E+03 0.  0.
         35    2    3    3    0    0  0.67877606131E+02 -0.11752200405E+03 -0.13424180872E+03  0.82514637905E+03  0.80276203996E+03 0.  0.
         22    1    5    5    0    0  0.33940013279E+03  0.18550685595E+03 -0.15744608849E+03  0.41760569264E+03  0.00000000000E+00 0. -1.
         22    1    5    5    0    0 -0.27152252666E+03 -0.30302886000E+03  0.23204279761E+02  0.40754068641E+03  0.00000000000E+00 0. -1.
          5    1    4    4  502    0  0.24715877577E+02  0.98955890579E+01 -0.37476162799E+02  0.46209848142E+02  0.47000000000E+01 0. -1.
         -5    1    4    4    0  502 -0.92593483708E+02  0.10762641499E+03  0.53213137592E+01  0.14215275168E+03  0.47000000000E+01 0. -1.
<mgrwt>
<rscale>  0 0.99975627E+03</rscale>
<asrwt>0</asrwt>
<pdfrwt beam="1">  1        1 0.65162486E-01 0.99975627E+03</pdfrwt>
<pdfrwt beam="2">  1       -1 0.90761972E-01 0.99975627E+03</pdfrwt>
<totfact> 0.78458918E+01</totfact>
</mgrwt>
</event>
<event>
 9    1  0.4236486E-036  0.9998011E+03  0.7818608E-02  0.8681227E-01
          2   -1    0    0  501    0  0.00000000000E+00  0.00000000000E+00  0.42808259579E+03  0.42808259579E+03  0.00000000000E+00 0. -1.
         -2   -1    0    0    0  501 -0.00000000000E+00 -0.00000000000E+00 -0.58376715081E+03  0.58376715081E+03  0.00000000000E+00 0. -1.
         36    2    1    2    0    0  0.00000000000E+00  0.71054273576E-14 -0.15568455502E+03  0.10118497466E+04  0.99980109473E+03 0.  0.
         25    2    3    3    0    0  0.13204219918E+03  0.16833242558E+02 -0.77972582425E+02  0.19748272931E+03  0.12329316422E+03 0.  0.
         35    2    3    3    0    0 -0.13204219918E+03 -0.16833242558E+02 -0.77711972592E+02  0.81436701729E+03  0.79964741464E+03 0.  0.
         22    1    5    5    0    0 -0.92967512972E+02 -0.48973059584E+02  0.35934413007E+03  0.37439220458E+03  0.00000000000E+00 0. -1.
         22    1    5    5    0    0 -0.39074686211E+02  0.32139817026E+02 -0.43705610267E+03  0.43997481271E+03  0.00000000000E+00 0. -1.
          5    1    4    4  502    0  0.53653827139E+02 -0.52520928178E+02 -0.20441423128E+02  0.77955903195E+02  0.47000000000E+01 0.  1.
         -5    1    4    4    0  502  0.78388372043E+02  0.69354170736E+02 -0.57531159297E+02  0.11952682611E+03  0.47000000000E+01 0.  1.
<mgrwt>
<rscale>  0 0.99980109E+03</rscale>
<asrwt>0</asrwt>
<pdfrwt beam="1">  1        2 0.65858861E-01 0.99980109E+03</pdfrwt>
<pdfrwt beam="2">  1       -2 0.89810331E-01 0.99980109E+03</pdfrwt>
<totfact> 0.93464324E+01</totfact>
</mgrwt>
</event>
<event>
 9    1  0.4236486E-036  0.9997846E+03  0.7818608E-02  0.8681243E-01
          1   -1    0    0  501    0  0.00000000000E+00  0.00000000000E+00  0.10119175868E+04  0.10119175868E+04  0.00000000000E+00 0. -1.
         -1   -1    0    0    0  501 -0.00000000000E+00 -0.00000000000E+00 -0.24694928063E+03  0.24694928063E+03  0.00000000000E+00 0. -1.
         36    2    1    2    0    0  0.00000000000E+00  0.00000000000E+00  0.76496830614E+03  0.12588668674E+04  0.99978461702E+03 0.  0.
         25    2    3    3    0    0 -0.86518579941E+02  0.10613254814E+03  0.17310191468E+03  0.25398040634E+03  0.12566698648E+03 0.  0.
         35    2    3    3    0    0  0.86518579941E+02 -0.10613254814E+03  0.59186639146E+03  0.10048864611E+04  0.80046323576E+03 0.  0.
         22    1    5    5    0    0 -0.13611617892E+03  0.29083149082E+03  0.10363885802E+03  0.33741900230E+03  0.00000000000E+00 0. -1.
         22    1    5    5    0    0  0.22263475886E+03 -0.39696403897E+03  0.48822753344E+03  0.66746745876E+03  0.00000000000E+00 0. -1.
          5    1    4    4  502    0 -0.84375794792E+02  0.50709049449E+01  0.78262718075E+02  0.11529150821E+03  0.47000000000E+01 0. -1.
         -5    1    4    4    0  502 -0.21427851493E+01  0.10106164320E+03  0.94839196606E+02  0.13868889814E+03  0.47000000000E+01 0. -1.
<mgrwt>
<rscale>  0 0.99978462E+03</rscale>
<asrwt>0</asrwt>
<pdfrwt beam="1">  1        1 0.15567963E+00 0.99978462E+03</pdfrwt>
<pdfrwt beam="2">  1       -1 0.37992198E-01 0.99978462E+03</pdfrwt>
<totfact> 0.11081982E+02</totfact>
</mgrwt>
</event>
<event>
 9    1  0.4236486E-036  0.1001904E+04  0.7818608E-02  0.8679227E-01
         -2   -1    0    0    0  501 -0.00000000000E+00  0.00000000000E+00  0.27120465053E+03  0.27120465053E+03  0.00000000000E+00 0. -1.
          2   -1    0    0  501    0  0.00000000000E+00 -0.00000000000E+00 -0.92532730965E+03  0.92532730965E+03  0.00000000000E+00 0. -1.
         36    2    1    2    0    0 -0.35527136788E-14  0.56843418861E-13 -0.65412265912E+03  0.11965319602E+04  0.10019043261E+04 0.  0.
         25    2    3    3    0    0  0.37189262581E+01 -0.13473027771E+03 -0.68605227651E+02  0.19613333113E+03  0.12488205706E+03 0.  0.
         35    2    3    3    0    0 -0.37189262581E+01  0.13473027771E+03 -0.58551743147E+03  0.10003986291E+04  0.79987541299E+03 0.  0.
         22    1    5    5    0    0 -0.27990659223E+02 -0.32236524890E+03 -0.37867716629E+03  0.49809560023E+03  0.00000000000E+00 0.  1.
         22    1    5    5    0    0  0.24271732965E+02  0.45709552661E+03 -0.20684026518E+03  0.50230302882E+03  0.00000000000E+00 0.  1.
          5    1    4    4  502    0 -0.43298568236E+02 -0.61516878559E+01 -0.25666139287E+01  0.44060036108E+02  0.47000000000E+01 0. -1.
         -5    1    4    4    0  502  0.47017494494E+02 -0.12857858985E+03 -0.66038613722E+02  0.15207329502E+03  0.47000000000E+01 0. -1.
<mgrwt>
<rscale>  0 0.10019043E+04</rscale>
<asrwt>0</asrwt>
<pdfrwt beam="1">  1        2 0.14235805E+00 0.10019043E+04</pdfrwt>
<pdfrwt beam="2">  1       -2 0.41723792E-01 0.10019043E+04</pdfrwt>
<totfact> 0.18563938E+02</totfact>
</mgrwt>
</event>
<event>
 9    1  0.4236486E-036  0.9979762E+03  0.7818608E-02  0.8682968E-01
          2   -1    0    0  501    0  0.00000000000E+00  0.00000000000E+00  0.93427675119E+03  0.93427675119E+03  0.00000000000E+00 0. -1.
         -2   -1    0    0    0  501 -0.00000000000E+00 -0.00000000000E+00 -0.26650466657E+03  0.26650466657E+03  0.00000000000E+00 0. -1.
         36    2    1    2    0    0  0.00000000000E+00  0.00000000000E+00  0.66777208462E+03  0.12007814178E+04  0.99797618019E+03 0.  0.
         25    2    3    3    0    0 -0.10821373430E+03 -0.84402464187E+02  0.13020726040E+03  0.22657838890E+03  0.12469902726E+03 0.  0.
         35    2    3    3    0    0  0.10821373430E+03  0.84402464187E+02  0.53756482422E+03  0.97420302886E+03  0.80078811989E+03 0.  0.
         22    1    5    5    0    0  0.88362110190E+01 -0.35389535309E+03  0.16563025813E+03  0.39083677152E+03  0.00000000000E+00 0. -1.
         22    1    5    5    0    0  0.99377523284E+02  0.43829781727E+03  0.37193456609E+03  0.58336625735E+03  0.00000000000E+00 0. -1.
          5    1    4    4  502    0 -0.75169110497E+02 -0.55184401020E+02  0.15104117953E+03  0.17757038380E+03  0.47000000000E+01 0. -1.
         -5    1    4    4    0  502 -0.33044623806E+02 -0.29218063168E+02 -0.20833919124E+02  0.49008005100E+02  0.47000000000E+01 0. -1.
<mgrwt>
<rscale>  0 0.99797618E+03</rscale>
<asrwt>0</asrwt>
<pdfrwt beam="1">  1        2 0.14373488E+00 0.99797618E+03</pdfrwt>
<pdfrwt beam="2">  1       -2 0.41000718E-01 0.99797618E+03</pdfrwt>
<totfact> 0.18945705E+02</totfact>
</mgrwt>
</event>
<event>
 9    1  0.4236486E-036  0.9997678E+03  0.7818608E-02  0.8681259E-01
          1   -1    0    0  501    0  0.00000000000E+00  0.00000000000E+00  0.19146989482E+03  0.19146989482E+03  0.00000000000E+00 0. -1.
         -1   -1    0    0    0  501 -0.00000000000E+00 -0.00000000000E+00 -0.13050819890E+04  0.13050819890E+04  0.00000000000E+00 0. -1.
         36    2    1    2    0    0  0.00000000000E+00  0.28421709430E-13 -0.11136120942E+04  0.14965518838E+04  0.99976779537E+03 0.  0.
         25    2    3    3    0    0 -0.11056290356E+03  0.82218092168E+02 -0.21829530694E+03  0.28701719172E+03  0.12546735426E+03 0.  0.
         35    2    3    3    0    0  0.11056290356E+03 -0.82218092168E+02 -0.89531678722E+03  0.12095346921E+04  0.80149738088E+03 0.  0.
         22    1    5    5    0    0  0.33198475194E+03  0.24889498581E+03 -0.45851600388E+03  0.61838460144E+03  0.00000000000E+00 0.  1.
         22    1    5    5    0    0 -0.22142184838E+03 -0.33111307798E+03 -0.43680078334E+03  0.59115009065E+03  0.00000000000E+00 0.  1.
          5    1    4    4  502    0 -0.30542764350E+02 -0.21442776570E+02 -0.68075006970E+01  0.38224144032E+02  0.47000000000E+01 0. -1.
         -5    1    4    4    0  502 -0.80020139212E+02  0.10366086874E+03 -0.21148780625E+03  0.24879304769E+03  0.47000000000E+01 0. -1.
<mgrwt>
<rscale>  0 0.99976780E+03</rscale>
<asrwt>0</asrwt>
<pdfrwt beam="1">  1        1 0.29456908E-01 0.99976780E+03</pdfrwt>
<pdfrwt beam="2">  1       -1 0.20078184E+00 0.99976780E+03</pdfrwt>
<totfact> 0.24149596E+01</totfact>
</mgrwt>
</event>
<event>
 9    1  0.4236486E-036  0.1000442E+04  0.7818608E-02  0.8680617E-01
         -1   -1    0    0    0  501 -0.00000000000E+00  0.00000000000E+00  0.64827735459E+03  0.64827735459E+03  0.00000000000E+00 0. -1.
          1   -1    0    0  501    0  0.00000000000E+00 -0.00000000000E+00 -0.38597824478E+03  0.38597824478E+03  0.00000000000E+00 0. -1.
         36    2    1    2    0    0 -0.10658141036E-13  0.00000000000E+00  0.26229910981E+03  0.10342555994E+04  0.10004418133E+04 0.  0.
         25    2    3    3    0    0  0.11562303031E+02  0.10864424322E+03 -0.42120042900E+02  0.17204967627E+03  0.12605449081E+03 0.  0.
         35    2    3    3    0    0 -0.11562303031E+02 -0.10864424322E+03  0.30441915271E+03  0.86220592310E+03  0.79924387696E+03 0.  0.
         22    1    5    5    0    0  0.14707858045E+03 -0.42406286020E+03  0.12371152342E+03  0.46558131326E+03  0.00000000000E+00 0. -1.
         22    1    5    5    0    0 -0.15864088348E+03  0.31541861698E+03  0.18070762929E+03  0.39662460984E+03  0.00000000000E+00 0. -1.
          5    1    4    4  502    0  0.14622417283E+02  0.11951840473E+03  0.77021059124E+01  0.12074715976E+03  0.47000000000E+01 0.  1.
         -5    1    4    4    0  502 -0.30601142513E+01 -0.10874161505E+02 -0.49822148812E+02  0.51302516507E+02  0.47000000000E+01 0.  1.
<mgrwt>
<rscale>  0 0.10004418E+04</rscale>
<asrwt>0</asrwt>
<pdfrwt beam="1">  1        1 0.59381268E-01 0.10004418E+04</pdfrwt>
<pdfrwt beam="2">  1       -1 0.99734978E-01 0.10004418E+04</pdfrwt>
<totfact> 0.72268553E+01</totfact>
</mgrwt>
</event>
<event>
 9    1  0.4236486E-036  0.1000286E+04  0.7818608E-02  0.8680765E-01
          1   -1    0    0  501    0  0.00000000000E+00  0.00000000000E+00  0.14917034750E+04  0.14917034750E+04  0.00000000000E+00 0.  1.
         -1   -1    0    0    0  501 -0.00000000000E+00 -0.00000000000E+00 -0.16768963198E+03  0.16768963198E+03  0.00000000000E+00 0.  1.
         36    2    1    2    0    0  0.00000000000E+00  0.14210854715E-13  0.13240138430E+04  0.16593931069E+04  0.10002863725E+04 0.  0.
         25    2    3    3    0    0  0.11577185006E+03 -0.49298051291E+02  0.15171925095E+03  0.23437482276E+03  0.12680460287E+03 0.  0.
         35    2    3    3    0    0 -0.11577185006E+03  0.49298051291E+02  0.11722945920E+04  0.14250182842E+04  0.80035559635E+03 0.  0.
         22    1    5    5    0    0 -0.34431028273E+03  0.30914286241E+03  0.62885146704E+03  0.78075159159E+03  0.00000000000E+00 0.  1.
         22    1    5    5    0    0  0.22853843267E+03 -0.25984481112E+03  0.54344312501E+03  0.64426669260E+03  0.00000000000E+00 0.  1.
          5    1    4    4  502    0  0.43833949308E+02 -0.60075700200E+02  0.10232360232E+02  0.75214998919E+02  0.47000000000E+01 0. -1.
         -5    1    4    4    0  502  0.71937900747E+02  0.10777648908E+02  0.14148689071E+03  0.15915982384E+03  0.47000000000E+01 0. -1.
<mgrwt>
<rscale>  0 0.10002864E+04</rscale>
<asrwt>0</asrwt>
<pdfrwt beam="1">  1        1 0.22949283E+00 0.10002864E+04</pdfrwt>
<pdfrwt beam="2">  1       -1 0.25798406E-01 0.10002864E+04</pdfrwt>
<totfact> 0.95023302E+01</totfact>
</mgrwt>
</event>
<event>
 9    1  0.4236486E-036  0.1002971E+04  0.7818608E-02  0.8678213E-01
          3   -1    0    0  501    0  0.00000000000E+00  0.00000000000E+00  0.78734924328E+03  0.78734924328E+03  0.00000000000E+00 0.  1.
         -3   -1    0    0    0  501 -0.00000000000E+00 -0.00000000000E+00 -0.31941085560E+03  0.31941085560E+03  0.00000000000E+00 0.  1.
         36    2    1    2    0    0  0.00000000000E+00  0.56843418861E-13  0.46793838768E+03  0.11067600989E+04  0.10029713764E+04 0.  0.
         25    2    3    3    0    0  0.10649418313E+03 -0.97959863557E+02  0.76974159497E+02  0.20612610673E+03  0.12500321890E+03 0.  0.
         35    2    3    3    0    0 -0.10649418313E+03  0.97959863557E+02  0.39096422819E+03  0.90063399215E+03  0.79834291766E+03 0.  0.
         22    1    5    5    0    0  0.88834018060E+00  0.36026709122E+03  0.48305989284E+03  0.60261100739E+03  0.00000000000E+00 0. -1.
         22    1    5    5    0    0 -0.10738252331E+03 -0.26230722766E+03 -0.92095664651E+02  0.29802298476E+03  0.00000000000E+00 0. -1.
          5    1    4    4  502    0 -0.12380122166E+02 -0.66070565456E+02  0.19097233648E+02  0.70038427863E+02  0.47000000000E+01 0.  1.
         -5    1    4    4    0  502  0.11887430530E+03 -0.31889298101E+02  0.57876925849E+02  0.13608767887E+03  0.47000000000E+01 0.  1.
<mgrwt>
<rscale>  0 0.10029714E+04</rscale>
<asrwt>0</asrwt>
<pdfrwt beam="1">  1        3 0.12113065E+00 0.10029714E+04</pdfrwt>
<pdfrwt beam="2">  1       -3 0.49140132E-01 0.10029714E+04</pdfrwt>
<totfact> 0.95286739E+00</totfact>
</mgrwt>
</event>
<event>
 9    1  0.4236486E-036  0.9990556E+03  0.7818608E-02  0.8681938E-01
          1   -1    0    0  501    0  0.00000000000E+00  0.00000000000E+00  0.46919605100E+03  0.46919605100E+03  0.00000000000E+00 0.  1.
         -1   -1    0    0    0  501 -0.00000000000E+00 -0.00000000000E+00 -0.53182043128E+03  0.53182043128E+03  0.00000000000E+00 0.  1.
         36    2    1    2    0    0  0.35527136788E-14 -0.14210854715E-13 -0.62624380276E+02  0.10010164823E+04  0.99905564649E+03 0.  0.
         25    2    3    3    0    0  0.26838041553E+02  0.72560363103E+02  0.10390932213E+03  0.17998865552E+03  0.12495392000E+03 0.  0.
         35    2    3    3    0    0 -0.26838041553E+02 -0.72560363103E+02 -0.16653370240E+03  0.82102782676E+03  0.80022992415E+03 0.  0.
         22    1    5    5    0    0  0.46432993950E+02  0.98402066572E+02  0.29981816145E+03  0.31895128087E+03  0.00000000000E+00 0.  1.
         22    1    5    5    0    0 -0.73271035503E+02 -0.17096242967E+03 -0.46635186386E+03  0.50207654588E+03  0.00000000000E+00 0.  1.
          5    1    4    4  502    0  0.58529936880E+02  0.74331497102E+01  0.80207525735E+01  0.59727947375E+02  0.47000000000E+01 0. -1.
         -5    1    4    4    0  502 -0.31691895327E+02  0.65127213392E+02  0.95888569553E+02  0.12026070815E+03  0.47000000000E+01 0. -1.
<mgrwt>
<rscale>  0 0.99905565E+03</rscale>
<asrwt>0</asrwt>
<pdfrwt beam="1">  1        1 0.72184008E-01 0.99905565E+03</pdfrwt>
<pdfrwt beam="2">  1       -1 0.81818528E-01 0.99905565E+03</pdfrwt>
<totfact> 0.85170717E+01</totfact>
</mgrwt>
</event>
<event>
 9    1  0.4236486E-036  0.9998615E+03  0.7818608E-02  0.8681170E-01
         -1   -1    0    0    0  501 -0.00000000000E+00  0.00000000000E+00  0.36928093784E+03  0.36928093784E+03  0.00000000000E+00 0. -1.
          1   -1    0    0  501    0  0.00000000000E+00 -0.00000000000E+00 -0.67680378811E+03  0.67680378811E+03  0.00000000000E+00 0. -1.
         36    2    1    2    0    0  0.00000000000E+00  0.14210854715E-13 -0.30752285027E+03  0.10460847260E+04  0.99986146562E+03 0.  0.
         25    2    3    3    0    0  0.93254210479E+01  0.46683323086E+02 -0.19661806717E+03  0.23763008626E+03  0.12467195927E+03 0.  0.
         35    2    3    3    0    0 -0.93254210479E+01 -0.46683323086E+02 -0.11090478310E+03  0.80845463969E+03  0.79939523228E+03 0.  0.
         22    1    5    5    0    0  0.97645479496E+02 -0.30834620939E+03 -0.32142822301E+03  0.45599136730E+03  0.00000000000E+00 0. -1.
         22    1    5    5    0    0 -0.10697090054E+03  0.26166288630E+03  0.21052343991E+03  0.35246327239E+03  0.00000000000E+00 0. -1.
          5    1    4    4  502    0  0.43965855910E+02 -0.21298773717E+02 -0.39859655982E+02  0.63225915752E+02  0.47000000000E+01 0.  1.
         -5    1    4    4    0  502 -0.34640434862E+02  0.67982096803E+02 -0.15675841119E+03  0.17440417051E+03  0.47000000000E+01 0.  1.
<mgrwt>
<rscale>  0 0.99986147E+03</rscale>
<asrwt>0</asrwt>
<pdfrwt beam="1">  1        1 0.10412366E+00 0.99986147E+03</pdfrwt>
<pdfrwt beam="2">  1       -1 0.56812452E-01 0.99986147E+03</pdfrwt>
<totfact> 0.10367852E+02</totfact>
</mgrwt>
</event>
<event>
 9    1  0.4236486E-036  0.9997460E+03  0.7818608E-02  0.8681280E-01
         -2   -1    0    0    0  501 -0.00000000000E+00  0.00000000000E+00  0.41170786245E+03  0.41170786245E+03  0.00000000000E+00 0.  1.
          2   -1    0    0  501    0  0.00000000000E+00 -0.00000000000E+00 -0.60691821832E+03  0.60691821832E+03  0.00000000000E+00 0.  1.
         36    2    1    2    0    0  0.28421709430E-13  0.71054273576E-14 -0.19521035587E+03  0.10186260808E+04  0.99974597242E+03 0.  0.
         25    2    3    3    0    0 -0.12819901956E+03 -0.57804621586E+02 -0.48369693012E+02  0.19449456245E+03  0.12534809423E+03 0.  0.
         35    2    3    3    0    0  0.12819901956E+03  0.57804621586E+02 -0.14684066286E+03  0.82413151831E+03  0.79865775919E+03 0.  0.
         22    1    5    5    0    0 -0.30306476427E+03  0.16967874745E+03  0.21150254754E+02  0.34797480074E+03  0.00000000000E+00 0.  1.
         22    1    5    5    0    0  0.43126378383E+03 -0.11187412586E+03 -0.16799091762E+03  0.47615671757E+03  0.00000000000E+00 0.  1.
          5    1    4    4  502    0 -0.97262434209E+01 -0.13825875014E+02  0.37659891724E+02  0.41546504975E+02  0.47000000000E+01 0.  1.
         -5    1    4    4    0  502 -0.11847277614E+03 -0.43978746572E+02 -0.86029584735E+02  0.15294805748E+03  0.47000000000E+01 0.  1.
<mgrwt>
<rscale>  0 0.99974597E+03</rscale>
<asrwt>0</asrwt>
<pdfrwt beam="1">  1        2 0.93372033E-01 0.99974597E+03</pdfrwt>
<pdfrwt beam="2">  1       -2 0.63339671E-01 0.99974597E+03</pdfrwt>
<totfact> 0.13657545E+02</totfact>
</mgrwt>
</event>
<event>
 9    1  0.4236486E-036  0.9996735E+03  0.7818608E-02  0.8681349E-01
         -1   -1    0    0    0  501 -0.00000000000E+00  0.00000000000E+00  0.21847432485E+03  0.21847432485E+03  0.00000000000E+00 0. -1.
          1   -1    0    0  501    0  0.00000000000E+00 -0.00000000000E+00 -0.11435521995E+04  0.11435521995E+04  0.00000000000E+00 0. -1.
         36    2    1    2    0    0  0.14210854715E-13  0.28421709430E-13 -0.92507787464E+03  0.13620265243E+04  0.99967353613E+03 0.  0.
         25    2    3    3    0    0  0.43737394394E+02 -0.12080076459E+03 -0.98898604211E+02  0.20478424871E+03  0.12509944130E+03 0.  0.
         35    2    3    3    0    0 -0.43737394394E+02  0.12080076459E+03 -0.82617927043E+03  0.11572422756E+04  0.80008231651E+03 0.  0.
         22    1    5    5    0    0  0.14851350344E+03  0.41955810364E+03 -0.54834198503E+03  0.70623239489E+03  0.00000000000E+00 0. -1.
         22    1    5    5    0    0 -0.19225089784E+03 -0.29875733906E+03 -0.27783728539E+03  0.45100988073E+03  0.00000000000E+00 0. -1.
          5    1    4    4  502    0  0.34592826146E+02 -0.24920428296E+02  0.23543347555E+02  0.48929240555E+02  0.47000000000E+01 0. -1.
         -5    1    4    4    0  502  0.91445682479E+01 -0.95880336292E+02 -0.12244195177E+03  0.15585500816E+03  0.47000000000E+01 0. -1.
<mgrwt>
<rscale>  0 0.99967354E+03</rscale>
<asrwt>0</asrwt>
<pdfrwt beam="1">  1        1 0.17593111E+00 0.99967354E+03</pdfrwt>
<pdfrwt beam="2">  1       -1 0.33611434E-01 0.99967354E+03</pdfrwt>
<totfact> 0.10863144E+02</totfact>
</mgrwt>
</event>
<event>
 9    1  0.4236486E-036  0.1000473E+04  0.7818608E-02  0.8680588E-01
          2   -1    0    0  501    0  0.00000000000E+00  0.00000000000E+00  0.12462067019E+04  0.12462067019E+04  0.00000000000E+00 0.  1.
         -2   -1    0    0    0  501 -0.00000000000E+00 -0.00000000000E+00 -0.20079863168E+03  0.20079863168E+03  0.00000000000E+00 0.  1.
         36    2    1    2    0    0 -0.28421709430E-13 -0.14210854715E-13  0.10454080702E+04  0.14470053336E+04  0.10004730892E+04 0.  0.
         25    2    3    3    0    0 -0.72617519824E+02 -0.56889408315E+02  0.50869788481E+02  0.16400028536E+03  0.12569267781E+03 0.  0.
         35    2    3    3    0    0  0.72617519824E+02  0.56889408315E+02  0.99453828176E+03  0.12830050482E+04  0.80528619195E+03 0.  0.
         22    1    5    5    0    0  0.34846756743E+03  0.15652721290E+03  0.89527546889E+03  0.97336970321E+03  0.00000000000E+00 0.  1.
         22    1    5    5    0    0 -0.27585004761E+03 -0.99637804587E+02  0.99262812867E+02  0.30963534502E+03  0.00000000000E+00 0.  1.
          5    1    4    4  502    0 -0.23692496233E+01 -0.77578663054E+02  0.46251297431E+02  0.90472840229E+02  0.47000000000E+01 0. -1.
         -5    1    4    4    0  502 -0.70248270201E+02  0.20689254740E+02  0.46184910506E+01  0.73527445131E+02  0.47000000000E+01 0. -1.
<mgrwt>
<rscale>  0 0.10004731E+04</rscale>
<asrwt>0</asrwt>
<pdfrwt beam="1">  1        2 0.19172410E+00 0.10004731E+04</pdfrwt>
<pdfrwt beam="2">  1       -2 0.30892098E-01 0.10004731E+04</pdfrwt>
<totfact> 0.20762129E+02</totfact>
</mgrwt>
</event>
<event>
 9    1  0.4236486E-036  0.1000284E+04  0.7818608E-02  0.8680768E-01
          2   -1    0    0  501    0  0.00000000000E+00  0.00000000000E+00  0.26121130807E+04  0.26121130807E+04  0.00000000000E+00 0. -1.
         -2   -1    0    0    0  501 -0.00000000000E+00 -0.00000000000E+00 -0.95762317199E+02  0.95762317199E+02  0.00000000000E+00 0. -1.
         36    2    1    2    0    0  0.00000000000E+00 -0.71054273576E-14  0.25163507635E+04  0.27078753979E+04  0.10002839625E+04 0.  0.
         25    2    3    3    0    0  0.26144291879E+01  0.78074296252E+01  0.82296142031E+03  0.83252190844E+03  0.12553659831E+03 0.  0.
         35    2    3    3    0    0 -0.26144291879E+01 -0.78074296252E+01  0.16933893432E+04  0.18753534895E+04  0.80580112411E+03 0.  0.
         22    1    5    5    0    0 -0.22781826479E+03 -0.75231436742E+02  0.92240407748E+02  0.25703934265E+03  0.00000000000E+00 0.  1.
         22    1    5    5    0    0  0.22520383560E+03  0.67424007117E+02  0.16011489355E+04  0.16183141469E+04  0.00000000000E+00 0.  1.
          5    1    4    4  502    0 -0.27844485460E+02  0.55686749014E+02  0.29730864824E+03  0.30379409425E+03  0.47000000000E+01 0.  1.
         -5    1    4    4    0  502  0.30458914648E+02 -0.47879319389E+02  0.52565277207E+03  0.52872781419E+03  0.47000000000E+01 0.  1.
<mgrwt>
<rscale>  0 0.10002840E+04</rscale>
<asrwt>0</asrwt>
<pdfrwt beam="1">  1        2 0.40186350E+00 0.10002840E+04</pdfrwt>
<pdfrwt beam="2">  1       -2 0.14732666E-01 0.10002840E+04</pdfrwt>
<totfact> 0.12246697E+02</totfact>
</mgrwt>
</event>
<event>
 9    1  0.4236486E-036  0.9998120E+03  0.7818608E-02  0.8681217E-01
          1   -1    0    0  501    0  0.00000000000E+00  0.00000000000E+00  0.11617879160E+04  0.11617879160E+04  0.00000000000E+00 0.  1.
         -1   -1    0    0    0  501 -0.00000000000E+00 -0.00000000000E+00 -0.21510467219E+03  0.21510467219E+03  0.00000000000E+00 0.  1.
         36    2    1    2    0    0  0.28421709430E-13  0.00000000000E+00  0.94668324381E+03  0.13768925882E+04  0.99981199999E+03 0.  0.
         25    2    3    3    0    0  0.11739885908E+03 -0.14264174239E+02  0.28127849173E+03  0.32973462833E+03  0.12498550487E+03 0.  0.
         35    2    3    3    0    0 -0.11739885908E+03  0.14264174239E+02  0.66540475208E+03  0.10471579599E+04  0.79986895805E+03 0.  0.
         22    1    5    5    0    0 -0.17279214030E+03 -0.28758038814E+02  0.84048847794E+03  0.85854821070E+03  0.00000000000E+00 0.  1.
         22    1    5    5    0    0  0.55393281215E+02  0.43022213053E+02 -0.17508372586E+03  0.18860974917E+03  0.00000000000E+00 0.  1.
          5    1    4    4  502    0 -0.24404356520E+02  0.10046034870E+02  0.60511952903E+02  0.66183697977E+02  0.47000000000E+01 0. -1.
         -5    1    4    4    0  502  0.14180321560E+03 -0.24310209109E+02  0.22076653883E+03  0.26355093035E+03  0.47000000000E+01 0. -1.
<mgrwt>
<rscale>  0 0.99981200E+03</rscale>
<asrwt>0</asrwt>
<pdfrwt beam="1">  1        1 0.17873660E+00 0.99981200E+03</pdfrwt>
<pdfrwt beam="2">  1       -1 0.33093027E-01 0.99981200E+03</pdfrwt>
<totfact> 0.10811061E+02</totfact>
</mgrwt>
</event>
<event>
 9    1  0.4236486E-036  0.1000129E+04  0.7818608E-02  0.8680915E-01
         -1   -1    0    0    0  501 -0.00000000000E+00  0.00000000000E+00  0.68488097729E+03  0.68488097729E+03  0.00000000000E+00 0.  1.
          1   -1    0    0  501    0  0.00000000000E+00 -0.00000000000E+00 -0.36512128790E+03  0.36512128790E+03  0.00000000000E+00 0.  1.
         36    2    1    2    0    0  0.00000000000E+00  0.71054273576E-14  0.31975968938E+03  0.10500022652E+04  0.10001292406E+04 0.  0.
         25    2    3    3    0    0 -0.12517700543E+03  0.96855459383E+01  0.12934101134E+03  0.21930278784E+03  0.12490605691E+03 0.  0.
         35    2    3    3    0    0  0.12517700543E+03 -0.96855459383E+01  0.19041867804E+03  0.83069947735E+03  0.79877359510E+03 0.  0.
         22    1    5    5    0    0  0.39205713341E+03  0.20746020680E+03  0.13385573914E+02  0.44376537365E+03  0.00000000000E+00 0. -1.
         22    1    5    5    0    0 -0.26688012798E+03 -0.21714575274E+03  0.17703310413E+03  0.38693410369E+03  0.00000000000E+00 0. -1.
          5    1    4    4  502    0 -0.21070447658E+02 -0.37693507384E+02  0.87009165872E+02  0.97249417526E+02  0.47000000000E+01 0.  1.
         -5    1    4    4    0  502 -0.10410655778E+03  0.47379053322E+02  0.42331845466E+02  0.12205337032E+03  0.47000000000E+01 0.  1.
<mgrwt>
<rscale>  0 0.10001292E+04</rscale>
<asrwt>0</asrwt>
<pdfrwt beam="1">  1        1 0.56172506E-01 0.10001292E+04</pdfrwt>
<pdfrwt beam="2">  1       -1 0.10536630E+00 0.10001292E+04</pdfrwt>
<totfact> 0.68691168E+01</totfact>
</mgrwt>
</event>
<event>
 9    1  0.4236486E-036  0.1000628E+04  0.7818608E-02  0.8680440E-01
         -1   -1    0    0    0  501 -0.00000000000E+00  0.00000000000E+00  0.22111974434E+03  0.22111974434E+03  0.00000000000E+00 0. -1.
          1   -1    0    0  501    0  0.00000000000E+00 -0.00000000000E+00 -0.11320295734E+04  0.11320295734E+04  0.00000000000E+00 0. -1.
         36    2    1    2    0    0  0.00000000000E+00 -0.17763568394E-13 -0.91090982901E+03  0.13531493177E+04  0.10006279825E+04 0.  0.
         25    2    3    3    0    0  0.12103031312E+03  0.28535742006E+02 -0.26146562080E+03  0.31512425369E+03  0.12440417651E+03 0.  0.
         35    2    3    3    0    0 -0.12103031312E+03 -0.28535742006E+02 -0.64944420821E+03  0.10380250640E+04  0.80015975197E+03 0.  0.
         22    1    5    5    0    0 -0.30923646925E+03  0.13534130967E+03  0.50223481512E+01  0.33759396914E+03  0.00000000000E+00 0. -1.
         22    1    5    5    0    0  0.18820615613E+03 -0.16387705168E+03 -0.65446655636E+03  0.70043109487E+03  0.00000000000E+00 0. -1.
          5    1    4    4  502    0 -0.10948498453E+02  0.36265040562E+02 -0.30111212610E+02  0.48618904864E+02  0.47000000000E+01 0.  1.
         -5    1    4    4    0  502  0.13197881157E+03 -0.77292985556E+01 -0.23135440820E+03  0.26650534882E+03  0.47000000000E+01 0.  1.
<mgrwt>
<rscale>  0 0.10006280E+04</rscale>
<asrwt>0</asrwt>
<pdfrwt beam="1">  1        1 0.17415840E+00 0.10006280E+04</pdfrwt>
<pdfrwt beam="2">  1       -1 0.34018422E-01 0.10006280E+04</pdfrwt>
<totfact> 0.10853765E+02</totfact>
</mgrwt>
</event>
<event>
 9    1  0.4236486E-036  0.9988374E+03  0.7818608E-02  0.8682146E-01
          1   -1    0    0  501    0  0.00000000000E+00  0.00000000000E+00  0.11354798558E+04  0.11354798558E+04  0.00000000000E+00 0. -1.
         -1   -1    0    0    0  501 -0.00000000000E+00 -0.00000000000E+00 -0.21965957440E+03  0.21965957440E+03  0.00000000000E+00 0. -1.
         36    2    1    2    0    0  0.00000000000E+00  0.00000000000E+00  0.91582028141E+03  0.13551394302E+04  0.99883736786E+03 0.  0.
         25    2    3    3    0    0  0.10748736219E+03 -0.83659918850E+02  0.12415387508E+03  0.22121694404E+03  0.12235291816E+03 0.  0.
         35    2    3    3    0    0 -0.10748736219E+03  0.83659918850E+02  0.79166640633E+03  0.11339224862E+04  0.80030743508E+03 0.  0.
         22    1    5    5    0    0 -0.14473561327E+03  0.39827977917E+03  0.21318315654E+03  0.47436508986E+03  0.00000000000E+00 0.  1.
         22    1    5    5    0    0  0.37248251086E+02 -0.31461986032E+03  0.57848324979E+03  0.65955739630E+03  0.00000000000E+00 0.  1.
          5    1    4    4  502    0  0.54344712390E+02 -0.31542800665E+02 -0.13698152303E+02  0.64482752849E+02  0.47000000000E+01 0.  1.
         -5    1    4    4    0  502  0.53142649796E+02 -0.52117118185E+02  0.13785202738E+03  0.15673419119E+03  0.47000000000E+01 0.  1.
<mgrwt>
<rscale>  0 0.99883737E+03</rscale>
<asrwt>0</asrwt>
<pdfrwt beam="1">  1        1 0.17468921E+00 0.99883737E+03</pdfrwt>
<pdfrwt beam="2">  1       -1 0.33793781E-01 0.99883737E+03</pdfrwt>
<totfact> 0.10915125E+02</totfact>
</mgrwt>
</event>
<event>
 9    1  0.4236486E-036  0.1000022E+04  0.7818608E-02  0.8681017E-01
         -3   -1    0    0    0  501 -0.00000000000E+00  0.00000000000E+00  0.16726565955E+03  0.16726565955E+03  0.00000000000E+00 0. -1.
          3   -1    0    0  501    0  0.00000000000E+00 -0.00000000000E+00 -0.14946946972E+04  0.14946946972E+04  0.00000000000E+00 0. -1.
         36    2    1    2    0    0  0.00000000000E+00  0.14210854715E-13 -0.13274290377E+04  0.16619603568E+04  0.10000221885E+04 0.  0.
         25    2    3    3    0    0 -0.44006902900E+02  0.30905170592E+02 -0.46239790675E+03  0.48208294540E+03  0.12530125700E+03 0.  0.
         35    2    3    3    0    0  0.44006902900E+02 -0.30905170592E+02 -0.86503113092E+03  0.11798774114E+04  0.80058735396E+03 0.  0.
         22    1    5    5    0    0  0.36703481731E+03 -0.21882220038E+03 -0.42703003374E+03  0.60411287208E+03  0.00000000000E+00 0.  1.
         22    1    5    5    0    0 -0.32302791441E+03  0.18791702979E+03 -0.43800109718E+03  0.57576453929E+03  0.00000000000E+00 0.  1.
          5    1    4    4  502    0  0.29270924099E+02  0.39701286126E+02 -0.29422422702E+03  0.29836716455E+03  0.47000000000E+01 0.  1.
         -5    1    4    4    0  502 -0.73277827000E+02 -0.87961155341E+01 -0.16817367973E+03  0.18371578085E+03  0.47000000000E+01 0.  1.
<mgrwt>
<rscale>  0 0.10000222E+04</rscale>
<asrwt>0</asrwt>
<pdfrwt beam="1">  1        3 0.22995305E+00 0.10000222E+04</pdfrwt>
<pdfrwt beam="2">  1       -3 0.25733176E-01 0.10000222E+04</pdfrwt>
<totfact> 0.55317409E+00</totfact>
</mgrwt>
</event>
<event>
 9    1  0.4236486E-036  0.9994859E+03  0.7818608E-02  0.8681528E-01
         -3   -1    0    0    0  501 -0.00000000000E+00  0.00000000000E+00  0.42515011938E+03  0.42515011938E+03  0.00000000000E+00 0. -1.
          3   -1    0    0  501    0  0.00000000000E+00 -0.00000000000E+00 -0.58742307935E+03  0.58742307935E+03  0.00000000000E+00 0. -1.
         36    2    1    2    0    0 -0.42632564146E-13 -0.14210854715E-13 -0.16227295997E+03  0.10125731987E+04  0.99948585245E+03 0.  0.
         25    2    3    3    0    0 -0.43227604836E+02 -0.71587671845E+02 -0.14333866383E+03  0.20825156836E+03  0.12581463585E+03 0.  0.
         35    2    3    3    0    0  0.43227604836E+02  0.71587671845E+02 -0.18934296137E+02  0.80432163037E+03  0.79973830528E+03 0.  0.
         22    1    5    5    0    0  0.41558463406E+03  0.86335576085E+02  0.42737461477E+02  0.42660392682E+03  0.00000000000E+00 0.  1.
         22    1    5    5    0    0 -0.37235702922E+03 -0.14747904239E+02 -0.61671757614E+02  0.37771770355E+03  0.00000000000E+00 0.  1.
          5    1    4    4  502    0 -0.67890712207E+02 -0.45982471912E+02 -0.26913837695E+02  0.86429052908E+02  0.47000000000E+01 0. -1.
         -5    1    4    4    0  502  0.24663107372E+02 -0.25605199934E+02 -0.11642482614E+03  0.12182251545E+03  0.47000000000E+01 0. -1.
<mgrwt>
<rscale>  0 0.99948585E+03</rscale>
<asrwt>0</asrwt>
<pdfrwt beam="1">  1        3 0.90372781E-01 0.99948585E+03</pdfrwt>
<pdfrwt beam="2">  1       -3 0.65407711E-01 0.99948585E+03</pdfrwt>
<totfact> 0.10187410E+01</totfact>
</mgrwt>
</event>
<event>
 9    1  0.4236486E-036  0.1001122E+04  0.7818608E-02  0.8679970E-01
          2   -1    0    0  501    0  0.00000000000E+00  0.00000000000E+00  0.89654229028E+03  0.89654229028E+03  0.00000000000E+00 0.  1.
         -2   -1    0    0    0  501 -0.00000000000E+00 -0.00000000000E+00 -0.27947507844E+03  0.27947507844E+03  0.00000000000E+00 0.  1.
         36    2    1    2    0    0 -0.46185277824E-13  0.00000000000E+00  0.61706721184E+03  0.11760173687E+04  0.10011218246E+04 0.  0.
         25    2    3    3    0    0 -0.28304273219E+02 -0.10196902889E+02 -0.43725653683E+02  0.13921892126E+03  0.12870457076E+03 0.  0.
         35    2    3    3    0    0  0.28304273219E+02  0.10196902889E+02  0.66079286552E+03  0.10367984475E+04  0.79837253262E+03 0.  0.
         22    1    5    5    0    0  0.36044126488E+03  0.16421398147E+03  0.18692858566E+03  0.43797994621E+03  0.00000000000E+00 0.  1.
         22    1    5    5    0    0 -0.33213699167E+03 -0.15401707858E+03  0.47386427986E+03  0.59881850126E+03  0.00000000000E+00 0.  1.
          5    1    4    4  502    0  0.77148734814E+01 -0.48926204746E+02  0.22273747971E+02  0.54511490828E+02  0.47000000000E+01 0.  1.
         -5    1    4    4    0  502 -0.36019146700E+02  0.38729301857E+02 -0.65999401653E+02  0.84707430429E+02  0.47000000000E+01 0.  1.
<mgrwt>
<rscale>  0 0.10011218E+04</rscale>
<asrwt>0</asrwt>
<pdfrwt beam="1">  1        2 0.13792958E+00 0.10011218E+04</pdfrwt>
<pdfrwt beam="2">  1       -2 0.42996166E-01 0.10011218E+04</pdfrwt>
<totfact> 0.18292834E+02</totfact>
</mgrwt>
</event>
<event>
 9    1  0.4236486E-036  0.1000768E+04  0.7818608E-02  0.8680306E-01
          2   -1    0    0  501    0  0.00000000000E+00  0.00000000000E+00  0.17092702237E+03  0.17092702237E+03  0.00000000000E+00 0. -1.
         -2   -1    0    0    0  501 -0.00000000000E+00 -0.00000000000E+00 -0.14648613103E+04  0.14648613103E+04  0.00000000000E+00 0. -1.
         36    2    1    2    0    0  0.00000000000E+00 -0.14210854715E-13 -0.12939342880E+04  0.16357883327E+04  0.10007684686E+04 0.  0.
         25    2    3    3    0    0  0.72557590940E+02  0.12032214609E+03 -0.28156047833E+03  0.33835467832E+03  0.12436061491E+03 0.  0.
         35    2    3    3    0    0 -0.72557590940E+02 -0.12032214609E+03 -0.10123738096E+04  0.12974336544E+04  0.79918166536E+03 0.  0.
         22    1    5    5    0    0 -0.40001257907E+03 -0.21997990151E+03 -0.46338927615E+03  0.65048508187E+03  0.00000000000E+00 0. -1.
         22    1    5    5    0    0  0.32745498813E+03  0.99657755422E+02 -0.54898453349E+03  0.64694857252E+03  0.00000000000E+00 0. -1.
          5    1    4    4  502    0  0.10273377083E+03  0.10547887579E+03 -0.25776122650E+03  0.29688880207E+03  0.47000000000E+01 0.  1.
         -5    1    4    4    0  502 -0.30176179886E+02  0.14843270293E+02 -0.23799251825E+02  0.41465876247E+02  0.47000000000E+01 0.  1.
<mgrwt>
<rscale>  0 0.10007685E+04</rscale>
<asrwt>0</asrwt>
<pdfrwt beam="1">  1        2 0.26296465E-01 0.10007685E+04</pdfrwt>
<pdfrwt beam="2">  1       -2 0.22536328E+00 0.10007685E+04</pdfrwt>
<totfact> 0.20370106E+01</totfact>
</mgrwt>
</event>
<event>
 9    1  0.4236486E-036  0.1000481E+04  0.7818608E-02  0.8680580E-01
          2   -1    0    0  501    0  0.00000000000E+00  0.00000000000E+00  0.14713869913E+04  0.14713869913E+04  0.00000000000E+00 0. -1.
         -2   -1    0    0    0  501 -0.00000000000E+00 -0.00000000000E+00 -0.17007128996E+03  0.17007128996E+03  0.00000000000E+00 0. -1.
         36    2    1    2    0    0  0.14210854715E-13 -0.28421709430E-13  0.13013157014E+04  0.16414582813E+04  0.10004812515E+04 0.  0.
         25    2    3    3    0    0  0.42207056696E+02  0.13711850402E+03  0.25094878367E+03  0.31517024797E+03  0.12559487811E+03 0.  0.
         35    2    3    3    0    0 -0.42207056696E+02 -0.13711850402E+03  0.10503669177E+04  0.13262880333E+04  0.79698580021E+03 0.  0.
         22    1    5    5    0    0  0.28549595651E+03 -0.26903814330E+03  0.28991899022E+03  0.48779348563E+03  0.00000000000E+00 0.  1.
         22    1    5    5    0    0 -0.32770301320E+03  0.13191963928E+03  0.76044792750E+03  0.83849454771E+03  0.00000000000E+00 0.  1.
          5    1    4    4  502    0 -0.44918850149E+02  0.49937527205E+02  0.88351522239E+02  0.11108348754E+03  0.47000000000E+01 0.  1.
         -5    1    4    4    0  502  0.87125906845E+02  0.87180976813E+02  0.16259726143E+03  0.20408676044E+03  0.47000000000E+01 0.  1.
<mgrwt>
<rscale>  0 0.10004813E+04</rscale>
<asrwt>0</asrwt>
<pdfrwt beam="1">  1        2 0.22636722E+00 0.10004813E+04</pdfrwt>
<pdfrwt beam="2">  1       -2 0.26164815E-01 0.10004813E+04</pdfrwt>
<totfact> 0.20804285E+02</totfact>
</mgrwt>
</event>
<event>
 9    1  0.4236486E-036  0.9996591E+03  0.7818608E-02  0.8681363E-01
         -1   -1    0    0    0  501 -0.00000000000E+00  0.00000000000E+00  0.60977748405E+03  0.60977748405E+03  0.00000000000E+00 0. -1.
          1   -1    0    0  501    0  0.00000000000E+00 -0.00000000000E+00 -0.40970613149E+03  0.40970613149E+03  0.00000000000E+00 0. -1.
         36    2    1    2    0    0 -0.56843418861E-13 -0.71054273576E-14  0.20007135256E+03  0.10194836155E+04  0.99965909001E+03 0.  0.
         25    2    3    3    0    0 -0.89914460877E+02 -0.55843771687E+02 -0.58025480144E+02  0.17324646448E+03  0.12427487275E+03 0.  0.
         35    2    3    3    0    0  0.89914460877E+02  0.55843771687E+02  0.25809683271E+03  0.84623715106E+03  0.79893692096E+03 0.  0.
         22    1    5    5    0    0 -0.32126322483E+03  0.18175231475E+02  0.28856449059E+03  0.43221506672E+03  0.00000000000E+00 0. -1.
         22    1    5    5    0    0  0.41117768571E+03  0.37668540212E+02 -0.30467657884E+02  0.41402208434E+03  0.00000000000E+00 0. -1.
          5    1    4    4  502    0 -0.68220328921E+02  0.21053855794E+02  0.44860620598E+01  0.71690256483E+02  0.47000000000E+01 0. -1.
         -5    1    4    4    0  502 -0.21694131957E+02 -0.76897627481E+02 -0.62511542204E+02  0.10155620799E+03  0.47000000000E+01 0. -1.
<mgrwt>
<rscale>  0 0.99965909E+03</rscale>
<asrwt>0</asrwt>
<pdfrwt beam="1">  1        1 0.63031713E-01 0.99965909E+03</pdfrwt>
<pdfrwt beam="2">  1       -1 0.93811920E-01 0.99965909E+03</pdfrwt>
<totfact> 0.76386484E+01</totfact>
</mgrwt>
</event>
<event>
 9    1  0.4236486E-036  0.9976111E+03  0.7818608E-02  0.8683316E-01
         -3   -1    0    0    0  501 -0.00000000000E+00  0.00000000000E+00  0.20157447598E+03  0.20157447598E+03  0.00000000000E+00 0.  1.
          3   -1    0    0  501    0  0.00000000000E+00 -0.00000000000E+00 -0.12343178385E+04  0.12343178385E+04  0.00000000000E+00 0.  1.
         36    2    1    2    0    0  0.42632564146E-13 -0.71054273576E-14 -0.10327433625E+04  0.14358923145E+04  0.99761108953E+03 0.  0.
         25    2    3    3    0    0 -0.67885934454E+02  0.63688292126E+02 -0.47975854282E+02  0.16374056274E+03  0.12587529798E+03 0.  0.
         35    2    3    3    0    0  0.67885934454E+02 -0.63688292126E+02 -0.98476750824E+03  0.12721517517E+04  0.79996145877E+03 0.  0.
         22    1    5    5    0    0 -0.29439526856E+03 -0.81875597895E+02 -0.10932856170E+03  0.32453801331E+03  0.00000000000E+00 0. -1.
         22    1    5    5    0    0  0.36228120301E+03  0.18187305769E+02 -0.87543894654E+03  0.94761373843E+03  0.00000000000E+00 0. -1.
          5    1    4    4  502    0 -0.75424983607E+02  0.92102064398E+02 -0.16261179773E+02  0.12024239845E+03  0.47000000000E+01 0. -1.
         -5    1    4    4    0  502  0.75390491523E+01 -0.28413772272E+02 -0.31714674509E+02  0.43498164284E+02  0.47000000000E+01 0. -1.
<mgrwt>
<rscale>  0 0.99761109E+03</rscale>
<asrwt>0</asrwt>
<pdfrwt beam="1">  1        3 0.18989505E+00 0.99761109E+03</pdfrwt>
<pdfrwt beam="2">  1       -3 0.31011458E-01 0.99761109E+03</pdfrwt>
<totfact> 0.70275280E+00</totfact>
</mgrwt>
</event>
<event>
 9    1  0.4236486E-036  0.1000703E+04  0.7818608E-02  0.8680369E-01
         -2   -1    0    0    0  501 -0.00000000000E+00  0.00000000000E+00  0.17411101432E+03  0.17411101432E+03  0.00000000000E+00 0. -1.
          2   -1    0    0  501    0  0.00000000000E+00 -0.00000000000E+00 -0.14378853316E+04  0.14378853316E+04  0.00000000000E+00 0. -1.
         36    2    1    2    0    0  0.28421709430E-13  0.00000000000E+00 -0.12637743173E+04  0.16119963459E+04  0.10007030999E+04 0.  0.
         25    2    3    3    0    0 -0.58178154208E+02  0.84646118383E+02 -0.39343180154E+03  0.42544672840E+03  0.12516658203E+03 0.  0.
         35    2    3    3    0    0  0.58178154208E+02 -0.84646118383E+02 -0.87034251573E+03  0.11865496175E+04  0.79990889303E+03 0.  0.
         22    1    5    5    0    0 -0.23641959996E+03 -0.26383234856E+02  0.27824382938E+02  0.23950886959E+03  0.00000000000E+00 0.  1.
         22    1    5    5    0    0  0.29459775417E+03 -0.58262883526E+02 -0.89816689867E+03  0.94704074792E+03  0.00000000000E+00 0.  1.
          5    1    4    4  502    0 -0.47413235183E+02  0.11004463800E+03 -0.22747692616E+03  0.25714913797E+03  0.47000000000E+01 0. -1.
         -5    1    4    4    0  502 -0.10764919025E+02 -0.25398519621E+02 -0.16595487539E+03  0.16829759043E+03  0.47000000000E+01 0. -1.
<mgrwt>
<rscale>  0 0.10007031E+04</rscale>
<asrwt>0</asrwt>
<pdfrwt beam="1">  1        2 0.22121314E+00 0.10007031E+04</pdfrwt>
<pdfrwt beam="2">  1       -2 0.26786309E-01 0.10007031E+04</pdfrwt>
<totfact> 0.20842930E+02</totfact>
</mgrwt>
</event>
<event>
 9    1  0.4236486E-036  0.9994492E+03  0.7818608E-02  0.8681563E-01
         -2   -1    0    0    0  501 -0.00000000000E+00  0.00000000000E+00  0.30416670409E+03  0.30416670409E+03  0.00000000000E+00 0.  1.
          2   -1    0    0  501    0  0.00000000000E+00 -0.00000000000E+00 -0.82101249263E+03  0.82101249263E+03  0.00000000000E+00 0.  1.
         36    2    1    2    0    0 -0.71054273576E-14 -0.14210854715E-13 -0.51684578854E+03  0.11251791967E+04  0.99944917610E+03 0.  0.
         25    2    3    3    0    0 -0.28412010812E+02  0.11325810073E+03 -0.18328016275E+03  0.25086230578E+03  0.12532213956E+03 0.  0.
         35    2    3    3    0    0  0.28412010812E+02 -0.11325810073E+03 -0.33356562578E+03  0.87431689094E+03  0.79970579549E+03 0.  0.
         22    1    5    5    0    0 -0.22826280357E+02  0.23895133205E+03 -0.44137963411E+03  0.50242886020E+03  0.00000000000E+00 0. -1.
         22    1    5    5    0    0  0.51238291169E+02 -0.35220943277E+03  0.10781400832E+03  0.37188803074E+03  0.00000000000E+00 0. -1.
          5    1    4    4  502    0  0.42017429830E+02  0.83722001564E+02 -0.11417005922E+03  0.14775564415E+03  0.47000000000E+01 0. -1.
         -5    1    4    4    0  502 -0.70429440642E+02  0.29536099162E+02 -0.69110103535E+02  0.10310666164E+03  0.47000000000E+01 0. -1.
<mgrwt>
<rscale>  0 0.99944918E+03</rscale>
<asrwt>0</asrwt>
<pdfrwt beam="1">  1        2 0.12630961E+00 0.99944918E+03</pdfrwt>
<pdfrwt beam="2">  1       -2 0.46794877E-01 0.99944918E+03</pdfrwt>
<totfact> 0.17430102E+02</totfact>
</mgrwt>
</event>
<event>
 9    1  0.4236486E-036  0.1000189E+04  0.7818608E-02  0.8680858E-01
          2   -1    0    0  501    0  0.00000000000E+00  0.00000000000E+00  0.16475336138E+04  0.16475336138E+04  0.00000000000E+00 0. -1.
         -2   -1    0    0    0  501 -0.00000000000E+00 -0.00000000000E+00 -0.15179943207E+03  0.15179943207E+03  0.00000000000E+00 0. -1.
         36    2    1    2    0    0 -0.14210854715E-13  0.00000000000E+00  0.14957341817E+04  0.17993330459E+04  0.10001893159E+04 0.  0.
         25    2    3    3    0    0 -0.10738442018E+03  0.90876871824E+02  0.32255288114E+03  0.37369506983E+03  0.12576813808E+03 0.  0.
         35    2    3    3    0    0  0.10738442018E+03 -0.90876871824E+02  0.11731813006E+04  0.14256379760E+04  0.79768368112E+03 0.  0.
         22    1    5    5    0    0 -0.15045762263E+02 -0.43862760438E+03  0.58226428885E+03  0.72914487748E+03  0.00000000000E+00 0. -1.
         22    1    5    5    0    0  0.12243018244E+03  0.34775073256E+03  0.59091701175E+03  0.69649309856E+03  0.00000000000E+00 0. -1.
          5    1    4    4  502    0 -0.35502131620E+02  0.42772385971E+02  0.20443644951E+02  0.59413053869E+02  0.47000000000E+01 0.  1.
         -5    1    4    4    0  502 -0.71882288560E+02  0.48104485853E+02  0.30210923618E+03  0.31428201596E+03  0.47000000000E+01 0.  1.
<mgrwt>
<rscale>  0 0.10001893E+04</rscale>
<asrwt>0</asrwt>
<pdfrwt beam="1">  1        2 0.25346670E+00 0.10001893E+04</pdfrwt>
<pdfrwt beam="2">  1       -2 0.23353760E-01 0.10001893E+04</pdfrwt>
<totfact> 0.20236045E+02</totfact>
</mgrwt>
</event>
<event>
 9    1  0.4236486E-036  0.9993356E+03  0.7818608E-02  0.8681671E-01
          2   -1    0    0  501    0  0.00000000000E+00  0.00000000000E+00  0.94910732082E+03  0.94910732082E+03  0.00000000000E+00 0.  1.
         -2   -1    0    0    0  501 -0.00000000000E+00 -0.00000000000E+00 -0.26305552841E+03  0.26305552841E+03  0.00000000000E+00 0.  1.
         36    2    1    2    0    0  0.24868995752E-13 -0.28421709430E-13  0.68605179241E+03  0.12121628492E+04  0.99933563491E+03 0.  0.
         25    2    3    3    0    0 -0.24550696173E+02  0.10961323353E+03  0.22946935271E+03  0.28435637979E+03  0.12483817225E+03 0.  0.
         35    2    3    3    0    0  0.24550696173E+02 -0.10961323353E+03  0.45658243970E+03  0.92780646944E+03  0.79983718521E+03 0.  0.
         22    1    5    5    0    0  0.30317025937E+03 -0.22558598076E+03 -0.31076354690E+01  0.37790329223E+03  0.00000000000E+00 0. -1.
         22    1    5    5    0    0 -0.27861956320E+03  0.11597274723E+03  0.45969007517E+03  0.54990317721E+03  0.00000000000E+00 0. -1.
          5    1    4    4  502    0 -0.70014779931E+01  0.44005130767E+02 -0.20379890902E+00  0.44806291544E+02  0.47000000000E+01 0. -1.
         -5    1    4    4    0  502 -0.17549218180E+02  0.65608102763E+02  0.22967315162E+03  0.23955008825E+03  0.47000000000E+01 0. -1.
<mgrwt>
<rscale>  0 0.99933563E+03</rscale>
<asrwt>0</asrwt>
<pdfrwt beam="1">  1        2 0.14601651E+00 0.99933563E+03</pdfrwt>
<pdfrwt beam="2">  1       -2 0.40470082E-01 0.99933563E+03</pdfrwt>
<totfact> 0.19002340E+02</totfact>
</mgrwt>
</event>
<event>
 9    1  0.4236486E-036  0.1000002E+04  0.7818608E-02  0.8681036E-01
         -2   -1    0    0    0  501 -0.00000000000E+00  0.00000000000E+00  0.38139153391E+03  0.38139153391E+03  0.00000000000E+00 0. -1.
          2   -1    0    0  501    0  0.00000000000E+00 -0.00000000000E+00 -0.65549762413E+03  0.65549762413E+03  0.00000000000E+00 0. -1.
         36    2    1    2    0    0  0.14210854715E-13  0.00000000000E+00 -0.27410609022E+03  0.10368891580E+04  0.10000024887E+04 0.  0.
         25    2    3    3    0    0  0.44379286361E+02 -0.11406974710E+03 -0.11156577509E+03  0.20975748058E+03  0.12872393027E+03 0.  0.
         35    2    3    3    0    0 -0.44379286361E+02  0.11406974710E+03 -0.16254031514E+03  0.82713167746E+03  0.80171443143E+03 0.  0.
         22    1    5    5    0    0  0.32818184775E+03  0.34146996243E+02 -0.27534315295E+03  0.42974782654E+03  0.00000000000E+00 0. -1.
         22    1    5    5    0    0 -0.37256113411E+03  0.79922750862E+02  0.11280283781E+03  0.39738385092E+03  0.00000000000E+00 0. -1.
          5    1    4    4  502    0  0.40400010787E+02 -0.13586625264E+03 -0.11980745940E+03  0.18565483243E+03  0.47000000000E+01 0.  1.
         -5    1    4    4    0  502  0.39792755739E+01  0.21796505532E+02  0.82416843067E+01  0.24102648148E+02  0.47000000000E+01 0.  1.
<mgrwt>
<rscale>  0 0.10000025E+04</rscale>
<asrwt>0</asrwt>
<pdfrwt beam="1">  1        2 0.10084579E+00 0.10000025E+04</pdfrwt>
<pdfrwt beam="2">  1       -2 0.58675621E-01 0.10000025E+04</pdfrwt>
<totfact> 0.14616548E+02</totfact>
</mgrwt>
</event>
<event>
 9    1  0.4236486E-036  0.1000442E+04  0.7818608E-02  0.8680618E-01
          1   -1    0    0  501    0  0.00000000000E+00  0.00000000000E+00  0.39335136630E+03  0.39335136630E+03  0.00000000000E+00 0.  1.
         -1   -1    0    0    0  501 -0.00000000000E+00 -0.00000000000E+00 -0.63612548636E+03  0.63612548636E+03  0.00000000000E+00 0.  1.
         36    2    1    2    0    0  0.00000000000E+00  0.35527136788E-14 -0.24277412006E+03  0.10294768527E+04  0.10004415609E+04 0.  0.
         25    2    3    3    0    0  0.69733468332E+02 -0.15583805130E+02  0.79296813663E+02  0.16415587352E+03  0.12471389083E+03 0.  0.
         35    2    3    3    0    0 -0.69733468332E+02  0.15583805130E+02 -0.32207093373E+03  0.86532097914E+03  0.79996568614E+03 0.  0.
         22    1    5    5    0    0 -0.18187700015E+03  0.56869760324E+02  0.23101719825E+03  0.29947012992E+03  0.00000000000E+00 0. -1.
         22    1    5    5    0    0  0.11214353182E+03 -0.41285955193E+02 -0.55308813198E+03  0.56585084922E+03  0.00000000000E+00 0. -1.
          5    1    4    4  502    0  0.22721142996E+02 -0.37884286692E+02  0.98848236987E+02  0.10837219880E+03  0.47000000000E+01 0.  1.
         -5    1    4    4    0  502  0.47012325337E+02  0.22300481562E+02 -0.19551423324E+02  0.55783674722E+02  0.47000000000E+01 0.  1.
<mgrwt>
<rscale>  0 0.10004416E+04</rscale>
<asrwt>0</asrwt>
<pdfrwt beam="1">  1        1 0.60515595E-01 0.10004416E+04</pdfrwt>
<pdfrwt beam="2">  1       -1 0.97865458E-01 0.10004416E+04</pdfrwt>
<totfact> 0.73505423E+01</totfact>
</mgrwt>
</event>
<event>
 9    1  0.4236486E-036  0.9986474E+03  0.7818608E-02  0.8682327E-01
          1   -1    0    0  501    0  0.00000000000E+00  0.00000000000E+00  0.12021887875E+04  0.12021887875E+04  0.00000000000E+00 0. -1.
         -1   -1    0    0    0  501 -0.00000000000E+00 -0.00000000000E+00 -0.20739187024E+03  0.20739187024E+03  0.00000000000E+00 0. -1.
         36    2    1    2    0    0  0.14210854715E-13  0.00000000000E+00  0.99479691723E+03  0.14095806577E+04  0.99864744734E+03 0.  0.
         25    2    3    3    0    0 -0.99145303563E+02  0.66687250312E+02  0.90675937491E+02  0.19698455158E+03  0.12768636321E+03 0.  0.
         35    2    3    3    0    0  0.99145303563E+02 -0.66687250312E+02  0.90412097974E+03  0.12125961061E+04  0.79917306639E+03 0.  0.
         22    1    5    5    0    0 -0.71657338180E+02 -0.15982994780E+03  0.98606008244E+03  0.10014963168E+04  0.00000000000E+00 0.  1.
         22    1    5    5    0    0  0.17080264174E+03  0.93142697488E+02 -0.81939102694E+02  0.21109978937E+03  0.00000000000E+00 0.  1.
          5    1    4    4  502    0 -0.11274202089E+02 -0.51004754164E+01  0.82030311366E+02  0.83091422331E+02  0.47000000000E+01 0.  1.
         -5    1    4    4    0  502 -0.87871101474E+02  0.71787725728E+02  0.86456261254E+01  0.11389312925E+03  0.47000000000E+01 0.  1.
<mgrwt>
<rscale>  0 0.99864745E+03</rscale>
<asrwt>0</asrwt>
<pdfrwt beam="1">  1        1 0.18495212E+00 0.99864745E+03</pdfrwt>
<pdfrwt beam="2">  1       -1 0.31906442E-01 0.99864745E+03</pdfrwt>
<totfact> 0.10739578E+02</totfact>
</mgrwt>
</event>
<event>
 9    1  0.4236486E-036  0.9998933E+03  0.7818608E-02  0.8681140E-01
          1   -1    0    0  501    0  0.00000000000E+00  0.00000000000E+00  0.15050867447E+03  0.15050867447E+03  0.00000000000E+00 0. -1.
         -1   -1    0    0    0  501 -0.00000000000E+00 -0.00000000000E+00 -0.16606793429E+04  0.16606793429E+04  0.00000000000E+00 0. -1.
         36    2    1    2    0    0  0.28421709430E-13  0.00000000000E+00 -0.15101706684E+04  0.18111880174E+04  0.99989328754E+03 0.  0.
         25    2    3    3    0    0 -0.10842870778E+03  0.82267298290E+02 -0.37272792581E+03  0.41424775906E+03  0.11895547976E+03 0.  0.
         35    2    3    3    0    0  0.10842870778E+03 -0.82267298290E+02 -0.11374427426E+04  0.13969402583E+04  0.79946319460E+03 0.  0.
         22    1    5    5    0    0 -0.15000927654E+03 -0.52807624682E+02  0.61197992429E+02  0.17040135725E+03  0.00000000000E+00 0. -1.
         22    1    5    5    0    0  0.25843798433E+03 -0.29459673608E+02 -0.11986407351E+04  0.12265389011E+04  0.00000000000E+00 0. -1.
          5    1    4    4  502    0 -0.10579486556E+03  0.98280686358E+02 -0.23767644548E+03  0.27814354141E+03  0.47000000000E+01 0. -1.
         -5    1    4    4    0  502 -0.26338422194E+01 -0.16013388068E+02 -0.13505148033E+03  0.13610421765E+03  0.47000000000E+01 0. -1.
<mgrwt>
<rscale>  0 0.99989329E+03</rscale>
<asrwt>0</asrwt>
<pdfrwt beam="1">  1        1 0.23155181E-01 0.99989329E+03</pdfrwt>
<pdfrwt beam="2">  1       -1 0.25548913E+00 0.99989329E+03</pdfrwt>
<totfact> 0.10745534E+01</totfact>
</mgrwt>
</event>
<event>
 9    1  0.4236486E-036  0.1001635E+04  0.7818608E-02  0.8679482E-01
         -2   -1    0    0    0  501 -0.00000000000E+00  0.00000000000E+00  0.37915216945E+03  0.37915216945E+03  0.00000000000E+00 0.  1.
          2   -1    0    0  501    0  0.00000000000E+00 -0.00000000000E+00 -0.66152403945E+03  0.66152403945E+03  0.00000000000E+00 0.  1.
         36    2    1    2    0    0  0.14210854715E-13  0.00000000000E+00 -0.28237186999E+03  0.10406762089E+04  0.10016352124E+04 0.  0.
         25    2    3    3    0    0 -0.29434912563E+02 -0.10217252881E+03 -0.15336347642E+03  0.22345134349E+03  0.12290039579E+03 0.  0.
         35    2    3    3    0    0  0.29434912563E+02  0.10217252881E+03 -0.12900839357E+03  0.81722486541E+03  0.79994229499E+03 0.  0.
         22    1    5    5    0    0 -0.27520254534E+03 -0.78008894509E+02  0.18782238666E+03  0.34219742476E+03  0.00000000000E+00 0. -1.
         22    1    5    5    0    0  0.30463745790E+03  0.18018142332E+03 -0.31683078023E+03  0.47502744065E+03  0.00000000000E+00 0. -1.
          5    1    4    4  502    0 -0.73260474545E+02 -0.38137599623E+02 -0.96675694756E+02  0.12723935552E+03  0.47000000000E+01 0. -1.
         -5    1    4    4    0  502  0.43825561982E+02 -0.64034929192E+02 -0.56687781666E+02  0.96211987974E+02  0.47000000000E+01 0. -1.
<mgrwt>
<rscale>  0 0.10016352E+04</rscale>
<asrwt>0</asrwt>
<pdfrwt beam="1">  1        2 0.10177293E+00 0.10016352E+04</pdfrwt>
<pdfrwt beam="2">  1       -2 0.58331104E-01 0.10016352E+04</pdfrwt>
<totfact> 0.14632511E+02</totfact>
</mgrwt>
</event>
<event>
 9    1  0.4236486E-036  0.1000133E+04  0.7818608E-02  0.8680911E-01
          2   -1    0    0  501    0  0.00000000000E+00  0.00000000000E+00  0.31583864263E+03  0.31583864263E+03  0.00000000000E+00 0. -1.
         -2   -1    0    0    0  501 -0.00000000000E+00 -0.00000000000E+00 -0.79175407729E+03  0.79175407729E+03  0.00000000000E+00 0. -1.
         36    2    1    2    0    0  0.00000000000E+00  0.14210854715E-13 -0.47591543466E+03  0.11075927199E+04  0.10001330573E+04 0.  0.
         25    2    3    3    0    0 -0.13072997949E+03  0.50363522224E+02 -0.97819079064E+02  0.21212945098E+03  0.12571205127E+03 0.  0.
         35    2    3    3    0    0  0.13072997949E+03 -0.50363522224E+02 -0.37809635559E+03  0.89546326894E+03  0.79954412011E+03 0.  0.
         22    1    5    5    0    0  0.34375609226E+03 -0.12678919774E+03 -0.51418975111E+03  0.63137536520E+03  0.00000000000E+00 0. -1.
         22    1    5    5    0    0 -0.21302611277E+03  0.76425675513E+02  0.13609339552E+03  0.26408790375E+03  0.00000000000E+00 0. -1.
          5    1    4    4  502    0 -0.51801771231E+02  0.31120693514E+02 -0.11404453355E+03  0.12915171969E+03  0.47000000000E+01 0.  1.
         -5    1    4    4    0  502 -0.78928208258E+02  0.19242828710E+02  0.16225454485E+02  0.82977731283E+02  0.47000000000E+01 0.  1.
<mgrwt>
<rscale>  0 0.10001331E+04</rscale>
<asrwt>0</asrwt>
<pdfrwt beam="1">  1        2 0.48590561E-01 0.10001331E+04</pdfrwt>
<pdfrwt beam="2">  1       -2 0.12180832E+00 0.10001331E+04</pdfrwt>
<totfact> 0.61723739E+01</totfact>
</mgrwt>
</event>
<event>
 9    1  0.4236486E-036  0.1005140E+04  0.7818608E-02  0.8676158E-01
          2   -1    0    0  501    0  0.00000000000E+00  0.00000000000E+00  0.59428963889E+03  0.59428963889E+03  0.00000000000E+00 0. -1.
         -2   -1    0    0    0  501 -0.00000000000E+00 -0.00000000000E+00 -0.42500626694E+03  0.42500626694E+03  0.00000000000E+00 0. -1.
         36    2    1    2    0    0 -0.14210854715E-13 -0.28421709430E-13  0.16928337195E+03  0.10192959058E+04  0.10051404298E+04 0.  0.
         25    2    3    3    0    0 -0.63578156871E+02  0.43002746699E+02 -0.94892150828E+02  0.17418985657E+03  0.12428261177E+03 0.  0.
         35    2    3    3    0    0  0.63578156871E+02 -0.43002746699E+02  0.26417552278E+03  0.84510604925E+03  0.79907703596E+03 0.  0.
         22    1    5    5    0    0 -0.74033909532E+02  0.35484816769E+03  0.30868411814E+02  0.36380090808E+03  0.00000000000E+00 0.  1.
         22    1    5    5    0    0  0.13761206640E+03 -0.39785091438E+03  0.23330711096E+03  0.48130514118E+03  0.00000000000E+00 0.  1.
          5    1    4    4  502    0  0.19392171988E+02  0.54400128443E+02 -0.18745260455E+02  0.60900780771E+02  0.47000000000E+01 0. -1.
         -5    1    4    4    0  502 -0.82970328859E+02 -0.11397381745E+02 -0.76146890373E+02  0.11328907580E+03  0.47000000000E+01 0. -1.
<mgrwt>
<rscale>  0 0.10051404E+04</rscale>
<asrwt>0</asrwt>
<pdfrwt beam="1">  1        2 0.91429175E-01 0.10051404E+04</pdfrwt>
<pdfrwt beam="2">  1       -2 0.65385579E-01 0.10051404E+04</pdfrwt>
<totfact> 0.13086895E+02</totfact>
</mgrwt>
</event>
<event>
 9    1  0.4236486E-036  0.9981236E+03  0.7818608E-02  0.8682827E-01
         -1   -1    0    0    0  501 -0.00000000000E+00  0.00000000000E+00  0.53940224481E+03  0.53940224481E+03  0.00000000000E+00 0.  1.
          1   -1    0    0  501    0  0.00000000000E+00 -0.00000000000E+00 -0.46173826368E+03  0.46173826368E+03  0.00000000000E+00 0.  1.
         36    2    1    2    0    0  0.71054273576E-14 -0.35527136788E-14  0.77663981122E+02  0.10011405085E+04  0.99812355136E+03 0.  0.
         25    2    3    3    0    0 -0.42992782793E+02  0.30458240605E+02 -0.11240495803E+03  0.17639898469E+03  0.12532215851E+03 0.  0.
         35    2    3    3    0    0  0.42992782793E+02 -0.30458240605E+02  0.19006893915E+03  0.82474152380E+03  0.80080977495E+03 0.  0.
         22    1    5    5    0    0  0.27117762437E+03 -0.79332284001E+02 -0.21650474044E+03  0.35595676405E+03  0.00000000000E+00 0.  1.
         22    1    5    5    0    0 -0.22818484157E+03  0.48874043397E+02  0.40657367959E+03  0.46878475975E+03  0.00000000000E+00 0.  1.
          5    1    4    4  502    0  0.42184132817E+02 -0.27209960571E+01 -0.22578681631E+02  0.48153834170E+02  0.47000000000E+01 0.  1.
         -5    1    4    4    0  502 -0.85176915611E+02  0.33179236662E+02 -0.89826276402E+02  0.12824515052E+03  0.47000000000E+01 0.  1.
<mgrwt>
<rscale>  0 0.99812355E+03</rscale>
<asrwt>0</asrwt>
<pdfrwt beam="1">  1        1 0.71036656E-01 0.99812355E+03</pdfrwt>
<pdfrwt beam="2">  1       -1 0.82984961E-01 0.99812355E+03</pdfrwt>
<totfact> 0.84499591E+01</totfact>
</mgrwt>
</event>
<event>
 9    1  0.4236486E-036  0.1000604E+04  0.7818608E-02  0.8680463E-01
         -2   -1    0    0    0  501 -0.00000000000E+00  0.00000000000E+00  0.41222873723E+03  0.41222873723E+03  0.00000000000E+00 0. -1.
          2   -1    0    0  501    0  0.00000000000E+00 -0.00000000000E+00 -0.60719224433E+03  0.60719224433E+03  0.00000000000E+00 0. -1.
         36    2    1    2    0    0  0.00000000000E+00 -0.42632564146E-13 -0.19496350710E+03  0.10194209816E+04  0.10006040019E+04 0.  0.
         25    2    3    3    0    0  0.97472884156E+02  0.53825748897E+02  0.44926884383E+02  0.17378897226E+03  0.12564237958E+03 0.  0.
         35    2    3    3    0    0 -0.97472884156E+02 -0.53825748897E+02 -0.23989039148E+03  0.84563200930E+03  0.80321100643E+03 0.  0.
         22    1    5    5    0    0 -0.24815079668E+03  0.27653472280E+03  0.57899878764E+02  0.37603545945E+03  0.00000000000E+00 0. -1.
         22    1    5    5    0    0  0.15067791253E+03 -0.33036047169E+03 -0.29779027024E+03  0.46959654985E+03  0.00000000000E+00 0. -1.
          5    1    4    4  502    0  0.68976062291E+02 -0.95482124656E+01  0.70872666313E+02  0.99468036880E+02  0.47000000000E+01 0. -1.
         -5    1    4    4    0  502  0.28496821865E+02  0.63373961363E+02 -0.25945781930E+02  0.74320935376E+02  0.47000000000E+01 0. -1.
<mgrwt>
<rscale>  0 0.10006040E+04</rscale>
<asrwt>0</asrwt>
<pdfrwt beam="1">  1        2 0.93414191E-01 0.10006040E+04</pdfrwt>
<pdfrwt beam="2">  1       -2 0.63419806E-01 0.10006040E+04</pdfrwt>
<totfact> 0.13613490E+02</totfact>
</mgrwt>
</event>
<event>
 9    1  0.4236486E-036  0.9997269E+03  0.7818608E-02  0.8681298E-01
          2   -1    0    0  501    0  0.00000000000E+00  0.00000000000E+00  0.61494665382E+03  0.61494665382E+03  0.00000000000E+00 0.  1.
         -2   -1    0    0    0  501 -0.00000000000E+00 -0.00000000000E+00 -0.40631730157E+03  0.40631730157E+03  0.00000000000E+00 0.  1.
         36    2    1    2    0    0 -0.71054273576E-14 -0.14210854715E-13  0.20862935225E+03  0.10212639554E+04  0.99972689270E+03 0.  0.
         25    2    3    3    0    0  0.13116700941E+02  0.10409111422E+03  0.13065667675E+03  0.21061950809E+03  0.12760251605E+03 0.  0.
         35    2    3    3    0    0 -0.13116700941E+02 -0.10409111422E+03  0.77972675502E+02  0.81064444731E+03  0.80003604540E+03 0.  0.
         22    1    5    5    0    0 -0.22995356985E+03 -0.21024342120E+03 -0.25273184159E+03  0.40119113176E+03  0.00000000000E+00 0. -1.
         22    1    5    5    0    0  0.21683686891E+03  0.10615230698E+03  0.33070451710E+03  0.40945331556E+03  0.00000000000E+00 0. -1.
          5    1    4    4  502    0 -0.11400396045E+02  0.10010723051E+02 -0.23464678220E+02  0.28334867742E+02  0.47000000000E+01 0.  1.
         -5    1    4    4    0  502  0.24517096986E+02  0.94080391172E+02  0.15412135497E+03  0.18228464034E+03  0.47000000000E+01 0.  1.
<mgrwt>
<rscale>  0 0.99972689E+03</rscale>
<asrwt>0</asrwt>
<pdfrwt beam="1">  1        2 0.94607177E-01 0.99972689E+03</pdfrwt>
<pdfrwt beam="2">  1       -2 0.62510355E-01 0.99972689E+03</pdfrwt>
<totfact> 0.13824832E+02</totfact>
</mgrwt>
</event>
<event>
 9    1  0.4236486E-036  0.1000156E+04  0.7818608E-02  0.8680889E-01
          2   -1    0    0  501    0  0.00000000000E+00  0.00000000000E+00  0.10228785489E+04  0.10228785489E+04  0.00000000000E+00 0.  1.
         -2   -1    0    0    0  501 -0.00000000000E+00 -0.00000000000E+00 -0.24448475154E+03  0.24448475154E+03  0.00000000000E+00 0.  1.
         36    2    1    2    0    0 -0.39079850467E-13 -0.28421709430E-13  0.77839379739E+03  0.12673633005E+04  0.10001564036E+04 0.  0.
         25    2    3    3    0    0 -0.31052740438E+02 -0.12786232956E+03  0.85992995277E+02  0.20106681766E+03  0.12537951155E+03 0.  0.
         35    2    3    3    0    0  0.31052740438E+02  0.12786232956E+03  0.69240080211E+03  0.10662964828E+04  0.80016015303E+03 0.  0.
         22    1    5    5    0    0  0.40643261802E+03  0.83060773094E+02  0.24987317310E+03  0.48427592099E+03  0.00000000000E+00 0.  1.
         22    1    5    5    0    0 -0.37537987758E+03  0.44801556464E+02  0.44252762901E+03  0.58202056183E+03  0.00000000000E+00 0.  1.
          5    1    4    4  502    0 -0.20400738303E+02 -0.41265288083E+02 -0.30519914519E+02  0.55430761370E+02  0.47000000000E+01 0. -1.
         -5    1    4    4    0  502 -0.10652002136E+02 -0.86597041475E+02  0.11651290980E+03  0.14563605629E+03  0.47000000000E+01 0. -1.
<mgrwt>
<rscale>  0 0.10001564E+04</rscale>
<asrwt>0</asrwt>
<pdfrwt beam="1">  1        2 0.15736593E+00 0.10001564E+04</pdfrwt>
<pdfrwt beam="2">  1       -2 0.37613039E-01 0.10001564E+04</pdfrwt>
<totfact> 0.19621917E+02</totfact>
</mgrwt>
</event>
<event>
 9    1  0.4236486E-036  0.9994054E+03  0.7818608E-02  0.8681604E-01
         -2   -1    0    0    0  501 -0.00000000000E+00  0.00000000000E+00  0.10669092935E+03  0.10669092935E+03  0.00000000000E+00 0.  1.
          2   -1    0    0  501    0  0.00000000000E+00 -0.00000000000E+00 -0.23404311019E+04  0.23404311019E+04  0.00000000000E+00 0.  1.
         36    2    1    2    0    0 -0.71054273576E-14 -0.14210854715E-13 -0.22337401726E+04  0.24471220313E+04  0.99940536191E+03 0.  0.
         25    2    3    3    0    0 -0.56128379042E+02  0.12616806256E+03 -0.46564582322E+03  0.50163463283E+03  0.12546910864E+03 0.  0.
         35    2    3    3    0    0  0.56128379042E+02 -0.12616806256E+03 -0.17680943494E+04  0.19454873985E+04  0.79980923625E+03 0.  0.
         22    1    5    5    0    0  0.36791973741E+02 -0.18376187516E+03 -0.11413241910E+02  0.18775606032E+03  0.00000000000E+00 0.  1.
         22    1    5    5    0    0  0.19336405301E+02  0.57593812601E+02 -0.17566811075E+04  0.17577313381E+04  0.00000000000E+00 0.  1.
          5    1    4    4  502    0  0.42444475343E+01  0.97628976370E+02 -0.38289440104E+03  0.39519570432E+03  0.47000000000E+01 0.  1.
         -5    1    4    4    0  502 -0.60372826576E+02  0.28539086192E+02 -0.82751422178E+02  0.10643892851E+03  0.47000000000E+01 0.  1.
<mgrwt>
<rscale>  0 0.99940536E+03</rscale>
<asrwt>0</asrwt>
<pdfrwt beam="1">  1        2 0.36006635E+00 0.99940536E+03</pdfrwt>
<pdfrwt beam="2">  1       -2 0.16413988E-01 0.99940536E+03</pdfrwt>
<totfact> 0.14919263E+02</totfact>
</mgrwt>
</event>
<event>
 9    1  0.4236486E-036  0.1000277E+04  0.7818608E-02  0.8680775E-01
          2   -1    0    0  501    0  0.00000000000E+00  0.00000000000E+00  0.10549782032E+04  0.10549782032E+04  0.00000000000E+00 0.  1.
         -2   -1    0    0    0  501 -0.00000000000E+00 -0.00000000000E+00 -0.23710280145E+03  0.23710280145E+03  0.00000000000E+00 0.  1.
         36    2    1    2    0    0  0.28421709430E-13  0.00000000000E+00  0.81787540175E+03  0.12920810047E+04  0.10002765367E+04 0.  0.
         25    2    3    3    0    0 -0.82085185727E+02  0.99330345920E+02  0.73543562964E+02  0.19331353949E+03  0.12392325674E+03 0.  0.
         35    2    3    3    0    0  0.82085185727E+02 -0.99330345920E+02  0.74433183879E+03  0.10987674652E+04  0.79790698764E+03 0.  0.
         22    1    5    5    0    0  0.33112774078E+03  0.21980217107E+03  0.43560923911E+03  0.58967277733E+03  0.00000000000E+00 0. -1.
         22    1    5    5    0    0 -0.24904255505E+03 -0.31913251699E+03  0.30872259968E+03  0.50909468784E+03  0.00000000000E+00 0. -1.
          5    1    4    4  502    0 -0.81531495167E+02  0.66334097652E+01  0.14229058968E+02  0.83162148532E+02  0.47000000000E+01 0.  1.
         -5    1    4    4    0  502 -0.55369055977E+00  0.92696936155E+02  0.59314503996E+02  0.11015139096E+03  0.47000000000E+01 0.  1.
<mgrwt>
<rscale>  0 0.10002765E+04</rscale>
<asrwt>0</asrwt>
<pdfrwt beam="1">  1        2 0.16230434E+00 0.10002765E+04</pdfrwt>
<pdfrwt beam="2">  1       -2 0.36477355E-01 0.10002765E+04</pdfrwt>
<totfact> 0.19859707E+02</totfact>
</mgrwt>
</event>
<event>
 9    1  0.4236486E-036  0.9989480E+03  0.7818608E-02  0.8682040E-01
         -1   -1    0    0    0  501 -0.00000000000E+00  0.00000000000E+00  0.27525876322E+03  0.27525876322E+03  0.00000000000E+00 0. -1.
          1   -1    0    0  501    0  0.00000000000E+00 -0.00000000000E+00 -0.90632635404E+03  0.90632635404E+03  0.00000000000E+00 0. -1.
         36    2    1    2    0    0 -0.71054273576E-14  0.00000000000E+00 -0.63106759083E+03  0.11815851173E+04  0.99894798921E+03 0.  0.
         25    2    3    3    0    0 -0.50152521623E+02  0.12559734920E+03 -0.15222698369E+03  0.23909946487E+03  0.12532170595E+03 0.  0.
         35    2    3    3    0    0  0.50152521623E+02 -0.12559734920E+03 -0.47884060713E+03  0.94248565239E+03  0.80043794786E+03 0.  0.
         22    1    5    5    0    0  0.26378689482E+03 -0.31055077405E+03 -0.25460952187E+02  0.40825674425E+03  0.00000000000E+00 0. -1.
         22    1    5    5    0    0 -0.21363437319E+03  0.18495342485E+03 -0.45337965494E+03  0.53422890814E+03  0.00000000000E+00 0. -1.
          5    1    4    4  502    0  0.26633102298E+01  0.12866092888E+03 -0.12478678384E+03  0.17931692408E+03  0.47000000000E+01 0. -1.
         -5    1    4    4    0  502 -0.52815831853E+02 -0.30635796719E+01 -0.27440199851E+02  0.59782540784E+02  0.47000000000E+01 0. -1.
<mgrwt>
<rscale>  0 0.99894799E+03</rscale>
<asrwt>0</asrwt>
<pdfrwt beam="1">  1        1 0.13943482E+00 0.99894799E+03</pdfrwt>
<pdfrwt beam="2">  1       -1 0.42347502E-01 0.99894799E+03</pdfrwt>
<totfact> 0.11121045E+02</totfact>
</mgrwt>
</event>
<event>
 9    1  0.4236486E-036  0.9999960E+03  0.7818608E-02  0.8681042E-01
         -1   -1    0    0    0  501 -0.00000000000E+00  0.00000000000E+00  0.20807699412E+04  0.20807699412E+04  0.00000000000E+00 0.  1.
          1   -1    0    0  501    0  0.00000000000E+00 -0.00000000000E+00 -0.12014687661E+03  0.12014687661E+03  0.00000000000E+00 0.  1.
         36    2    1    2    0    0  0.00000000000E+00  0.14210854715E-13  0.19606230645E+04  0.22009168178E+04  0.99999601875E+03 0.  0.
         25    2    3    3    0    0  0.86855989507E+02 -0.10993091720E+03  0.35537183517E+03  0.40200833327E+03  0.12527086379E+03 0.  0.
         35    2    3    3    0    0 -0.86855989507E+02  0.10993091720E+03  0.16052512294E+04  0.17989084845E+04  0.79975712358E+03 0.  0.
         22    1    5    5    0    0 -0.24279471857E+03 -0.83734282430E+02  0.15115224379E+04  0.15331864810E+04  0.00000000000E+00 0. -1.
         22    1    5    5    0    0  0.15593872906E+03  0.19366519963E+03  0.93728791497E+02  0.26572200347E+03  0.00000000000E+00 0. -1.
          5    1    4    4  502    0 -0.20307352834E+02 -0.60513719548E+02  0.80532366042E+02  0.10286812341E+03  0.47000000000E+01 0. -1.
         -5    1    4    4    0  502  0.10716334234E+03 -0.49417197655E+02  0.27483946913E+03  0.29914020987E+03  0.47000000000E+01 0. -1.
<mgrwt>
<rscale>  0 0.99999602E+03</rscale>
<asrwt>0</asrwt>
<pdfrwt beam="1">  1        1 0.18484136E-01 0.99999602E+03</pdfrwt>
<pdfrwt beam="2">  1       -1 0.32011842E+00 0.99999602E+03</pdfrwt>
<totfact> 0.23205620E+00</totfact>
</mgrwt>
</event>
<event>
 9    1  0.4236486E-036  0.9994608E+03  0.7818608E-02  0.8681552E-01
          2   -1    0    0  501    0  0.00000000000E+00  0.00000000000E+00  0.20845111700E+04  0.20845111700E+04  0.00000000000E+00 0.  1.
         -2   -1    0    0    0  501 -0.00000000000E+00 -0.00000000000E+00 -0.11980290040E+03  0.11980290040E+03  0.00000000000E+00 0.  1.
         36    2    1    2    0    0  0.00000000000E+00 -0.56843418861E-13  0.19647082696E+04  0.22043140704E+04  0.99946082282E+03 0.  0.
         25    2    3    3    0    0 -0.17019873616E+02  0.95442372274E+02  0.13978805542E+03  0.20927669683E+03  0.12188975707E+03 0.  0.
         35    2    3    3    0    0  0.17019873616E+02 -0.95442372274E+02  0.18249202142E+04  0.19950373736E+04  0.80027583450E+03 0.  0.
         22    1    5    5    0    0  0.87047030721E+02 -0.39410457763E+03  0.14771948769E+04  0.15313393837E+04  0.00000000000E+00 0. -1.
         22    1    5    5    0    0 -0.70027157105E+02  0.29866220536E+03  0.34772533729E+03  0.46369798990E+03  0.00000000000E+00 0. -1.
          5    1    4    4  502    0  0.41033514376E+02  0.81912164572E+02  0.10750189723E+03  0.14132268012E+03  0.47000000000E+01 0. -1.
         -5    1    4    4    0  502 -0.58053387992E+02  0.13530207702E+02  0.32286158188E+02  0.67954016719E+02  0.47000000000E+01 0. -1.
<mgrwt>
<rscale>  0 0.99946082E+03</rscale>
<asrwt>0</asrwt>
<pdfrwt beam="1">  1        2 0.32069400E+00 0.99946082E+03</pdfrwt>
<pdfrwt beam="2">  1       -2 0.18431217E-01 0.99946082E+03</pdfrwt>
<totfact> 0.17264251E+02</totfact>
</mgrwt>
</event>
<event>
 9    1  0.4236486E-036  0.1000337E+04  0.7818608E-02  0.8680717E-01
          2   -1    0    0  501    0  0.00000000000E+00  0.00000000000E+00  0.23791860370E+04  0.23791860370E+04  0.00000000000E+00 0.  1.
         -2   -1    0    0    0  501 -0.00000000000E+00 -0.00000000000E+00 -0.10514880588E+03  0.10514880588E+03  0.00000000000E+00 0.  1.
         36    2    1    2    0    0  0.28421709430E-13  0.30198066270E-13  0.22740372312E+04  0.24843348429E+04  0.10003370847E+04 0.  0.
         25    2    3    3    0    0  0.13082304321E+03  0.46801219645E+01  0.55281767727E+03  0.58169919153E+03  0.12501997019E+03 0.  0.
         35    2    3    3    0    0 -0.13082304321E+03 -0.46801219645E+01  0.17212195539E+04  0.19026356514E+04  0.80018066529E+03 0.  0.
         22    1    5    5    0    0  0.11200379868E+02  0.35230392375E+03  0.43291956882E+03  0.55826772813E+03  0.00000000000E+00 0.  1.
         22    1    5    5    0    0 -0.14202342308E+03 -0.35698404571E+03  0.12882999851E+04  0.13443679233E+04  0.00000000000E+00 0.  1.
          5    1    4    4  502    0  0.86182283328E+02 -0.15516419787E+02  0.13493484395E+03  0.16092745991E+03  0.47000000000E+01 0. -1.
         -5    1    4    4    0  502  0.44640759880E+02  0.20196541751E+02  0.41788283332E+03  0.42077173161E+03  0.47000000000E+01 0. -1.
<mgrwt>
<rscale>  0 0.10003371E+04</rscale>
<asrwt>0</asrwt>
<pdfrwt beam="1">  1        2 0.36602858E+00 0.10003371E+04</pdfrwt>
<pdfrwt beam="2">  1       -2 0.16176741E-01 0.10003371E+04</pdfrwt>
<totfact> 0.14500403E+02</totfact>
</mgrwt>
</event>
<event>
 9    1  0.4236486E-036  0.9993725E+03  0.7818608E-02  0.8681636E-01
          2   -1    0    0  501    0  0.00000000000E+00  0.00000000000E+00  0.32783933769E+03  0.32783933769E+03  0.00000000000E+00 0. -1.
         -2   -1    0    0    0  501 -0.00000000000E+00 -0.00000000000E+00 -0.76161193380E+03  0.76161193380E+03  0.00000000000E+00 0. -1.
         36    2    1    2    0    0 -0.14210854715E-13  0.00000000000E+00 -0.43377259611E+03  0.10894512715E+04  0.99937250703E+03 0.  0.
         25    2    3    3    0    0 -0.44823597151E+02  0.32484324119E+02 -0.22134577192E+03  0.26007670083E+03  0.12482609261E+03 0.  0.
         35    2    3    3    0    0  0.44823597151E+02 -0.32484324119E+02 -0.21242682419E+03  0.82937457065E+03  0.79979537172E+03 0.  0.
         22    1    5    5    0    0 -0.22049201186E+03  0.29652716566E+03 -0.35649373189E+02  0.37123572710E+03  0.00000000000E+00 0.  1.
         22    1    5    5    0    0  0.26531560901E+03 -0.32901148978E+03 -0.17677745101E+03  0.45813884355E+03  0.00000000000E+00 0.  1.
          5    1    4    4  502    0 -0.34519156007E+02  0.77446226140E+02 -0.10641796027E+03  0.13614831010E+03  0.47000000000E+01 0.  1.
         -5    1    4    4    0  502 -0.10304441143E+02 -0.44961902021E+02 -0.11492781164E+03  0.12392839073E+03  0.47000000000E+01 0.  1.
<mgrwt>
<rscale>  0 0.99937251E+03</rscale>
<asrwt>0</asrwt>
<pdfrwt beam="1">  1        2 0.50436821E-01 0.99937251E+03</pdfrwt>
<pdfrwt beam="2">  1       -2 0.11717107E+00 0.99937251E+03</pdfrwt>
<totfact> 0.65507147E+01</totfact>
</mgrwt>
</event>
<event>
 9    1  0.4236486E-036  0.9989905E+03  0.7818608E-02  0.8682000E-01
         -2   -1    0    0    0  501 -0.00000000000E+00  0.00000000000E+00  0.22464951250E+03  0.22464951250E+03  0.00000000000E+00 0. -1.
          2   -1    0    0  501    0  0.00000000000E+00 -0.00000000000E+00 -0.11105989368E+04  0.11105989368E+04  0.00000000000E+00 0. -1.
         36    2    1    2    0    0 -0.17763568394E-13  0.00000000000E+00 -0.88594942427E+03  0.13352484493E+04  0.99899050993E+03 0.  0.
         25    2    3    3    0    0 -0.78846541744E+01 -0.10908595880E+03 -0.48566258199E+02  0.17214888886E+03  0.12375235077E+03 0.  0.
         35    2    3    3    0    0  0.78846541744E+01  0.10908595880E+03 -0.83738316607E+03  0.11630995604E+04  0.79976753275E+03 0.  0.
         22    1    5    5    0    0 -0.35041596645E+03  0.20336596010E+03 -0.27508654519E+03  0.48971590807E+03  0.00000000000E+00 0. -1.
         22    1    5    5    0    0  0.35830062063E+03 -0.94280001297E+02 -0.56229662088E+03  0.67338365234E+03  0.00000000000E+00 0. -1.
          5    1    4    4  502    0 -0.88573399005E+01 -0.23506226448E+02  0.40913784061E+02  0.48239225514E+02  0.47000000000E+01 0. -1.
         -5    1    4    4    0  502  0.97268572612E+00 -0.85579732355E+02 -0.89480042261E+02  0.12390966335E+03  0.47000000000E+01 0. -1.
<mgrwt>
<rscale>  0 0.99899051E+03</rscale>
<asrwt>0</asrwt>
<pdfrwt beam="1">  1        2 0.17086138E+00 0.99899051E+03</pdfrwt>
<pdfrwt beam="2">  1       -2 0.34561463E-01 0.99899051E+03</pdfrwt>
<totfact> 0.20318451E+02</totfact>
</mgrwt>
</event>
<event>
 9    1  0.4236486E-036  0.1003374E+04  0.7818608E-02  0.8677832E-01
         -2   -1    0    0    0  501 -0.00000000000E+00  0.00000000000E+00  0.13727129376E+03  0.13727129376E+03  0.00000000000E+00 0.  1.
          2   -1    0    0  501    0  0.00000000000E+00 -0.00000000000E+00 -0.18335198274E+04  0.18335198274E+04  0.00000000000E+00 0.  1.
         36    2    1    2    0    0  0.35527136788E-14 -0.42632564146E-13 -0.16962485337E+04  0.19707911212E+04  0.10033735872E+04 0.  0.
         25    2    3    3    0    0  0.61433735806E+01  0.14540471501E+02 -0.60475275041E+03  0.61786162159E+03  0.12561022233E+03 0.  0.
         35    2    3    3    0    0 -0.61433735806E+01 -0.14540471501E+02 -0.10914957833E+04  0.13529294996E+04  0.79925341393E+03 0.  0.
         22    1    5    5    0    0 -0.76741102919E+02  0.37136558780E+03 -0.71420869951E+03  0.80863815340E+03  0.00000000000E+00 0.  1.
         22    1    5    5    0    0  0.70597729338E+02 -0.38590605930E+03 -0.37728708376E+03  0.54429134622E+03  0.00000000000E+00 0.  1.
          5    1    4    4  502    0  0.15967450138E+02 -0.49520201720E+02 -0.39028819706E+03  0.39376919205E+03  0.47000000000E+01 0.  1.
         -5    1    4    4    0  502 -0.98240765576E+01  0.64060673221E+02 -0.21446455335E+03  0.22409242955E+03  0.47000000000E+01 0.  1.
<mgrwt>
<rscale>  0 0.10033736E+04</rscale>
<asrwt>0</asrwt>
<pdfrwt beam="1">  1        2 0.28207996E+00 0.10033736E+04</pdfrwt>
<pdfrwt beam="2">  1       -2 0.21118661E-01 0.10033736E+04</pdfrwt>
<totfact> 0.18955248E+02</totfact>
</mgrwt>
</event>
<event>
 9    1  0.4236486E-036  0.9994967E+03  0.7818608E-02  0.8681517E-01
          1   -1    0    0  501    0  0.00000000000E+00  0.00000000000E+00  0.60306548980E+03  0.60306548980E+03  0.00000000000E+00 0.  1.
         -1   -1    0    0    0  501 -0.00000000000E+00 -0.00000000000E+00 -0.41413147975E+03  0.41413147975E+03  0.00000000000E+00 0.  1.
         36    2    1    2    0    0  0.00000000000E+00  0.21316282073E-13  0.18893401005E+03  0.10171969695E+04  0.99949668068E+03 0.  0.
         25    2    3    3    0    0 -0.83711930084E+02  0.31737242288E+02 -0.73068407899E+02  0.17054920420E+03  0.12543165085E+03 0.  0.
         35    2    3    3    0    0  0.83711930084E+02 -0.31737242288E+02  0.26200241795E+03  0.84664776534E+03  0.80009513920E+03 0.  0.
         22    1    5    5    0    0 -0.44889303047E+02  0.14711413693E+03 -0.24759246794E+03  0.29147838512E+03  0.00000000000E+00 0.  1.
         22    1    5    5    0    0  0.12860123313E+03 -0.17885137922E+03  0.50959488589E+03  0.55516938022E+03  0.00000000000E+00 0.  1.
          5    1    4    4  502    0  0.17803474693E+02  0.21941206962E+02  0.17924395204E+02  0.33789853766E+02  0.47000000000E+01 0.  1.
         -5    1    4    4    0  502 -0.10151540478E+03  0.97960353262E+01 -0.90992803102E+02  0.13675935044E+03  0.47000000000E+01 0.  1.
<mgrwt>
<rscale>  0 0.99949668E+03</rscale>
<asrwt>0</asrwt>
<pdfrwt beam="1">  1        1 0.92779307E-01 0.99949668E+03</pdfrwt>
<pdfrwt beam="2">  1       -1 0.63712535E-01 0.99949668E+03</pdfrwt>
<totfact> 0.98808045E+01</totfact>
</mgrwt>
</event>
<event>
 9    1  0.4236486E-036  0.9954067E+03  0.7818608E-02  0.8685425E-01
          1   -1    0    0  501    0  0.00000000000E+00  0.00000000000E+00  0.11045472641E+04  0.11045472641E+04  0.00000000000E+00 0. -1.
         -1   -1    0    0    0  501 -0.00000000000E+00 -0.00000000000E+00 -0.22426256445E+03  0.22426256445E+03  0.00000000000E+00 0. -1.
         36    2    1    2    0    0 -0.42632564146E-13  0.42632564146E-13  0.88028469967E+03  0.13288098286E+04  0.99540665460E+03 0.  0.
         25    2    3    3    0    0  0.37943427134E+02 -0.95165667302E+02  0.43481223139E+02  0.16682459173E+03  0.12427236115E+03 0.  0.
         35    2    3    3    0    0 -0.37943427134E+02  0.95165667302E+02  0.83680347653E+03  0.11619852368E+04  0.79967082252E+03 0.  0.
         22    1    5    5    0    0  0.28644835637E+03 -0.21431261548E+03  0.36132719695E+03  0.50846819102E+03  0.00000000000E+00 0.  1.
         22    1    5    5    0    0 -0.32439178351E+03  0.30947828278E+03  0.47547627957E+03  0.65351704581E+03  0.00000000000E+00 0.  1.
          5    1    4    4  502    0 -0.33023054800E+01 -0.10366680256E+03 -0.30756124100E+01  0.10387136548E+03  0.47000000000E+01 0. -1.
         -5    1    4    4    0  502  0.41245732614E+02  0.85011352607E+01  0.46556835549E+02  0.62953226255E+02  0.47000000000E+01 0. -1.
<mgrwt>
<rscale>  0 0.99540665E+03</rscale>
<asrwt>0</asrwt>
<pdfrwt beam="1">  1        1 0.16993034E+00 0.99540665E+03</pdfrwt>
<pdfrwt beam="2">  1       -1 0.34501934E-01 0.99540665E+03</pdfrwt>
<totfact> 0.11119271E+02</totfact>
</mgrwt>
</event>
<event>
 9    1  0.4236486E-036  0.1000486E+04  0.7818608E-02  0.8680575E-01
         -1   -1    0    0    0  501 -0.00000000000E+00  0.00000000000E+00  0.22316167591E+03  0.22316167591E+03  0.00000000000E+00 0. -1.
          1   -1    0    0  501    0  0.00000000000E+00 -0.00000000000E+00 -0.11213541728E+04  0.11213541728E+04  0.00000000000E+00 0. -1.
         36    2    1    2    0    0 -0.14210854715E-13  0.42632564146E-13 -0.89819249685E+03  0.13445158487E+04  0.10004864347E+04 0.  0.
         25    2    3    3    0    0  0.38917929932E+02 -0.11914954771E+03 -0.82662450012E+02  0.19535267015E+03  0.12497345759E+03 0.  0.
         35    2    3    3    0    0 -0.38917929932E+02  0.11914954771E+03 -0.81553004684E+03  0.11491631785E+04  0.79985969618E+03 0.  0.
         22    1    5    5    0    0  0.15578821458E+03  0.41545825139E+03 -0.54736633182E+03  0.70461722067E+03  0.00000000000E+00 0. -1.
         22    1    5    5    0    0 -0.19470614451E+03 -0.29630870368E+03 -0.26816371501E+03  0.44454595785E+03  0.00000000000E+00 0. -1.
          5    1    4    4  502    0  0.81253803219E+02 -0.88846963192E+02 -0.76479082883E+02  0.14271336141E+03  0.47000000000E+01 0.  1.
         -5    1    4    4    0  502 -0.42335873288E+02 -0.30302584516E+02 -0.61833671284E+01  0.52639308738E+02  0.47000000000E+01 0.  1.
<mgrwt>
<rscale>  0 0.10004864E+04</rscale>
<asrwt>0</asrwt>
<pdfrwt beam="1">  1        1 0.17251603E+00 0.10004864E+04</pdfrwt>
<pdfrwt beam="2">  1       -1 0.34332565E-01 0.10004864E+04</pdfrwt>
<totfact> 0.10883317E+02</totfact>
</mgrwt>
</event>
<event>
 9    1  0.4236486E-036  0.9995135E+03  0.7818608E-02  0.8681501E-01
         -2   -1    0    0    0  501 -0.00000000000E+00  0.00000000000E+00  0.29639306942E+03  0.29639306942E+03  0.00000000000E+00 0.  1.
          2   -1    0    0  501    0  0.00000000000E+00 -0.00000000000E+00 -0.84265404097E+03  0.84265404097E+03  0.00000000000E+00 0.  1.
         36    2    1    2    0    0 -0.14210854715E-13 -0.35527136788E-14 -0.54626097155E+03  0.11390471104E+04  0.99951351700E+03 0.  0.
         25    2    3    3    0    0 -0.74209530795E+02 -0.17203870044E+02 -0.23641480442E+03  0.27802367142E+03  0.12490866468E+03 0.  0.
         35    2    3    3    0    0  0.74209530795E+02  0.17203870044E+02 -0.30984616713E+03  0.86102343898E+03  0.79972100609E+03 0.  0.
         22    1    5    5    0    0  0.29393324777E+03  0.10488642376E+03  0.14820364586E+03  0.34548840311E+03  0.00000000000E+00 0.  1.
         22    1    5    5    0    0 -0.21972371697E+03 -0.87682553718E+02 -0.45804981300E+03  0.51553503587E+03  0.00000000000E+00 0.  1.
          5    1    4    4  502    0 -0.98954177151E+02 -0.25460469802E+02 -0.22852009869E+03  0.25036711086E+03  0.47000000000E+01 0. -1.
         -5    1    4    4    0  502  0.24744646356E+02  0.82565997587E+01 -0.78947057329E+01  0.27656560551E+02  0.47000000000E+01 0. -1.
<mgrwt>
<rscale>  0 0.99951352E+03</rscale>
<asrwt>0</asrwt>
<pdfrwt beam="1">  1        2 0.12963908E+00 0.99951352E+03</pdfrwt>
<pdfrwt beam="2">  1       -2 0.45598934E-01 0.99951352E+03</pdfrwt>
<totfact> 0.17724967E+02</totfact>
</mgrwt>
</event>
<event>
 9    1  0.4236486E-036  0.9989220E+03  0.7818608E-02  0.8682065E-01
          2   -1    0    0  501    0  0.00000000000E+00  0.00000000000E+00  0.10852129039E+04  0.10852129039E+04  0.00000000000E+00 0. -1.
         -2   -1    0    0    0  501 -0.00000000000E+00 -0.00000000000E+00 -0.22987313975E+03  0.22987313975E+03  0.00000000000E+00 0. -1.
         36    2    1    2    0    0 -0.71054273576E-14  0.14210854715E-13  0.85533976412E+03  0.13150860436E+04  0.99892201399E+03 0.  0.
         25    2    3    3    0    0  0.50361188645E+02  0.10349666927E+03  0.57007971378E+02  0.17892203602E+03  0.12456073338E+03 0.  0.
         35    2    3    3    0    0 -0.50361188645E+02 -0.10349666927E+03  0.79833179274E+03  0.11361640076E+04  0.80017947424E+03 0.  0.
         22    1    5    5    0    0 -0.33797707615E+03  0.18582255566E+03  0.28033253036E+03  0.47680693553E+03  0.00000000000E+00 0. -1.
         22    1    5    5    0    0  0.28761588750E+03 -0.28931922493E+03  0.51799926237E+03  0.65935707206E+03  0.00000000000E+00 0. -1.
          5    1    4    4  502    0  0.13691222547E+02  0.10024453073E+03  0.85169490272E+02  0.13233422683E+03  0.47000000000E+01 0. -1.
         -5    1    4    4    0  502  0.36669966098E+02  0.32521385403E+01 -0.28161518894E+02  0.46587809190E+02  0.47000000000E+01 0. -1.
<mgrwt>
<rscale>  0 0.99892201E+03</rscale>
<asrwt>0</asrwt>
<pdfrwt beam="1">  1        2 0.16695583E+00 0.99892201E+03</pdfrwt>
<pdfrwt beam="2">  1       -2 0.35365099E-01 0.99892201E+03</pdfrwt>
<totfact> 0.20168375E+02</totfact>
</mgrwt>
</event>
<event>
 9    1  0.4236486E-036  0.9998816E+03  0.7818608E-02  0.8681151E-01
         -2   -1    0    0    0  501 -0.00000000000E+00  0.00000000000E+00  0.47919989862E+03  0.47919989862E+03  0.00000000000E+00 0.  1.
          2   -1    0    0  501    0  0.00000000000E+00 -0.00000000000E+00 -0.52157946062E+03  0.52157946062E+03  0.00000000000E+00 0.  1.
         36    2    1    2    0    0  0.00000000000E+00 -0.28421709430E-13 -0.42379561996E+02  0.10007793592E+04  0.99988164230E+03 0.  0.
         25    2    3    3    0    0 -0.69451421292E+02  0.10767984832E+03  0.50246716831E+02  0.18591002685E+03  0.12497742147E+03 0.  0.
         35    2    3    3    0    0  0.69451421292E+02 -0.10767984832E+03 -0.92626278827E+02  0.81486933240E+03  0.79938348226E+03 0.  0.
         22    1    5    5    0    0 -0.13127059325E+03 -0.17181683091E+03  0.29968635234E+03  0.36954688717E+03  0.00000000000E+00 0. -1.
         22    1    5    5    0    0  0.20072201454E+03  0.64136982593E+02 -0.39231263117E+03  0.44532244523E+03  0.00000000000E+00 0. -1.
          5    1    4    4  502    0  0.53206058785E+01  0.21832326640E+02 -0.36214067598E+02  0.42877826734E+02  0.47000000000E+01 0.  1.
         -5    1    4    4    0  502 -0.74772027170E+02  0.85847521675E+02  0.86460784428E+02  0.14303220011E+03  0.47000000000E+01 0.  1.
<mgrwt>
<rscale>  0 0.99988164E+03</rscale>
<asrwt>0</asrwt>
<pdfrwt beam="1">  1        2 0.80242994E-01 0.99988164E+03</pdfrwt>
<pdfrwt beam="2">  1       -2 0.73723061E-01 0.99988164E+03</pdfrwt>
<totfact> 0.11749714E+02</totfact>
</mgrwt>
</event>
<event>
 9    1  0.4236486E-036  0.9991131E+03  0.7818608E-02  0.8681883E-01
          2   -1    0    0  501    0  0.00000000000E+00  0.00000000000E+00  0.59466220274E+03  0.59466220274E+03  0.00000000000E+00 0.  1.
         -2   -1    0    0    0  501 -0.00000000000E+00 -0.00000000000E+00 -0.41966135597E+03  0.41966135597E+03  0.00000000000E+00 0.  1.
         36    2    1    2    0    0  0.00000000000E+00 -0.14210854715E-13  0.17500084677E+03  0.10143235587E+04  0.99911309939E+03 0.  0.
         25    2    3    3    0    0 -0.13535357986E+03  0.33122905897E+02  0.40405329203E+02  0.19119520519E+03  0.12452026897E+03 0.  0.
         35    2    3    3    0    0  0.13535357986E+03 -0.33122905897E+02  0.13459551757E+03  0.82312835351E+03  0.80000413407E+03 0.  0.
         22    1    5    5    0    0  0.38660694091E+03  0.12273534877E+03  0.28075376019E+03  0.49330676709E+03  0.00000000000E+00 0. -1.
         22    1    5    5    0    0 -0.25125336104E+03 -0.15585825467E+03 -0.14615824262E+03  0.32982158642E+03  0.00000000000E+00 0. -1.
          5    1    4    4  502    0 -0.67176376429E+01 -0.33785614703E+02  0.29705577144E+02  0.45728609533E+02  0.47000000000E+01 0. -1.
         -5    1    4    4    0  502 -0.12863594222E+03  0.66908520600E+02  0.10699752059E+02  0.14546659566E+03  0.47000000000E+01 0. -1.
<mgrwt>
<rscale>  0 0.99911310E+03</rscale>
<asrwt>0</asrwt>
<pdfrwt beam="1">  1        2 0.91486493E-01 0.99911310E+03</pdfrwt>
<pdfrwt beam="2">  1       -2 0.64563285E-01 0.99911310E+03</pdfrwt>
<totfact> 0.13436202E+02</totfact>
</mgrwt>
</event>
<event>
 9    1  0.4236486E-036  0.1007286E+04  0.7818608E-02  0.8674130E-01
         -2   -1    0    0    0  501 -0.00000000000E+00  0.00000000000E+00  0.12485788107E+03  0.12485788107E+03  0.00000000000E+00 0.  1.
          2   -1    0    0  501    0  0.00000000000E+00 -0.00000000000E+00 -0.20315608149E+04  0.20315608149E+04  0.00000000000E+00 0.  1.
         36    2    1    2    0    0  0.00000000000E+00  0.00000000000E+00 -0.19067029338E+04  0.21564186960E+04  0.10072862128E+04 0.  0.
         25    2    3    3    0    0  0.12693434949E+03 -0.58521610421E+02 -0.46940357581E+03  0.50545682575E+03  0.12493909616E+03 0.  0.
         35    2    3    3    0    0 -0.12693434949E+03  0.58521610421E+02 -0.14372993580E+04  0.16509618702E+04  0.80019281700E+03 0.  0.
         22    1    5    5    0    0  0.22043587973E+03 -0.24281249817E+03 -0.80402341614E+03  0.86833377225E+03  0.00000000000E+00 0. -1.
         22    1    5    5    0    0 -0.34737022922E+03  0.30133410859E+03 -0.63327594187E+03  0.78262809795E+03  0.00000000000E+00 0. -1.
          5    1    4    4  502    0  0.72694848650E+02 -0.57631746633E+02 -0.11956493831E+03  0.15140615480E+03  0.47000000000E+01 0.  1.
         -5    1    4    4    0  502  0.54239500845E+02 -0.88986378874E+00 -0.34983863750E+03  0.35405067095E+03  0.47000000000E+01 0.  1.
<mgrwt>
<rscale>  0 0.10072862E+04</rscale>
<asrwt>0</asrwt>
<pdfrwt beam="1">  1        2 0.31254779E+00 0.10072862E+04</pdfrwt>
<pdfrwt beam="2">  1       -2 0.19208907E-01 0.10072862E+04</pdfrwt>
<totfact> 0.17241621E+02</totfact>
</mgrwt>
</event>
<event>
 9    1  0.4236486E-036  0.9999756E+03  0.7818608E-02  0.8681061E-01
          2   -1    0    0  501    0  0.00000000000E+00  0.00000000000E+00  0.95563855808E+03  0.95563855808E+03  0.00000000000E+00 0.  1.
         -2   -1    0    0    0  501 -0.00000000000E+00 -0.00000000000E+00 -0.26159240901E+03  0.26159240901E+03  0.00000000000E+00 0.  1.
         36    2    1    2    0    0 -0.21316282073E-13  0.14210854715E-13  0.69404614907E+03  0.12172309671E+04  0.99997558481E+03 0.  0.
         25    2    3    3    0    0  0.50698080535E+02 -0.66913866085E+02 -0.25484631537E+01  0.15137983366E+03  0.12594283834E+03 0.  0.
         35    2    3    3    0    0 -0.50698080535E+02  0.66913866085E+02  0.69659461223E+03  0.10658511334E+04  0.80233834759E+03 0.  0.
         22    1    5    5    0    0 -0.30008126224E+03 -0.30215515929E+02  0.73594149143E+03  0.79534371197E+03  0.00000000000E+00 0.  1.
         22    1    5    5    0    0  0.24938318170E+03  0.97129382014E+02 -0.39346879205E+02  0.27050742147E+03  0.00000000000E+00 0.  1.
          5    1    4    4  502    0  0.50383958200E+02 -0.15609141402E+02  0.53481598042E+02  0.75263270380E+02  0.47000000000E+01 0. -1.
         -5    1    4    4    0  502  0.31412233527E+00 -0.51304724683E+02 -0.56030061195E+02  0.76116563278E+02  0.47000000000E+01 0. -1.
<mgrwt>
<rscale>  0 0.99997558E+03</rscale>
<asrwt>0</asrwt>
<pdfrwt beam="1">  1        2 0.14702131E+00 0.99997558E+03</pdfrwt>
<pdfrwt beam="2">  1       -2 0.40244987E-01 0.99997558E+03</pdfrwt>
<totfact> 0.19022102E+02</totfact>
</mgrwt>
</event>
<event>
 9    1  0.4236486E-036  0.1000071E+04  0.7818608E-02  0.8680970E-01
         -2   -1    0    0    0  501 -0.00000000000E+00  0.00000000000E+00  0.52859405374E+03  0.52859405374E+03  0.00000000000E+00 0.  1.
          2   -1    0    0  501    0  0.00000000000E+00 -0.00000000000E+00 -0.47301989722E+03  0.47301989722E+03  0.00000000000E+00 0.  1.
         36    2    1    2    0    0  0.28421709430E-13 -0.14210854715E-13  0.55574156524E+02  0.10016139510E+04  0.10000710074E+04 0.  0.
         25    2    3    3    0    0  0.13828011337E+03  0.36632194066E+02  0.33415638782E+02  0.19312302907E+03  0.12536583284E+03 0.  0.
         35    2    3    3    0    0 -0.13828011337E+03 -0.36632194066E+02  0.22158517742E+02  0.80849092189E+03  0.79542646641E+03 0.  0.
         22    1    5    5    0    0  0.22621041606E+03  0.13220311816E+03 -0.21768584401E+03  0.34064049006E+03  0.00000000000E+00 0.  1.
         22    1    5    5    0    0 -0.36449052943E+03 -0.16883531223E+03  0.23984436175E+03  0.46785043183E+03  0.00000000000E+00 0.  1.
          5    1    4    4  502    0  0.16180638727E+03  0.35424492983E+02  0.33710696655E+02  0.16909968283E+03  0.47000000000E+01 0.  1.
         -5    1    4    4    0  502 -0.23526273895E+02  0.12077010824E+01 -0.29505787296E+00  0.24023346238E+02  0.47000000000E+01 0.  1.
<mgrwt>
<rscale>  0 0.10000710E+04</rscale>
<asrwt>0</asrwt>
<pdfrwt beam="1">  1        2 0.72772292E-01 0.10000710E+04</pdfrwt>
<pdfrwt beam="2">  1       -2 0.81322162E-01 0.10000710E+04</pdfrwt>
<totfact> 0.10528241E+02</totfact>
</mgrwt>
</event>
<event>
 9    1  0.4236486E-036  0.1002810E+04  0.7818608E-02  0.8678367E-01
          2   -1    0    0  501    0  0.00000000000E+00  0.00000000000E+00  0.10766498324E+04  0.10766498324E+04  0.00000000000E+00 0. -1.
         -2   -1    0    0    0  501 -0.00000000000E+00 -0.00000000000E+00 -0.23350840484E+03  0.23350840484E+03  0.00000000000E+00 0. -1.
         36    2    1    2    0    0  0.00000000000E+00  0.14210854715E-13  0.84314142759E+03  0.13101582373E+04  0.10028096229E+04 0.  0.
         25    2    3    3    0    0 -0.13679853215E+03 -0.34923816905E+02  0.19146101596E+03  0.26859413876E+03  0.12470757537E+03 0.  0.
         35    2    3    3    0    0  0.13679853215E+03  0.34923816905E+02  0.65168041163E+03  0.10415640985E+04  0.80014679968E+03 0.  0.
         22    1    5    5    0    0 -0.21589486639E+03 -0.21638303835E+03  0.65240951698E+02  0.31255174675E+03  0.00000000000E+00 0.  1.
         22    1    5    5    0    0  0.35269339854E+03  0.25130685526E+03  0.58643945993E+03  0.72901235177E+03  0.00000000000E+00 0.  1.
          5    1    4    4  502    0 -0.65598509567E+02 -0.60237395523E+02  0.16648692067E+03  0.18886951324E+03  0.47000000000E+01 0. -1.
         -5    1    4    4    0  502 -0.71200022584E+02  0.25313578618E+02  0.24974095291E+02  0.79724625518E+02  0.47000000000E+01 0. -1.
<mgrwt>
<rscale>  0 0.10028096E+04</rscale>
<asrwt>0</asrwt>
<pdfrwt beam="1">  1        2 0.16563843E+00 0.10028096E+04</pdfrwt>
<pdfrwt beam="2">  1       -2 0.35924371E-01 0.10028096E+04</pdfrwt>
<totfact> 0.19820987E+02</totfact>
</mgrwt>
</event>
<event>
 9    1  0.4236486E-036  0.1000081E+04  0.7818608E-02  0.8680960E-01
         -2   -1    0    0    0  501 -0.00000000000E+00  0.00000000000E+00  0.39536739987E+03  0.39536739987E+03  0.00000000000E+00 0.  1.
          2   -1    0    0  501    0  0.00000000000E+00 -0.00000000000E+00 -0.63242622623E+03  0.63242622623E+03  0.00000000000E+00 0.  1.
         36    2    1    2    0    0  0.00000000000E+00 -0.28421709430E-13 -0.23705882635E+03  0.10277936261E+04  0.10000814220E+04 0.  0.
         25    2    3    3    0    0 -0.49912928570E+02 -0.12825557676E+03 -0.60226940460E+02  0.19721154760E+03  0.12776664956E+03 0.  0.
         35    2    3    3    0    0  0.49912928570E+02  0.12825557676E+03 -0.17683188589E+03  0.83058207850E+03  0.79978514606E+03 0.  0.
         22    1    5    5    0    0  0.14903890424E+02  0.44779837099E+03  0.28820255313E+02  0.44897228660E+03  0.00000000000E+00 0. -1.
         22    1    5    5    0    0  0.35009038146E+02 -0.31954279423E+03 -0.20565214121E+03  0.38160979191E+03  0.00000000000E+00 0. -1.
          5    1    4    4  502    0 -0.35699899739E+02 -0.28536343045E+02  0.35585805214E+02  0.58114071003E+02  0.47000000000E+01 0.  1.
         -5    1    4    4    0  502 -0.14213028831E+02 -0.99719233718E+02 -0.95812745674E+02  0.13909747660E+03  0.47000000000E+01 0.  1.
<mgrwt>
<rscale>  0 0.10000814E+04</rscale>
<asrwt>0</asrwt>
<pdfrwt beam="1">  1        2 0.97296343E-01 0.10000814E+04</pdfrwt>
<pdfrwt beam="2">  1       -2 0.60825754E-01 0.10000814E+04</pdfrwt>
<totfact> 0.14158437E+02</totfact>
</mgrwt>
</event>
<event>
 9    1  0.4236486E-036  0.9988094E+03  0.7818608E-02  0.8682173E-01
          1   -1    0    0  501    0  0.00000000000E+00  0.00000000000E+00  0.12968247493E+04  0.12968247493E+04  0.00000000000E+00 0.  1.
         -1   -1    0    0    0  501 -0.00000000000E+00 -0.00000000000E+00 -0.19231979886E+03  0.19231979886E+03  0.00000000000E+00 0.  1.
         36    2    1    2    0    0  0.00000000000E+00  0.14210854715E-13  0.11045049505E+04  0.14891445482E+04  0.99880944118E+03 0.  0.
         25    2    3    3    0    0 -0.10674999094E+03  0.74563853454E+02  0.29550403132E+03  0.34622310269E+03  0.12486983425E+03 0.  0.
         35    2    3    3    0    0  0.10674999094E+03 -0.74563853454E+02  0.80900091916E+03  0.11429214455E+04  0.79676321111E+03 0.  0.
         22    1    5    5    0    0 -0.61286880450E+02 -0.40907020882E+03  0.29947731509E+03  0.51066738658E+03  0.00000000000E+00 0. -1.
         22    1    5    5    0    0  0.16803687139E+03  0.33450635537E+03  0.50952360407E+03  0.63225405893E+03  0.00000000000E+00 0. -1.
          5    1    4    4  502    0  0.47260089445E+01 -0.84503653341E+01 -0.73039112316E+01  0.13006957911E+02  0.47000000000E+01 0.  1.
         -5    1    4    4    0  502 -0.11147599988E+03  0.83014218788E+02  0.30280794255E+03  0.33321614478E+03  0.47000000000E+01 0.  1.
<mgrwt>
<rscale>  0 0.99880944E+03</rscale>
<asrwt>0</asrwt>
<pdfrwt beam="1">  1        1 0.19951149E+00 0.99880944E+03</pdfrwt>
<pdfrwt beam="2">  1       -1 0.29587662E-01 0.99880944E+03</pdfrwt>
<totfact> 0.10407477E+02</totfact>
</mgrwt>
</event>
<event>
 9    1  0.4236486E-036  0.9972646E+03  0.7818608E-02  0.8683647E-01
          2   -1    0    0  501    0  0.00000000000E+00  0.00000000000E+00  0.11365130981E+04  0.11365130981E+04  0.00000000000E+00 0.  1.
         -2   -1    0    0    0  501 -0.00000000000E+00 -0.00000000000E+00 -0.21876930250E+03  0.21876930250E+03  0.00000000000E+00 0.  1.
         36    2    1    2    0    0  0.00000000000E+00  0.71054273576E-14  0.91774379555E+03  0.13552824006E+04  0.99726461432E+03 0.  0.
         25    2    3    3    0    0  0.99843103817E+02 -0.62785431236E+02  0.26524775435E+03  0.31607979578E+03  0.12505762814E+03 0.  0.
         35    2    3    3    0    0 -0.99843103817E+02  0.62785431236E+02  0.65249604120E+03  0.10392026048E+04  0.80017517722E+03 0.  0.
         22    1    5    5    0    0  0.86531180166E+02  0.12665882284E+03 -0.14899949619E+03  0.21384796564E+03  0.00000000000E+00 0. -1.
         22    1    5    5    0    0 -0.18637428398E+03 -0.63873391604E+02  0.80149553739E+03  0.82535463913E+03  0.00000000000E+00 0. -1.
          5    1    4    4  502    0  0.12161978049E+02 -0.29797344384E+02 -0.22601496444E+01  0.32603584447E+02  0.47000000000E+01 0.  1.
         -5    1    4    4    0  502  0.87681125768E+02 -0.32988086852E+02  0.26750790400E+03  0.28347621133E+03  0.47000000000E+01 0.  1.
<mgrwt>
<rscale>  0 0.99726461E+03</rscale>
<asrwt>0</asrwt>
<pdfrwt beam="1">  1        2 0.17484817E+00 0.99726461E+03</pdfrwt>
<pdfrwt beam="2">  1       -2 0.33656816E-01 0.99726461E+03</pdfrwt>
<totfact> 0.20592011E+02</totfact>
</mgrwt>
</event>
<event>
 9    1  0.4236486E-036  0.1002197E+04  0.7818608E-02  0.8678948E-01
          1   -1    0    0  501    0  0.00000000000E+00  0.00000000000E+00  0.25165722779E+04  0.25165722779E+04  0.00000000000E+00 0.  1.
         -1   -1    0    0    0  501 -0.00000000000E+00 -0.00000000000E+00 -0.99778490742E+02  0.99778490742E+02  0.00000000000E+00 0.  1.
         36    2    1    2    0    0  0.00000000000E+00  0.21316282073E-13  0.24167937872E+04  0.26163507687E+04  0.10021971537E+04 0.  0.
         25    2    3    3    0    0 -0.14593675075E+03 -0.21169518004E+02  0.44240772731E+03  0.48261931574E+03  0.12430254635E+03 0.  0.
         35    2    3    3    0    0  0.14593675075E+03  0.21169518004E+02  0.19743860599E+04  0.21337314529E+04  0.79552744521E+03 0.  0.
         22    1    5    5    0    0  0.37133073848E+03 -0.25013037360E+03  0.94737594446E+03  0.10478420211E+04  0.00000000000E+00 0.  1.
         22    1    5    5    0    0 -0.22539398773E+03  0.27129989161E+03  0.10270101154E+04  0.10858894318E+04  0.00000000000E+00 0.  1.
          5    1    4    4  502    0 -0.57438834873E+02  0.48235344393E+02  0.12511828309E+03  0.14595390698E+03  0.47000000000E+01 0. -1.
         -5    1    4    4    0  502 -0.88497915877E+02 -0.69404862397E+02  0.31728944423E+03  0.33666540876E+03  0.47000000000E+01 0. -1.
<mgrwt>
<rscale>  0 0.10021972E+04</rscale>
<asrwt>0</asrwt>
<pdfrwt beam="1">  1        1 0.38716492E+00 0.10021972E+04</pdfrwt>
<pdfrwt beam="2">  1       -1 0.15350539E-01 0.10021972E+04</pdfrwt>
<totfact> 0.42579019E+01</totfact>
</mgrwt>
</event>
<event>
 9    1 -0.4236486E-036  0.1000114E+04  0.7818608E-02  0.8680930E-01
         -1   -1    0    0    0  501 -0.00000000000E+00  0.00000000000E+00  0.34970321929E+04  0.34970321929E+04  0.00000000000E+00 0. -1.
          1   -1    0    0  501    0  0.00000000000E+00 -0.00000000000E+00 -0.71505459354E+02  0.71505459354E+02  0.00000000000E+00 0. -1.
         36    2    1    2    0    0 -0.28421709430E-13 -0.35527136788E-14  0.34255267336E+04  0.35685376523E+04  0.10001137802E+04 0.  0.
         25    2    3    3    0    0  0.13815507908E+03 -0.10301445526E+02  0.61200667512E+03  0.63977927169E+03  0.12478942442E+03 0.  0.
         35    2    3    3    0    0 -0.13815507908E+03  0.10301445526E+02  0.28135200585E+04  0.29287583806E+04  0.80158442280E+03 0.  0.
         22    1    5    5    0    0  0.22108508181E+03 -0.21184472844E+03  0.58216353144E+03  0.65777745454E+03  0.00000000000E+00 0.  1.
         22    1    5    5    0    0 -0.35924016089E+03  0.22214617397E+03  0.22313565270E+04  0.22709809261E+04  0.00000000000E+00 0.  1.
          5    1    4    4  502    0 -0.11480710582E+02  0.69439345055E+01  0.20957342414E+03  0.21005507623E+03  0.47000000000E+01 0. -1.
         -5    1    4    4    0  502  0.14963578966E+03 -0.17245380031E+02  0.40243325098E+03  0.42972419547E+03  0.47000000000E+01 0. -1.
<mgrwt>
<rscale>  0 0.10001138E+04</rscale>
<asrwt>0</asrwt>
<pdfrwt beam="1">  1        1 0.11000843E-01 0.10001138E+04</pdfrwt>
<pdfrwt beam="2">  1       -1 0.53800482E+00 0.10001138E+04</pdfrwt>
<totfact>-0.27552082E+00</totfact>
</mgrwt>
</event>
<event>
 9    1  0.4236486E-036  0.9995567E+03  0.7818608E-02  0.8681460E-01
          2   -1    0    0  501    0  0.00000000000E+00  0.00000000000E+00  0.72271585222E+03  0.72271585222E+03  0.00000000000E+00 0. -1.
         -2   -1    0    0    0  501 -0.00000000000E+00 -0.00000000000E+00 -0.34561082710E+03  0.34561082710E+03  0.00000000000E+00 0. -1.
         36    2    1    2    0    0 -0.28421709430E-13  0.17763568394E-14  0.37710502513E+03  0.10683266793E+04  0.99955674865E+03 0.  0.
         25    2    3    3    0    0 -0.11280335337E+03 -0.10697196978E+01 -0.99069838486E+01  0.17262264998E+03  0.13028695302E+03 0.  0.
         35    2    3    3    0    0  0.11280335337E+03  0.10697196978E+01  0.38701200898E+03  0.89570402934E+03  0.79986353351E+03 0.  0.
         22    1    5    5    0    0 -0.15933822611E+03 -0.20515355255E+03 -0.11863110546E+03  0.28556958803E+03  0.00000000000E+00 0.  1.
         22    1    5    5    0    0  0.27214157948E+03  0.20622327225E+03  0.50564311443E+03  0.61013444131E+03  0.00000000000E+00 0.  1.
          5    1    4    4  502    0 -0.10768575117E+03 -0.13878808794E+02 -0.57427457194E+02  0.12291804252E+03  0.47000000000E+01 0. -1.
         -5    1    4    4    0  502 -0.51176022045E+01  0.12809089097E+02  0.47520473345E+02  0.49704607460E+02  0.47000000000E+01 0. -1.
<mgrwt>
<rscale>  0 0.99955675E+03</rscale>
<asrwt>0</asrwt>
<pdfrwt beam="1">  1        2 0.11118705E+00 0.99955675E+03</pdfrwt>
<pdfrwt beam="2">  1       -2 0.53170897E-01 0.99955675E+03</pdfrwt>
<totfact> 0.15878164E+02</totfact>
</mgrwt>
</event>
<event>
 9    1  0.4236486E-036  0.1000238E+04  0.7818608E-02  0.8680811E-01
          2   -1    0    0  501    0  0.00000000000E+00  0.00000000000E+00  0.13728718160E+04  0.13728718160E+04  0.00000000000E+00 0. -1.
         -2   -1    0    0    0  501 -0.00000000000E+00 -0.00000000000E+00 -0.18218668870E+03  0.18218668870E+03  0.00000000000E+00 0. -1.
         36    2    1    2    0    0  0.00000000000E+00  0.00000000000E+00  0.11906851273E+04  0.15550585047E+04  0.10002379120E+04 0.  0.
         25    2    3    3    0    0  0.63421202707E+02  0.11778117729E+03  0.15214515466E+03  0.23812463003E+03  0.12514206592E+03 0.  0.
         35    2    3    3    0    0 -0.63421202707E+02 -0.11778117729E+03  0.10385399726E+04  0.13169338747E+04  0.79865818771E+03 0.  0.
         22    1    5    5    0    0  0.12412731848E+03 -0.28775824515E+03  0.10155189737E+04  0.10627752278E+04  0.00000000000E+00 0. -1.
         22    1    5    5    0    0 -0.18754852119E+03  0.16997706787E+03  0.23020998956E+02  0.25415864690E+03  0.00000000000E+00 0. -1.
          5    1    4    4  502    0  0.26812351968E+01  0.11193998407E+03  0.58945736776E+02  0.12662716510E+03  0.47000000000E+01 0.  1.
         -5    1    4    4    0  502  0.60739967510E+02  0.58411932116E+01  0.93199417883E+02  0.11149746493E+03  0.47000000000E+01 0.  1.
<mgrwt>
<rscale>  0 0.10002379E+04</rscale>
<asrwt>0</asrwt>
<pdfrwt beam="1">  1        2 0.21121104E+00 0.10002379E+04</pdfrwt>
<pdfrwt beam="2">  1       -2 0.28028722E-01 0.10002379E+04</pdfrwt>
<totfact> 0.20926443E+02</totfact>
</mgrwt>
</event>
<event>
 9    1  0.4236486E-036  0.1003667E+04  0.7818608E-02  0.8677553E-01
          2   -1    0    0  501    0  0.00000000000E+00  0.00000000000E+00  0.73583202160E+03  0.73583202160E+03  0.00000000000E+00 0.  1.
         -2   -1    0    0    0  501 -0.00000000000E+00 -0.00000000000E+00 -0.34224804902E+03  0.34224804902E+03  0.00000000000E+00 0.  1.
         36    2    1    2    0    0  0.00000000000E+00 -0.28421709430E-13  0.39358397258E+03  0.10780800706E+04  0.10036674226E+04 0.  0.
         25    2    3    3    0    0 -0.82941846861E+02 -0.11293257968E+03  0.37781839634E+02  0.19148500793E+03  0.12492367006E+03 0.  0.
         35    2    3    3    0    0  0.82941846861E+02  0.11293257968E+03  0.35580213294E+03  0.88659506269E+03  0.79988907347E+03 0.  0.
         22    1    5    5    0    0 -0.15292033506E+02  0.34028138900E+02 -0.25765000216E+03  0.26033686666E+03  0.00000000000E+00 0. -1.
         22    1    5    5    0    0  0.98233880367E+02  0.78904440776E+02  0.61345213511E+03  0.62625819603E+03  0.00000000000E+00 0. -1.
          5    1    4    4  502    0 -0.30211578136E+02 -0.12862846251E+03  0.31488431500E+02  0.13591038275E+03  0.47000000000E+01 0.  1.
         -5    1    4    4    0  502 -0.52730268725E+02  0.15695882833E+02  0.62934081338E+01  0.55574625178E+02  0.47000000000E+01 0.  1.
<mgrwt>
<rscale>  0 0.10036674E+04</rscale>
<asrwt>0</asrwt>
<pdfrwt beam="1">  1        2 0.11320493E+00 0.10036674E+04</pdfrwt>
<pdfrwt beam="2">  1       -2 0.52653546E-01 0.10036674E+04</pdfrwt>
<totfact> 0.15835463E+02</totfact>
</mgrwt>
</event>
<event>
 9    1  0.4236486E-036  0.1001087E+04  0.7818608E-02  0.8680004E-01
          1   -1    0    0  501    0  0.00000000000E+00  0.00000000000E+00  0.26086252591E+03  0.26086252591E+03  0.00000000000E+00 0. -1.
         -1   -1    0    0    0  501 -0.00000000000E+00 -0.00000000000E+00 -0.96044341006E+03  0.96044341006E+03  0.00000000000E+00 0. -1.
         36    2    1    2    0    0  0.00000000000E+00  0.14210854715E-13 -0.69958088416E+03  0.12213059360E+04  0.10010867973E+04 0.  0.
         25    2    3    3    0    0 -0.34930907329E+02  0.11878643590E+03 -0.52374818298E+02  0.18477172544E+03  0.12675599902E+03 0.  0.
         35    2    3    3    0    0  0.34930907329E+02 -0.11878643590E+03 -0.64720606586E+03  0.10365342105E+04  0.80012317319E+03 0.  0.
         22    1    5    5    0    0 -0.29938139984E+03 -0.23398517763E+03 -0.55235795130E+03  0.67043090045E+03  0.00000000000E+00 0. -1.
         22    1    5    5    0    0  0.33431230717E+03  0.11519874173E+03 -0.94848114561E+02  0.36610331008E+03  0.00000000000E+00 0. -1.
          5    1    4    4  502    0 -0.28459467776E+02  0.88414957804E+02  0.29104418685E+02  0.97448977709E+02  0.47000000000E+01 0.  1.
         -5    1    4    4    0  502 -0.64714395522E+01  0.30371478101E+02 -0.81479236983E+02  0.87322747731E+02  0.47000000000E+01 0.  1.
<mgrwt>
<rscale>  0 0.10010868E+04</rscale>
<asrwt>0</asrwt>
<pdfrwt beam="1">  1        1 0.40132696E-01 0.10010868E+04</pdfrwt>
<pdfrwt beam="2">  1       -1 0.14776052E+00 0.10010868E+04</pdfrwt>
<totfact> 0.45028782E+01</totfact>
</mgrwt>
</event>
<event>
 9    1  0.4236486E-036  0.9983218E+03  0.7818608E-02  0.8682638E-01
         -2   -1    0    0    0  501 -0.00000000000E+00  0.00000000000E+00  0.26245186866E+03  0.26245186866E+03  0.00000000000E+00 0. -1.
          2   -1    0    0  501    0  0.00000000000E+00 -0.00000000000E+00 -0.94936122171E+03  0.94936122171E+03  0.00000000000E+00 0. -1.
         36    2    1    2    0    0  0.42632564146E-13 -0.35527136788E-13 -0.68690935305E+03  0.12118130904E+04  0.99832184524E+03 0.  0.
         25    2    3    3    0    0  0.64239245499E+02 -0.32650860102E+02  0.15550917093E+02  0.14538812466E+03  0.12531207621E+03 0.  0.
         35    2    3    3    0    0 -0.64239245499E+02  0.32650860102E+02 -0.70246027015E+03  0.10664249657E+04  0.79913641954E+03 0.  0.
         22    1    5    5    0    0  0.28441573963E+03  0.26042906699E+03 -0.35174075761E+03  0.52195514409E+03  0.00000000000E+00 0. -1.
         22    1    5    5    0    0 -0.34865498512E+03 -0.22777820688E+03 -0.35071951254E+03  0.54446982162E+03  0.00000000000E+00 0. -1.
          5    1    4    4  502    0  0.97303629109E+02 -0.35134247317E+02 -0.88734477331E+01  0.10393863404E+03  0.47000000000E+01 0.  1.
         -5    1    4    4    0  502 -0.33064383610E+02  0.24833872154E+01  0.24424364826E+02  0.41449490621E+02  0.47000000000E+01 0.  1.
<mgrwt>
<rscale>  0 0.99832185E+03</rscale>
<asrwt>0</asrwt>
<pdfrwt beam="1">  1        2 0.14605557E+00 0.99832185E+03</pdfrwt>
<pdfrwt beam="2">  1       -2 0.40377210E-01 0.99832185E+03</pdfrwt>
<totfact> 0.19079296E+02</totfact>
</mgrwt>
</event>
<event>
 9    1  0.4236486E-036  0.9993507E+03  0.7818608E-02  0.8681657E-01
         -2   -1    0    0    0  501 -0.00000000000E+00  0.00000000000E+00  0.78686999572E+03  0.78686999572E+03  0.00000000000E+00 0.  1.
          2   -1    0    0  501    0  0.00000000000E+00 -0.00000000000E+00 -0.31730201417E+03  0.31730201417E+03  0.00000000000E+00 0.  1.
         36    2    1    2    0    0  0.28421709430E-13  0.00000000000E+00  0.46956798155E+03  0.11041720099E+04  0.99935065824E+03 0.  0.
         25    2    3    3    0    0 -0.85784229285E+02  0.10147722850E+03  0.13496105935E+03  0.22701859312E+03  0.12516545922E+03 0.  0.
         35    2    3    3    0    0  0.85784229285E+02 -0.10147722850E+03  0.33460692220E+03  0.87715341677E+03  0.79986233958E+03 0.  0.
         22    1    5    5    0    0  0.22643714484E+03 -0.38746186234E+03  0.53061623095E+02  0.45190265675E+03  0.00000000000E+00 0.  1.
         22    1    5    5    0    0 -0.14065291556E+03  0.28598463384E+03  0.28154529910E+03  0.42525076002E+03  0.00000000000E+00 0.  1.
          5    1    4    4  502    0 -0.76772862720E+02  0.44447516316E+02  0.10142263794E+02  0.89412581172E+02  0.47000000000E+01 0.  1.
         -5    1    4    4    0  502 -0.90113665647E+01  0.57029712186E+02  0.12481879556E+03  0.13760601194E+03  0.47000000000E+01 0.  1.
<mgrwt>
<rscale>  0 0.99935066E+03</rscale>
<asrwt>0</asrwt>
<pdfrwt beam="1">  1        2 0.48815695E-01 0.99935066E+03</pdfrwt>
<pdfrwt beam="2">  1       -2 0.12105692E+00 0.99935066E+03</pdfrwt>
<totfact> 0.62410513E+01</totfact>
</mgrwt>
</event>
<event>
 9    1  0.4236486E-036  0.9993369E+03  0.7818608E-02  0.8681670E-01
         -2   -1    0    0    0  501 -0.00000000000E+00  0.00000000000E+00  0.20475354800E+03  0.20475354800E+03  0.00000000000E+00 0.  1.
          2   -1    0    0  501    0  0.00000000000E+00 -0.00000000000E+00 -0.12193612398E+04  0.12193612398E+04  0.00000000000E+00 0.  1.
         36    2    1    2    0    0  0.46185277824E-13  0.00000000000E+00 -0.10146076918E+04  0.14241147878E+04  0.99933686040E+03 0.  0.
         25    2    3    3    0    0  0.17540248805E+02 -0.10755126841E+03 -0.31447676289E+03  0.35549316889E+03  0.12491926621E+03 0.  0.
         35    2    3    3    0    0 -0.17540248805E+02  0.10755126841E+03 -0.70013092892E+03  0.10686216189E+04  0.79993369168E+03 0.  0.
         22    1    5    5    0    0 -0.38393151950E+03 -0.63287593069E+02 -0.24474154422E+03  0.45968157954E+03  0.00000000000E+00 0.  1.
         22    1    5    5    0    0  0.36639127070E+03  0.17083886148E+03 -0.45538938470E+03  0.60894003936E+03  0.00000000000E+00 0.  1.
          5    1    4    4  502    0 -0.81722016641E+01 -0.56371215678E+02 -0.28624701533E+02  0.63921532952E+02  0.47000000000E+01 0. -1.
         -5    1    4    4    0  502  0.25712450469E+02 -0.51180052733E+02 -0.28585206135E+03  0.29157163594E+03  0.47000000000E+01 0. -1.
<mgrwt>
<rscale>  0 0.99933686E+03</rscale>
<asrwt>0</asrwt>
<pdfrwt beam="1">  1        2 0.18759404E+00 0.99933686E+03</pdfrwt>
<pdfrwt beam="2">  1       -2 0.31500545E-01 0.99933686E+03</pdfrwt>
<totfact> 0.20772974E+02</totfact>
</mgrwt>
</event>
<event>
 9    1  0.4236486E-036  0.9975370E+03  0.7818608E-02  0.8683387E-01
         -2   -1    0    0    0  501 -0.00000000000E+00  0.00000000000E+00  0.47406634152E+03  0.47406634152E+03  0.00000000000E+00 0.  1.
          2   -1    0    0  501    0  0.00000000000E+00 -0.00000000000E+00 -0.52475779652E+03  0.52475779652E+03  0.00000000000E+00 0.  1.
         36    2    1    2    0    0 -0.14210854715E-13  0.42632564146E-13 -0.50691454996E+02  0.99882413804E+03  0.99753698434E+03 0.  0.
         25    2    3    3    0    0 -0.25358461697E+02  0.96310429617E+02  0.85091189751E+02  0.18104548839E+03  0.12497282849E+03 0.  0.
         35    2    3    3    0    0  0.25358461697E+02 -0.96310429617E+02 -0.13578264475E+03  0.81777864965E+03  0.80025386146E+03 0.  0.
         22    1    5    5    0    0  0.84331203757E+02  0.28174415560E+03 -0.28268167684E+03  0.40792211458E+03  0.00000000000E+00 0.  1.
         22    1    5    5    0    0 -0.58972742061E+02 -0.37805458522E+03  0.14689903209E+03  0.40985653507E+03  0.00000000000E+00 0.  1.
          5    1    4    4  502    0  0.49204145510E+02  0.36690675028E+02  0.49713579838E+02  0.79125113521E+02  0.47000000000E+01 0. -1.
         -5    1    4    4    0  502 -0.74562607207E+02  0.59619754589E+02  0.35377609913E+02  0.10192037487E+03  0.47000000000E+01 0. -1.
<mgrwt>
<rscale>  0 0.99753698E+03</rscale>
<asrwt>0</asrwt>
<pdfrwt beam="1">  1        2 0.80731968E-01 0.99753698E+03</pdfrwt>
<pdfrwt beam="2">  1       -2 0.72933284E-01 0.99753698E+03</pdfrwt>
<totfact> 0.11949450E+02</totfact>
</mgrwt>
</event>
<event>
 9    1  0.4236486E-036  0.1000101E+04  0.7818608E-02  0.8680941E-01
         -1   -1    0    0    0  501 -0.00000000000E+00  0.00000000000E+00  0.69400587899E+03  0.69400587899E+03  0.00000000000E+00 0. -1.
          1   -1    0    0  501    0  0.00000000000E+00 -0.00000000000E+00 -0.36030049341E+03  0.36030049341E+03  0.00000000000E+00 0. -1.
         36    2    1    2    0    0  0.00000000000E+00 -0.35527136788E-14  0.33370538558E+03  0.10543063724E+04  0.10001013161E+04 0.  0.
         25    2    3    3    0    0 -0.11784534865E+03  0.25989405105E+01 -0.14863654621E+02  0.17571264079E+03  0.12945934966E+03 0.  0.
         35    2    3    3    0    0  0.11784534865E+03 -0.25989405105E+01  0.34856904020E+03  0.87859373162E+03  0.79782973670E+03 0.  0.
         22    1    5    5    0    0 -0.31487707984E+03  0.98339921610E+02  0.28752570303E+02  0.33112690300E+03  0.00000000000E+00 0.  1.
         22    1    5    5    0    0  0.43272242850E+03 -0.10093886212E+03  0.31981646990E+03  0.54746682861E+03  0.00000000000E+00 0.  1.
          5    1    4    4  502    0  0.87020274857E+01  0.21612600345E+02  0.31555023040E+02  0.39504926972E+02  0.47000000000E+01 0. -1.
         -5    1    4    4    0  502 -0.12654737614E+03 -0.19013659835E+02 -0.46418677661E+02  0.13620771382E+03  0.47000000000E+01 0. -1.
<mgrwt>
<rscale>  0 0.10001013E+04</rscale>
<asrwt>0</asrwt>
<pdfrwt beam="1">  1        1 0.55430845E-01 0.10001013E+04</pdfrwt>
<pdfrwt beam="2">  1       -1 0.10677014E+00 0.10001013E+04</pdfrwt>
<totfact> 0.67811079E+01</totfact>
</mgrwt>
</event>
<event>
 9    1  0.4236486E-036  0.1003161E+04  0.7818608E-02  0.8678034E-01
         -2   -1    0    0    0  501 -0.00000000000E+00  0.00000000000E+00  0.13170959978E+03  0.13170959978E+03  0.00000000000E+00 0.  1.
          2   -1    0    0  501    0  0.00000000000E+00 -0.00000000000E+00 -0.19101342231E+04  0.19101342231E+04  0.00000000000E+00 0.  1.
         36    2    1    2    0    0  0.71054273576E-14 -0.35527136788E-14 -0.17784246233E+04  0.20418438229E+04  0.10031610320E+04 0.  0.
         25    2    3    3    0    0 -0.26397976445E+02 -0.83299866383E+01 -0.60014660227E+03  0.61365898931E+03  0.12504066981E+03 0.  0.
         35    2    3    3    0    0  0.26397976445E+02  0.83299866383E+01 -0.11782780211E+04  0.14281848336E+04  0.80660187335E+03 0.  0.
         22    1    5    5    0    0 -0.11708115333E+03  0.31130443532E+03 -0.18656857767E+03  0.38134798032E+03  0.00000000000E+00 0.  1.
         22    1    5    5    0    0  0.14347912978E+03 -0.30297444868E+03 -0.99170944338E+03  0.10468368532E+04  0.00000000000E+00 0.  1.
          5    1    4    4  502    0  0.39460396226E+02 -0.27449297785E+02 -0.13332000220E+03  0.14179880044E+03  0.47000000000E+01 0.  1.
         -5    1    4    4    0  502 -0.65858372671E+02  0.19119311147E+02 -0.46682660006E+03  0.47186018886E+03  0.47000000000E+01 0.  1.
<mgrwt>
<rscale>  0 0.10031610E+04</rscale>
<asrwt>0</asrwt>
<pdfrwt beam="1">  1        2 0.29386681E+00 0.10031610E+04</pdfrwt>
<pdfrwt beam="2">  1       -2 0.20263015E-01 0.10031610E+04</pdfrwt>
<totfact> 0.18432305E+02</totfact>
</mgrwt>
</event>
<event>
 9    1  0.4236486E-036  0.1000131E+04  0.7818608E-02  0.8680913E-01
         -2   -1    0    0    0  501 -0.00000000000E+00  0.00000000000E+00  0.23987448839E+03  0.23987448839E+03  0.00000000000E+00 0. -1.
          2   -1    0    0  501    0  0.00000000000E+00 -0.00000000000E+00 -0.10424842876E+04  0.10424842876E+04  0.00000000000E+00 0. -1.
         36    2    1    2    0    0 -0.71054273576E-14 -0.28421709430E-13 -0.80260979923E+03  0.12823587760E+04  0.10001307618E+04 0.  0.
         25    2    3    3    0    0  0.63126442200E+02  0.49960874471E+02 -0.32165017335E+01  0.14879711322E+03  0.12509675590E+03 0.  0.
         35    2    3    3    0    0 -0.63126442200E+02 -0.49960874471E+02 -0.79939329750E+03  0.11335616628E+04  0.79965702810E+03 0.  0.
         22    1    5    5    0    0  0.18941145759E+02 -0.41684936403E+03 -0.32893647901E+03  0.53133921982E+03  0.00000000000E+00 0. -1.
         22    1    5    5    0    0 -0.82067587959E+02  0.36688848956E+03 -0.47045681849E+03  0.60222244298E+03  0.00000000000E+00 0. -1.
          5    1    4    4  502    0 -0.26231379714E+02  0.48490991042E+02  0.15301132818E+02  0.57407979928E+02  0.47000000000E+01 0.  1.
         -5    1    4    4    0  502  0.89357821914E+02  0.14698834284E+01 -0.18517634551E+02  0.91389133293E+02  0.47000000000E+01 0.  1.
<mgrwt>
<rscale>  0 0.10001308E+04</rscale>
<asrwt>0</asrwt>
<pdfrwt beam="1">  1        2 0.16038220E+00 0.10001308E+04</pdfrwt>
<pdfrwt beam="2">  1       -2 0.36903767E-01 0.10001308E+04</pdfrwt>
<totfact> 0.19778008E+02</totfact>
</mgrwt>
</event>
<event>
 9    1  0.4236486E-036  0.9997940E+03  0.7818608E-02  0.8681234E-01
          2   -1    0    0  501    0  0.00000000000E+00  0.00000000000E+00  0.55171443101E+03  0.55171443101E+03  0.00000000000E+00 0.  1.
         -2   -1    0    0    0  501 -0.00000000000E+00 -0.00000000000E+00 -0.45294632528E+03  0.45294632528E+03  0.00000000000E+00 0.  1.
         36    2    1    2    0    0 -0.14210854715E-13 -0.14210854715E-13  0.98768105736E+02  0.10046607563E+04  0.99979402705E+03 0.  0.
         25    2    3    3    0    0 -0.12736797675E+03 -0.51077385227E+02 -0.54240097636E+01  0.18597999662E+03  0.12540988190E+03 0.  0.
         35    2    3    3    0    0  0.12736797675E+03  0.51077385227E+02  0.10419211550E+03  0.81868075967E+03  0.80034410633E+03 0.  0.
         22    1    5    5    0    0 -0.29202716009E+03 -0.10732466582E+03 -0.98965380335E+02  0.32648521043E+03  0.00000000000E+00 0. -1.
         22    1    5    5    0    0  0.41939513684E+03  0.15840205104E+03  0.20315749583E+03  0.49219554924E+03  0.00000000000E+00 0. -1.
          5    1    4    4  502    0 -0.38059676991E+02 -0.25096947956E+02 -0.61933583472E+02  0.77047093203E+02  0.47000000000E+01 0. -1.
         -5    1    4    4    0  502 -0.89308299757E+02 -0.25980437272E+02  0.56509573709E+02  0.10893290342E+03  0.47000000000E+01 0. -1.
<mgrwt>
<rscale>  0 0.99979403E+03</rscale>
<asrwt>0</asrwt>
<pdfrwt beam="1">  1        2 0.84879143E-01 0.99979403E+03</pdfrwt>
<pdfrwt beam="2">  1       -2 0.69684050E-01 0.99979403E+03</pdfrwt>
<totfact> 0.12454931E+02</totfact>
</mgrwt>
</event>
<event>
 9    1  0.4236486E-036  0.1000479E+04  0.7818608E-02  0.8680582E-01
         -2   -1    0    0    0  501 -0.00000000000E+00  0.00000000000E+00  0.88259183638E+02  0.88259183638E+02  0.00000000000E+00 0. -1.
          2   -1    0    0  501    0  0.00000000000E+00 -0.00000000000E+00 -0.28352799043E+04  0.28352799043E+04  0.00000000000E+00 0. -1.
         36    2    1    2    0    0  0.00000000000E+00  0.14210854715E-13 -0.27470207207E+04  0.29235390879E+04  0.10004788648E+04 0.  0.
         25    2    3    3    0    0 -0.10914050837E+03 -0.85593455960E+02 -0.39177462853E+03  0.43376378910E+03  0.12420054312E+03 0.  0.
         35    2    3    3    0    0  0.10914050837E+03  0.85593455960E+02 -0.23552460921E+04  0.24897752988E+04  0.79533577431E+03 0.  0.
         22    1    5    5    0    0  0.42909865305E+02 -0.14826118222E+03 -0.36863360825E+02  0.15868693099E+03  0.00000000000E+00 0. -1.
         22    1    5    5    0    0  0.66230643068E+02  0.23385463818E+03 -0.23183827313E+04  0.23310883678E+04  0.00000000000E+00 0. -1.
          5    1    4    4  502    0  0.14735216021E+02 -0.56329957159E+02 -0.13660570842E+03  0.14857119586E+03  0.47000000000E+01 0.  1.
         -5    1    4    4    0  502 -0.12387572439E+03 -0.29263498800E+02 -0.25516892010E+03  0.28519259325E+03  0.47000000000E+01 0.  1.
<mgrwt>
<rscale>  0 0.10004789E+04</rscale>
<asrwt>0</asrwt>
<pdfrwt beam="1">  1        2 0.43619679E+00 0.10004789E+04</pdfrwt>
<pdfrwt beam="2">  1       -2 0.13578340E-01 0.10004789E+04</pdfrwt>
<totfact> 0.10136342E+02</totfact>
</mgrwt>
</event>
<event>
 9    1  0.4236486E-036  0.9994736E+03  0.7818608E-02  0.8681539E-01
          1   -1    0    0  501    0  0.00000000000E+00  0.00000000000E+00  0.81723004559E+03  0.81723004559E+03  0.00000000000E+00 0.  1.
         -1   -1    0    0    0  501 -0.00000000000E+00 -0.00000000000E+00 -0.30558941137E+03  0.30558941137E+03  0.00000000000E+00 0.  1.
         36    2    1    2    0    0  0.42632564146E-13  0.28421709430E-13  0.51164063421E+03  0.11228194570E+04  0.99947355860E+03 0.  0.
         25    2    3    3    0    0 -0.44695498847E+01  0.13121785173E+03  0.33981220304E+02  0.18480605268E+03  0.12554063997E+03 0.  0.
         35    2    3    3    0    0  0.44695498847E+01 -0.13121785173E+03  0.47765941391E+03  0.93801340428E+03  0.79653783929E+03 0.  0.
         22    1    5    5    0    0  0.26233021764E+03  0.52322020331E+02  0.55154798431E+03  0.61299259041E+03  0.00000000000E+00 0. -1.
         22    1    5    5    0    0 -0.25786066776E+03 -0.18353987206E+03 -0.73888570398E+02  0.32502081387E+03  0.00000000000E+00 0. -1.
          5    1    4    4  502    0 -0.78198053663E+01  0.88466897322E+01 -0.39811554830E+02  0.41790706780E+02  0.47000000000E+01 0.  1.
         -5    1    4    4    0  502  0.33502554817E+01  0.12237116200E+03  0.73792775134E+02  0.14301534590E+03  0.47000000000E+01 0.  1.
<mgrwt>
<rscale>  0 0.99947356E+03</rscale>
<asrwt>0</asrwt>
<pdfrwt beam="1">  1        1 0.12572770E+00 0.99947356E+03</pdfrwt>
<pdfrwt beam="2">  1       -1 0.47013756E-01 0.99947356E+03</pdfrwt>
<totfact> 0.10955607E+02</totfact>
</mgrwt>
</event>
<event>
 9    1  0.4236486E-036  0.1000179E+04  0.7818608E-02  0.8680867E-01
          2   -1    0    0  501    0  0.00000000000E+00  0.00000000000E+00  0.20254871548E+04  0.20254871548E+04  0.00000000000E+00 0.  1.
         -2   -1    0    0    0  501 -0.00000000000E+00 -0.00000000000E+00 -0.12347137267E+03  0.12347137267E+03  0.00000000000E+00 0.  1.
         36    2    1    2    0    0 -0.28421709430E-13  0.35527136788E-14  0.19020157821E+04  0.21489585275E+04  0.10001793426E+04 0.  0.
         25    2    3    3    0    0 -0.12437513700E+03 -0.16013903625E+02  0.22181246874E+03  0.28371769562E+03  0.12477716020E+03 0.  0.
         35    2    3    3    0    0  0.12437513700E+03  0.16013903625E+02  0.16802033134E+04  0.18652408319E+04  0.80019658002E+03 0.  0.
         22    1    5    5    0    0 -0.32516539841E+03  0.88131957542E+02  0.52776489609E+03  0.62612743416E+03  0.00000000000E+00 0. -1.
         22    1    5    5    0    0  0.44954053541E+03 -0.72118053917E+02  0.11524384173E+04  0.12391133977E+04  0.00000000000E+00 0. -1.
          5    1    4    4  502    0 -0.14664502192E+03 -0.19696262805E+02  0.21220707424E+03  0.25874048307E+03  0.47000000000E+01 0. -1.
         -5    1    4    4    0  502  0.22269884917E+02  0.36823591792E+01  0.96053944991E+01  0.24977212551E+02  0.47000000000E+01 0. -1.
<mgrwt>
<rscale>  0 0.10001793E+04</rscale>
<asrwt>0</asrwt>
<pdfrwt beam="1">  1        2 0.31161338E+00 0.10001793E+04</pdfrwt>
<pdfrwt beam="2">  1       -2 0.18995597E-01 0.10001793E+04</pdfrwt>
<totfact> 0.17718335E+02</totfact>
</mgrwt>
</event>
<event>
 9    1  0.4236486E-036  0.9997828E+03  0.7818608E-02  0.8681245E-01
         -2   -1    0    0    0  501 -0.00000000000E+00  0.00000000000E+00  0.72693613974E+02  0.72693613974E+02  0.00000000000E+00 0. -1.
          2   -1    0    0  501    0  0.00000000000E+00 -0.00000000000E+00 -0.34375977974E+04  0.34375977974E+04  0.00000000000E+00 0. -1.
         36    2    1    2    0    0 -0.14210854715E-13 -0.35527136788E-14 -0.33649041834E+04  0.35102914114E+04  0.99978279097E+03 0.  0.
         25    2    3    3    0    0 -0.12053440241E+03 -0.15905607692E+02 -0.37467295495E+03  0.41264252113E+03  0.12293289453E+03 0.  0.
         35    2    3    3    0    0  0.12053440241E+03  0.15905607692E+02 -0.29902312285E+04  0.30976488902E+04  0.79947752746E+03 0.  0.
         22    1    5    5    0    0 -0.26603877897E+03 -0.62739236102E+02 -0.21736684926E+04  0.21907869726E+04  0.00000000000E+00 0.  1.
         22    1    5    5    0    0  0.38657318138E+03  0.78644843794E+02 -0.81656273591E+03  0.90686191766E+03  0.00000000000E+00 0.  1.
          5    1    4    4  502    0  0.12466141837E+02 -0.35057010254E+02 -0.65060385176E+02  0.75095554992E+02  0.47000000000E+01 0.  1.
         -5    1    4    4    0  502 -0.13300054425E+03  0.19151402562E+02 -0.30961256977E+03  0.33754696614E+03  0.47000000000E+01 0.  1.
<mgrwt>
<rscale>  0 0.99978279E+03</rscale>
<asrwt>0</asrwt>
<pdfrwt beam="1">  1        2 0.52886131E+00 0.99978279E+03</pdfrwt>
<pdfrwt beam="2">  1       -2 0.11183631E-01 0.99978279E+03</pdfrwt>
<totfact> 0.53561985E+01</totfact>
</mgrwt>
</event>
<event>
 9    1  0.4236486E-036  0.9924096E+03  0.7818608E-02  0.8688300E-01
          1   -1    0    0  501    0  0.00000000000E+00  0.00000000000E+00  0.71985852167E+03  0.71985852167E+03  0.00000000000E+00 0.  1.
         -1   -1    0    0    0  501 -0.00000000000E+00 -0.00000000000E+00 -0.34203830679E+03  0.34203830679E+03  0.00000000000E+00 0.  1.
         36    2    1    2    0    0  0.00000000000E+00  0.00000000000E+00  0.37782021488E+03  0.10618968285E+04  0.99240957247E+03 0.  0.
         25    2    3    3    0    0  0.29251853726E+02  0.56844105634E+02 -0.55595078343E+02  0.15059548574E+03  0.12450407342E+03 0.  0.
         35    2    3    3    0    0 -0.29251853726E+02 -0.56844105634E+02  0.43341529322E+03  0.91130134272E+03  0.79908347346E+03 0.  0.
         22    1    5    5    0    0  0.13380610380E+02 -0.66462216799E+02 -0.23340429620E+03  0.24305109027E+03  0.00000000000E+00 0. -1.
         22    1    5    5    0    0 -0.42632464106E+02  0.96181111645E+01  0.66681958943E+03  0.66825025245E+03  0.00000000000E+00 0. -1.
          5    1    4    4  502    0  0.15576188046E+02 -0.18110910925E+02 -0.68929347890E+02  0.73102446807E+02  0.47000000000E+01 0.  1.
         -5    1    4    4    0  502  0.13675665680E+02  0.74955016559E+02  0.13334269547E+02  0.77493038936E+02  0.47000000000E+01 0.  1.
<mgrwt>
<rscale>  0 0.99240957E+03</rscale>
<asrwt>0</asrwt>
<pdfrwt beam="1">  1        1 0.11074746E+00 0.99240957E+03</pdfrwt>
<pdfrwt beam="2">  1       -1 0.52621278E-01 0.99240957E+03</pdfrwt>
<totfact> 0.10902040E+02</totfact>
</mgrwt>
</event>
<event>
 9    1  0.4236486E-036  0.1002979E+04  0.7818608E-02  0.8678206E-01
          2   -1    0    0  501    0  0.00000000000E+00  0.00000000000E+00  0.51605207507E+03  0.51605207507E+03  0.00000000000E+00 0. -1.
         -2   -1    0    0    0  501 -0.00000000000E+00 -0.00000000000E+00 -0.48733785429E+03  0.48733785429E+03  0.00000000000E+00 0. -1.
         36    2    1    2    0    0  0.00000000000E+00  0.00000000000E+00  0.28714220781E+02  0.10033899294E+04  0.10029789848E+04 0.  0.
         25    2    3    3    0    0  0.13939572131E+03  0.30876906492E+01 -0.17750293427E+02  0.18835128948E+03  0.12538115640E+03 0.  0.
         35    2    3    3    0    0 -0.13939572131E+03 -0.30876906492E+01  0.46464514208E+02  0.81503863988E+03  0.80167844705E+03 0.  0.
         22    1    5    5    0    0 -0.26410875356E+02 -0.39990382124E+03  0.10938163980E+02  0.40092423724E+03  0.00000000000E+00 0.  1.
         22    1    5    5    0    0 -0.11298484595E+03  0.39681613059E+03  0.35526350227E+02  0.41411440264E+03  0.00000000000E+00 0.  1.
          5    1    4    4  502    0  0.25191195723E+01  0.33750809789E+02  0.24196380225E+02  0.41869057081E+02  0.47000000000E+01 0. -1.
         -5    1    4    4    0  502  0.13687660174E+03 -0.30663119140E+02 -0.41946673652E+02  0.14648223240E+03  0.47000000000E+01 0. -1.
<mgrwt>
<rscale>  0 0.10029790E+04</rscale>
<asrwt>0</asrwt>
<pdfrwt beam="1">  1        2 0.79392627E-01 0.10029790E+04</pdfrwt>
<pdfrwt beam="2">  1       -2 0.74975055E-01 0.10029790E+04</pdfrwt>
<totfact> 0.11457063E+02</totfact>
</mgrwt>
</event>
<event>
 9    1  0.4236486E-036  0.1000311E+04  0.7818608E-02  0.8680742E-01
         -2   -1    0    0    0  501 -0.00000000000E+00  0.00000000000E+00  0.39856207100E+03  0.39856207100E+03  0.00000000000E+00 0. -1.
          2   -1    0    0  501    0  0.00000000000E+00 -0.00000000000E+00 -0.62764534963E+03  0.62764534963E+03  0.00000000000E+00 0. -1.
         36    2    1    2    0    0  0.14210854715E-13 -0.71054273576E-14 -0.22908327863E+03  0.10262074206E+04  0.10003112124E+04 0.  0.
         25    2    3    3    0    0  0.26858683793E+02 -0.56448521373E+02 -0.17185461387E+03  0.22158625860E+03  0.12513447659E+03 0.  0.
         35    2    3    3    0    0 -0.26858683793E+02  0.56448521373E+02 -0.57228664763E+02  0.80462116204E+03  0.80014515550E+03 0.  0.
         22    1    5    5    0    0  0.14365694035E+03  0.60966814039E+00 -0.39600853893E+03  0.42126055015E+03  0.00000000000E+00 0.  1.
         22    1    5    5    0    0 -0.17051562414E+03  0.55838853233E+02  0.33877987417E+03  0.38336061189E+03  0.00000000000E+00 0.  1.
          5    1    4    4  502    0  0.33436308559E+02  0.54986625226E+01  0.44895817744E+01  0.34503164552E+02  0.47000000000E+01 0. -1.
         -5    1    4    4    0  502 -0.65776247656E+01 -0.61947183896E+02 -0.17634419564E+03  0.18708309404E+03  0.47000000000E+01 0. -1.
<mgrwt>
<rscale>  0 0.10003112E+04</rscale>
<asrwt>0</asrwt>
<pdfrwt beam="1">  1        2 0.96560824E-01 0.10003112E+04</pdfrwt>
<pdfrwt beam="2">  1       -2 0.61317241E-01 0.10003112E+04</pdfrwt>
<totfact> 0.14048838E+02</totfact>
</mgrwt>
</event>
<event>
 9    1  0.4236486E-036  0.1000090E+04  0.7818608E-02  0.8680953E-01
          2   -1    0    0  501    0  0.00000000000E+00  0.00000000000E+00  0.96423941518E+03  0.96423941518E+03  0.00000000000E+00 0. -1.
         -2   -1    0    0    0  501 -0.00000000000E+00 -0.00000000000E+00 -0.25931815137E+03  0.25931815137E+03  0.00000000000E+00 0. -1.
         36    2    1    2    0    0  0.71054273576E-14  0.14210854715E-13  0.70492126381E+03  0.12235575665E+04  0.10000895612E+04 0.  0.
         25    2    3    3    0    0  0.69520652486E+01  0.48988586996E+02 -0.28581506505E+02  0.13720109161E+03  0.12473581747E+03 0.  0.
         35    2    3    3    0    0 -0.69520652486E+01 -0.48988586996E+02  0.73350277031E+03  0.10863564749E+04  0.79980989223E+03 0.  0.
         22    1    5    5    0    0  0.13618967042E+03 -0.39955784159E+03  0.36668603469E+03  0.55915359531E+03  0.00000000000E+00 0.  1.
         22    1    5    5    0    0 -0.14314173567E+03  0.35056925459E+03  0.36681673562E+03  0.52720287963E+03  0.00000000000E+00 0.  1.
          5    1    4    4  502    0 -0.53511701962E+02 -0.19031393203E+01 -0.20852460399E+02  0.57654481966E+02  0.47000000000E+01 0.  1.
         -5    1    4    4    0  502  0.60463767211E+02  0.50891726316E+02 -0.77290461059E+01  0.79546609648E+02  0.47000000000E+01 0.  1.
<mgrwt>
<rscale>  0 0.10000896E+04</rscale>
<asrwt>0</asrwt>
<pdfrwt beam="1">  1        2 0.14834452E+00 0.10000896E+04</pdfrwt>
<pdfrwt beam="2">  1       -2 0.39895101E-01 0.10000896E+04</pdfrwt>
<totfact> 0.19099459E+02</totfact>
</mgrwt>
</event>
<event>
 9    1  0.4236486E-036  0.9997710E+03  0.7818608E-02  0.8681256E-01
          2   -1    0    0  501    0  0.00000000000E+00  0.00000000000E+00  0.76055620000E+02  0.76055620000E+02  0.00000000000E+00 0. -1.
         -2   -1    0    0    0  501 -0.00000000000E+00 -0.00000000000E+00 -0.32855630338E+04  0.32855630338E+04  0.00000000000E+00 0. -1.
         36    2    1    2    0    0  0.00000000000E+00  0.00000000000E+00 -0.32095074138E+04  0.33616186538E+04  0.99977104096E+03 0.  0.
         25    2    3    3    0    0 -0.13034182458E+03  0.51654819319E+02 -0.45927542020E+03  0.49596074822E+03  0.12404007654E+03 0.  0.
         35    2    3    3    0    0  0.13034182458E+03 -0.51654819319E+02 -0.27502319936E+04  0.28656579056E+04  0.79281902194E+03 0.  0.
         22    1    5    5    0    0 -0.31557449859E+01 -0.40966595443E+03 -0.16811571731E+04  0.17303541815E+04  0.00000000000E+00 0.  1.
         22    1    5    5    0    0  0.13349756957E+03  0.35801113512E+03 -0.10690748205E+04  0.11353037241E+04  0.00000000000E+00 0.  1.
          5    1    4    4  502    0 -0.51944950596E+02 -0.34573836098E+02 -0.23476790241E+03  0.24296437195E+03  0.47000000000E+01 0.  1.
         -5    1    4    4    0  502 -0.78396873988E+02  0.86228655416E+02 -0.22450751779E+03  0.25299637627E+03  0.47000000000E+01 0.  1.
<mgrwt>
<rscale>  0 0.99977104E+03</rscale>
<asrwt>0</asrwt>
<pdfrwt beam="1">  1        2 0.11700864E-01 0.99977104E+03</pdfrwt>
<pdfrwt beam="2">  1       -2 0.50547127E+00 0.99977104E+03</pdfrwt>
<totfact> 0.17784641E+00</totfact>
</mgrwt>
</event>
<event>
 9    1  0.4236486E-036  0.1001060E+04  0.7818608E-02  0.8680030E-01
         -2   -1    0    0    0  501 -0.00000000000E+00  0.00000000000E+00  0.26064681758E+03  0.26064681758E+03  0.00000000000E+00 0. -1.
          2   -1    0    0  501    0  0.00000000000E+00 -0.00000000000E+00 -0.96118585744E+03  0.96118585744E+03  0.00000000000E+00 0. -1.
         36    2    1    2    0    0  0.00000000000E+00  0.00000000000E+00 -0.70053903986E+03  0.12218326750E+04  0.10010595084E+04 0.  0.
         25    2    3    3    0    0  0.58005401254E+02  0.71470925134E+02 -0.21488674425E+01  0.15622811863E+03  0.12621365895E+03 0.  0.
         35    2    3    3    0    0 -0.58005401254E+02 -0.71470925134E+02 -0.69839017241E+03  0.10656045564E+04  0.79955707611E+03 0.  0.
         22    1    5    5    0    0 -0.62129661339E+01 -0.19321200549E+03 -0.84575423129E+03  0.86756538645E+03  0.00000000000E+00 0.  1.
         22    1    5    5    0    0 -0.51792435120E+02  0.12174108036E+03  0.14736405888E+03  0.19803916994E+03  0.00000000000E+00 0.  1.
          5    1    4    4  502    0  0.92731452291E+01  0.66530506349E+02  0.50495282516E+02  0.84167470283E+02  0.47000000000E+01 0.  1.
         -5    1    4    4    0  502  0.48732256025E+02  0.49404187848E+01 -0.52644149958E+02  0.72060648345E+02  0.47000000000E+01 0.  1.
<mgrwt>
<rscale>  0 0.10010595E+04</rscale>
<asrwt>0</asrwt>
<pdfrwt beam="1">  1        2 0.14787475E+00 0.10010595E+04</pdfrwt>
<pdfrwt beam="2">  1       -2 0.40099510E-01 0.10010595E+04</pdfrwt>
<totfact> 0.18998428E+02</totfact>
</mgrwt>
</event>
<event>
 9    1  0.4236486E-036  0.9995668E+03  0.7818608E-02  0.8681451E-01
          2   -1    0    0  501    0  0.00000000000E+00  0.00000000000E+00  0.96735154299E+03  0.96735154299E+03  0.00000000000E+00 0. -1.
         -2   -1    0    0    0  501 -0.00000000000E+00 -0.00000000000E+00 -0.25821371234E+03  0.25821371234E+03  0.00000000000E+00 0. -1.
         36    2    1    2    0    0  0.00000000000E+00 -0.71054273576E-14  0.70913783065E+03  0.12255652553E+04  0.99956677227E+03 0.  0.
         25    2    3    3    0    0 -0.13809664453E+03 -0.96419711684E+01  0.11625809533E+03  0.21986571216E+03  0.12514525884E+03 0.  0.
         35    2    3    3    0    0  0.13809664453E+03  0.96419711684E+01  0.59287973531E+03  0.10056995432E+04  0.80047582085E+03 0.  0.
         22    1    5    5    0    0  0.88469133293E+02 -0.14767807967E+03  0.75501856320E+03  0.77439565697E+03  0.00000000000E+00 0. -1.
         22    1    5    5    0    0  0.49627511241E+02  0.15732005084E+03 -0.16213882789E+03  0.23130388621E+03  0.00000000000E+00 0. -1.
          5    1    4    4  502    0  0.11267513897E+02  0.68385423662E+01  0.56289671032E+02  0.58002927478E+02  0.47000000000E+01 0.  1.
         -5    1    4    4    0  502 -0.14936415843E+03 -0.16480513535E+02  0.59968424302E+02  0.16186278468E+03  0.47000000000E+01 0.  1.
<mgrwt>
<rscale>  0 0.99956677E+03</rscale>
<asrwt>0</asrwt>
<pdfrwt beam="1">  1        2 0.14882331E+00 0.99956677E+03</pdfrwt>
<pdfrwt beam="2">  1       -2 0.39725187E-01 0.99956677E+03</pdfrwt>
<totfact> 0.19168328E+02</totfact>
</mgrwt>
</event>
<event>
 9    1  0.4236486E-036  0.1000639E+04  0.7818608E-02  0.8680430E-01
         -1   -1    0    0    0  501 -0.00000000000E+00  0.00000000000E+00  0.61240627295E+03  0.61240627295E+03  0.00000000000E+00 0. -1.
          1   -1    0    0  501    0  0.00000000000E+00 -0.00000000000E+00 -0.40874748328E+03  0.40874748328E+03  0.00000000000E+00 0. -1.
         36    2    1    2    0    0  0.21316282073E-13  0.00000000000E+00  0.20365878967E+03  0.10211537562E+04  0.10006388416E+04 0.  0.
         25    2    3    3    0    0  0.36679328345E+02 -0.13581110570E+03  0.27021070384E+02  0.19033703737E+03  0.12533164003E+03 0.  0.
         35    2    3    3    0    0 -0.36679328345E+02  0.13581110570E+03  0.17663771928E+03  0.83081671886E+03  0.79954081003E+03 0.  0.
         22    1    5    5    0    0  0.27537462948E+03  0.80144044244E+02 -0.19162126502E+03  0.34492457667E+03  0.00000000000E+00 0.  1.
         22    1    5    5    0    0 -0.31205395782E+03  0.55667061458E+02  0.36825898430E+03  0.48589214219E+03  0.00000000000E+00 0.  1.
          5    1    4    4  502    0 -0.45503079435E+02 -0.34960331348E+02  0.15634271765E+02  0.59659663590E+02  0.47000000000E+01 0.  1.
         -5    1    4    4    0  502  0.82182407780E+02 -0.10085077435E+03  0.11386798620E+02  0.13067737378E+03  0.47000000000E+01 0.  1.
<mgrwt>
<rscale>  0 0.10006388E+04</rscale>
<asrwt>0</asrwt>
<pdfrwt beam="1">  1        1 0.62884228E-01 0.10006388E+04</pdfrwt>
<pdfrwt beam="2">  1       -1 0.94216349E-01 0.10006388E+04</pdfrwt>
<totfact> 0.75904223E+01</totfact>
</mgrwt>
</event>
<event>
 9    1  0.4236486E-036  0.9981724E+03  0.7818608E-02  0.8682780E-01
          1   -1    0    0  501    0  0.00000000000E+00  0.00000000000E+00  0.47032780602E+03  0.47032780602E+03  0.00000000000E+00 0. -1.
         -1   -1    0    0    0  501 -0.00000000000E+00 -0.00000000000E+00 -0.52960304883E+03  0.52960304883E+03  0.00000000000E+00 0. -1.
         36    2    1    2    0    0 -0.71054273576E-14 -0.14210854715E-13 -0.59275242815E+02  0.99993085485E+03  0.99817240999E+03 0.  0.
         25    2    3    3    0    0 -0.43991836786E+02 -0.76277970642E+02  0.94946143937E+02  0.18088062390E+03  0.12629101055E+03 0.  0.
         35    2    3    3    0    0  0.43991836786E+02  0.76277970642E+02 -0.15422138675E+03  0.81905023094E+03  0.79956577851E+03 0.  0.
         22    1    5    5    0    0  0.23439916750E+01  0.36798567412E+03  0.14828806139E+03  0.39674714845E+03  0.00000000000E+00 0. -1.
         22    1    5    5    0    0  0.41647845111E+02 -0.29170770348E+03 -0.30250944814E+03  0.42230308249E+03  0.00000000000E+00 0. -1.
          5    1    4    4  502    0 -0.81667305688E+02 -0.48304022365E+02  0.28091097019E+02  0.99065771721E+02  0.47000000000E+01 0. -1.
         -5    1    4    4    0  502  0.37675468901E+02 -0.27973948278E+02  0.66855046918E+02  0.81814852182E+02  0.47000000000E+01 0. -1.
<mgrwt>
<rscale>  0 0.99817241E+03</rscale>
<asrwt>0</asrwt>
<pdfrwt beam="1">  1        1 0.72358124E-01 0.99817241E+03</pdfrwt>
<pdfrwt beam="2">  1       -1 0.81477392E-01 0.99817241E+03</pdfrwt>
<totfact> 0.85647430E+01</totfact>
</mgrwt>
</event>
<event>
 9    1  0.4236486E-036  0.9970987E+03  0.7818608E-02  0.8683806E-01
         -2   -1    0    0    0  501 -0.00000000000E+00  0.00000000000E+00  0.26426937572E+03  0.26426937572E+03  0.00000000000E+00 0. -1.
          2   -1    0    0  501    0  0.00000000000E+00 -0.00000000000E+00 -0.94052304191E+03  0.94052304191E+03  0.00000000000E+00 0. -1.
         36    2    1    2    0    0  0.00000000000E+00  0.00000000000E+00 -0.67625366619E+03  0.12047924176E+04  0.99709866539E+03 0.  0.
         25    2    3    3    0    0 -0.12201918108E+03  0.23278473156E+02 -0.20609114446E+03  0.27108418997E+03  0.12482992575E+03 0.  0.
         35    2    3    3    0    0  0.12201918108E+03 -0.23278473156E+02 -0.47016252173E+03  0.93370822765E+03  0.79707445680E+03 0.  0.
         22    1    5    5    0    0 -0.24037793123E+03 -0.13300752115E+02 -0.51492157506E+03  0.56842122435E+03  0.00000000000E+00 0.  1.
         22    1    5    5    0    0  0.36239711231E+03 -0.99777210402E+01  0.44759053323E+02  0.36528700331E+03  0.00000000000E+00 0.  1.
          5    1    4    4  502    0 -0.10330903143E+03 -0.20298409931E+02 -0.19575270517E+03  0.22231957404E+03  0.47000000000E+01 0.  1.
         -5    1    4    4    0  502 -0.18710149649E+02  0.43576883086E+02 -0.10338439286E+02  0.48764615925E+02  0.47000000000E+01 0.  1.
<mgrwt>
<rscale>  0 0.99709867E+03</rscale>
<asrwt>0</asrwt>
<pdfrwt beam="1">  1        2 0.14469586E+00 0.99709867E+03</pdfrwt>
<pdfrwt beam="2">  1       -2 0.40656826E-01 0.99709867E+03</pdfrwt>
<totfact> 0.19076888E+02</totfact>
</mgrwt>
</event>
<event>
 9    1  0.4236486E-036  0.9937860E+03  0.7818608E-02  0.8686978E-01
          2   -1    0    0  501    0  0.00000000000E+00  0.00000000000E+00  0.51313399662E+03  0.51313399662E+03  0.00000000000E+00 0.  1.
         -2   -1    0    0    0  501 -0.00000000000E+00 -0.00000000000E+00 -0.48116604383E+03  0.48116604383E+03  0.00000000000E+00 0.  1.
         36    2    1    2    0    0 -0.28421709430E-13 -0.28421709430E-13  0.31967952791E+02  0.99430004045E+03  0.99378600334E+03 0.  0.
         25    2    3    3    0    0 -0.11170436235E+03 -0.53960865705E+02  0.53147016383E+02  0.18284335146E+03  0.12335901356E+03 0.  0.
         35    2    3    3    0    0  0.11170436235E+03  0.53960865705E+02 -0.21179063593E+02  0.81145668899E+03  0.80163817635E+03 0.  0.
         22    1    5    5    0    0  0.23169953181E+03 -0.31822417402E+03 -0.11346287418E+03  0.40966464553E+03  0.00000000000E+00 0.  1.
         22    1    5    5    0    0 -0.11999516946E+03  0.37218503973E+03  0.92283810591E+02  0.40179204346E+03  0.00000000000E+00 0.  1.
          5    1    4    4  502    0 -0.82333960444E+02  0.18285667064E+02 -0.62461105055E+01  0.84701538113E+02  0.47000000000E+01 0. -1.
         -5    1    4    4    0  502 -0.29370401905E+02 -0.72246532769E+02  0.59393126889E+02  0.98141813346E+02  0.47000000000E+01 0. -1.
<mgrwt>
<rscale>  0 0.99378600E+03</rscale>
<asrwt>0</asrwt>
<pdfrwt beam="1">  1        2 0.78943692E-01 0.99378600E+03</pdfrwt>
<pdfrwt beam="2">  1       -2 0.74025545E-01 0.99378600E+03</pdfrwt>
<totfact> 0.11867483E+02</totfact>
</mgrwt>
</event>
<event>
 9    1  0.4236486E-036  0.9999802E+03  0.7818608E-02  0.8681057E-01
         -2   -1    0    0    0  501 -0.00000000000E+00  0.00000000000E+00  0.23016235030E+03  0.23016235030E+03  0.00000000000E+00 0.  1.
          2   -1    0    0  501    0  0.00000000000E+00 -0.00000000000E+00 -0.10861468362E+04  0.10861468362E+04  0.00000000000E+00 0.  1.
         36    2    1    2    0    0  0.71054273576E-14  0.28421709430E-13 -0.85598448591E+03  0.13163091865E+04  0.99998021699E+03 0.  0.
         25    2    3    3    0    0  0.99359280643E+01 -0.93156461800E+02 -0.29511584520E+03  0.33417435905E+03  0.12570716414E+03 0.  0.
         35    2    3    3    0    0 -0.99359280643E+01  0.93156461800E+02 -0.56086864071E+03  0.98213482746E+03  0.80077358731E+03 0.  0.
         22    1    5    5    0    0 -0.22519351002E+02  0.44388850390E+03 -0.23288666908E+03  0.50177716737E+03  0.00000000000E+00 0.  1.
         22    1    5    5    0    0  0.12583422938E+02 -0.35073204210E+03 -0.32798197163E+03  0.48035766009E+03  0.00000000000E+00 0.  1.
          5    1    4    4  502    0  0.66194615383E+02 -0.51349701700E+02 -0.12989615691E+03  0.15464029407E+03  0.47000000000E+01 0.  1.
         -5    1    4    4    0  502 -0.56258687319E+02 -0.41806760100E+02 -0.16521968829E+03  0.17953406498E+03  0.47000000000E+01 0.  1.
<mgrwt>
<rscale>  0 0.99998022E+03</rscale>
<asrwt>0</asrwt>
<pdfrwt beam="1">  1        2 0.16709952E+00 0.99998022E+03</pdfrwt>
<pdfrwt beam="2">  1       -2 0.35409592E-01 0.99998022E+03</pdfrwt>
<totfact> 0.20094502E+02</totfact>
</mgrwt>
</event>
<event>
 9    1  0.4236486E-036  0.1000946E+04  0.7818608E-02  0.8680138E-01
         -2   -1    0    0    0  501 -0.00000000000E+00  0.00000000000E+00  0.19777811329E+03  0.19777811329E+03  0.00000000000E+00 0.  1.
          2   -1    0    0  501    0  0.00000000000E+00 -0.00000000000E+00 -0.12664356550E+04  0.12664356550E+04  0.00000000000E+00 0.  1.
         36    2    1    2    0    0  0.00000000000E+00  0.14210854715E-13 -0.10686575417E+04  0.14642137683E+04  0.10009460614E+04 0.  0.
         25    2    3    3    0    0  0.88938218734E+02  0.10698025997E+03 -0.24016526970E+03  0.30395787497E+03  0.12392033817E+03 0.  0.
         35    2    3    3    0    0 -0.88938218734E+02 -0.10698025997E+03 -0.82849227202E+03  0.11602558933E+04  0.80027464687E+03 0.  0.
         22    1    5    5    0    0 -0.41553413847E+02  0.11555443565E+02  0.15889814207E+03  0.16464760560E+03  0.00000000000E+00 0.  1.
         22    1    5    5    0    0 -0.47384804887E+02 -0.11853570353E+03 -0.98739041408E+03  0.99560828772E+03  0.00000000000E+00 0.  1.
          5    1    4    4  502    0  0.24032180197E+02 -0.47054594460E+01 -0.13510221359E+03  0.13738407896E+03  0.47000000000E+01 0. -1.
         -5    1    4    4    0  502  0.64906038536E+02  0.11168571941E+03 -0.10506305611E+03  0.16657379601E+03  0.47000000000E+01 0. -1.
<mgrwt>
<rscale>  0 0.10009461E+04</rscale>
<asrwt>0</asrwt>
<pdfrwt beam="1">  1        2 0.19483626E+00 0.10009461E+04</pdfrwt>
<pdfrwt beam="2">  1       -2 0.30427402E-01 0.10009461E+04</pdfrwt>
<totfact> 0.20772672E+02</totfact>
</mgrwt>
</event>
<event>
 9    1  0.4236486E-036  0.1000761E+04  0.7818608E-02  0.8680314E-01
         -2   -1    0    0    0  501 -0.00000000000E+00  0.00000000000E+00  0.18170044334E+03  0.18170044334E+03  0.00000000000E+00 0.  1.
          2   -1    0    0  501    0  0.00000000000E+00 -0.00000000000E+00 -0.13779856353E+04  0.13779856353E+04  0.00000000000E+00 0.  1.
         36    2    1    2    0    0 -0.28421709430E-13  0.71054273576E-14 -0.11962851920E+04  0.15596860787E+04  0.10007609122E+04 0.  0.
         25    2    3    3    0    0  0.10850118954E+03  0.47377663170E+02 -0.10532075544E+03  0.20189569946E+03  0.12510899583E+03 0.  0.
         35    2    3    3    0    0 -0.10850118954E+03 -0.47377663170E+02 -0.10909644366E+04  0.13577903792E+04  0.79960875492E+03 0.  0.
         22    1    5    5    0    0 -0.26968053437E+03  0.29417240869E+03 -0.74719439002E+03  0.84709176193E+03  0.00000000000E+00 0.  1.
         22    1    5    5    0    0  0.16117934483E+03 -0.34155007186E+03 -0.34377004654E+03  0.51069861727E+03  0.00000000000E+00 0.  1.
          5    1    4    4  502    0 -0.67343033730E+01 -0.45611304652E+01 -0.69920000645E+02  0.70548219278E+02  0.47000000000E+01 0. -1.
         -5    1    4    4    0  502  0.11523549292E+03  0.51938793635E+02 -0.35400754791E+02  0.13134748019E+03  0.47000000000E+01 0. -1.
<mgrwt>
<rscale>  0 0.10007609E+04</rscale>
<asrwt>0</asrwt>
<pdfrwt beam="1">  1        2 0.21199780E+00 0.10007609E+04</pdfrwt>
<pdfrwt beam="2">  1       -2 0.27953914E-01 0.10007609E+04</pdfrwt>
<totfact> 0.20886153E+02</totfact>
</mgrwt>
</event>
<event>
 9    1  0.4236486E-036  0.9996360E+03  0.7818608E-02  0.8681385E-01
         -3   -1    0    0    0  501 -0.00000000000E+00  0.00000000000E+00  0.76386838856E+03  0.76386838856E+03  0.00000000000E+00 0.  1.
          3   -1    0    0  501    0  0.00000000000E+00 -0.00000000000E+00 -0.32704331928E+03  0.32704331928E+03  0.00000000000E+00 0.  1.
         36    2    1    2    0    0  0.00000000000E+00 -0.35527136788E-14  0.43682506928E+03  0.10909117078E+04  0.99963604034E+03 0.  0.
         25    2    3    3    0    0  0.53193712891E+02 -0.23881263899E+02  0.22204248393E+03  0.26077696070E+03  0.12370073852E+03 0.  0.
         35    2    3    3    0    0 -0.53193712891E+02  0.23881263899E+02  0.21478258536E+03  0.83013474713E+03  0.79974511788E+03 0.  0.
         22    1    5    5    0    0 -0.24866927099E+03 -0.31824357916E+03  0.67497089025E+02  0.40947678693E+03  0.00000000000E+00 0.  1.
         22    1    5    5    0    0  0.19547555810E+03  0.34212484306E+03  0.14728549633E+03  0.42065796020E+03  0.00000000000E+00 0.  1.
          5    1    4    4  502    0 -0.30422995686E+02  0.25105227162E+02  0.65788152957E+02  0.76850518325E+02  0.47000000000E+01 0. -1.
         -5    1    4    4    0  502  0.83616708577E+02 -0.48986491061E+02  0.15625433097E+03  0.18392644238E+03  0.47000000000E+01 0. -1.
<mgrwt>
<rscale>  0 0.99963604E+03</rscale>
<asrwt>0</asrwt>
<pdfrwt beam="1">  1        3 0.50314357E-01 0.99963604E+03</pdfrwt>
<pdfrwt beam="2">  1       -3 0.11751821E+00 0.99963604E+03</pdfrwt>
<totfact> 0.82289868E+00</totfact>
</mgrwt>
</event>
<event>
 9    1  0.4236486E-036  0.9993633E+03  0.7818608E-02  0.8681645E-01
          1   -1    0    0  501    0  0.00000000000E+00  0.00000000000E+00  0.13038466351E+04  0.13038466351E+04  0.00000000000E+00 0. -1.
         -1   -1    0    0    0  501 -0.00000000000E+00 -0.00000000000E+00 -0.19149625361E+03  0.19149625361E+03  0.00000000000E+00 0. -1.
         36    2    1    2    0    0  0.14210854715E-13  0.00000000000E+00  0.11123503815E+04  0.14953428887E+04  0.99936328911E+03 0.  0.
         25    2    3    3    0    0  0.33437278109E+02  0.53525355261E+02  0.23603863092E+02  0.14292583867E+03  0.12604617322E+03 0.  0.
         35    2    3    3    0    0 -0.33437278109E+02 -0.53525355261E+02  0.10887465184E+04  0.13524170501E+04  0.79979990041E+03 0.  0.
         22    1    5    5    0    0 -0.32653456581E+03 -0.15817986304E+03  0.20782314820E+03  0.41813413239E+03  0.00000000000E+00 0. -1.
         22    1    5    5    0    0  0.29309728770E+03  0.10465450778E+03  0.88092337021E+03  0.93428291767E+03  0.00000000000E+00 0. -1.
          5    1    4    4  502    0 -0.22336474792E+02  0.19863494719E+02  0.60691769611E+02  0.67816350736E+02  0.47000000000E+01 0.  1.
         -5    1    4    4    0  502  0.55773752901E+02  0.33661860542E+02 -0.37087906520E+02  0.75109487935E+02  0.47000000000E+01 0.  1.
<mgrwt>
<rscale>  0 0.99936329E+03</rscale>
<asrwt>0</asrwt>
<pdfrwt beam="1">  1        1 0.20059178E+00 0.99936329E+03</pdfrwt>
<pdfrwt beam="2">  1       -1 0.29460963E-01 0.99936329E+03</pdfrwt>
<totfact> 0.10360369E+02</totfact>
</mgrwt>
</event>
<event>
 9    1  0.4236486E-036  0.9987906E+03  0.7818608E-02  0.8682191E-01
         -2   -1    0    0    0  501 -0.00000000000E+00  0.00000000000E+00  0.25536793191E+03  0.25536793191E+03  0.00000000000E+00 0. -1.
          2   -1    0    0  501    0  0.00000000000E+00 -0.00000000000E+00 -0.97661309587E+03  0.97661309587E+03  0.00000000000E+00 0. -1.
         36    2    1    2    0    0 -0.71054273576E-14  0.00000000000E+00 -0.72124516396E+03  0.12319810278E+04  0.99879060181E+03 0.  0.
         25    2    3    3    0    0 -0.52829528219E+02  0.32977478099E+02 -0.28551284905E+03  0.31890612682E+03  0.12769125905E+03 0.  0.
         35    2    3    3    0    0  0.52829528219E+02 -0.32977478099E+02 -0.43573231491E+03  0.91307490096E+03  0.79997790681E+03 0.  0.
         22    1    5    5    0    0 -0.17538490134E+03 -0.23938643110E+02 -0.60399075229E+03  0.62939474982E+03  0.00000000000E+00 0.  1.
         22    1    5    5    0    0  0.22821442956E+03 -0.90388349897E+01  0.16825843738E+03  0.28368015113E+03  0.00000000000E+00 0.  1.
          5    1    4    4  502    0  0.38510558645E+02  0.27018914708E+01 -0.43109800314E+02  0.58059523144E+02  0.47000000000E+01 0. -1.
         -5    1    4    4    0  502 -0.91340086864E+02  0.30275586629E+02 -0.24240304873E+03  0.26084660367E+03  0.47000000000E+01 0. -1.
<mgrwt>
<rscale>  0 0.99879060E+03</rscale>
<asrwt>0</asrwt>
<pdfrwt beam="1">  1        2 0.15024817E+00 0.99879060E+03</pdfrwt>
<pdfrwt beam="2">  1       -2 0.39287374E-01 0.99879060E+03</pdfrwt>
<totfact> 0.19314813E+02</totfact>
</mgrwt>
</event>
<event>
 9    1  0.4236486E-036  0.9996807E+03  0.7818608E-02  0.8681342E-01
         -2   -1    0    0    0  501 -0.00000000000E+00  0.00000000000E+00  0.14123118873E+03  0.14123118873E+03  0.00000000000E+00 0.  1.
          2   -1    0    0  501    0  0.00000000000E+00 -0.00000000000E+00 -0.17690169806E+04  0.17690169806E+04  0.00000000000E+00 0.  1.
         36    2    1    2    0    0  0.14210854715E-13  0.00000000000E+00 -0.16277857919E+04  0.19102481693E+04  0.99968069112E+03 0.  0.
         25    2    3    3    0    0 -0.48592261880E+02 -0.64946954788E+02 -0.85637745758E+02  0.17131839027E+03  0.12424513067E+03 0.  0.
         35    2    3    3    0    0  0.48592261880E+02  0.64946954788E+02 -0.15421480461E+04  0.17389297791E+04  0.79942283274E+03 0.  0.
         22    1    5    5    0    0 -0.16879258408E+03 -0.28700287813E+03 -0.37937826487E+03  0.50476673459E+03  0.00000000000E+00 0. -1.
         22    1    5    5    0    0  0.21738484596E+03  0.35194983292E+03 -0.11627697812E+04  0.12341630445E+04  0.00000000000E+00 0. -1.
          5    1    4    4  502    0 -0.43067644489E+02  0.26016871050E+02 -0.73134755837E+01  0.51061497297E+02  0.47000000000E+01 0. -1.
         -5    1    4    4    0  502 -0.55246173915E+01 -0.90963825838E+02 -0.78324270174E+02  0.12025689297E+03  0.47000000000E+01 0. -1.
<mgrwt>
<rscale>  0 0.99968069E+03</rscale>
<asrwt>0</asrwt>
<pdfrwt beam="1">  1        2 0.27215646E+00 0.99968069E+03</pdfrwt>
<pdfrwt beam="2">  1       -2 0.21727875E-01 0.99968069E+03</pdfrwt>
<totfact> 0.19615832E+02</totfact>
</mgrwt>
</event>
<event>
 9    1  0.4236486E-036  0.9996187E+03  0.7818608E-02  0.8681401E-01
         -2   -1    0    0    0  501 -0.00000000000E+00  0.00000000000E+00  0.70786996036E+03  0.70786996036E+03  0.00000000000E+00 0.  1.
          2   -1    0    0  501    0  0.00000000000E+00 -0.00000000000E+00 -0.35290292771E+03  0.35290292771E+03  0.00000000000E+00 0.  1.
         36    2    1    2    0    0 -0.71054273576E-14  0.00000000000E+00  0.35496703265E+03  0.10607728881E+04  0.99961869020E+03 0.  0.
         25    2    3    3    0    0 -0.90906261478E+01  0.65068188087E+02  0.19725708716E+03  0.24270044205E+03  0.12520637984E+03 0.  0.
         35    2    3    3    0    0  0.90906261478E+01 -0.65068188087E+02  0.15770994549E+03  0.81807244602E+03  0.80003349395E+03 0.  0.
         22    1    5    5    0    0  0.14185448502E+03 -0.13868148984E+03  0.44829248954E+03  0.49022587317E+03  0.00000000000E+00 0.  1.
         22    1    5    5    0    0 -0.13276385888E+03  0.73613301755E+02 -0.29058254405E+03  0.32784657285E+03  0.00000000000E+00 0.  1.
          5    1    4    4  502    0  0.57882107313E+02  0.28932134170E+02  0.83220696156E+02  0.10552336710E+03  0.47000000000E+01 0. -1.
         -5    1    4    4    0  502 -0.66972733461E+02  0.36136053918E+02  0.11403639100E+03  0.13717707496E+03  0.47000000000E+01 0. -1.
<mgrwt>
<rscale>  0 0.99961869E+03</rscale>
<asrwt>0</asrwt>
<pdfrwt beam="1">  1        2 0.54292758E-01 0.99961869E+03</pdfrwt>
<pdfrwt beam="2">  1       -2 0.10890307E+00 0.99961869E+03</pdfrwt>
<totfact> 0.72708382E+01</totfact>
</mgrwt>
</event>
<event>
 9    1  0.4236486E-036  0.9989581E+03  0.7818608E-02  0.8682031E-01
          2   -1    0    0  501    0  0.00000000000E+00  0.00000000000E+00  0.57843127932E+03  0.57843127932E+03  0.00000000000E+00 0. -1.
         -2   -1    0    0    0  501 -0.00000000000E+00 -0.00000000000E+00 -0.43130331439E+03  0.43130331439E+03  0.00000000000E+00 0. -1.
         36    2    1    2    0    0  0.28421709430E-13  0.00000000000E+00  0.14712796493E+03  0.10097345937E+04  0.99895811307E+03 0.  0.
         25    2    3    3    0    0 -0.11662173478E+03 -0.67973201361E+02  0.63245366157E+02  0.19434896063E+03  0.12470187262E+03 0.  0.
         35    2    3    3    0    0  0.11662173478E+03  0.67973201361E+02  0.83882598769E+02  0.81538563308E+03  0.79974774469E+03 0.  0.
         22    1    5    5    0    0 -0.31814171620E+03 -0.10661594920E+03 -0.17673229067E+02  0.33599621313E+03  0.00000000000E+00 0.  1.
         22    1    5    5    0    0  0.43476345097E+03  0.17458915056E+03  0.10155582784E+03  0.47938941995E+03  0.00000000000E+00 0.  1.
          5    1    4    4  502    0 -0.14193151746E+03 -0.49798972201E+02  0.41641493586E+02  0.15614287453E+03  0.47000000000E+01 0.  1.
         -5    1    4    4    0  502  0.25309782681E+02 -0.18174229160E+02  0.21603872571E+02  0.38206086099E+02  0.47000000000E+01 0.  1.
<mgrwt>
<rscale>  0 0.99895811E+03</rscale>
<asrwt>0</asrwt>
<pdfrwt beam="1">  1        2 0.88989428E-01 0.99895811E+03</pdfrwt>
<pdfrwt beam="2">  1       -2 0.66354356E-01 0.99895811E+03</pdfrwt>
<totfact> 0.13095487E+02</totfact>
</mgrwt>
</event>
<event>
 9    1  0.4236486E-036  0.1000445E+04  0.7818608E-02  0.8680615E-01
         -1   -1    0    0    0  501 -0.00000000000E+00  0.00000000000E+00  0.13274297119E+03  0.13274297119E+03  0.00000000000E+00 0.  1.
          1   -1    0    0  501    0  0.00000000000E+00 -0.00000000000E+00 -0.18850141228E+04  0.18850141228E+04  0.00000000000E+00 0.  1.
         36    2    1    2    0    0  0.00000000000E+00  0.14210854715E-13 -0.17522711516E+04  0.20177570940E+04  0.10004446519E+04 0.  0.
         25    2    3    3    0    0  0.62168121835E+02  0.47028159710E+02 -0.56596669180E+03  0.58494314061E+03  0.12555340836E+03 0.  0.
         35    2    3    3    0    0 -0.62168121835E+02 -0.47028159710E+02 -0.11863044598E+04  0.14328139534E+04  0.79972559697E+03 0.  0.
         22    1    5    5    0    0 -0.18411330722E+03 -0.26977365221E+03 -0.13865122725E+03  0.35482347180E+03  0.00000000000E+00 0.  1.
         22    1    5    5    0    0  0.12194518539E+03  0.22274549250E+03 -0.10476532326E+04  0.10779904816E+04  0.00000000000E+00 0.  1.
          5    1    4    4  502    0  0.87710084225E+02  0.37073334523E+02 -0.24692508373E+03  0.26469147697E+03  0.47000000000E+01 0.  1.
         -5    1    4    4    0  502 -0.25541962390E+02  0.99548251872E+01 -0.31904160807E+03  0.32025166364E+03  0.47000000000E+01 0.  1.
<mgrwt>
<rscale>  0 0.10004447E+04</rscale>
<asrwt>0</asrwt>
<pdfrwt beam="1">  1        1 0.29000216E+00 0.10004447E+04</pdfrwt>
<pdfrwt beam="2">  1       -1 0.20421996E-01 0.10004447E+04</pdfrwt>
<totfact> 0.74080750E+01</totfact>
</mgrwt>
</event>
<event>
 9    1  0.4236486E-036  0.9998930E+03  0.7818608E-02  0.8681140E-01
          1   -1    0    0  501    0  0.00000000000E+00  0.00000000000E+00  0.80591429762E+03  0.80591429762E+03  0.00000000000E+00 0. -1.
         -1   -1    0    0    0  501 -0.00000000000E+00 -0.00000000000E+00 -0.31014031024E+03  0.31014031024E+03  0.00000000000E+00 0. -1.
         36    2    1    2    0    0  0.14210854715E-13  0.71054273576E-14  0.49577398738E+03  0.11160546079E+04  0.99989301486E+03 0.  0.
         25    2    3    3    0    0 -0.92712639552E+02  0.30350986413E+02  0.20994948407E+03  0.26298679626E+03  0.12476559317E+03 0.  0.
         35    2    3    3    0    0  0.92712639552E+02 -0.30350986413E+02  0.28582450331E+03  0.85306781160E+03  0.79781716489E+03 0.  0.
         22    1    5    5    0    0 -0.47202453504E+02 -0.25278758543E+03  0.46752731020E+03  0.53358356492E+03  0.00000000000E+00 0.  1.
         22    1    5    5    0    0  0.13991509306E+03  0.22243659902E+03 -0.18170280689E+03  0.31948424668E+03  0.00000000000E+00 0.  1.
          5    1    4    4  502    0 -0.86629695887E+02  0.28610226325E+02  0.52547813357E+02  0.10538791178E+03  0.47000000000E+01 0.  1.
         -5    1    4    4    0  502 -0.60829436658E+01  0.17407600873E+01  0.15740167071E+03  0.15759888449E+03  0.47000000000E+01 0.  1.
<mgrwt>
<rscale>  0 0.99989301E+03</rscale>
<asrwt>0</asrwt>
<pdfrwt beam="1">  1        1 0.12398681E+00 0.99989301E+03</pdfrwt>
<pdfrwt beam="2">  1       -1 0.47713894E-01 0.99989301E+03</pdfrwt>
<totfact> 0.10909175E+02</totfact>
</mgrwt>
</event>
<event>
 9    1  0.4236486E-036  0.9997361E+03  0.7818608E-02  0.8681289E-01
          2   -1    0    0  501    0  0.00000000000E+00  0.00000000000E+00  0.24384227032E+04  0.24384227032E+04  0.00000000000E+00 0.  1.
         -2   -1    0    0    0  501 -0.00000000000E+00 -0.00000000000E+00 -0.10247119122E+03  0.10247119122E+03  0.00000000000E+00 0.  1.
         36    2    1    2    0    0 -0.14210854715E-13  0.00000000000E+00  0.23359515120E+04  0.25408938944E+04  0.99973612334E+03 0.  0.
         25    2    3    3    0    0 -0.95668593511E+02 -0.94057227738E+02  0.52952270264E+03  0.56026958124E+03  0.12453300438E+03 0.  0.
         35    2    3    3    0    0  0.95668593511E+02  0.94057227738E+02  0.18064288093E+04  0.19806243131E+04  0.80105454547E+03 0.  0.
         22    1    5    5    0    0 -0.15248270236E+03  0.38451476825E+03  0.73897847353E+03  0.84687175290E+03  0.00000000000E+00 0.  1.
         22    1    5    5    0    0  0.24815129587E+03 -0.29045754051E+03  0.10674503358E+04  0.11337525602E+04  0.00000000000E+00 0.  1.
          5    1    4    4  502    0 -0.65874054002E+02  0.11243596079E+02  0.13332919881E+03  0.14921318540E+03  0.47000000000E+01 0. -1.
         -5    1    4    4    0  502 -0.29794539509E+02 -0.10530082382E+03  0.39619350383E+03  0.41105639584E+03  0.47000000000E+01 0. -1.
<mgrwt>
<rscale>  0 0.99973612E+03</rscale>
<asrwt>0</asrwt>
<pdfrwt beam="1">  1        2 0.37514191E+00 0.99973612E+03</pdfrwt>
<pdfrwt beam="2">  1       -2 0.15764801E-01 0.99973612E+03</pdfrwt>
<totfact> 0.13956758E+02</totfact>
</mgrwt>
</event>
<event>
 9    1  0.4236486E-036  0.1002134E+04  0.7818608E-02  0.8679008E-01
         -2   -1    0    0    0  501 -0.00000000000E+00  0.00000000000E+00  0.19949932892E+03  0.19949932892E+03  0.00000000000E+00 0. -1.
          2   -1    0    0  501    0  0.00000000000E+00 -0.00000000000E+00 -0.12584922624E+04  0.12584922624E+04  0.00000000000E+00 0. -1.
         36    2    1    2    0    0  0.14210854715E-13  0.00000000000E+00 -0.10589929335E+04  0.14579915913E+04  0.10021344457E+04 0.  0.
         25    2    3    3    0    0  0.52169258342E+02 -0.10131617639E+03 -0.73809821191E+02  0.18443802096E+03  0.12483146542E+03 0.  0.
         35    2    3    3    0    0 -0.52169258342E+02  0.10131617639E+03 -0.98518311232E+03  0.12735535704E+04  0.79897830554E+03 0.  0.
         22    1    5    5    0    0  0.24023979705E+03 -0.95287232938E+02 -0.86259455046E+03  0.90047996943E+03  0.00000000000E+00 0.  1.
         22    1    5    5    0    0 -0.29240905539E+03  0.19660340932E+03 -0.12258856185E+03  0.37307360095E+03  0.00000000000E+00 0.  1.
          5    1    4    4  502    0  0.48329387087E+02  0.16028676055E+02 -0.28197831415E+02  0.58393970655E+02  0.47000000000E+01 0. -1.
         -5    1    4    4    0  502  0.38398712547E+01 -0.11734485244E+03 -0.45611989776E+02  0.12604405030E+03  0.47000000000E+01 0. -1.
<mgrwt>
<rscale>  0 0.10021344E+04</rscale>
<asrwt>0</asrwt>
<pdfrwt beam="1">  1        2 0.19361420E+00 0.10021344E+04</pdfrwt>
<pdfrwt beam="2">  1       -2 0.30692204E-01 0.10021344E+04</pdfrwt>
<totfact> 0.20665638E+02</totfact>
</mgrwt>
</event>
<event>
 9    1  0.4236486E-036  0.9990786E+03  0.7818608E-02  0.8681916E-01
          2   -1    0    0  501    0  0.00000000000E+00  0.00000000000E+00  0.11602586456E+04  0.11602586456E+04  0.00000000000E+00 0. -1.
         -2   -1    0    0    0  501 -0.00000000000E+00 -0.00000000000E+00 -0.21507229851E+03  0.21507229851E+03  0.00000000000E+00 0. -1.
         36    2    1    2    0    0  0.00000000000E+00  0.00000000000E+00  0.94518634712E+03  0.13753309441E+04  0.99907856304E+03 0.  0.
         25    2    3    3    0    0  0.40065125757E+02  0.11687170218E+03  0.26570482622E+03  0.31864704823E+03  0.12519056513E+03 0.  0.
         35    2    3    3    0    0 -0.40065125757E+02 -0.11687170218E+03  0.67948152090E+03  0.10566838959E+04  0.79976340849E+03 0.  0.
         22    1    5    5    0    0  0.72807662387E+02  0.31795518641E+03  0.43964212149E+03  0.54743186905E+03  0.00000000000E+00 0.  1.
         22    1    5    5    0    0 -0.11287278814E+03 -0.43482688859E+03  0.23983939941E+03  0.50925202685E+03  0.00000000000E+00 0.  1.
          5    1    4    4  502    0  0.60739025270E+02  0.11766358753E+03  0.26627889599E+03  0.29742308160E+03  0.47000000000E+01 0.  1.
         -5    1    4    4    0  502 -0.20673899513E+02 -0.79188535052E+00 -0.57406976547E+00  0.21223966632E+02  0.47000000000E+01 0.  1.
<mgrwt>
<rscale>  0 0.99907856E+03</rscale>
<asrwt>0</asrwt>
<pdfrwt beam="1">  1        2 0.17850133E+00 0.99907856E+03</pdfrwt>
<pdfrwt beam="2">  1       -2 0.33088047E-01 0.99907856E+03</pdfrwt>
<totfact> 0.20567969E+02</totfact>
</mgrwt>
</event>
<event>
 9    1  0.4236486E-036  0.1000319E+04  0.7818608E-02  0.8680734E-01
          1   -1    0    0  501    0  0.00000000000E+00  0.00000000000E+00  0.30628986323E+04  0.30628986323E+04  0.00000000000E+00 0.  1.
         -1   -1    0    0    0  501 -0.00000000000E+00 -0.00000000000E+00 -0.81674143123E+02  0.81674143123E+02  0.00000000000E+00 0.  1.
         36    2    1    2    0    0  0.00000000000E+00  0.00000000000E+00  0.29812244892E+04  0.31445727755E+04  0.10003191916E+04 0.  0.
         25    2    3    3    0    0  0.10090292872E+03  0.57415244064E+02  0.31256357548E+03  0.35597998755E+03  0.12469102433E+03 0.  0.
         35    2    3    3    0    0 -0.10090292872E+03 -0.57415244064E+02  0.26686609137E+04  0.27885927879E+04  0.80063771644E+03 0.  0.
         22    1    5    5    0    0 -0.30998309405E+03 -0.12674697194E+03  0.24680144439E+04  0.24906323713E+04  0.00000000000E+00 0. -1.
         22    1    5    5    0    0  0.20908016533E+03  0.69331727877E+02  0.20064646983E+03  0.29796041663E+03  0.00000000000E+00 0. -1.
          5    1    4    4  502    0  0.11446241494E+03  0.56191031641E+02  0.16932529299E+03  0.21201938901E+03  0.47000000000E+01 0.  1.
         -5    1    4    4    0  502 -0.13559486218E+02  0.12242124228E+01  0.14323828249E+03  0.14396059854E+03  0.47000000000E+01 0.  1.
<mgrwt>
<rscale>  0 0.10003192E+04</rscale>
<asrwt>0</asrwt>
<pdfrwt beam="1">  1        1 0.47121509E+00 0.10003192E+04</pdfrwt>
<pdfrwt beam="2">  1       -1 0.12565255E-01 0.10003192E+04</pdfrwt>
<totfact> 0.23953727E+01</totfact>
</mgrwt>
</event>
<event>
 9    1  0.4236486E-036  0.9990995E+03  0.7818608E-02  0.8681896E-01
          2   -1    0    0  501    0  0.00000000000E+00  0.00000000000E+00  0.27324927098E+04  0.27324927098E+04  0.00000000000E+00 0.  1.
         -2   -1    0    0    0  501 -0.00000000000E+00 -0.00000000000E+00 -0.91326842332E+02  0.91326842332E+02  0.00000000000E+00 0.  1.
         36    2    1    2    0    0 -0.71054273576E-14  0.00000000000E+00  0.26411658674E+04  0.28238195521E+04  0.99909945627E+03 0.  0.
         25    2    3    3    0    0  0.33149453294E+02 -0.11633767830E+03  0.30096909088E+03  0.34770444342E+03  0.12523036637E+03 0.  0.
         35    2    3    3    0    0 -0.33149453294E+02  0.11633767830E+03  0.23401967766E+04  0.24761151087E+04  0.79999483548E+03 0.  0.
         22    1    5    5    0    0  0.10794230953E+03 -0.21725506721E+03  0.18541510972E+04  0.18699539026E+04  0.00000000000E+00 0.  1.
         22    1    5    5    0    0 -0.14109176282E+03  0.33359274551E+03  0.48604567936E+03  0.60616120613E+03  0.00000000000E+00 0.  1.
          5    1    4    4  502    0  0.15606529909E+01  0.20553799064E+02  0.77230985258E+01  0.22508454958E+02  0.47000000000E+01 0.  1.
         -5    1    4    4    0  502  0.31588800303E+02 -0.13689147736E+03  0.29324599235E+03  0.32519598846E+03  0.47000000000E+01 0.  1.
<mgrwt>
<rscale>  0 0.99909946E+03</rscale>
<asrwt>0</asrwt>
<pdfrwt beam="1">  1        2 0.42038343E+00 0.99909946E+03</pdfrwt>
<pdfrwt beam="2">  1       -2 0.14050286E-01 0.99909946E+03</pdfrwt>
<totfact> 0.11141788E+02</totfact>
</mgrwt>
</event>
<event>
 9    1  0.4236486E-036  0.1000341E+04  0.7818608E-02  0.8680713E-01
          2   -1    0    0  501    0  0.00000000000E+00  0.00000000000E+00  0.46922778867E+03  0.46922778867E+03  0.00000000000E+00 0.  1.
         -2   -1    0    0    0  501 -0.00000000000E+00 -0.00000000000E+00 -0.53315394433E+03  0.53315394433E+03  0.00000000000E+00 0.  1.
         36    2    1    2    0    0  0.42632564146E-13 -0.14210854715E-13 -0.63926155656E+02  0.10023817330E+04  0.10003412344E+04 0.  0.
         25    2    3    3    0    0  0.81491105365E+02 -0.10021827513E+03 -0.65879211638E+02  0.19170033755E+03  0.12539715295E+03 0.  0.
         35    2    3    3    0    0 -0.81491105365E+02  0.10021827513E+03  0.19530559815E+01  0.81068139544E+03  0.80032243975E+03 0.  0.
         22    1    5    5    0    0 -0.43602124330E+03  0.12467670105E+03 -0.25777947490E+02  0.45422825426E+03  0.00000000000E+00 0.  1.
         22    1    5    5    0    0  0.35453013794E+03 -0.24458425922E+02  0.27731003472E+02  0.35645314118E+03  0.00000000000E+00 0.  1.
          5    1    4    4  502    0  0.93563666982E+02 -0.26110923144E+02 -0.95547250446E+01  0.97720636803E+02  0.47000000000E+01 0.  1.
         -5    1    4    4    0  502 -0.12072561617E+02 -0.74107351989E+02 -0.56324486593E+02  0.93979700749E+02  0.47000000000E+01 0.  1.
<mgrwt>
<rscale>  0 0.10003412E+04</rscale>
<asrwt>0</asrwt>
<pdfrwt beam="1">  1        2 0.72188891E-01 0.10003412E+04</pdfrwt>
<pdfrwt beam="2">  1       -2 0.82023684E-01 0.10003412E+04</pdfrwt>
<totfact> 0.10415506E+02</totfact>
</mgrwt>
</event>
<event>
 9    1  0.4236486E-036  0.9994044E+03  0.7818608E-02  0.8681605E-01
          2   -1    0    0  501    0  0.00000000000E+00  0.00000000000E+00  0.66995664357E+03  0.66995664357E+03  0.00000000000E+00 0.  1.
         -2   -1    0    0    0  501 -0.00000000000E+00 -0.00000000000E+00 -0.37271412982E+03  0.37271412982E+03  0.00000000000E+00 0.  1.
         36    2    1    2    0    0 -0.56843418861E-13 -0.53290705182E-14  0.29724251375E+03  0.10426707734E+04  0.99940443750E+03 0.  0.
         25    2    3    3    0    0 -0.13223475125E+03 -0.14270261768E+02  0.83469161977E+02  0.19985782287E+03  0.12363809507E+03 0.  0.
         35    2    3    3    0    0  0.13223475125E+03  0.14270261768E+02  0.21377335177E+03  0.84281295052E+03  0.80432888411E+03 0.  0.
         22    1    5    5    0    0 -0.21604151067E+03 -0.10313050709E+03 -0.18348004849E+03  0.30162023145E+03  0.00000000000E+00 0.  1.
         22    1    5    5    0    0  0.34827626192E+03  0.11740076886E+03  0.39725340026E+03  0.54119271907E+03  0.00000000000E+00 0.  1.
          5    1    4    4  502    0 -0.12314782081E+03 -0.19150164506E+02  0.11295726731E+03  0.16826630325E+03  0.47000000000E+01 0.  1.
         -5    1    4    4    0  502 -0.90869304415E+01  0.48799027387E+01 -0.29488105337E+02  0.31591519621E+02  0.47000000000E+01 0.  1.
<mgrwt>
<rscale>  0 0.99940444E+03</rscale>
<asrwt>0</asrwt>
<pdfrwt beam="1">  1        2 0.10307025E+00 0.99940444E+03</pdfrwt>
<pdfrwt beam="2">  1       -2 0.57340635E-01 0.99940444E+03</pdfrwt>
<totfact> 0.14930291E+02</totfact>
</mgrwt>
</event>
<event>
 9    1  0.4236486E-036  0.9989032E+03  0.7818608E-02  0.8682083E-01
         -2   -1    0    0    0  501 -0.00000000000E+00  0.00000000000E+00  0.82455993543E+02  0.82455993543E+02  0.00000000000E+00 0. -1.
          2   -1    0    0  501    0  0.00000000000E+00 -0.00000000000E+00 -0.30252732516E+04  0.30252732516E+04  0.00000000000E+00 0. -1.
         36    2    1    2    0    0 -0.28421709430E-13  0.88817841970E-15 -0.29428172581E+04  0.31077292451E+04  0.99890322193E+03 0.  0.
         25    2    3    3    0    0 -0.12000917156E+03 -0.78204052269E+01 -0.64355587567E+03  0.66645039102E+03  0.12461379770E+03 0.  0.
         35    2    3    3    0    0  0.12000917156E+03  0.78204052269E+01 -0.22992613824E+04  0.24412788541E+04  0.81165028126E+03 0.  0.
         22    1    5    5    0    0  0.34600829278E+03  0.95927218874E+02 -0.44770910013E+03  0.57390522592E+03  0.00000000000E+00 0.  1.
         22    1    5    5    0    0 -0.22599912122E+03 -0.88106813647E+02 -0.18515522823E+04  0.18673736282E+04  0.00000000000E+00 0.  1.
          5    1    4    4  502    0 -0.10742457401E+03  0.39092716813E+01 -0.63906496287E+03  0.64805974900E+03  0.47000000000E+01 0. -1.
         -5    1    4    4    0  502 -0.12584597553E+02 -0.11729676908E+02 -0.44909128002E+01  0.18390642015E+02  0.47000000000E+01 0. -1.
<mgrwt>
<rscale>  0 0.99890322E+03</rscale>
<asrwt>0</asrwt>
<pdfrwt beam="1">  1        2 0.46542664E+00 0.99890322E+03</pdfrwt>
<pdfrwt beam="2">  1       -2 0.12685538E-01 0.99890322E+03</pdfrwt>
<totfact> 0.85073070E+01</totfact>
</mgrwt>
</event>
<event>
 9    1  0.4236486E-036  0.1014684E+04  0.7818608E-02  0.8667179E-01
          1   -1    0    0  501    0  0.00000000000E+00  0.00000000000E+00  0.52415822359E+03  0.52415822359E+03  0.00000000000E+00 0.  1.
         -1   -1    0    0    0  501 -0.00000000000E+00 -0.00000000000E+00 -0.49106564987E+03  0.49106564987E+03  0.00000000000E+00 0.  1.
         36    2    1    2    0    0  0.00000000000E+00 -0.14210854715E-13  0.33092573719E+02  0.10152238735E+04  0.10146843819E+04 0.  0.
         25    2    3    3    0    0 -0.69134126331E+02  0.10725408789E+03  0.97080397411E+02  0.20305528465E+03  0.12459485652E+03 0.  0.
         35    2    3    3    0    0  0.69134126331E+02 -0.10725408789E+03 -0.63987823692E+02  0.81216858881E+03  0.79952511422E+03 0.  0.
         22    1    5    5    0    0 -0.12277732414E+03  0.18676294171E+03  0.25409340240E+03  0.33840526719E+03  0.00000000000E+00 0. -1.
         22    1    5    5    0    0  0.19191145047E+03 -0.29401702959E+03 -0.31808122610E+03  0.47376332161E+03  0.00000000000E+00 0. -1.
          5    1    4    4  502    0  0.29982113647E+02  0.38825427116E+02  0.58515357162E+02  0.76501489876E+02  0.47000000000E+01 0.  1.
         -5    1    4    4    0  502 -0.99116239977E+02  0.68428660770E+02  0.38565040249E+02  0.12655379477E+03  0.47000000000E+01 0.  1.
<mgrwt>
<rscale>  0 0.10146844E+04</rscale>
<asrwt>0</asrwt>
<pdfrwt beam="1">  1        1 0.80639727E-01 0.10146844E+04</pdfrwt>
<pdfrwt beam="2">  1       -1 0.75548561E-01 0.10146844E+04</pdfrwt>
<totfact> 0.86022905E+01</totfact>
</mgrwt>
</event>
<event>
 9    1  0.4236486E-036  0.1000192E+04  0.7818608E-02  0.8680855E-01
          2   -1    0    0  501    0  0.00000000000E+00  0.00000000000E+00  0.41091705551E+03  0.41091705551E+03  0.00000000000E+00 0. -1.
         -2   -1    0    0    0  501 -0.00000000000E+00 -0.00000000000E+00 -0.60862920827E+03  0.60862920827E+03  0.00000000000E+00 0. -1.
         36    2    1    2    0    0  0.00000000000E+00  0.14210854715E-13 -0.19771215276E+03  0.10195462638E+04  0.10001922259E+04 0.  0.
         25    2    3    3    0    0  0.11457786697E+03  0.16686121259E+02  0.45966690574E+02  0.17554205926E+03  0.12367523473E+03 0.  0.
         35    2    3    3    0    0 -0.11457786697E+03 -0.16686121259E+02 -0.24367884334E+03  0.84400420453E+03  0.79972320482E+03 0.  0.
         22    1    5    5    0    0  0.12535206250E+03 -0.29522065723E+03  0.10484295075E+03  0.33743209739E+03  0.00000000000E+00 0.  1.
         22    1    5    5    0    0 -0.23992992947E+03  0.27853453597E+03 -0.34852179408E+03  0.50657210714E+03  0.00000000000E+00 0.  1.
          5    1    4    4  502    0  0.97488686865E+02  0.52928632718E+02  0.67371768714E+02  0.12987120330E+03  0.47000000000E+01 0. -1.
         -5    1    4    4    0  502  0.17089180104E+02 -0.36242511459E+02 -0.21405078140E+02  0.45670855955E+02  0.47000000000E+01 0. -1.
<mgrwt>
<rscale>  0 0.10001922E+04</rscale>
<asrwt>0</asrwt>
<pdfrwt beam="1">  1        2 0.63218008E-01 0.10001922E+04</pdfrwt>
<pdfrwt beam="2">  1       -2 0.93635263E-01 0.10001922E+04</pdfrwt>
<totfact> 0.88693215E+01</totfact>
</mgrwt>
</event>
<event>
 9    1  0.4236486E-036  0.9998193E+03  0.7818608E-02  0.8681210E-01
          2   -1    0    0  501    0  0.00000000000E+00  0.00000000000E+00  0.10874247235E+04  0.10874247235E+04  0.00000000000E+00 0.  1.
         -2   -1    0    0    0  501 -0.00000000000E+00 -0.00000000000E+00 -0.22981789594E+03  0.22981789594E+03  0.00000000000E+00 0.  1.
         36    2    1    2    0    0  0.00000000000E+00 -0.71054273576E-14  0.85760682755E+03  0.13172426194E+04  0.99981930756E+03 0.  0.
         25    2    3    3    0    0  0.86972279712E+02  0.42493195537E+02  0.29596415022E+03  0.33546842061E+03  0.12479757172E+03 0.  0.
         35    2    3    3    0    0 -0.86972279712E+02 -0.42493195537E+02  0.56164267733E+03  0.98177419881E+03  0.79941743248E+03 0.  0.
         22    1    5    5    0    0  0.10779465396E+03 -0.58070235507E+02  0.71995928696E+03  0.73029666202E+03  0.00000000000E+00 0.  1.
         22    1    5    5    0    0 -0.19476693368E+03  0.15577039970E+02 -0.15831660963E+03  0.25147753680E+03  0.00000000000E+00 0.  1.
          5    1    4    4  502    0  0.32271095008E+02 -0.33437773859E+02  0.18216262761E+03  0.18805536736E+03  0.47000000000E+01 0.  1.
         -5    1    4    4    0  502  0.54701184703E+02  0.75930969396E+02  0.11380152261E+03  0.14741305326E+03  0.47000000000E+01 0.  1.
<mgrwt>
<rscale>  0 0.99981931E+03</rscale>
<asrwt>0</asrwt>
<pdfrwt beam="1">  1        2 0.16729611E+00 0.99981931E+03</pdfrwt>
<pdfrwt beam="2">  1       -2 0.35356600E-01 0.99981931E+03</pdfrwt>
<totfact> 0.20114794E+02</totfact>
</mgrwt>
</event>
<event>
 9    1  0.4236486E-036  0.9971685E+03  0.7818608E-02  0.8683739E-01
          1   -1    0    0  501    0  0.00000000000E+00  0.00000000000E+00  0.86871388203E+03  0.86871388203E+03  0.00000000000E+00 0. -1.
         -1   -1    0    0    0  501 -0.00000000000E+00 -0.00000000000E+00 -0.28615435108E+03  0.28615435108E+03  0.00000000000E+00 0. -1.
         36    2    1    2    0    0  0.00000000000E+00 -0.14210854715E-13  0.58255953095E+03  0.11548682331E+04  0.99716850570E+03 0.  0.
         25    2    3    3    0    0 -0.51298156990E+02  0.53771664616E+02  0.24532610402E+03  0.28419523624E+03  0.12271569648E+03 0.  0.
         35    2    3    3    0    0  0.51298156990E+02 -0.53771664616E+02  0.33723342693E+03  0.87067299687E+03  0.79926353002E+03 0.  0.
         22    1    5    5    0    0  0.27436221115E+02  0.25901480635E+03  0.46418089051E+03  0.53226432837E+03  0.00000000000E+00 0.  1.
         22    1    5    5    0    0  0.23861935876E+02 -0.31278647097E+03 -0.12694746359E+03  0.33840866850E+03  0.00000000000E+00 0.  1.
          5    1    4    4  502    0 -0.53862056347E+02  0.75950985480E+02  0.24415455442E+03  0.26134882772E+03  0.47000000000E+01 0.  1.
         -5    1    4    4    0  502  0.25638993563E+01 -0.22179320864E+02  0.11715496058E+01  0.22846408523E+02  0.47000000000E+01 0.  1.
<mgrwt>
<rscale>  0 0.99716851E+03</rscale>
<asrwt>0</asrwt>
<pdfrwt beam="1">  1        1 0.13364829E+00 0.99716851E+03</pdfrwt>
<pdfrwt beam="2">  1       -1 0.44023747E-01 0.99716851E+03</pdfrwt>
<totfact> 0.11151488E+02</totfact>
</mgrwt>
</event>
<event>
 9    1  0.4236486E-036  0.9989615E+03  0.7818608E-02  0.8682028E-01
         -1   -1    0    0    0  501 -0.00000000000E+00  0.00000000000E+00  0.91632184950E+02  0.91632184950E+02  0.00000000000E+00 0. -1.
          1   -1    0    0  501    0  0.00000000000E+00 -0.00000000000E+00 -0.27226352434E+04  0.27226352434E+04  0.00000000000E+00 0. -1.
         36    2    1    2    0    0 -0.71054273576E-14  0.00000000000E+00 -0.26310030584E+04  0.28142674283E+04  0.99896149310E+03 0.  0.
         25    2    3    3    0    0 -0.41149155609E+02 -0.97339508901E+02 -0.23552606983E+03  0.28683296375E+03  0.12502954259E+03 0.  0.
         35    2    3    3    0    0  0.41149155609E+02  0.97339508901E+02 -0.23954769886E+04  0.25274344646E+04  0.79902862080E+03 0.  0.
         22    1    5    5    0    0  0.25253821559E+03 -0.10864010021E+03 -0.20695450793E+04  0.20877248518E+04  0.00000000000E+00 0. -1.
         22    1    5    5    0    0 -0.21138905999E+03  0.20597960911E+03 -0.32593190933E+03  0.43970961278E+03  0.00000000000E+00 0. -1.
          5    1    4    4  502    0 -0.60708352516E+02 -0.86776236453E+02 -0.24115407004E+03  0.26342550137E+03  0.47000000000E+01 0. -1.
         -5    1    4    4    0  502  0.19559196908E+02 -0.10563272448E+02  0.56280002050E+01  0.23407462374E+02  0.47000000000E+01 0. -1.
<mgrwt>
<rscale>  0 0.99896149E+03</rscale>
<asrwt>0</asrwt>
<pdfrwt beam="1">  1        1 0.41886701E+00 0.99896149E+03</pdfrwt>
<pdfrwt beam="2">  1       -1 0.14097258E-01 0.99896149E+03</pdfrwt>
<totfact> 0.34986831E+01</totfact>
</mgrwt>
</event>
<event>
 9    1  0.4236486E-036  0.9989296E+03  0.7818608E-02  0.8682058E-01
          1   -1    0    0  501    0  0.00000000000E+00  0.00000000000E+00  0.12526677438E+04  0.12526677438E+04  0.00000000000E+00 0. -1.
         -1   -1    0    0    0  501 -0.00000000000E+00 -0.00000000000E+00 -0.19914705174E+03  0.19914705174E+03  0.00000000000E+00 0. -1.
         36    2    1    2    0    0 -0.14210854715E-13 -0.28421709430E-13  0.10535206921E+04  0.14518147955E+04  0.99892960310E+03 0.  0.
         25    2    3    3    0    0  0.63459167221E+02  0.76749485878E+02  0.55619041027E+02  0.16893474712E+03  0.12461108126E+03 0.  0.
         35    2    3    3    0    0 -0.63459167221E+02 -0.76749485878E+02  0.99790165103E+03  0.12828800484E+04  0.80003497674E+03 0.  0.
         22    1    5    5    0    0 -0.18509055570E+03  0.32160684189E+03  0.33458653633E+03  0.49963749344E+03  0.00000000000E+00 0.  1.
         22    1    5    5    0    0  0.12163138848E+03 -0.39835632777E+03  0.66331511470E+03  0.78324255498E+03  0.00000000000E+00 0.  1.
          5    1    4    4  502    0  0.17464811430E+02  0.40102911990E+02 -0.38096721423E+02  0.58195475525E+02  0.47000000000E+01 0.  1.
         -5    1    4    4    0  502  0.45994355791E+02  0.36646573888E+02  0.93715762450E+02  0.11073927160E+03  0.47000000000E+01 0.  1.
<mgrwt>
<rscale>  0 0.99892960E+03</rscale>
<asrwt>0</asrwt>
<pdfrwt beam="1">  1        1 0.19271811E+00 0.99892960E+03</pdfrwt>
<pdfrwt beam="2">  1       -1 0.30638009E-01 0.99892960E+03</pdfrwt>
<totfact> 0.10564001E+02</totfact>
</mgrwt>
</event>
<event>
 9    1  0.4236486E-036  0.9993041E+03  0.7818608E-02  0.8681701E-01
         -2   -1    0    0    0  501 -0.00000000000E+00  0.00000000000E+00  0.15467200733E+04  0.15467200733E+04  0.00000000000E+00 0. -1.
          2   -1    0    0  501    0  0.00000000000E+00 -0.00000000000E+00 -0.16140746558E+03  0.16140746558E+03  0.00000000000E+00 0. -1.
         36    2    1    2    0    0  0.71054273576E-14 -0.28421709430E-13  0.13853126077E+04  0.17081275389E+04  0.99930409184E+03 0.  0.
         25    2    3    3    0    0  0.59273271194E+02 -0.10942810814E+03  0.15164815446E+03  0.23254819034E+03  0.12487460330E+03 0.  0.
         35    2    3    3    0    0 -0.59273271194E+02  0.10942810814E+03  0.12336644533E+04  0.14755793485E+04  0.79994912280E+03 0.  0.
         22    1    5    5    0    0  0.31144664897E+01 -0.31826144259E+03  0.26243596819E+03  0.41251991848E+03  0.00000000000E+00 0. -1.
         22    1    5    5    0    0 -0.62387737684E+02  0.42768955073E+03  0.97122848508E+03  0.10630594301E+04  0.00000000000E+00 0. -1.
          5    1    4    4  502    0  0.28739980844E+02 -0.12550663412E+03  0.76799388138E+02  0.14999379229E+03  0.47000000000E+01 0. -1.
         -5    1    4    4    0  502  0.30533290350E+02  0.16078525984E+02  0.74848766318E+02  0.82554398046E+02  0.47000000000E+01 0. -1.
<mgrwt>
<rscale>  0 0.99930409E+03</rscale>
<asrwt>0</asrwt>
<pdfrwt beam="1">  1        2 0.24831919E-01 0.99930409E+03</pdfrwt>
<pdfrwt beam="2">  1       -2 0.23795692E+00 0.99930409E+03</pdfrwt>
<totfact> 0.18089114E+01</totfact>
</mgrwt>
</event>
<event>
 9    1  0.4236486E-036  0.9999938E+03  0.7818608E-02  0.8681044E-01
         -2   -1    0    0    0  501 -0.00000000000E+00  0.00000000000E+00  0.66088229189E+03  0.66088229189E+03  0.00000000000E+00 0. -1.
          2   -1    0    0  501    0  0.00000000000E+00 -0.00000000000E+00 -0.37827752805E+03  0.37827752805E+03  0.00000000000E+00 0. -1.
         36    2    1    2    0    0  0.00000000000E+00 -0.71054273576E-14  0.28260476384E+03  0.10391598199E+04  0.99999383940E+03 0.  0.
         25    2    3    3    0    0 -0.13786513206E+03  0.21722755077E+01  0.24244272764E+02  0.18779610413E+03  0.12517219557E+03 0.  0.
         35    2    3    3    0    0  0.13786513206E+03 -0.21722755077E+01  0.25836049108E+03  0.85136371582E+03  0.79941135834E+03 0.  0.
         22    1    5    5    0    0  0.24280981440E+03  0.31763735583E+03  0.31633217950E+03  0.50981971674E+03  0.00000000000E+00 0. -1.
         22    1    5    5    0    0 -0.10494468233E+03 -0.31980963134E+03 -0.57971688421E+02  0.34154399908E+03  0.00000000000E+00 0. -1.
          5    1    4    4  502    0 -0.12587684028E+03 -0.43463875947E+02  0.37742451080E+02  0.13849429607E+03  0.47000000000E+01 0. -1.
         -5    1    4    4    0  502 -0.11988291781E+02  0.45636151455E+02 -0.13498178316E+02  0.49301808053E+02  0.47000000000E+01 0. -1.
<mgrwt>
<rscale>  0 0.99999384E+03</rscale>
<asrwt>0</asrwt>
<pdfrwt beam="1">  1        2 0.58196543E-01 0.99999384E+03</pdfrwt>
<pdfrwt beam="2">  1       -2 0.10167420E+00 0.99999384E+03</pdfrwt>
<totfact> 0.79778127E+01</totfact>
</mgrwt>
</event>
<event>
 9    1  0.4236486E-036  0.1001010E+04  0.7818608E-02  0.8680077E-01
          1   -1    0    0  501    0  0.00000000000E+00  0.00000000000E+00  0.12670466036E+04  0.12670466036E+04  0.00000000000E+00 0. -1.
         -1   -1    0    0    0  501 -0.00000000000E+00 -0.00000000000E+00 -0.19770793032E+03  0.19770793032E+03  0.00000000000E+00 0. -1.
         36    2    1    2    0    0  0.14210854715E-13 -0.14210854715E-13  0.10693386733E+04  0.14647545339E+04  0.10010098134E+04 0.  0.
         25    2    3    3    0    0  0.11796416103E+03  0.65437522089E+02  0.15049825531E+03  0.23783512265E+03  0.12537227815E+03 0.  0.
         35    2    3    3    0    0 -0.11796416103E+03 -0.65437522089E+02  0.91884041797E+03  0.12269194113E+04  0.80178919642E+03 0.  0.
         22    1    5    5    0    0  0.86811660717E+02 -0.21776854789E+03 -0.37227979301E+02  0.23737170710E+03  0.00000000000E+00 0.  1.
         22    1    5    5    0    0 -0.20477582175E+03  0.15233102581E+03  0.95606839727E+03  0.98954770418E+03  0.00000000000E+00 0.  1.
          5    1    4    4  502    0  0.36327691254E+01 -0.16077074275E+02  0.77764482587E+02  0.79630861359E+02  0.47000000000E+01 0.  1.
         -5    1    4    4    0  502  0.11433139190E+03  0.81514596363E+02  0.72733772725E+02  0.15820426129E+03  0.47000000000E+01 0.  1.
<mgrwt>
<rscale>  0 0.10010098E+04</rscale>
<asrwt>0</asrwt>
<pdfrwt beam="1">  1        1 0.19493024E+00 0.10010098E+04</pdfrwt>
<pdfrwt beam="2">  1       -1 0.30416605E-01 0.10010098E+04</pdfrwt>
<totfact> 0.10436759E+02</totfact>
</mgrwt>
</event>
<event>
 9    1  0.4236486E-036  0.1000451E+04  0.7818608E-02  0.8680608E-01
         -2   -1    0    0    0  501 -0.00000000000E+00  0.00000000000E+00  0.33653590679E+03  0.33653590679E+03  0.00000000000E+00 0.  1.
          2   -1    0    0  501    0  0.00000000000E+00 -0.00000000000E+00 -0.74353346150E+03  0.74353346150E+03  0.00000000000E+00 0.  1.
         36    2    1    2    0    0  0.00000000000E+00  0.71054273576E-14 -0.40699755472E+03  0.10800693683E+04  0.10004513135E+04 0.  0.
         25    2    3    3    0    0  0.13922852563E+03 -0.15397092801E+02 -0.57254450758E+02  0.19718833003E+03  0.12642591725E+03 0.  0.
         35    2    3    3    0    0 -0.13922852563E+03  0.15397092801E+02 -0.34974310396E+03  0.88288103826E+03  0.79845916373E+03 0.  0.
         22    1    5    5    0    0 -0.28982224475E+03  0.16745735338E+03 -0.51380739221E+03  0.61321850514E+03  0.00000000000E+00 0. -1.
         22    1    5    5    0    0  0.15059371912E+03 -0.15206026058E+03  0.16406428826E+03  0.26966253312E+03  0.00000000000E+00 0. -1.
          5    1    4    4  502    0  0.81589519422E+02 -0.55240878524E+01  0.34012251042E+02  0.88692099124E+02  0.47000000000E+01 0. -1.
         -5    1    4    4    0  502  0.57639006209E+02 -0.98730049487E+01 -0.91266701799E+02  0.10849623091E+03  0.47000000000E+01 0. -1.
<mgrwt>
<rscale>  0 0.10004513E+04</rscale>
<asrwt>0</asrwt>
<pdfrwt beam="1">  1        2 0.11438976E+00 0.10004513E+04</pdfrwt>
<pdfrwt beam="2">  1       -2 0.51774756E-01 0.10004513E+04</pdfrwt>
<totfact> 0.16172484E+02</totfact>
</mgrwt>
</event>
<event>
 9    1  0.4236486E-036  0.1000538E+04  0.7818608E-02  0.8680526E-01
         -2   -1    0    0    0  501 -0.00000000000E+00  0.00000000000E+00  0.49079788282E+03  0.49079788282E+03  0.00000000000E+00 0.  1.
          2   -1    0    0  501    0  0.00000000000E+00 -0.00000000000E+00 -0.50992288703E+03  0.50992288703E+03  0.00000000000E+00 0.  1.
         36    2    1    2    0    0  0.14210854715E-13  0.00000000000E+00 -0.19125004207E+02  0.10007207698E+04  0.10005380020E+04 0.  0.
         25    2    3    3    0    0 -0.75073482473E+02 -0.90617197535E+02  0.75048141817E+02  0.18704876752E+03  0.12452916759E+03 0.  0.
         35    2    3    3    0    0  0.75073482473E+02  0.90617197535E+02 -0.94173146024E+02  0.81367200233E+03  0.79959117158E+03 0.  0.
         22    1    5    5    0    0  0.38487502781E+03  0.87960529164E+02 -0.24957470127E+03  0.46706891701E+03  0.00000000000E+00 0.  1.
         22    1    5    5    0    0 -0.30980154533E+03  0.26566683710E+01  0.15540155525E+03  0.34660308532E+03  0.00000000000E+00 0.  1.
          5    1    4    4  502    0 -0.18887328233E+02 -0.10941470071E+03  0.40366404566E+02  0.11823639252E+03  0.47000000000E+01 0.  1.
         -5    1    4    4    0  502 -0.56186154240E+02  0.18797503175E+02  0.34681737251E+02  0.68812374996E+02  0.47000000000E+01 0.  1.
<mgrwt>
<rscale>  0 0.10005380E+04</rscale>
<asrwt>0</asrwt>
<pdfrwt beam="1">  1        2 0.78449675E-01 0.10005380E+04</pdfrwt>
<pdfrwt beam="2">  1       -2 0.75507367E-01 0.10005380E+04</pdfrwt>
<totfact> 0.11434860E+02</totfact>
</mgrwt>
</event>
<event>
 9    1  0.4236486E-036  0.9997805E+03  0.7818608E-02  0.8681247E-01
          2   -1    0    0  501    0  0.00000000000E+00  0.00000000000E+00  0.14654686410E+04  0.14654686410E+04  0.00000000000E+00 0. -1.
         -2   -1    0    0    0  501 -0.00000000000E+00 -0.00000000000E+00 -0.17051899941E+03  0.17051899941E+03  0.00000000000E+00 0. -1.
         36    2    1    2    0    0  0.00000000000E+00 -0.14210854715E-13  0.12949496415E+04  0.16359876404E+04  0.99978046855E+03 0.  0.
         25    2    3    3    0    0  0.82164432301E+02 -0.72335771319E+02  0.10428166799E+03  0.19618581236E+03  0.12502299367E+03 0.  0.
         35    2    3    3    0    0 -0.82164432301E+02  0.72335771319E+02  0.11906679736E+04  0.14398018280E+04  0.80209452243E+03 0.  0.
         22    1    5    5    0    0 -0.24316911355E+03 -0.23228308218E+03  0.20077625878E+03  0.39166025346E+03  0.00000000000E+00 0. -1.
         22    1    5    5    0    0  0.16100468125E+03  0.30461885350E+03  0.98989171478E+03  0.10481415745E+04  0.00000000000E+00 0. -1.
          5    1    4    4  502    0  0.44094840478E+02 -0.10068801120E+03  0.99337061749E+02  0.14823080784E+03  0.47000000000E+01 0. -1.
         -5    1    4    4    0  502  0.38069591823E+02  0.28352239882E+02  0.49446062401E+01  0.47955004523E+02  0.47000000000E+01 0. -1.
<mgrwt>
<rscale>  0 0.99978047E+03</rscale>
<asrwt>0</asrwt>
<pdfrwt beam="1">  1        2 0.22545671E+00 0.99978047E+03</pdfrwt>
<pdfrwt beam="2">  1       -2 0.26233693E-01 0.99978047E+03</pdfrwt>
<totfact> 0.20867666E+02</totfact>
</mgrwt>
</event>
<event>
 9    1  0.4236486E-036  0.1000740E+04  0.7818608E-02  0.8680334E-01
         -2   -1    0    0    0  501 -0.00000000000E+00  0.00000000000E+00  0.23756301461E+03  0.23756301461E+03  0.00000000000E+00 0.  1.
          2   -1    0    0  501    0  0.00000000000E+00 -0.00000000000E+00 -0.10539099636E+04  0.10539099636E+04  0.00000000000E+00 0.  1.
         36    2    1    2    0    0  0.00000000000E+00  0.28421709430E-13 -0.81634694898E+03  0.12914729782E+04  0.10007397825E+04 0.  0.
         25    2    3    3    0    0 -0.83089589357E+02  0.11305801210E+03 -0.13130256169E+03  0.22913708907E+03  0.12480965075E+03 0.  0.
         35    2    3    3    0    0  0.83089589357E+02 -0.11305801210E+03 -0.68504438729E+03  0.10623358891E+04  0.79974104234E+03 0.  0.
         22    1    5    5    0    0  0.48145467379E+02 -0.36808195589E+03 -0.46820237080E+02  0.37415831794E+03  0.00000000000E+00 0. -1.
         22    1    5    5    0    0  0.34944121977E+02  0.25502394379E+03 -0.63822415021E+03  0.68817757118E+03  0.00000000000E+00 0. -1.
          5    1    4    4  502    0 -0.10559663330E+03  0.56766986597E+02 -0.56157850521E+02  0.13247238922E+03  0.47000000000E+01 0. -1.
         -5    1    4    4    0  502  0.22507043943E+02  0.56291025502E+02 -0.75144711168E+02  0.96664699842E+02  0.47000000000E+01 0. -1.
<mgrwt>
<rscale>  0 0.10007398E+04</rscale>
<asrwt>0</asrwt>
<pdfrwt beam="1">  1        2 0.16214000E+00 0.10007398E+04</pdfrwt>
<pdfrwt beam="2">  1       -2 0.36548156E-01 0.10007398E+04</pdfrwt>
<totfact> 0.19817339E+02</totfact>
</mgrwt>
</event>
<event>
 9    1  0.4236486E-036  0.1000012E+04  0.7818608E-02  0.8681027E-01
         -2   -1    0    0    0  501 -0.00000000000E+00  0.00000000000E+00  0.27999089738E+03  0.27999089738E+03  0.00000000000E+00 0. -1.
          2   -1    0    0  501    0  0.00000000000E+00 -0.00000000000E+00 -0.89290764085E+03  0.89290764085E+03  0.00000000000E+00 0. -1.
         36    2    1    2    0    0 -0.28421709430E-13  0.35527136788E-14 -0.61291674347E+03  0.11728985382E+04  0.10000120232E+04 0.  0.
         25    2    3    3    0    0  0.10461718073E+03  0.27649014594E+02 -0.21793472279E+03  0.27380731422E+03  0.12556145671E+03 0.  0.
         35    2    3    3    0    0 -0.10461718073E+03 -0.27649014594E+02 -0.39498202068E+03  0.89909122400E+03  0.80040302967E+03 0.  0.
         22    1    5    5    0    0  0.28976678815E+03  0.17132011421E+03 -0.53701764043E+02  0.34088011457E+03  0.00000000000E+00 0.  1.
         22    1    5    5    0    0 -0.39438396887E+03 -0.19896912881E+03 -0.34128025664E+03  0.55821110943E+03  0.00000000000E+00 0.  1.
          5    1    4    4  502    0  0.86492122040E+02 -0.27040499682E+02 -0.68842855491E+02  0.11390129301E+03  0.47000000000E+01 0. -1.
         -5    1    4    4    0  502  0.18125058690E+02  0.54689514276E+02 -0.14909186730E+03  0.15990602121E+03  0.47000000000E+01 0. -1.
<mgrwt>
<rscale>  0 0.10000120E+04</rscale>
<asrwt>0</asrwt>
<pdfrwt beam="1">  1        2 0.13737040E+00 0.10000120E+04</pdfrwt>
<pdfrwt beam="2">  1       -2 0.43075523E-01 0.10000120E+04</pdfrwt>
<totfact> 0.18328813E+02</totfact>
</mgrwt>
</event>
<event>
 9    1  0.4236486E-036  0.9995538E+03  0.7818608E-02  0.8681463E-01
         -1   -1    0    0    0  501 -0.00000000000E+00  0.00000000000E+00  0.21411678174E+03  0.21411678174E+03  0.00000000000E+00 0. -1.
          1   -1    0    0  501    0  0.00000000000E+00 -0.00000000000E+00 -0.11665453557E+04  0.11665453557E+04  0.00000000000E+00 0. -1.
         36    2    1    2    0    0  0.00000000000E+00  0.00000000000E+00 -0.95242857391E+03  0.13806621374E+04  0.99955377506E+03 0.  0.
         25    2    3    3    0    0 -0.72141266746E+02  0.10128530975E+03 -0.20981311485E+03  0.27419831765E+03  0.12530003153E+03 0.  0.
         35    2    3    3    0    0  0.72141266746E+02 -0.10128530975E+03 -0.74261545906E+03  0.11064638197E+04  0.81075359268E+03 0.  0.
         22    1    5    5    0    0 -0.49573043449E+02  0.43483662216E+02  0.16587118447E+03  0.17849808222E+03  0.00000000000E+00 0.  1.
         22    1    5    5    0    0  0.12171431020E+03 -0.14476897196E+03 -0.90848664354E+03  0.92796573753E+03  0.00000000000E+00 0.  1.
          5    1    4    4  502    0 -0.21310097340E+02  0.11943903033E+03 -0.15768039963E+03  0.19901005161E+03  0.47000000000E+01 0.  1.
         -5    1    4    4    0  502 -0.50831169406E+02 -0.18153720582E+02 -0.52132715219E+02  0.75188266041E+02  0.47000000000E+01 0.  1.
<mgrwt>
<rscale>  0 0.99955378E+03</rscale>
<asrwt>0</asrwt>
<pdfrwt beam="1">  1        1 0.17946852E+00 0.99955378E+03</pdfrwt>
<pdfrwt beam="2">  1       -1 0.32941043E-01 0.99955378E+03</pdfrwt>
<totfact> 0.10808183E+02</totfact>
</mgrwt>
</event>
<event>
 9    1  0.4236486E-036  0.1001113E+04  0.7818608E-02  0.8679978E-01
         -2   -1    0    0    0  501 -0.00000000000E+00  0.00000000000E+00  0.25545598162E+03  0.25545598162E+03  0.00000000000E+00 0. -1.
          2   -1    0    0  501    0  0.00000000000E+00 -0.00000000000E+00 -0.98082260788E+03  0.98082260788E+03  0.00000000000E+00 0. -1.
         36    2    1    2    0    0  0.00000000000E+00 -0.71054273576E-14 -0.72536662626E+03  0.12362785895E+04  0.10011133844E+04 0.  0.
         25    2    3    3    0    0  0.13613170005E+03 -0.32638315552E+02 -0.12041012175E+03  0.22339725532E+03  0.12574035495E+03 0.  0.
         35    2    3    3    0    0 -0.13613170005E+03  0.32638315552E+02 -0.60495650451E+03  0.10128813342E+04  0.80022442188E+03 0.  0.
         22    1    5    5    0    0 -0.41051783001E+03  0.22917494063E+03 -0.29785775641E+03  0.55656561628E+03  0.00000000000E+00 0. -1.
         22    1    5    5    0    0  0.27438612996E+03 -0.19653662508E+03 -0.30709874811E+03  0.45631571790E+03  0.00000000000E+00 0. -1.
          5    1    4    4  502    0  0.15447030805E+03 -0.44922276818E+02 -0.12012793639E+03  0.20082803122E+03  0.47000000000E+01 0. -1.
         -5    1    4    4    0  502 -0.18338607999E+02  0.12283961265E+02 -0.28218535680E+00  0.22569224096E+02  0.47000000000E+01 0. -1.
<mgrwt>
<rscale>  0 0.10011134E+04</rscale>
<asrwt>0</asrwt>
<pdfrwt beam="1">  1        2 0.15089578E+00 0.10011134E+04</pdfrwt>
<pdfrwt beam="2">  1       -2 0.39300921E-01 0.10011134E+04</pdfrwt>
<totfact> 0.19183451E+02</totfact>
</mgrwt>
</event>
<event>
 9    1  0.4236486E-036  0.1000502E+04  0.7818608E-02  0.8680560E-01
          2   -1    0    0  501    0  0.00000000000E+00  0.00000000000E+00  0.20205631313E+03  0.20205631313E+03  0.00000000000E+00 0. -1.
         -2   -1    0    0    0  501 -0.00000000000E+00 -0.00000000000E+00 -0.12385205876E+04  0.12385205876E+04  0.00000000000E+00 0. -1.
         36    2    1    2    0    0  0.28421709430E-13  0.71054273576E-14 -0.10364642744E+04  0.14405769007E+04  0.10005016815E+04 0.  0.
         25    2    3    3    0    0  0.91921631398E+02 -0.13891582909E+01 -0.39712953728E+02  0.15921130159E+03  0.12377238699E+03 0.  0.
         35    2    3    3    0    0 -0.91921631398E+02  0.13891582909E+01 -0.99675132070E+03  0.12813655991E+04  0.79995817839E+03 0.  0.
         22    1    5    5    0    0 -0.19367982373E+03 -0.36994138624E+03 -0.57013459372E+03  0.70669792580E+03  0.00000000000E+00 0.  1.
         22    1    5    5    0    0  0.10175819233E+03  0.37133054453E+03 -0.42661672698E+03  0.57466767331E+03  0.00000000000E+00 0.  1.
          5    1    4    4  502    0  0.66779053273E+02  0.40699313879E+02 -0.66840293694E+02  0.10298344997E+03  0.47000000000E+01 0. -1.
         -5    1    4    4    0  502  0.25142578126E+02 -0.42088472170E+02  0.27127339966E+02  0.56227851622E+02  0.47000000000E+01 0. -1.
<mgrwt>
<rscale>  0 0.10005017E+04</rscale>
<asrwt>0</asrwt>
<pdfrwt beam="1">  1        2 0.31085587E-01 0.10005017E+04</pdfrwt>
<pdfrwt beam="2">  1       -2 0.19054162E+00 0.10005017E+04</pdfrwt>
<totfact> 0.28803140E+01</totfact>
</mgrwt>
</event>
<event>
 9    1  0.4236486E-036  0.9996557E+03  0.7818608E-02  0.8681366E-01
          2   -1    0    0  501    0  0.00000000000E+00  0.00000000000E+00  0.70257960057E+03  0.70257960057E+03  0.00000000000E+00 0.  1.
         -2   -1    0    0    0  501 -0.00000000000E+00 -0.00000000000E+00 -0.35558660381E+03  0.35558660381E+03  0.00000000000E+00 0.  1.
         36    2    1    2    0    0  0.00000000000E+00 -0.28421709430E-13  0.34699299676E+03  0.10581662044E+04  0.99965572889E+03 0.  0.
         25    2    3    3    0    0 -0.82393376519E+02  0.11144724074E+03  0.47158612851E+02  0.19283225167E+03  0.12550373124E+03 0.  0.
         35    2    3    3    0    0  0.82393376519E+02 -0.11144724074E+03  0.29983438391E+03  0.86533395272E+03  0.79980812448E+03 0.  0.
         22    1    5    5    0    0  0.12343131246E+03  0.24317239901E+03  0.40940101290E+03  0.49191187615E+03  0.00000000000E+00 0.  1.
         22    1    5    5    0    0 -0.41037935938E+02 -0.35461963975E+03 -0.10956662899E+03  0.37342207657E+03  0.00000000000E+00 0.  1.
          5    1    4    4  502    0 -0.51818838888E+02 -0.82878782268E+01  0.44774534161E+02  0.69142822466E+02  0.47000000000E+01 0.  1.
         -5    1    4    4    0  502 -0.30574537630E+02  0.11973511897E+03  0.23840786903E+01  0.12368942920E+03  0.47000000000E+01 0.  1.
<mgrwt>
<rscale>  0 0.99965573E+03</rscale>
<asrwt>0</asrwt>
<pdfrwt beam="1">  1        2 0.10808917E+00 0.99965573E+03</pdfrwt>
<pdfrwt beam="2">  1       -2 0.54705631E-01 0.99965573E+03</pdfrwt>
<totfact> 0.15516907E+02</totfact>
</mgrwt>
</event>
<event>
 9    1  0.4236486E-036  0.9992808E+03  0.7818608E-02  0.8681723E-01
         -1   -1    0    0    0  501 -0.00000000000E+00  0.00000000000E+00  0.38640303873E+03  0.38640303873E+03  0.00000000000E+00 0.  1.
          1   -1    0    0  501    0  0.00000000000E+00 -0.00000000000E+00 -0.64606255547E+03  0.64606255547E+03  0.00000000000E+00 0.  1.
         36    2    1    2    0    0 -0.14210854715E-13 -0.71054273576E-14 -0.25965951674E+03  0.10324655942E+04  0.99928081067E+03 0.  0.
         25    2    3    3    0    0 -0.18588013749E+02 -0.43390179031E+02 -0.18462180752E+03  0.22713180923E+03  0.12359379053E+03 0.  0.
         35    2    3    3    0    0  0.18588013749E+02  0.43390179031E+02 -0.75037709216E+02  0.80533378498E+03  0.80043964515E+03 0.  0.
         22    1    5    5    0    0  0.22019205438E+03 -0.29553809337E+03 -0.16024477050E+03  0.40187770766E+03  0.00000000000E+00 0. -1.
         22    1    5    5    0    0 -0.20160404063E+03  0.33892827240E+03  0.85207061280E+02  0.40345607732E+03  0.00000000000E+00 0. -1.
          5    1    4    4  502    0 -0.43111899457E+02 -0.74928346957E+02 -0.92949725782E+02  0.12702218143E+03  0.47000000000E+01 0. -1.
         -5    1    4    4    0  502  0.24523885707E+02  0.31538167926E+02 -0.91672081742E+02  0.10010962779E+03  0.47000000000E+01 0. -1.
<mgrwt>
<rscale>  0 0.99928081E+03</rscale>
<asrwt>0</asrwt>
<pdfrwt beam="1">  1        1 0.99394238E-01 0.99928081E+03</pdfrwt>
<pdfrwt beam="2">  1       -1 0.59446622E-01 0.99928081E+03</pdfrwt>
<totfact> 0.10199576E+02</totfact>
</mgrwt>
</event>
<event>
 9    1  0.4236486E-036  0.1000422E+04  0.7818608E-02  0.8680636E-01
          2   -1    0    0  501    0  0.00000000000E+00  0.00000000000E+00  0.18845955898E+04  0.18845955898E+04  0.00000000000E+00 0.  1.
         -2   -1    0    0    0  501 -0.00000000000E+00 -0.00000000000E+00 -0.13276644700E+03  0.13276644700E+03  0.00000000000E+00 0.  1.
         36    2    1    2    0    0  0.14210854715E-13  0.14210854715E-13  0.17518291428E+04  0.20173620368E+04  0.10004220319E+04 0.  0.
         25    2    3    3    0    0  0.11810671659E+03  0.64832728455E+02  0.42388752247E+03  0.46136896497E+03  0.12258960375E+03 0.  0.
         35    2    3    3    0    0 -0.11810671659E+03 -0.64832728455E+02  0.13279416203E+04  0.15559930719E+04  0.79970808013E+03 0.  0.
         22    1    5    5    0    0  0.14883787259E+03 -0.24888591269E+03  0.11502664947E+04  0.11862587908E+04  0.00000000000E+00 0.  1.
         22    1    5    5    0    0 -0.26694458918E+03  0.18405318424E+03  0.17767512560E+03  0.36973428104E+03  0.00000000000E+00 0.  1.
          5    1    4    4  502    0 -0.49207013147E+01  0.31246181710E+02  0.19807471338E+02  0.37615995184E+02  0.47000000000E+01 0. -1.
         -5    1    4    4    0  502  0.12302741790E+03  0.33586546745E+02  0.40408005114E+03  0.42375296979E+03  0.47000000000E+01 0. -1.
<mgrwt>
<rscale>  0 0.10004220E+04</rscale>
<asrwt>0</asrwt>
<pdfrwt beam="1">  1        2 0.28993776E+00 0.10004220E+04</pdfrwt>
<pdfrwt beam="2">  1       -2 0.20425609E-01 0.10004220E+04</pdfrwt>
<totfact> 0.18794851E+02</totfact>
</mgrwt>
</event>
<event>
 9    1  0.4236486E-036  0.9989711E+03  0.7818608E-02  0.8682018E-01
          1   -1    0    0  501    0  0.00000000000E+00  0.00000000000E+00  0.23138691761E+03  0.23138691761E+03  0.00000000000E+00 0.  1.
         -1   -1    0    0    0  501 -0.00000000000E+00 -0.00000000000E+00 -0.10782192210E+04  0.10782192210E+04  0.00000000000E+00 0.  1.
         36    2    1    2    0    0  0.17763568394E-13  0.00000000000E+00 -0.84683230338E+03  0.13096061386E+04  0.99897111481E+03 0.  0.
         25    2    3    3    0    0 -0.10227766115E+02  0.12817764953E+03 -0.23314555486E+03  0.29386575768E+03  0.12436284311E+03 0.  0.
         35    2    3    3    0    0  0.10227766115E+02 -0.12817764953E+03 -0.61368674853E+03  0.10157403809E+04  0.79911387117E+03 0.  0.
         22    1    5    5    0    0 -0.39304436951E+03 -0.52222449007E+02 -0.26147133196E+03  0.47495085854E+03  0.00000000000E+00 0. -1.
         22    1    5    5    0    0  0.40327213563E+03 -0.75955200526E+02 -0.35221541656E+03  0.54078952239E+03  0.00000000000E+00 0. -1.
          5    1    4    4  502    0  0.10828403838E+02 -0.56773122011E+01 -0.10977843780E+03  0.11055714183E+03  0.47000000000E+01 0.  1.
         -5    1    4    4    0  502 -0.21056169952E+02  0.13385496173E+03 -0.12336711706E+03  0.18330861585E+03  0.47000000000E+01 0.  1.
<mgrwt>
<rscale>  0 0.99897111E+03</rscale>
<asrwt>0</asrwt>
<pdfrwt beam="1">  1        1 0.35597987E-01 0.99897111E+03</pdfrwt>
<pdfrwt beam="2">  1       -1 0.16587988E+00 0.99897111E+03</pdfrwt>
<totfact> 0.37106974E+01</totfact>
</mgrwt>
</event>
<event>
 9    1  0.4236486E-036  0.9995769E+03  0.7818608E-02  0.8681441E-01
          2   -1    0    0  501    0  0.00000000000E+00  0.00000000000E+00  0.19791976941E+03  0.19791976941E+03  0.00000000000E+00 0.  1.
         -2   -1    0    0    0  501 -0.00000000000E+00 -0.00000000000E+00 -0.12620695306E+04  0.12620695306E+04  0.00000000000E+00 0.  1.
         36    2    1    2    0    0  0.28421709430E-13  0.00000000000E+00 -0.10641497612E+04  0.14599893000E+04  0.99957693147E+03 0.  0.
         25    2    3    3    0    0 -0.13332076866E+03  0.32842337515E+02 -0.15951353240E+03  0.24477724323E+03  0.12497313830E+03 0.  0.
         35    2    3    3    0    0  0.13332076866E+03 -0.32842337515E+02 -0.90463622880E+03  0.12152120568E+04  0.79970031263E+03 0.  0.
         22    1    5    5    0    0 -0.21539221134E+03 -0.11129113827E+03 -0.80994601639E+03  0.84545376670E+03  0.00000000000E+00 0. -1.
         22    1    5    5    0    0  0.34871298000E+03  0.78448800752E+02 -0.94690212409E+02  0.36975829009E+03  0.00000000000E+00 0. -1.
          5    1    4    4  502    0 -0.15353790005E+03  0.35796958240E+02 -0.15877160730E+03  0.22379861987E+03  0.47000000000E+01 0.  1.
         -5    1    4    4    0  502  0.20217131392E+02 -0.29546207256E+01 -0.74192510522E+00  0.20978623363E+02  0.47000000000E+01 0.  1.
<mgrwt>
<rscale>  0 0.99957693E+03</rscale>
<asrwt>0</asrwt>
<pdfrwt beam="1">  1        2 0.30449196E-01 0.99957693E+03</pdfrwt>
<pdfrwt beam="2">  1       -2 0.19416454E+00 0.99957693E+03</pdfrwt>
<totfact> 0.27819649E+01</totfact>
</mgrwt>
</event>
<event>
 9    1  0.4236486E-036  0.1000437E+04  0.7818608E-02  0.8680622E-01
          1   -1    0    0  501    0  0.00000000000E+00  0.00000000000E+00  0.49682739158E+03  0.49682739158E+03  0.00000000000E+00 0. -1.
         -1   -1    0    0    0  501 -0.00000000000E+00 -0.00000000000E+00 -0.50363275634E+03  0.50363275634E+03  0.00000000000E+00 0. -1.
         36    2    1    2    0    0  0.00000000000E+00  0.42632564146E-13 -0.68053647671E+01  0.10004601479E+04  0.10004370018E+04 0.  0.
         25    2    3    3    0    0  0.87899545023E+02  0.64978903672E+02  0.10146171036E+03  0.19411725585E+03  0.12425152881E+03 0.  0.
         35    2    3    3    0    0 -0.87899545023E+02 -0.64978903672E+02 -0.10826707513E+03  0.80634289207E+03  0.79152922378E+03 0.  0.
         22    1    5    5    0    0 -0.19651888392E+03  0.31419210202E+03 -0.16894243863E+03  0.40728110228E+03  0.00000000000E+00 0. -1.
         22    1    5    5    0    0  0.10861933890E+03 -0.37917100569E+03  0.60675363499E+02  0.39906178979E+03  0.00000000000E+00 0. -1.
          5    1    4    4  502    0  0.34578164561E+01  0.49326197490E+02 -0.12618020924E+02  0.51247777566E+02  0.47000000000E+01 0. -1.
         -5    1    4    4    0  502  0.84441728567E+02  0.15652706182E+02  0.11407973128E+03  0.14286947828E+03  0.47000000000E+01 0. -1.
<mgrwt>
<rscale>  0 0.10004370E+04</rscale>
<asrwt>0</asrwt>
<pdfrwt beam="1">  1        1 0.76434983E-01 0.10004370E+04</pdfrwt>
<pdfrwt beam="2">  1       -1 0.77481963E-01 0.10004370E+04</pdfrwt>
<totfact> 0.88145418E+01</totfact>
</mgrwt>
</event>
<event>
 9    1  0.4236486E-036  0.9999548E+03  0.7818608E-02  0.8681081E-01
         -1   -1    0    0    0  501 -0.00000000000E+00  0.00000000000E+00  0.51165298281E+03  0.51165298281E+03  0.00000000000E+00 0.  1.
          1   -1    0    0  501    0  0.00000000000E+00 -0.00000000000E+00 -0.48856820541E+03  0.48856820541E+03  0.00000000000E+00 0.  1.
         36    2    1    2    0    0 -0.28421709430E-13  0.28421709430E-13  0.23084777400E+02  0.10002211882E+04  0.99995475819E+03 0.  0.
         25    2    3    3    0    0  0.92037215238E+02  0.90022476533E+02  0.46406900645E+02  0.18560583011E+03  0.12538352552E+03 0.  0.
         35    2    3    3    0    0 -0.92037215238E+02 -0.90022476533E+02 -0.23322123245E+02  0.81461535812E+03  0.80403940512E+03 0.  0.
         22    1    5    5    0    0  0.18187478017E+03 -0.33276515940E+02 -0.34310478486E+03  0.38975204370E+03  0.00000000000E+00 0. -1.
         22    1    5    5    0    0 -0.27391199540E+03 -0.56745960593E+02  0.31978266162E+03  0.42486331442E+03  0.00000000000E+00 0. -1.
          5    1    4    4  502    0 -0.13118580082E+01  0.47366940036E+01  0.58137018303E+02  0.58533410448E+02  0.47000000000E+01 0.  1.
         -5    1    4    4    0  502  0.93349073246E+02  0.85285782530E+02 -0.11730117658E+02  0.12707241966E+03  0.47000000000E+01 0.  1.
<mgrwt>
<rscale>  0 0.99995476E+03</rscale>
<asrwt>0</asrwt>
<pdfrwt beam="1">  1        1 0.75164339E-01 0.99995476E+03</pdfrwt>
<pdfrwt beam="2">  1       -1 0.78715844E-01 0.99995476E+03</pdfrwt>
<totfact> 0.87324820E+01</totfact>
</mgrwt>
</event>
<event>
 9    1  0.4236486E-036  0.9992011E+03  0.7818608E-02  0.8681799E-01
         -1   -1    0    0    0  501 -0.00000000000E+00  0.00000000000E+00  0.39567156280E+03  0.39567156280E+03  0.00000000000E+00 0. -1.
          1   -1    0    0  501    0  0.00000000000E+00 -0.00000000000E+00 -0.63082797165E+03  0.63082797165E+03  0.00000000000E+00 0. -1.
         36    2    1    2    0    0  0.00000000000E+00  0.14210854715E-13 -0.23515640884E+03  0.10264995345E+04  0.99920105965E+03 0.  0.
         25    2    3    3    0    0  0.40672446232E+02  0.10954449209E+03  0.33688289619E+02  0.17438338356E+03  0.12498167855E+03 0.  0.
         35    2    3    3    0    0 -0.40672446232E+02 -0.10954449209E+03 -0.26884469846E+03  0.85211615089E+03  0.80010637986E+03 0.  0.
         22    1    5    5    0    0  0.32864433584E+03  0.10054334820E+03  0.10124413419E+02  0.34382927172E+03  0.00000000000E+00 0. -1.
         22    1    5    5    0    0 -0.36931678207E+03 -0.21008784029E+03 -0.27896911188E+03  0.50828687917E+03  0.00000000000E+00 0. -1.
          5    1    4    4  502    0  0.10751834122E+02  0.47179295186E+02  0.78137591736E+02  0.92027501724E+02  0.47000000000E+01 0.  1.
         -5    1    4    4    0  502  0.29920612110E+02  0.62365196904E+02 -0.44449302117E+02  0.82355881833E+02  0.47000000000E+01 0.  1.
<mgrwt>
<rscale>  0 0.99920106E+03</rscale>
<asrwt>0</asrwt>
<pdfrwt beam="1">  1        1 0.97050456E-01 0.99920106E+03</pdfrwt>
<pdfrwt beam="2">  1       -1 0.60872549E-01 0.99920106E+03</pdfrwt>
<totfact> 0.10098702E+02</totfact>
</mgrwt>
</event>
<event>
 9    1  0.4236486E-036  0.1001540E+04  0.7818608E-02  0.8679572E-01
          1   -1    0    0  501    0  0.00000000000E+00  0.00000000000E+00  0.11234897261E+04  0.11234897261E+04  0.00000000000E+00 0.  1.
         -1   -1    0    0    0  501 -0.00000000000E+00 -0.00000000000E+00 -0.22320701793E+03  0.22320701793E+03  0.00000000000E+00 0.  1.
         36    2    1    2    0    0  0.00000000000E+00  0.14210854715E-13  0.90028270820E+03  0.13466967441E+04  0.10015403965E+04 0.  0.
         25    2    3    3    0    0 -0.35518776176E+02 -0.12600873144E+03  0.24314791333E+03  0.30325341385E+03  0.12530738764E+03 0.  0.
         35    2    3    3    0    0  0.35518776176E+02  0.12600873144E+03  0.65713479487E+03  0.10434433302E+04  0.79988002904E+03 0.  0.
         22    1    5    5    0    0  0.40611931756E+03  0.96308886867E+02  0.46533715496E+03  0.62509756805E+03  0.00000000000E+00 0.  1.
         22    1    5    5    0    0 -0.37060054139E+03  0.29699844571E+02  0.19179763991E+03  0.41834576216E+03  0.00000000000E+00 0.  1.
          5    1    4    4  502    0 -0.65154773461E+02 -0.12119270471E+03  0.14261291704E+03  0.19822550362E+03  0.47000000000E+01 0. -1.
         -5    1    4    4    0  502  0.29635997284E+02 -0.48160267317E+01  0.10053499629E+03  0.10502791023E+03  0.47000000000E+01 0. -1.
<mgrwt>
<rscale>  0 0.10015404E+04</rscale>
<asrwt>0</asrwt>
<pdfrwt beam="1">  1        1 0.17284457E+00 0.10015404E+04</pdfrwt>
<pdfrwt beam="2">  1       -1 0.34339542E-01 0.10015404E+04</pdfrwt>
<totfact> 0.10837797E+02</totfact>
</mgrwt>
</event>
<event>
 9    1  0.4236486E-036  0.1002047E+04  0.7818608E-02  0.8679091E-01
         -1   -1    0    0    0  501 -0.00000000000E+00  0.00000000000E+00  0.59579895968E+03  0.59579895968E+03  0.00000000000E+00 0.  1.
          1   -1    0    0  501    0  0.00000000000E+00 -0.00000000000E+00 -0.42132429324E+03  0.42132429324E+03  0.00000000000E+00 0.  1.
         36    2    1    2    0    0 -0.28421709430E-13 -0.14210854715E-13  0.17447466644E+03  0.10171232529E+04  0.10020470560E+04 0.  0.
         25    2    3    3    0    0  0.11556870065E+03  0.70155513099E+02  0.80228648926E+02  0.20055420907E+03  0.12452884838E+03 0.  0.
         35    2    3    3    0    0 -0.11556870065E+03 -0.70155513099E+02  0.94246017512E+02  0.81656904385E+03  0.79976544747E+03 0.  0.
         22    1    5    5    0    0 -0.45160890270E+03 -0.75935191317E+02  0.13643821270E+03  0.47784112440E+03  0.00000000000E+00 0. -1.
         22    1    5    5    0    0  0.33604020206E+03  0.57796782184E+01 -0.42192195185E+02  0.33872791945E+03  0.00000000000E+00 0. -1.
          5    1    4    4  502    0  0.10223625338E+03  0.46528831856E+01  0.85355710344E+02  0.13334762134E+03  0.47000000000E+01 0. -1.
         -5    1    4    4    0  502  0.13332447261E+02  0.65502629913E+02 -0.51270614177E+01  0.67206587730E+02  0.47000000000E+01 0. -1.
<mgrwt>
<rscale>  0 0.10020471E+04</rscale>
<asrwt>0</asrwt>
<pdfrwt beam="1">  1        1 0.64819122E-01 0.10020471E+04</pdfrwt>
<pdfrwt beam="2">  1       -1 0.91661379E-01 0.10020471E+04</pdfrwt>
<totfact> 0.77338667E+01</totfact>
</mgrwt>
</event>
<event>
 9    1  0.4236486E-036  0.9992343E+03  0.7818608E-02  0.8681767E-01
         -1   -1    0    0    0  501 -0.00000000000E+00  0.00000000000E+00  0.49427278380E+03  0.49427278380E+03  0.00000000000E+00 0.  1.
          1   -1    0    0  501    0  0.00000000000E+00 -0.00000000000E+00 -0.50501927690E+03  0.50501927690E+03  0.00000000000E+00 0.  1.
         36    2    1    2    0    0  0.28421709430E-13  0.00000000000E+00 -0.10746493101E+02  0.99929206070E+03  0.99923427457E+03 0.  0.
         25    2    3    3    0    0  0.32091971089E+02 -0.12476839340E+03 -0.57760428032E+02  0.18763801814E+03  0.12359090665E+03 0.  0.
         35    2    3    3    0    0 -0.32091971089E+02  0.12476839340E+03  0.47013934932E+02  0.81165404256E+03  0.79998432993E+03 0.  0.
         22    1    5    5    0    0  0.24989396317E+03 -0.15539228805E+03  0.23055049698E+03  0.37382788509E+03  0.00000000000E+00 0.  1.
         22    1    5    5    0    0 -0.28198593426E+03  0.28016068145E+03 -0.18353656205E+03  0.43782615747E+03  0.00000000000E+00 0.  1.
          5    1    4    4  502    0 -0.19452312184E+02 -0.56022814308E+02  0.28351345234E+02  0.65900204468E+02  0.47000000000E+01 0.  1.
         -5    1    4    4    0  502  0.51544283273E+02 -0.68745579094E+02 -0.86111773267E+02  0.12173781367E+03  0.47000000000E+01 0.  1.
<mgrwt>
<rscale>  0 0.99923427E+03</rscale>
<asrwt>0</asrwt>
<pdfrwt beam="1">  1        1 0.77695273E-01 0.99923427E+03</pdfrwt>
<pdfrwt beam="2">  1       -1 0.76041967E-01 0.99923427E+03</pdfrwt>
<totfact> 0.89552727E+01</totfact>
</mgrwt>
</event>
<event>
 9    1  0.4236486E-036  0.9996693E+03  0.7818608E-02  0.8681353E-01
          2   -1    0    0  501    0  0.00000000000E+00  0.00000000000E+00  0.14461945056E+04  0.14461945056E+04  0.00000000000E+00 0.  1.
         -2   -1    0    0    0  501 -0.00000000000E+00 -0.00000000000E+00 -0.17275314893E+03  0.17275314893E+03  0.00000000000E+00 0.  1.
         36    2    1    2    0    0  0.00000000000E+00  0.14210854715E-13  0.12734413566E+04  0.16189476545E+04  0.99966925490E+03 0.  0.
         25    2    3    3    0    0 -0.10037342310E+03 -0.48865812710E+02  0.37548905726E+03  0.41113672928E+03  0.12481460781E+03 0.  0.
         35    2    3    3    0    0  0.10037342310E+03  0.48865812710E+02  0.89795229937E+03  0.12078109252E+04  0.80001637945E+03 0.  0.
         22    1    5    5    0    0 -0.34627819103E+03 -0.15378443196E+02  0.48499930358E+03  0.59612868290E+03  0.00000000000E+00 0.  1.
         22    1    5    5    0    0  0.44665161413E+03  0.64244255906E+02  0.41295299579E+03  0.61168224231E+03  0.00000000000E+00 0.  1.
          5    1    4    4  502    0 -0.20872065523E+01 -0.67162602181E+02  0.15339010174E+03  0.16752845990E+03  0.47000000000E+01 0.  1.
         -5    1    4    4    0  502 -0.98286216551E+02  0.18296789471E+02  0.22209895552E+03  0.24360826939E+03  0.47000000000E+01 0.  1.
<mgrwt>
<rscale>  0 0.99966925E+03</rscale>
<asrwt>0</asrwt>
<pdfrwt beam="1">  1        2 0.22249145E+00 0.99966925E+03</pdfrwt>
<pdfrwt beam="2">  1       -2 0.26577408E-01 0.99966925E+03</pdfrwt>
<totfact> 0.20908397E+02</totfact>
</mgrwt>
</event>
<event>
 9    1  0.4236486E-036  0.1000834E+04  0.7818608E-02  0.8680244E-01
          2   -1    0    0  501    0  0.00000000000E+00  0.00000000000E+00  0.15065960681E+04  0.15065960681E+04  0.00000000000E+00 0. -1.
         -2   -1    0    0    0  501 -0.00000000000E+00 -0.00000000000E+00 -0.16621392888E+03  0.16621392888E+03  0.00000000000E+00 0. -1.
         36    2    1    2    0    0  0.00000000000E+00 -0.71054273576E-14  0.13403821392E+04  0.16728099970E+04  0.10008341555E+04 0.  0.
         25    2    3    3    0    0  0.91751097001E+02  0.26940297063E+02  0.42613712925E+03  0.45424901651E+03  0.12492106576E+03 0.  0.
         35    2    3    3    0    0 -0.91751097001E+02 -0.26940297063E+02  0.91424500999E+03  0.12185609805E+04  0.79993929863E+03 0.  0.
         22    1    5    5    0    0  0.83827767470E+02  0.32587061159E+03  0.17131710416E+03  0.37758217685E+03  0.00000000000E+00 0.  1.
         22    1    5    5    0    0 -0.17557886447E+03 -0.35281090865E+03  0.74292790584E+03  0.84097880365E+03  0.00000000000E+00 0.  1.
          5    1    4    4  502    0  0.97678517257E+01  0.64039847800E+02  0.14162661442E+03  0.15580982301E+03  0.47000000000E+01 0.  1.
         -5    1    4    4    0  502  0.81983245276E+02 -0.37099550737E+02  0.28451051482E+03  0.29843919350E+03  0.47000000000E+01 0.  1.
<mgrwt>
<rscale>  0 0.10008342E+04</rscale>
<asrwt>0</asrwt>
<pdfrwt beam="1">  1        2 0.23178400E+00 0.10008342E+04</pdfrwt>
<pdfrwt beam="2">  1       -2 0.25571375E-01 0.10008342E+04</pdfrwt>
<totfact> 0.20699970E+02</totfact>
</mgrwt>
</event>
<event>
 9    1  0.4236486E-036  0.1002596E+04  0.7818608E-02  0.8678570E-01
          1   -1    0    0  501    0  0.00000000000E+00  0.00000000000E+00  0.87027646967E+03  0.87027646967E+03  0.00000000000E+00 0.  1.
         -1   -1    0    0    0  501 -0.00000000000E+00 -0.00000000000E+00 -0.28875843576E+03  0.28875843576E+03  0.00000000000E+00 0.  1.
         36    2    1    2    0    0  0.35527136788E-14  0.28421709430E-13  0.58151803391E+03  0.11590349054E+04  0.10025959746E+04 0.  0.
         25    2    3    3    0    0 -0.32551537311E+01  0.14194870869E+03  0.81545310492E+02  0.20600526816E+03  0.12501400292E+03 0.  0.
         35    2    3    3    0    0  0.32551537311E+01 -0.14194870869E+03  0.49997272342E+03  0.95302963726E+03  0.79883210589E+03 0.  0.
         22    1    5    5    0    0 -0.13953344432E+02 -0.32653328439E+03  0.64139169553E+03  0.71986247904E+03  0.00000000000E+00 0. -1.
         22    1    5    5    0    0  0.17208498164E+02  0.18458457570E+03 -0.14141897211E+03  0.23316715822E+03  0.00000000000E+00 0. -1.
          5    1    4    4  502    0  0.57916956698E+02  0.53481158521E+02  0.18025859906E+02  0.81003887655E+02  0.47000000000E+01 0. -1.
         -5    1    4    4    0  502 -0.61172110429E+02  0.88467550164E+02  0.63519450587E+02  0.12500138051E+03  0.47000000000E+01 0. -1.
<mgrwt>
<rscale>  0 0.10025960E+04</rscale>
<asrwt>0</asrwt>
<pdfrwt beam="1">  1        1 0.13388869E+00 0.10025960E+04</pdfrwt>
<pdfrwt beam="2">  1       -1 0.44424375E-01 0.10025960E+04</pdfrwt>
<totfact> 0.10931627E+02</totfact>
</mgrwt>
</event>
<event>
 9    1  0.4236486E-036  0.9988956E+03  0.7818608E-02  0.8682090E-01
         -2   -1    0    0    0  501 -0.00000000000E+00  0.00000000000E+00  0.96550971246E+02  0.96550971246E+02  0.00000000000E+00 0. -1.
          2   -1    0    0  501    0  0.00000000000E+00 -0.00000000000E+00 -0.25835896733E+04  0.25835896733E+04  0.00000000000E+00 0. -1.
         36    2    1    2    0    0  0.28421709430E-13  0.00000000000E+00 -0.24870387021E+04  0.26801406446E+04  0.99889557464E+03 0.  0.
         25    2    3    3    0    0  0.82494214892E+02 -0.11138649923E+03 -0.43125279622E+03  0.46984936523E+03  0.12476860204E+03 0.  0.
         35    2    3    3    0    0 -0.82494214892E+02  0.11138649923E+03 -0.20557859059E+04  0.22102912793E+04  0.79994974912E+03 0.  0.
         22    1    5    5    0    0 -0.28245456776E+03  0.15357368172E+03 -0.19571307334E+04  0.19833623386E+04  0.00000000000E+00 0.  1.
         22    1    5    5    0    0  0.19996035287E+03 -0.42187182487E+02 -0.98655172429E+02  0.22692894071E+03  0.00000000000E+00 0.  1.
          5    1    4    4  502    0  0.35926191800E+02 -0.12285384026E+03 -0.23364204603E+03  0.26644784292E+03  0.47000000000E+01 0.  1.
         -5    1    4    4    0  502  0.46568023092E+02  0.11467341033E+02 -0.19761075019E+03  0.20340152231E+03  0.47000000000E+01 0.  1.
<mgrwt>
<rscale>  0 0.99889557E+03</rscale>
<asrwt>0</asrwt>
<pdfrwt beam="1">  1        2 0.39747524E+00 0.99889557E+03</pdfrwt>
<pdfrwt beam="2">  1       -2 0.14853999E-01 0.99889557E+03</pdfrwt>
<totfact> 0.12581327E+02</totfact>
</mgrwt>
</event>
<event>
 9    1  0.4236486E-036  0.9999654E+03  0.7818608E-02  0.8681071E-01
          2   -1    0    0  501    0  0.00000000000E+00  0.00000000000E+00  0.36072370993E+03  0.36072370993E+03  0.00000000000E+00 0.  1.
         -2   -1    0    0    0  501 -0.00000000000E+00 -0.00000000000E+00 -0.69300323392E+03  0.69300323392E+03  0.00000000000E+00 0.  1.
         36    2    1    2    0    0  0.71054273576E-14  0.14210854715E-13 -0.33227952399E+03  0.10537269438E+04  0.99996539446E+03 0.  0.
         25    2    3    3    0    0 -0.23182329645E+02 -0.12658983075E+03 -0.12056215080E+03  0.21612320798E+03  0.12494640117E+03 0.  0.
         35    2    3    3    0    0  0.23182329645E+02  0.12658983075E+03 -0.21171737319E+03  0.83760373586E+03  0.80012084498E+03 0.  0.
         22    1    5    5    0    0 -0.25279624479E+03 -0.12115067211E+03  0.15137708378E+03  0.31858821106E+03  0.00000000000E+00 0.  1.
         22    1    5    5    0    0  0.27597857444E+03  0.24774050286E+03 -0.36309445696E+03  0.51901552480E+03  0.00000000000E+00 0.  1.
          5    1    4    4  502    0  0.36258057940E+02 -0.62798852618E+02 -0.10459003409E+03  0.12735583177E+03  0.47000000000E+01 0.  1.
         -5    1    4    4    0  502 -0.59440387585E+02 -0.63790978129E+02 -0.15972116717E+02  0.88767376211E+02  0.47000000000E+01 0.  1.
<mgrwt>
<rscale>  0 0.99996539E+03</rscale>
<asrwt>0</asrwt>
<pdfrwt beam="1">  1        2 0.55495956E-01 0.99996539E+03</pdfrwt>
<pdfrwt beam="2">  1       -2 0.10661588E+00 0.99996539E+03</pdfrwt>
<totfact> 0.74818289E+01</totfact>
</mgrwt>
</event>
<event>
 9    1  0.4236486E-036  0.1003253E+04  0.7818608E-02  0.8677947E-01
         -3   -1    0    0    0  501 -0.00000000000E+00  0.00000000000E+00  0.13361373816E+03  0.13361373816E+03  0.00000000000E+00 0. -1.
          3   -1    0    0  501    0  0.00000000000E+00 -0.00000000000E+00 -0.18832568129E+04  0.18832568129E+04  0.00000000000E+00 0. -1.
         36    2    1    2    0    0 -0.10658141036E-13  0.00000000000E+00 -0.17496430747E+04  0.20168705510E+04  0.10032526754E+04 0.  0.
         25    2    3    3    0    0  0.19944516444E+02 -0.13858643428E+03 -0.27403904917E+03  0.33249267951E+03  0.12589677499E+03 0.  0.
         35    2    3    3    0    0 -0.19944516444E+02  0.13858643428E+03 -0.14756040255E+04  0.16843778715E+04  0.80007349060E+03 0.  0.
         22    1    5    5    0    0 -0.22074510747E+03  0.36407173870E+03 -0.12083083674E+04  0.12811267478E+04  0.00000000000E+00 0.  1.
         22    1    5    5    0    0  0.20080059103E+03 -0.22548530442E+03 -0.26729565818E+03  0.40325112368E+03  0.00000000000E+00 0.  1.
          5    1    4    4  502    0 -0.31949438850E+02 -0.13040478726E+03 -0.21293293744E+03  0.25177112826E+03  0.47000000000E+01 0.  1.
         -5    1    4    4    0  502  0.51893955294E+02 -0.81816470263E+01 -0.61106111738E+02  0.80721551248E+02  0.47000000000E+01 0.  1.
<mgrwt>
<rscale>  0 0.10032527E+04</rscale>
<asrwt>0</asrwt>
<pdfrwt beam="1">  1        3 0.28973184E+00 0.10032527E+04</pdfrwt>
<pdfrwt beam="2">  1       -3 0.20555958E-01 0.10032527E+04</pdfrwt>
<totfact> 0.41594199E+00</totfact>
</mgrwt>
</event>
<event>
 9    1  0.4236486E-036  0.1000043E+04  0.7818608E-02  0.8680997E-01
          2   -1    0    0  501    0  0.00000000000E+00  0.00000000000E+00  0.41436428941E+03  0.41436428941E+03  0.00000000000E+00 0. -1.
         -2   -1    0    0    0  501 -0.00000000000E+00 -0.00000000000E+00 -0.60338596671E+03  0.60338596671E+03  0.00000000000E+00 0. -1.
         36    2    1    2    0    0  0.00000000000E+00  0.00000000000E+00 -0.18902167730E+03  0.10177502561E+04  0.10000431937E+04 0.  0.
         25    2    3    3    0    0 -0.90024722136E+02 -0.10190473273E+03 -0.66823842355E+01  0.18532549377E+03  0.12574521555E+03 0.  0.
         35    2    3    3    0    0  0.90024722136E+02  0.10190473273E+03 -0.18233929306E+03  0.83242476234E+03  0.80074611583E+03 0.  0.
         22    1    5    5    0    0 -0.73348834279E+02  0.49868245857E+02 -0.48042522938E+03  0.48854405580E+03  0.00000000000E+00 0.  1.
         22    1    5    5    0    0  0.16337355642E+03  0.52036486874E+02  0.29808593631E+03  0.34388070654E+03  0.00000000000E+00 0.  1.
          5    1    4    4  502    0 -0.27142066179E+02 -0.10699362006E+03  0.26887606832E+02  0.11370734318E+03  0.47000000000E+01 0. -1.
         -5    1    4    4    0  502 -0.62882655957E+02  0.50888873334E+01 -0.33569991067E+02  0.71618150596E+02  0.47000000000E+01 0. -1.
<mgrwt>
<rscale>  0 0.10000432E+04</rscale>
<asrwt>0</asrwt>
<pdfrwt beam="1">  1        2 0.63748353E-01 0.10000432E+04</pdfrwt>
<pdfrwt beam="2">  1       -2 0.92828609E-01 0.10000432E+04</pdfrwt>
<totfact> 0.89685122E+01</totfact>
</mgrwt>
</event>
<event>
 9    1  0.4236486E-036  0.1000131E+04  0.7818608E-02  0.8680914E-01
          1   -1    0    0  501    0  0.00000000000E+00  0.00000000000E+00  0.72591356042E+03  0.72591356042E+03  0.00000000000E+00 0.  1.
         -1   -1    0    0    0  501 -0.00000000000E+00 -0.00000000000E+00 -0.34448353960E+03  0.34448353960E+03  0.00000000000E+00 0.  1.
         36    2    1    2    0    0  0.14210854715E-13 -0.21316282073E-13  0.38143002082E+03  0.10703971000E+04  0.10001305370E+04 0.  0.
         25    2    3    3    0    0 -0.12406667620E+03  0.58070206407E+02  0.10798953322E+03  0.21455926229E+03  0.12493697905E+03 0.  0.
         35    2    3    3    0    0  0.12406667620E+03 -0.58070206407E+02  0.27344048760E+03  0.85583783774E+03  0.79932722663E+03 0.  0.
         22    1    5    5    0    0 -0.12312561793E+03  0.20796522504E+03 -0.16040176299E+03  0.29006581699E+03  0.00000000000E+00 0. -1.
         22    1    5    5    0    0  0.24719229413E+03 -0.26603543145E+03  0.43384225059E+03  0.56577202075E+03  0.00000000000E+00 0. -1.
          5    1    4    4  502    0 -0.96600995177E+02  0.12768003674E+02  0.38571180555E+01  0.97630638361E+02  0.47000000000E+01 0. -1.
         -5    1    4    4    0  502 -0.27465681022E+02  0.45302202733E+02  0.10413241516E+03  0.11692862393E+03  0.47000000000E+01 0. -1.
<mgrwt>
<rscale>  0 0.10001305E+04</rscale>
<asrwt>0</asrwt>
<pdfrwt beam="1">  1        1 0.11167901E+00 0.10001305E+04</pdfrwt>
<pdfrwt beam="2">  1       -1 0.52997468E-01 0.10001305E+04</pdfrwt>
<totfact> 0.10611128E+02</totfact>
</mgrwt>
</event>
<event>
 9    1  0.4236486E-036  0.9997377E+03  0.7818608E-02  0.8681288E-01
          4   -1    0    0  501    0  0.00000000000E+00  0.00000000000E+00  0.36339811522E+03  0.36339811522E+03  0.00000000000E+00 0.  1.
         -4   -1    0    0    0  501 -0.00000000000E+00 -0.00000000000E+00 -0.68758981532E+03  0.68758981532E+03  0.00000000000E+00 0.  1.
         36    2    1    2    0    0  0.14210854715E-13 -0.14210854715E-13 -0.32419170011E+03  0.10509879305E+04  0.99973765145E+03 0.  0.
         25    2    3    3    0    0 -0.10687020400E+03 -0.39417761453E+02  0.20610155681E+02  0.16939372144E+03  0.12367074806E+03 0.  0.
         35    2    3    3    0    0  0.10687020400E+03  0.39417761453E+02 -0.34480185579E+03  0.88159420910E+03  0.80333369738E+03 0.  0.
         22    1    5    5    0    0  0.72078761510E+02  0.31206993811E+03  0.11964932948E+03  0.34190489347E+03  0.00000000000E+00 0. -1.
         22    1    5    5    0    0  0.34791442488E+02 -0.27265217666E+03 -0.46445118527E+03  0.53968931563E+03  0.00000000000E+00 0. -1.
          5    1    4    4  502    0 -0.12398954142E+03 -0.29438416787E+02 -0.14968736133E+02  0.12839851957E+03  0.47000000000E+01 0. -1.
         -5    1    4    4    0  502  0.17119337426E+02 -0.99793446666E+01  0.35578891814E+02  0.40995201873E+02  0.47000000000E+01 0. -1.
<mgrwt>
<rscale>  0 0.99973765E+03</rscale>
<asrwt>0</asrwt>
<pdfrwt beam="1">  1        4 0.55907403E-01 0.99973765E+03</pdfrwt>
<pdfrwt beam="2">  1       -4 0.10578305E+00 0.99973765E+03</pdfrwt>
<totfact> 0.48900651E+00</totfact>
</mgrwt>
</event>
<event>
 9    1  0.4236486E-036  0.1000279E+04  0.7818608E-02  0.8680772E-01
         -2   -1    0    0    0  501 -0.00000000000E+00  0.00000000000E+00  0.18003497655E+03  0.18003497655E+03  0.00000000000E+00 0.  1.
          2   -1    0    0  501    0  0.00000000000E+00 -0.00000000000E+00 -0.13893951561E+04  0.13893951561E+04  0.00000000000E+00 0.  1.
         36    2    1    2    0    0  0.28421709430E-13  0.00000000000E+00 -0.12093601796E+04  0.15694301327E+04  0.10002794097E+04 0.  0.
         25    2    3    3    0    0 -0.79575676860E+02  0.38668407272E+02 -0.56343112507E+02  0.16309664024E+03  0.12489368944E+03 0.  0.
         35    2    3    3    0    0  0.79575676860E+02 -0.38668407272E+02 -0.11530170671E+04  0.14063334925E+04  0.80031119006E+03 0.  0.
         22    1    5    5    0    0  0.30099982779E+03 -0.32448827712E+03 -0.66989645079E+03  0.80290397502E+03  0.00000000000E+00 0. -1.
         22    1    5    5    0    0 -0.22142415093E+03  0.28581986985E+03 -0.48312061629E+03  0.60342951743E+03  0.00000000000E+00 0. -1.
          5    1    4    4  502    0 -0.99539709428E+02  0.11722556437E+02 -0.35800761537E+01  0.10040158877E+03  0.47000000000E+01 0.  1.
         -5    1    4    4    0  502  0.19964032568E+02  0.26945850835E+02 -0.52763036353E+02  0.62695051469E+02  0.47000000000E+01 0.  1.
<mgrwt>
<rscale>  0 0.10002794E+04</rscale>
<asrwt>0</asrwt>
<pdfrwt beam="1">  1        2 0.21375309E+00 0.10002794E+04</pdfrwt>
<pdfrwt beam="2">  1       -2 0.27697690E-01 0.10002794E+04</pdfrwt>
<totfact> 0.20918720E+02</totfact>
</mgrwt>
</event>
<event>
 9    1  0.4236486E-036  0.1000261E+04  0.7818608E-02  0.8680790E-01
          2   -1    0    0  501    0  0.00000000000E+00  0.00000000000E+00  0.15221531896E+04  0.15221531896E+04  0.00000000000E+00 0.  1.
         -2   -1    0    0    0  501 -0.00000000000E+00 -0.00000000000E+00 -0.16432667317E+03  0.16432667317E+03  0.00000000000E+00 0.  1.
         36    2    1    2    0    0  0.71054273576E-14  0.21316282073E-13  0.13578265164E+04  0.16864798627E+04  0.10002607054E+04 0.  0.
         25    2    3    3    0    0 -0.32728084384E+02  0.39694097975E+01  0.48980478229E+03  0.50532081566E+03  0.11980616958E+03 0.  0.
         35    2    3    3    0    0  0.32728084384E+02 -0.39694097975E+01  0.86802173413E+03  0.11811590471E+04  0.80036746552E+03 0.  0.
         22    1    5    5    0    0  0.61050722741E+02  0.39263265472E+03  0.36122453573E+03  0.53700163641E+03  0.00000000000E+00 0.  1.
         22    1    5    5    0    0 -0.28322638357E+02 -0.39660206451E+03  0.50679719840E+03  0.64415741067E+03  0.00000000000E+00 0.  1.
          5    1    4    4  502    0 -0.57058356777E+02 -0.41260892330E+02  0.32758143011E+03  0.33509670345E+03  0.47000000000E+01 0.  1.
         -5    1    4    4    0  502  0.24330272392E+02  0.45230302128E+02  0.16222335218E+03  0.17022411221E+03  0.47000000000E+01 0.  1.
<mgrwt>
<rscale>  0 0.10002607E+04</rscale>
<asrwt>0</asrwt>
<pdfrwt beam="1">  1        2 0.23417740E+00 0.10002607E+04</pdfrwt>
<pdfrwt beam="2">  1       -2 0.25281028E-01 0.10002607E+04</pdfrwt>
<totfact> 0.20700715E+02</totfact>
</mgrwt>
</event>
<event>
 9    1  0.4236486E-036  0.9998424E+03  0.7818608E-02  0.8681188E-01
         -1   -1    0    0    0  501 -0.00000000000E+00  0.00000000000E+00  0.46917574521E+03  0.46917574521E+03  0.00000000000E+00 0. -1.
          1   -1    0    0  501    0  0.00000000000E+00 -0.00000000000E+00 -0.53268144320E+03  0.53268144320E+03  0.00000000000E+00 0. -1.
         36    2    1    2    0    0 -0.71054273576E-14 -0.71054273576E-14 -0.63505697989E+02  0.10018571884E+04  0.99984241373E+03 0.  0.
         25    2    3    3    0    0 -0.39155686063E+01  0.22389830154E+02  0.12707347445E+03  0.17945278337E+03  0.12465551484E+03 0.  0.
         35    2    3    3    0    0  0.39155686063E+01 -0.22389830154E+02 -0.19057917244E+03  0.82240440504E+03  0.79969490950E+03 0.  0.
         22    1    5    5    0    0 -0.24303239663E+03  0.21053698108E+03 -0.32510162741E+03  0.45725445253E+03  0.00000000000E+00 0. -1.
         22    1    5    5    0    0  0.24694796523E+03 -0.23292681124E+03  0.13452245497E+03  0.36514995251E+03  0.00000000000E+00 0. -1.
          5    1    4    4  502    0  0.16236446542E+02 -0.45918819532E+02  0.25129751740E+02  0.55006859627E+02  0.47000000000E+01 0.  1.
         -5    1    4    4    0  502 -0.20152015148E+02  0.68308649686E+02  0.10194372271E+03  0.12444592374E+03  0.47000000000E+01 0.  1.
<mgrwt>
<rscale>  0 0.99984241E+03</rscale>
<asrwt>0</asrwt>
<pdfrwt beam="1">  1        1 0.81950992E-01 0.99984241E+03</pdfrwt>
<pdfrwt beam="2">  1       -1 0.72180883E-01 0.99984241E+03</pdfrwt>
<totfact> 0.92338211E+01</totfact>
</mgrwt>
</event>
<event>
 9    1  0.4236486E-036  0.1000206E+04  0.7818608E-02  0.8680842E-01
         -2   -1    0    0    0  501 -0.00000000000E+00  0.00000000000E+00  0.17399325502E+03  0.17399325502E+03  0.00000000000E+00 0. -1.
          2   -1    0    0  501    0  0.00000000000E+00 -0.00000000000E+00 -0.14374283353E+04  0.14374283353E+04  0.00000000000E+00 0. -1.
         36    2    1    2    0    0  0.71054273576E-14  0.00000000000E+00 -0.12634350802E+04  0.16114215903E+04  0.10002056487E+04 0.  0.
         25    2    3    3    0    0  0.63835570383E+02  0.11473819141E+03 -0.32083016660E+03  0.36874359887E+03  0.12569810380E+03 0.  0.
         35    2    3    3    0    0 -0.63835570383E+02 -0.11473819141E+03 -0.94260491364E+03  0.12426779914E+04  0.79906491255E+03 0.  0.
         22    1    5    5    0    0 -0.10502634666E+03 -0.12154605186E+03  0.10650587874E+03  0.19273681128E+03  0.00000000000E+00 0. -1.
         22    1    5    5    0    0  0.41190776280E+02  0.68078604524E+01 -0.10491107924E+04  0.10499411801E+04  0.00000000000E+00 0. -1.
          5    1    4    4  502    0  0.32217523411E+02  0.12913377731E+03 -0.29932915686E+03  0.32761797174E+03  0.47000000000E+01 0. -1.
         -5    1    4    4    0  502  0.31618046972E+02 -0.14395585901E+02 -0.21501009733E+02  0.41125627136E+02  0.47000000000E+01 0. -1.
<mgrwt>
<rscale>  0 0.10002056E+04</rscale>
<asrwt>0</asrwt>
<pdfrwt beam="1">  1        2 0.22114282E+00 0.10002056E+04</pdfrwt>
<pdfrwt beam="2">  1       -2 0.26768194E-01 0.10002056E+04</pdfrwt>
<totfact> 0.20880779E+02</totfact>
</mgrwt>
</event>
<event>
 9    1  0.4236486E-036  0.1000545E+04  0.7818608E-02  0.8680519E-01
         -2   -1    0    0    0  501 -0.00000000000E+00  0.00000000000E+00  0.40245982452E+03  0.40245982452E+03  0.00000000000E+00 0.  1.
          2   -1    0    0  501    0  0.00000000000E+00 -0.00000000000E+00 -0.62185722076E+03  0.62185722076E+03  0.00000000000E+00 0.  1.
         36    2    1    2    0    0 -0.42632564146E-13 -0.14210854715E-13 -0.21939739624E+03  0.10243170453E+04  0.10005449474E+04 0.  0.
         25    2    3    3    0    0  0.43159195465E+02 -0.39080977099E+02 -0.17187918377E+03  0.22112519283E+03  0.12634816251E+03 0.  0.
         35    2    3    3    0    0 -0.43159195465E+02  0.39080977099E+02 -0.47518212472E+02  0.80319185245E+03  0.79966813891E+03 0.  0.
         22    1    5    5    0    0  0.33511614931E+03 -0.10395686144E+03 -0.15673813211E+03  0.38428726836E+03  0.00000000000E+00 0.  1.
         22    1    5    5    0    0 -0.37827534477E+03  0.14303783854E+03  0.10921991964E+03  0.41890458408E+03  0.00000000000E+00 0.  1.
          5    1    4    4  502    0  0.50461968479E+02  0.24964179682E+02 -0.27275053547E+02  0.62734672040E+02  0.47000000000E+01 0.  1.
         -5    1    4    4    0  502 -0.73027730138E+01 -0.64045156781E+02 -0.14460413022E+03  0.15839052079E+03  0.47000000000E+01 0.  1.
<mgrwt>
<rscale>  0 0.10005449E+04</rscale>
<asrwt>0</asrwt>
<pdfrwt beam="1">  1        2 0.95670342E-01 0.10005449E+04</pdfrwt>
<pdfrwt beam="2">  1       -2 0.61916896E-01 0.10005449E+04</pdfrwt>
<totfact> 0.13918014E+02</totfact>
</mgrwt>
</event>
<event>
 9    1  0.4236486E-036  0.1000128E+04  0.7818608E-02  0.8680916E-01
          2   -1    0    0  501    0  0.00000000000E+00  0.00000000000E+00  0.56613644728E+03  0.56613644728E+03  0.00000000000E+00 0. -1.
         -2   -1    0    0    0  501 -0.00000000000E+00 -0.00000000000E+00 -0.44170296252E+03  0.44170296252E+03  0.00000000000E+00 0. -1.
         36    2    1    2    0    0  0.00000000000E+00  0.42632564146E-13  0.12443348476E+03  0.10078394098E+04  0.10001282837E+04 0.  0.
         25    2    3    3    0    0 -0.12388461222E+03  0.71539761451E+02 -0.35899455022E+02  0.19317250212E+03  0.12474578186E+03 0.  0.
         35    2    3    3    0    0  0.12388461222E+03 -0.71539761451E+02  0.16033293978E+03  0.81466690768E+03  0.78581816235E+03 0.  0.
         22    1    5    5    0    0  0.35692138439E+03  0.18960787385E+03 -0.48557379141E+02  0.40706490825E+03  0.00000000000E+00 0.  1.
         22    1    5    5    0    0 -0.23303677216E+03 -0.26114763530E+03  0.20889031892E+03  0.40760199943E+03  0.00000000000E+00 0.  1.
          5    1    4    4  502    0  0.10702128572E+02  0.32825263931E+02  0.22380487589E+02  0.41412675992E+02  0.47000000000E+01 0. -1.
         -5    1    4    4    0  502 -0.13458674079E+03  0.38714497520E+02 -0.58279942612E+02  0.15175982613E+03  0.47000000000E+01 0. -1.
<mgrwt>
<rscale>  0 0.10001283E+04</rscale>
<asrwt>0</asrwt>
<pdfrwt beam="1">  1        2 0.87097915E-01 0.10001283E+04</pdfrwt>
<pdfrwt beam="2">  1       -2 0.67954302E-01 0.10001283E+04</pdfrwt>
<totfact> 0.12759841E+02</totfact>
</mgrwt>
</event>
<event>
 9    1  0.4236486E-036  0.1003990E+04  0.7818608E-02  0.8677247E-01
         -1   -1    0    0    0  501 -0.00000000000E+00  0.00000000000E+00  0.11693154566E+03  0.11693154566E+03  0.00000000000E+00 0. -1.
          1   -1    0    0  501    0  0.00000000000E+00 -0.00000000000E+00 -0.21550988383E+04  0.21550988383E+04  0.00000000000E+00 0. -1.
         36    2    1    2    0    0  0.00000000000E+00  0.00000000000E+00 -0.20381672927E+04  0.22720303840E+04  0.10039901159E+04 0.  0.
         25    2    3    3    0    0 -0.37856142672E+02  0.13056819863E+03 -0.50650605579E+03  0.53871190056E+03  0.12321114082E+03 0.  0.
         35    2    3    3    0    0  0.37856142672E+02 -0.13056819863E+03 -0.15316612369E+04  0.17333184834E+04  0.79995354763E+03 0.  0.
         22    1    5    5    0    0  0.36473592864E+03 -0.26924408958E+03 -0.78438943307E+03  0.90597541916E+03  0.00000000000E+00 0. -1.
         22    1    5    5    0    0 -0.32687978597E+03  0.13867589096E+03 -0.74727180381E+03  0.82734306425E+03  0.00000000000E+00 0. -1.
          5    1    4    4  502    0  0.35966982802E+01  0.12548025316E+03 -0.45610257184E+03  0.47308548510E+03  0.47000000000E+01 0.  1.
         -5    1    4    4    0  502 -0.41452840952E+02  0.50879454717E+01 -0.50403483950E+02  0.65626415463E+02  0.47000000000E+01 0.  1.
<mgrwt>
<rscale>  0 0.10039901E+04</rscale>
<asrwt>0</asrwt>
<pdfrwt beam="1">  1        1 0.33155368E+00 0.10039901E+04</pdfrwt>
<pdfrwt beam="2">  1       -1 0.17989468E-01 0.10039901E+04</pdfrwt>
<totfact> 0.59011621E+01</totfact>
</mgrwt>
</event>
<event>
 9    1  0.4236486E-036  0.1000246E+04  0.7818608E-02  0.8680804E-01
          1   -1    0    0  501    0  0.00000000000E+00  0.00000000000E+00  0.19243035793E+04  0.19243035793E+04  0.00000000000E+00 0. -1.
         -1   -1    0    0    0  501 -0.00000000000E+00 -0.00000000000E+00 -0.12998097106E+03  0.12998097106E+03  0.00000000000E+00 0. -1.
         36    2    1    2    0    0 -0.71054273576E-14  0.00000000000E+00  0.17943226082E+04  0.20542845504E+04  0.10002456655E+04 0.  0.
         25    2    3    3    0    0  0.23582644080E+02  0.80850990268E+02  0.10786467135E+03  0.18571079420E+03  0.12554157887E+03 0.  0.
         35    2    3    3    0    0 -0.23582644080E+02 -0.80850990268E+02  0.16864579369E+04  0.18685737562E+04  0.80020902621E+03 0.  0.
         22    1    5    5    0    0 -0.29218308124E+03 -0.76098766189E+02  0.20976955799E+03  0.36764825940E+03  0.00000000000E+00 0.  1.
         22    1    5    5    0    0  0.26860043716E+03 -0.47522240799E+01  0.14766883789E+04  0.15009254968E+04  0.00000000000E+00 0.  1.
          5    1    4    4  502    0  0.27700782618E+02  0.50974029158E+02  0.13363695461E+03  0.14576217151E+03  0.47000000000E+01 0. -1.
         -5    1    4    4    0  502 -0.41181385377E+01  0.29876961111E+02 -0.25772283257E+02  0.39948622686E+02  0.47000000000E+01 0. -1.
<mgrwt>
<rscale>  0 0.10002457E+04</rscale>
<asrwt>0</asrwt>
<pdfrwt beam="1">  1        1 0.29604668E+00 0.10002457E+04</pdfrwt>
<pdfrwt beam="2">  1       -1 0.19997074E-01 0.10002457E+04</pdfrwt>
<totfact> 0.71987327E+01</totfact>
</mgrwt>
</event>
<event>
 9    1  0.4236486E-036  0.9994319E+03  0.7818608E-02  0.8681579E-01
         -2   -1    0    0    0  501 -0.00000000000E+00  0.00000000000E+00  0.12423467977E+03  0.12423467977E+03  0.00000000000E+00 0.  1.
          2   -1    0    0  501    0  0.00000000000E+00 -0.00000000000E+00 -0.20100346757E+04  0.20100346757E+04  0.00000000000E+00 0.  1.
         36    2    1    2    0    0 -0.28421709430E-13  0.00000000000E+00 -0.18857999959E+04  0.21342693555E+04  0.99943186713E+03 0.  0.
         25    2    3    3    0    0  0.39694299771E+02  0.12235166300E+03 -0.47242565473E+03  0.50533783715E+03  0.12503904806E+03 0.  0.
         35    2    3    3    0    0 -0.39694299771E+02 -0.12235166300E+03 -0.14133743412E+04  0.16289315183E+04  0.79952817094E+03 0.  0.
         22    1    5    5    0    0  0.29214685107E+03  0.12813416809E+03 -0.97001116729E+03  0.10211218401E+04  0.00000000000E+00 0.  1.
         22    1    5    5    0    0 -0.33184115084E+03 -0.25048583109E+03 -0.44336317391E+03  0.60780967823E+03  0.00000000000E+00 0.  1.
          5    1    4    4  502    0  0.17890850565E+02 -0.15158881872E+02 -0.17703858004E+02  0.29755517501E+02  0.47000000000E+01 0.  1.
         -5    1    4    4    0  502  0.21803449206E+02  0.13751054488E+03 -0.45472179672E+03  0.47558231965E+03  0.47000000000E+01 0.  1.
<mgrwt>
<rscale>  0 0.99943187E+03</rscale>
<asrwt>0</asrwt>
<pdfrwt beam="1">  1        2 0.30923611E+00 0.99943187E+03</pdfrwt>
<pdfrwt beam="2">  1       -2 0.19113027E-01 0.99943187E+03</pdfrwt>
<totfact> 0.17891171E+02</totfact>
</mgrwt>
</event>
<event>
 9    1  0.4236486E-036  0.1011162E+04  0.7818608E-02  0.8670480E-01
          2   -1    0    0  501    0  0.00000000000E+00  0.00000000000E+00  0.11754054789E+04  0.11754054789E+04  0.00000000000E+00 0.  1.
         -2   -1    0    0    0  501 -0.00000000000E+00 -0.00000000000E+00 -0.21746740236E+03  0.21746740236E+03  0.00000000000E+00 0.  1.
         36    2    1    2    0    0  0.00000000000E+00  0.00000000000E+00  0.95793807656E+03  0.13928728813E+04  0.10111624523E+04 0.  0.
         25    2    3    3    0    0 -0.12981780770E+03  0.77790621743E+02  0.18831283270E+03  0.27210015952E+03  0.12519077373E+03 0.  0.
         35    2    3    3    0    0  0.12981780770E+03 -0.77790621743E+02  0.76962524386E+03  0.11207727217E+04  0.80056507156E+03 0.  0.
         22    1    5    5    0    0  0.15806341340E+02 -0.18579408908E+03  0.89848319665E+03  0.91762810475E+03  0.00000000000E+00 0.  1.
         22    1    5    5    0    0  0.11401146636E+03  0.10800346734E+03 -0.12885795279E+03  0.20314461700E+03  0.00000000000E+00 0.  1.
          5    1    4    4  502    0 -0.14039346710E+03  0.95417712547E+02  0.14255757711E+03  0.22171968398E+03  0.47000000000E+01 0. -1.
         -5    1    4    4    0  502  0.10575659406E+02 -0.17627090804E+02  0.45755255583E+02  0.50380475539E+02  0.47000000000E+01 0. -1.
<mgrwt>
<rscale>  0 0.10111625E+04</rscale>
<asrwt>0</asrwt>
<pdfrwt beam="1">  1        2 0.18083161E+00 0.10111625E+04</pdfrwt>
<pdfrwt beam="2">  1       -2 0.33456524E-01 0.10111625E+04</pdfrwt>
<totfact> 0.19734831E+02</totfact>
</mgrwt>
</event>
<event>
 9    1  0.4236486E-036  0.9985475E+03  0.7818608E-02  0.8682422E-01
          2   -1    0    0  501    0  0.00000000000E+00  0.00000000000E+00  0.22300774650E+03  0.22300774650E+03  0.00000000000E+00 0.  1.
         -2   -1    0    0    0  501 -0.00000000000E+00 -0.00000000000E+00 -0.11177829511E+04  0.11177829511E+04  0.00000000000E+00 0.  1.
         36    2    1    2    0    0 -0.14210854715E-13  0.17763568394E-13 -0.89477520463E+03  0.13407906976E+04  0.99854745908E+03 0.  0.
         25    2    3    3    0    0 -0.10999335725E+03  0.21278914620E+02 -0.58533633224E+02  0.17818689217E+03  0.12559080968E+03 0.  0.
         35    2    3    3    0    0  0.10999335725E+03 -0.21278914620E+02 -0.83624157141E+03  0.11626038055E+04  0.79987268481E+03 0.  0.
         22    1    5    5    0    0  0.17479491250E+03  0.36151500468E+03 -0.30322314383E+03  0.50318051929E+03  0.00000000000E+00 0.  1.
         22    1    5    5    0    0 -0.64801555253E+02 -0.38279391930E+03 -0.53301842758E+03  0.65942328618E+03  0.00000000000E+00 0.  1.
          5    1    4    4  502    0 -0.10162621944E+03  0.14475172751E+02  0.14884838863E+02  0.10383191962E+03  0.47000000000E+01 0. -1.
         -5    1    4    4    0  502 -0.83671378065E+01  0.68037418692E+01 -0.73418472087E+02  0.74354972545E+02  0.47000000000E+01 0.  1.
<mgrwt>
<rscale>  0 0.99854746E+03</rscale>
<asrwt>0</asrwt>
<pdfrwt beam="1">  1        2 0.34308884E-01 0.99854746E+03</pdfrwt>
<pdfrwt beam="2">  1       -2 0.17196661E+00 0.99854746E+03</pdfrwt>
<totfact> 0.35082953E+01</totfact>
</mgrwt>
</event>
<event>
 9    1  0.4236486E-036  0.1003253E+04  0.7818608E-02  0.8677946E-01
          1   -1    0    0  501    0  0.00000000000E+00  0.00000000000E+00  0.87043302834E+03  0.87043302834E+03  0.00000000000E+00 0.  1.
         -1   -1    0    0    0  501 -0.00000000000E+00 -0.00000000000E+00 -0.28908514870E+03  0.28908514870E+03  0.00000000000E+00 0.  1.
         36    2    1    2    0    0 -0.35527136788E-14 -0.35527136788E-14  0.58134787964E+03  0.11595181770E+04  0.10032532311E+04 0.  0.
         25    2    3    3    0    0 -0.16493714038E+02 -0.29247674056E+02 -0.52186278425E+02  0.13951808318E+03  0.12495766819E+03 0.  0.
         35    2    3    3    0    0  0.16493714038E+02  0.29247674056E+02  0.63353415807E+03  0.10200000939E+04  0.79869092457E+03 0.  0.
         22    1    5    5    0    0  0.96086160139E+02 -0.11698833715E+03  0.78224692834E+03  0.79676161937E+03  0.00000000000E+00 0. -1.
         22    1    5    5    0    0 -0.79592446101E+02  0.14623601121E+03 -0.14871277027E+03  0.22323847449E+03  0.00000000000E+00 0. -1.
          5    1    4    4  502    0 -0.35855027099E+02 -0.77119145092E+01  0.32914151548E+02  0.49502403637E+02  0.47000000000E+01 0.  1.
         -5    1    4    4    0  502  0.19361313062E+02 -0.21535759547E+02 -0.85100429973E+02  0.90015679547E+02  0.47000000000E+01 0.  1.
<mgrwt>
<rscale>  0 0.10032532E+04</rscale>
<asrwt>0</asrwt>
<pdfrwt beam="1">  1        1 0.13391277E+00 0.10032532E+04</pdfrwt>
<pdfrwt beam="2">  1       -1 0.44474639E-01 0.10032532E+04</pdfrwt>
<totfact> 0.10905308E+02</totfact>
</mgrwt>
</event>
<event>
 9    1  0.4236486E-036  0.9995299E+03  0.7818608E-02  0.8681486E-01
         -1   -1    0    0    0  501 -0.00000000000E+00  0.00000000000E+00  0.17380438079E+03  0.17380438079E+03  0.00000000000E+00 0.  1.
          1   -1    0    0  501    0  0.00000000000E+00 -0.00000000000E+00 -0.14370466832E+04  0.14370466832E+04  0.00000000000E+00 0.  1.
         36    2    1    2    0    0  0.14210854715E-13  0.00000000000E+00 -0.12632423024E+04  0.16108510639E+04  0.99952990737E+03 0.  0.
         25    2    3    3    0    0 -0.55262599638E+02  0.12581862542E+03 -0.18975262368E+03  0.26558895456E+03  0.12508858129E+03 0.  0.
         35    2    3    3    0    0  0.55262599638E+02 -0.12581862542E+03 -0.10734896787E+04  0.13452621094E+04  0.79904053169E+03 0.  0.
         22    1    5    5    0    0  0.26347675625E+03 -0.29055912727E+03 -0.21634694043E+03  0.44794040469E+03  0.00000000000E+00 0.  1.
         22    1    5    5    0    0 -0.20821415661E+03  0.16474050184E+03 -0.85714273826E+03  0.89732170470E+03  0.00000000000E+00 0.  1.
          5    1    4    4  502    0  0.70437044875E+01  0.33012007817E+01  0.15825146626E+02  0.18249300404E+02  0.47000000000E+01 0.  1.
         -5    1    4    4    0  502 -0.62306304125E+02  0.12251742464E+03 -0.20557777030E+03  0.24733965415E+03  0.47000000000E+01 0.  1.
<mgrwt>
<rscale>  0 0.99952991E+03</rscale>
<asrwt>0</asrwt>
<pdfrwt beam="1">  1        1 0.22108411E+00 0.99952991E+03</pdfrwt>
<pdfrwt beam="2">  1       -1 0.26739135E-01 0.99952991E+03</pdfrwt>
<totfact> 0.97869771E+01</totfact>
</mgrwt>
</event>
<event>
 9    1  0.4236486E-036  0.9995751E+03  0.7818608E-02  0.8681443E-01
          1   -1    0    0  501    0  0.00000000000E+00  0.00000000000E+00  0.40910864919E+03  0.40910864919E+03  0.00000000000E+00 0.  1.
         -1   -1    0    0    0  501 -0.00000000000E+00 -0.00000000000E+00 -0.61056545523E+03  0.61056545523E+03  0.00000000000E+00 0.  1.
         36    2    1    2    0    0  0.14210854715E-13  0.00000000000E+00 -0.20145680605E+03  0.10196741044E+04  0.99957512700E+03 0.  0.
         25    2    3    3    0    0 -0.37046347155E+02  0.84121876900E+02  0.66357230601E+02  0.16911862579E+03  0.12549464341E+03 0.  0.
         35    2    3    3    0    0  0.37046347155E+02 -0.84121876900E+02 -0.26781403665E+03  0.85055547863E+03  0.80204198269E+03 0.  0.
         22    1    5    5    0    0 -0.21243040419E+03  0.28884283408E+03 -0.11513511392E+03  0.37658060741E+03  0.00000000000E+00 0. -1.
         22    1    5    5    0    0  0.24947675135E+03 -0.37296471098E+03 -0.15267892273E+03  0.47397487122E+03  0.00000000000E+00 0. -1.
          5    1    4    4  502    0 -0.81668827917E+01  0.11357914342E+03  0.50836564474E+02  0.12479329342E+03  0.47000000000E+01 0. -1.
         -5    1    4    4    0  502 -0.28879464363E+02 -0.29457266522E+02  0.15520666127E+02  0.44325332372E+02  0.47000000000E+01 0. -1.
<mgrwt>
<rscale>  0 0.99957513E+03</rscale>
<asrwt>0</asrwt>
<pdfrwt beam="1">  1        1 0.62939792E-01 0.99957513E+03</pdfrwt>
<pdfrwt beam="2">  1       -1 0.93933147E-01 0.99957513E+03</pdfrwt>
<totfact> 0.76322152E+01</totfact>
</mgrwt>
</event>
<event>
 9    1  0.4236486E-036  0.9971467E+03  0.7818608E-02  0.8683760E-01
         -2   -1    0    0    0  501 -0.00000000000E+00  0.00000000000E+00  0.12329372506E+03  0.12329372506E+03  0.00000000000E+00 0. -1.
          2   -1    0    0  501    0  0.00000000000E+00 -0.00000000000E+00 -0.20161235470E+04  0.20161235470E+04  0.00000000000E+00 0. -1.
         36    2    1    2    0    0  0.00000000000E+00  0.28421709430E-13 -0.18928298220E+04  0.21394172721E+04  0.99714669390E+03 0.  0.
         25    2    3    3    0    0  0.28474782306E+02  0.13096416622E+03 -0.30590058790E+03  0.35731903770E+03  0.12704054062E+03 0.  0.
         35    2    3    3    0    0 -0.28474782306E+02 -0.13096416622E+03 -0.15869292341E+04  0.17820982344E+04  0.79972951490E+03 0.  0.
         22    1    5    5    0    0 -0.23151391619E+03 -0.35493643917E+03 -0.50763078919E+03  0.66126211699E+03  0.00000000000E+00 0.  1.
         22    1    5    5    0    0  0.20303913388E+03  0.22397227294E+03 -0.10792984449E+04  0.11208361174E+04  0.00000000000E+00 0.  1.
          5    1    4    4  502    0  0.68880312629E+02  0.11388654507E+03 -0.17999868816E+03  0.22391127787E+03  0.47000000000E+01 0. -1.
         -5    1    4    4    0  502 -0.40405530323E+02  0.17077621152E+02 -0.12590189974E+03  0.13340775983E+03  0.47000000000E+01 0. -1.
<mgrwt>
<rscale>  0 0.99714669E+03</rscale>
<asrwt>0</asrwt>
<pdfrwt beam="1">  1        2 0.31017284E+00 0.99714669E+03</pdfrwt>
<pdfrwt beam="2">  1       -2 0.18968266E-01 0.99714669E+03</pdfrwt>
<totfact> 0.17982692E+02</totfact>
</mgrwt>
</event>
<event>
 9    1  0.4236486E-036  0.1000020E+04  0.7818608E-02  0.8681019E-01
         -2   -1    0    0    0  501 -0.00000000000E+00  0.00000000000E+00  0.16574692442E+03  0.16574692442E+03  0.00000000000E+00 0. -1.
          2   -1    0    0  501    0  0.00000000000E+00 -0.00000000000E+00 -0.15083850430E+04  0.15083850430E+04  0.00000000000E+00 0. -1.
         36    2    1    2    0    0  0.28421709430E-13  0.71054273576E-14 -0.13426381186E+04  0.16741319674E+04  0.10000203632E+04 0.  0.
         25    2    3    3    0    0  0.10505661487E+03  0.17262518443E+02 -0.10100266364E+03  0.19256505243E+03  0.12467908599E+03 0.  0.
         35    2    3    3    0    0 -0.10505661487E+03 -0.17262518443E+02 -0.12416354549E+04  0.14815669150E+04  0.80127837469E+03 0.  0.
         22    1    5    5    0    0 -0.35690873404E+03  0.17412426817E+03 -0.32909870186E+03  0.51576066229E+03  0.00000000000E+00 0.  1.
         22    1    5    5    0    0  0.25185211917E+03 -0.19138678662E+03 -0.91253675305E+03  0.96580625267E+03  0.00000000000E+00 0.  1.
          5    1    4    4  502    0 -0.66392309550E+01 -0.79942496029E+00 -0.76199044683E+02  0.76636172129E+02  0.47000000000E+01 0.  1.
         -5    1    4    4    0  502  0.11169584583E+03  0.18061943404E+02 -0.24803618960E+02  0.11592888030E+03  0.47000000000E+01 0.  1.
<mgrwt>
<rscale>  0 0.10000204E+04</rscale>
<asrwt>0</asrwt>
<pdfrwt beam="1">  1        2 0.23205924E+00 0.10000204E+04</pdfrwt>
<pdfrwt beam="2">  1       -2 0.25499527E-01 0.10000204E+04</pdfrwt>
<totfact> 0.20755476E+02</totfact>
</mgrwt>
</event>
<event>
 9    1  0.4236486E-036  0.9990570E+03  0.7818608E-02  0.8681936E-01
          2   -1    0    0  501    0  0.00000000000E+00  0.00000000000E+00  0.34448203455E+03  0.34448203455E+03  0.00000000000E+00 0.  1.
         -2   -1    0    0    0  501 -0.00000000000E+00 -0.00000000000E+00 -0.72435917683E+03  0.72435917683E+03  0.00000000000E+00 0.  1.
         36    2    1    2    0    0  0.00000000000E+00  0.00000000000E+00 -0.37987714228E+03  0.10688412114E+04  0.99905700133E+03 0.  0.
         25    2    3    3    0    0  0.34495286649E+02  0.58987220164E+02  0.57174663961E+02  0.15320369343E+03  0.12463150700E+03 0.  0.
         35    2    3    3    0    0 -0.34495286649E+02 -0.58987220164E+02 -0.43705180625E+03  0.91563751795E+03  0.80169094169E+03 0.  0.
         22    1    5    5    0    0  0.38239262896E+03 -0.51975656985E+01 -0.23904541086E+03  0.45099206847E+03  0.00000000000E+00 0. -1.
         22    1    5    5    0    0 -0.41688791561E+03 -0.53789654466E+02 -0.19800639539E+03  0.46464544948E+03  0.00000000000E+00 0. -1.
          5    1    4    4  502    0  0.70580563529E+02  0.21307385981E+02 -0.23476819929E+01  0.73913613470E+02  0.47000000000E+01 0.  1.
         -5    1    4    4    0  502 -0.36085276880E+02  0.37679834183E+02  0.59522345954E+02  0.79290079956E+02  0.47000000000E+01 0.  1.
<mgrwt>
<rscale>  0 0.99905700E+03</rscale>
<asrwt>0</asrwt>
<pdfrwt beam="1">  1        2 0.52997237E-01 0.99905700E+03</pdfrwt>
<pdfrwt beam="2">  1       -2 0.11143987E+00 0.99905700E+03</pdfrwt>
<totfact> 0.70481600E+01</totfact>
</mgrwt>
</event>
<event>
 9    1  0.4236486E-036  0.1000256E+04  0.7818608E-02  0.8680794E-01
          2   -1    0    0  501    0  0.00000000000E+00  0.00000000000E+00  0.15881159080E+04  0.15881159080E+04  0.00000000000E+00 0. -1.
         -2   -1    0    0    0  501 -0.00000000000E+00 -0.00000000000E+00 -0.15749986925E+03  0.15749986925E+03  0.00000000000E+00 0. -1.
         36    2    1    2    0    0  0.00000000000E+00 -0.21316282073E-13  0.14306160387E+04  0.17456157772E+04  0.10002560629E+04 0.  0.
         25    2    3    3    0    0  0.49490030348E+02 -0.38313754274E+02  0.50937044929E+02  0.14872394383E+03  0.12492806751E+03 0.  0.
         35    2    3    3    0    0 -0.49490030348E+02  0.38313754274E+02  0.13796789938E+04  0.15968918334E+04  0.80164343369E+03 0.  0.
         22    1    5    5    0    0  0.23835809836E+02 -0.27193016795E+03  0.12006091270E+04  0.12312499494E+04  0.00000000000E+00 0.  1.
         22    1    5    5    0    0 -0.73325840184E+02  0.31024392223E+03  0.17906986675E+03  0.36564188394E+03  0.00000000000E+00 0.  1.
          5    1    4    4  502    0  0.27230718471E+02 -0.28699701079E+02 -0.38822834892E+02  0.55628116807E+02  0.47000000000E+01 0.  1.
         -5    1    4    4    0  502  0.22259311878E+02 -0.96140531945E+01  0.89759879821E+02  0.93095827026E+02  0.47000000000E+01 0.  1.
<mgrwt>
<rscale>  0 0.10002561E+04</rscale>
<asrwt>0</asrwt>
<pdfrwt beam="1">  1        2 0.24432551E+00 0.10002561E+04</pdfrwt>
<pdfrwt beam="2">  1       -2 0.24230750E-01 0.10002561E+04</pdfrwt>
<totfact> 0.20482066E+02</totfact>
</mgrwt>
</event>
<event>
 9    1  0.4236486E-036  0.9998977E+03  0.7818608E-02  0.8681135E-01
          4   -1    0    0  501    0  0.00000000000E+00  0.00000000000E+00  0.68341911149E+03  0.68341911149E+03  0.00000000000E+00 0. -1.
         -4   -1    0    0    0  501 -0.00000000000E+00 -0.00000000000E+00 -0.36573288786E+03  0.36573288786E+03  0.00000000000E+00 0. -1.
         36    2    1    2    0    0 -0.28421709430E-13  0.00000000000E+00  0.31768622363E+03  0.10491519993E+04  0.99989768529E+03 0.  0.
         25    2    3    3    0    0  0.64478560217E+02 -0.11370877744E+03  0.10081660208E+03  0.20857164848E+03  0.12747931009E+03 0.  0.
         35    2    3    3    0    0 -0.64478560217E+02  0.11370877744E+03  0.21686962155E+03  0.84058035086E+03  0.80153335720E+03 0.  0.
         22    1    5    5    0    0 -0.33115619051E+03 -0.85444837157E+02  0.34326138257E+03  0.48455507373E+03  0.00000000000E+00 0.  1.
         22    1    5    5    0    0  0.26667763029E+03  0.19915361459E+03 -0.12639176102E+03  0.35602527713E+03  0.00000000000E+00 0.  1.
          5    1    4    4  502    0 -0.40666594684E+01 -0.33386690646E+02 -0.26515471501E+02  0.43085601545E+02  0.47000000000E+01 0. -1.
         -5    1    4    4    0  502  0.68545219685E+02 -0.80322086790E+02  0.12733207358E+03  0.16548604694E+03  0.47000000000E+01 0. -1.
<mgrwt>
<rscale>  0 0.99989769E+03</rscale>
<asrwt>0</asrwt>
<pdfrwt beam="1">  1        4 0.10514140E+00 0.99989769E+03</pdfrwt>
<pdfrwt beam="2">  1       -4 0.56266598E-01 0.99989769E+03</pdfrwt>
<totfact> 0.48868486E+00</totfact>
</mgrwt>
</event>
<event>
 9    1  0.4236486E-036  0.9999033E+03  0.7818608E-02  0.8681130E-01
         -2   -1    0    0    0  501 -0.00000000000E+00  0.00000000000E+00  0.26174810669E+03  0.26174810669E+03  0.00000000000E+00 0. -1.
          2   -1    0    0  501    0  0.00000000000E+00 -0.00000000000E+00 -0.95493195469E+03  0.95493195469E+03  0.00000000000E+00 0. -1.
         36    2    1    2    0    0  0.14210854715E-13 -0.35527136788E-14 -0.69318384800E+03  0.12166800614E+04  0.99990325765E+03 0.  0.
         25    2    3    3    0    0  0.10942196588E+03  0.11451442975E+01 -0.23545326056E+03  0.28859538280E+03  0.12599436136E+03 0.  0.
         35    2    3    3    0    0 -0.10942196588E+03 -0.11451442975E+01 -0.45773058744E+03  0.92808467858E+03  0.79990587069E+03 0.  0.
         22    1    5    5    0    0  0.76475838280E+02 -0.24789949314E+02  0.21510652334E+03  0.22963865487E+03  0.00000000000E+00 0. -1.
         22    1    5    5    0    0 -0.18589780416E+03  0.23644805017E+02 -0.67283711078E+03  0.69844602371E+03  0.00000000000E+00 0. -1.
          5    1    4    4  502    0  0.77404783149E+02  0.47115374547E+02 -0.72275932957E+02  0.11600542857E+03  0.47000000000E+01 0. -1.
         -5    1    4    4    0  502  0.32017182733E+02 -0.45970230249E+02 -0.16317732760E+03  0.17258995423E+03  0.47000000000E+01 0. -1.
<mgrwt>
<rscale>  0 0.99990326E+03</rscale>
<asrwt>0</asrwt>
<pdfrwt beam="1">  1        2 0.14691261E+00 0.99990326E+03</pdfrwt>
<pdfrwt beam="2">  1       -2 0.40268940E-01 0.99990326E+03</pdfrwt>
<totfact> 0.19020253E+02</totfact>
</mgrwt>
</event>
<event>
 9    1  0.4236486E-036  0.9998799E+03  0.7818608E-02  0.8681152E-01
         -2   -1    0    0    0  501 -0.00000000000E+00  0.00000000000E+00  0.32683013683E+03  0.32683013683E+03  0.00000000000E+00 0.  1.
          2   -1    0    0  501    0  0.00000000000E+00 -0.00000000000E+00 -0.76473964455E+03  0.76473964455E+03  0.00000000000E+00 0.  1.
         36    2    1    2    0    0  0.00000000000E+00 -0.14210854715E-13 -0.43790950772E+03  0.10915697814E+04  0.99987991812E+03 0.  0.
         25    2    3    3    0    0 -0.76783846194E+02 -0.61924375173E+02 -0.19212032324E+03  0.24951443909E+03  0.12496739348E+03 0.  0.
         35    2    3    3    0    0  0.76783846194E+02  0.61924375173E+02 -0.24578918447E+03  0.84205534229E+03  0.79932126770E+03 0.  0.
         22    1    5    5    0    0 -0.30080233332E+03 -0.21588591951E+02 -0.32919692643E+03  0.44645125983E+03  0.00000000000E+00 0. -1.
         22    1    5    5    0    0  0.37758617951E+03  0.83512967123E+02  0.83407741955E+02  0.39560408246E+03  0.00000000000E+00 0. -1.
          5    1    4    4  502    0 -0.60285292115E+02 -0.16959191767E+02 -0.13119981695E+02  0.64157264207E+02  0.47000000000E+01 0. -1.
         -5    1    4    4    0  502 -0.16498554078E+02 -0.44965183406E+02 -0.17900034155E+03  0.18535717488E+03  0.47000000000E+01 0. -1.
<mgrwt>
<rscale>  0 0.99987992E+03</rscale>
<asrwt>0</asrwt>
<pdfrwt beam="1">  1        2 0.11765225E+00 0.99987992E+03</pdfrwt>
<pdfrwt beam="2">  1       -2 0.50281560E-01 0.99987992E+03</pdfrwt>
<totfact> 0.16554833E+02</totfact>
</mgrwt>
</event>
<event>
 9    1  0.4236486E-036  0.1002150E+04  0.7818608E-02  0.8678993E-01
         -2   -1    0    0    0  501 -0.00000000000E+00  0.00000000000E+00  0.18718319363E+03  0.18718319363E+03  0.00000000000E+00 0. -1.
          2   -1    0    0  501    0  0.00000000000E+00 -0.00000000000E+00 -0.13413405137E+04  0.13413405137E+04  0.00000000000E+00 0. -1.
         36    2    1    2    0    0  0.00000000000E+00  0.00000000000E+00 -0.11541573200E+04  0.15285237073E+04  0.10021504899E+04 0.  0.
         25    2    3    3    0    0 -0.12665667450E+03  0.63435486120E+02 -0.23670638622E+03  0.30304615149E+03  0.12546347100E+03 0.  0.
         35    2    3    3    0    0  0.12665667450E+03 -0.63435486120E+02 -0.91745093383E+03  0.12254775558E+04  0.80000815604E+03 0.  0.
         22    1    5    5    0    0 -0.11846590190E+03 -0.89313466251E+02  0.99790617322E+02  0.17879941966E+03  0.00000000000E+00 0. -1.
         22    1    5    5    0    0  0.24512257640E+03  0.25877980131E+02 -0.10172415511E+04  0.10466781362E+04  0.00000000000E+00 0. -1.
          5    1    4    4  502    0 -0.12010474886E+02 -0.34956014857E+02 -0.36195857450E+02  0.51946170005E+02  0.47000000000E+01 0.  1.
         -5    1    4    4    0  502 -0.11464619962E+03  0.98391500977E+02 -0.20051052877E+03  0.25109998148E+03  0.47000000000E+01 0.  1.
<mgrwt>
<rscale>  0 0.10021505E+04</rscale>
<asrwt>0</asrwt>
<pdfrwt beam="1">  1        2 0.20636007E+00 0.10021505E+04</pdfrwt>
<pdfrwt beam="2">  1       -2 0.28797416E-01 0.10021505E+04</pdfrwt>
<totfact> 0.20775876E+02</totfact>
</mgrwt>
</event>
<event>
 9    1  0.4236486E-036  0.9996755E+03  0.7818608E-02  0.8681347E-01
         -1   -1    0    0    0  501 -0.00000000000E+00  0.00000000000E+00  0.14501050910E+04  0.14501050910E+04  0.00000000000E+00 0.  1.
          1   -1    0    0  501    0  0.00000000000E+00 -0.00000000000E+00 -0.17228942554E+03  0.17228942554E+03  0.00000000000E+00 0.  1.
         36    2    1    2    0    0  0.14210854715E-13  0.00000000000E+00  0.12778156655E+04  0.16223945166E+04  0.99967549355E+03 0.  0.
         25    2    3    3    0    0  0.54488864322E+02  0.63342046137E+02  0.56350960805E+02  0.15986778012E+03  0.12410086701E+03 0.  0.
         35    2    3    3    0    0 -0.54488864322E+02 -0.63342046137E+02  0.12214647047E+04  0.14625267365E+04  0.80001698662E+03 0.  0.
         22    1    5    5    0    0 -0.41329449698E+03 -0.92204219142E+02  0.82297023557E+03  0.92552361822E+03  0.00000000000E+00 0. -1.
         22    1    5    5    0    0  0.35880563266E+03  0.28862173006E+02  0.39849446913E+03  0.53700311823E+03  0.00000000000E+00 0. -1.
          5    1    4    4  502    0  0.63833559197E+02 -0.20150836375E+01  0.67165440753E+02  0.92801240689E+02  0.47000000000E+01 0. -1.
         -5    1    4    4    0  502 -0.93446948749E+01  0.65357129774E+02 -0.10814479948E+02  0.67066539430E+02  0.47000000000E+01 0. -1.
<mgrwt>
<rscale>  0 0.99967549E+03</rscale>
<asrwt>0</asrwt>
<pdfrwt beam="1">  1        1 0.26506066E-01 0.99967549E+03</pdfrwt>
<pdfrwt beam="2">  1       -1 0.22309308E+00 0.99967549E+03</pdfrwt>
<totfact> 0.17804079E+01</totfact>
</mgrwt>
</event>
<event>
 9    1  0.4236486E-036  0.1000152E+04  0.7818608E-02  0.8680894E-01
          2   -1    0    0  501    0  0.00000000000E+00  0.00000000000E+00  0.16403147511E+04  0.16403147511E+04  0.00000000000E+00 0. -1.
         -2   -1    0    0    0  501 -0.00000000000E+00 -0.00000000000E+00 -0.15245598797E+03  0.15245598797E+03  0.00000000000E+00 0. -1.
         36    2    1    2    0    0  0.00000000000E+00 -0.35527136788E-13  0.14878587631E+04  0.17927707390E+04  0.10001516004E+04 0.  0.
         25    2    3    3    0    0 -0.96845905886E+02 -0.98826405625E+01  0.45643315014E+03  0.48317630383E+03  0.12510525154E+03 0.  0.
         35    2    3    3    0    0  0.96845905886E+02  0.98826405625E+01  0.10314256129E+04  0.13095944352E+04  0.80107552303E+03 0.  0.
         22    1    5    5    0    0 -0.14717513615E+03 -0.33435843899E+03  0.33697109782E+03  0.49699658670E+03  0.00000000000E+00 0. -1.
         22    1    5    5    0    0  0.24402104204E+03  0.34424107955E+03  0.69445451512E+03  0.81259784850E+03  0.00000000000E+00 0. -1.
          5    1    4    4  502    0 -0.50681981253E+02 -0.64454152124E+02  0.18426080948E+03  0.20173531387E+03  0.47000000000E+01 0. -1.
         -5    1    4    4    0  502 -0.46163924633E+02  0.54571511561E+02  0.27217234066E+03  0.28144098997E+03  0.47000000000E+01 0. -1.
<mgrwt>
<rscale>  0 0.10001516E+04</rscale>
<asrwt>0</asrwt>
<pdfrwt beam="1">  1        2 0.25235610E+00 0.10001516E+04</pdfrwt>
<pdfrwt beam="2">  1       -2 0.23454768E-01 0.10001516E+04</pdfrwt>
<totfact> 0.20271950E+02</totfact>
</mgrwt>
</event>
<event>
 9    1  0.4236486E-036  0.1000965E+04  0.7818608E-02  0.8680120E-01
         -1   -1    0    0    0  501 -0.00000000000E+00  0.00000000000E+00  0.11287085652E+03  0.11287085652E+03  0.00000000000E+00 0. -1.
          1   -1    0    0  501    0  0.00000000000E+00 -0.00000000000E+00 -0.22191961740E+04  0.22191961740E+04  0.00000000000E+00 0. -1.
         36    2    1    2    0    0 -0.14210854715E-13  0.28421709430E-13 -0.21063253175E+04  0.23320670306E+04  0.10009646806E+04 0.  0.
         25    2    3    3    0    0 -0.18113572777E+01 -0.14065181230E+03 -0.36573610596E+03  0.41138464148E+03  0.12525258771E+03 0.  0.
         35    2    3    3    0    0  0.18113572777E+01  0.14065181230E+03 -0.17405892116E+04  0.19206823891E+04  0.79973984707E+03 0.  0.
         22    1    5    5    0    0  0.14750721426E+03  0.41136528043E+03 -0.13762522255E+04  0.14439702076E+04  0.00000000000E+00 0.  1.
         22    1    5    5    0    0 -0.14569585698E+03 -0.27071346813E+03 -0.36433698606E+03  0.47671218149E+03  0.00000000000E+00 0.  1.
          5    1    4    4  502    0  0.51483469359E+02 -0.43444230851E+02 -0.78997916052E+02  0.10392646223E+03  0.47000000000E+01 0.  1.
         -5    1    4    4    0  502 -0.53294826637E+02 -0.97207581447E+02 -0.28673818991E+03  0.30745817925E+03  0.47000000000E+01 0.  1.
<mgrwt>
<rscale>  0 0.10009647E+04</rscale>
<asrwt>0</asrwt>
<pdfrwt beam="1">  1        1 0.34141478E+00 0.10009647E+04</pdfrwt>
<pdfrwt beam="2">  1       -1 0.17364748E-01 0.10009647E+04</pdfrwt>
<totfact> 0.56379792E+01</totfact>
</mgrwt>
</event>
<event>
 9    1  0.4236486E-036  0.9996752E+03  0.7818608E-02  0.8681347E-01
          2   -1    0    0  501    0  0.00000000000E+00  0.00000000000E+00  0.11447144511E+04  0.11447144511E+04  0.00000000000E+00 0.  1.
         -2   -1    0    0    0  501 -0.00000000000E+00 -0.00000000000E+00 -0.21825321186E+03  0.21825321186E+03  0.00000000000E+00 0.  1.
         36    2    1    2    0    0 -0.71054273576E-14 -0.71054273576E-14  0.92646123929E+03  0.13629676630E+04  0.99967515849E+03 0.  0.
         25    2    3    3    0    0 -0.37519084267E+02  0.35598479606E+01 -0.91349157875E+01  0.13115177719E+03  0.12528762018E+03 0.  0.
         35    2    3    3    0    0  0.37519084267E+02 -0.35598479606E+01  0.93559615507E+03  0.12318158858E+04  0.80038106984E+03 0.  0.
         22    1    5    5    0    0 -0.16496290947E+03  0.17007289713E+03 -0.21821777154E+02  0.23793642386E+03  0.00000000000E+00 0.  1.
         22    1    5    5    0    0  0.20248199374E+03 -0.17363274509E+03  0.95741793223E+03  0.99387946196E+03  0.00000000000E+00 0.  1.
          5    1    4    4  502    0 -0.40613160663E+02 -0.33976300869E+02 -0.51677812276E+02  0.74138411916E+02  0.47000000000E+01 0.  1.
         -5    1    4    4    0  502  0.30940763956E+01  0.37536148830E+02  0.42542896489E+02  0.57013365270E+02  0.47000000000E+01 0.  1.
<mgrwt>
<rscale>  0 0.99967516E+03</rscale>
<asrwt>0</asrwt>
<pdfrwt beam="1">  1        2 0.17610991E+00 0.99967516E+03</pdfrwt>
<pdfrwt beam="2">  1       -2 0.33577418E-01 0.99967516E+03</pdfrwt>
<totfact> 0.20449283E+02</totfact>
</mgrwt>
</event>
<event>
 9    1  0.4236486E-036  0.1000208E+04  0.7818608E-02  0.8680840E-01
          2   -1    0    0  501    0  0.00000000000E+00  0.00000000000E+00  0.80631346071E+03  0.80631346071E+03  0.00000000000E+00 0.  1.
         -2   -1    0    0    0  501 -0.00000000000E+00 -0.00000000000E+00 -0.31018221144E+03  0.31018221144E+03  0.00000000000E+00 0.  1.
         36    2    1    2    0    0 -0.71054273576E-13  0.00000000000E+00  0.49613124926E+03  0.11164956722E+04  0.10002081631E+04 0.  0.
         25    2    3    3    0    0 -0.12537020925E+03 -0.49714261160E+02  0.14924119959E+03  0.23492656912E+03  0.12136045522E+03 0.  0.
         35    2    3    3    0    0  0.12537020925E+03  0.49714261160E+02  0.34689004967E+03  0.88156910303E+03  0.79915091174E+03 0.  0.
         22    1    5    5    0    0  0.40970109995E+03  0.40722981011E+02  0.41969620523E+03  0.58792708490E+03  0.00000000000E+00 0.  1.
         22    1    5    5    0    0 -0.28433089070E+03  0.89912801486E+01 -0.72806155555E+02  0.29364201813E+03  0.00000000000E+00 0.  1.
          5    1    4    4  502    0 -0.89115494977E+01 -0.34998693141E+02 -0.93137349895E+01  0.37592019040E+02  0.47000000000E+01 0.  1.
         -5    1    4    4    0  502 -0.11645865975E+03 -0.14715568019E+02  0.15855493458E+03  0.19733455008E+03  0.47000000000E+01 0.  1.
<mgrwt>
<rscale>  0 0.10002082E+04</rscale>
<asrwt>0</asrwt>
<pdfrwt beam="1">  1        2 0.12404822E+00 0.10002082E+04</pdfrwt>
<pdfrwt beam="2">  1       -2 0.47720341E-01 0.10002082E+04</pdfrwt>
<totfact> 0.17166519E+02</totfact>
</mgrwt>
</event>
<event>
 9    1  0.4236486E-036  0.9992474E+03  0.7818608E-02  0.8681755E-01
          2   -1    0    0  501    0  0.00000000000E+00  0.00000000000E+00  0.10265440855E+04  0.10265440855E+04  0.00000000000E+00 0.  1.
         -2   -1    0    0    0  501 -0.00000000000E+00 -0.00000000000E+00 -0.24316913820E+03  0.24316913820E+03  0.00000000000E+00 0.  1.
         36    2    1    2    0    0  0.14210854715E-13 -0.71054273576E-14  0.78337494733E+03  0.12697132237E+04  0.99924739801E+03 0.  0.
         25    2    3    3    0    0 -0.77207829663E+02  0.23066225863E+02  0.60453193569E+00  0.14769775327E+03  0.12377867800E+03 0.  0.
         35    2    3    3    0    0  0.77207829663E+02 -0.23066225863E+02  0.78277041540E+03  0.11220154705E+04  0.79981003558E+03 0.  0.
         22    1    5    5    0    0  0.31760727237E+03 -0.47582911645E+02  0.81709606333E+03  0.87794332941E+03  0.00000000000E+00 0. -1.
         22    1    5    5    0    0 -0.24039944270E+03  0.24516685782E+02 -0.34325647935E+02  0.24407214106E+03  0.00000000000E+00 0. -1.
          5    1    4    4  502    0 -0.30655513412E+02 -0.50162656334E+02 -0.11104401359E+02  0.60012084804E+02  0.47000000000E+01 0.  1.
         -5    1    4    4    0  502 -0.46552316251E+02  0.73228882197E+02  0.11708933295E+02  0.87685668470E+02  0.47000000000E+01 0.  1.
<mgrwt>
<rscale>  0 0.99924740E+03</rscale>
<asrwt>0</asrwt>
<pdfrwt beam="1">  1        2 0.15792986E+00 0.99924740E+03</pdfrwt>
<pdfrwt beam="2">  1       -2 0.37410637E-01 0.99924740E+03</pdfrwt>
<totfact> 0.19719377E+02</totfact>
</mgrwt>
</event>
<event>
 9    1  0.4236486E-036  0.9987997E+03  0.7818608E-02  0.8682182E-01
         -2   -1    0    0    0  501 -0.00000000000E+00  0.00000000000E+00  0.22831687208E+03  0.22831687208E+03  0.00000000000E+00 0. -1.
          2   -1    0    0  501    0  0.00000000000E+00 -0.00000000000E+00 -0.10923424832E+04  0.10923424832E+04  0.00000000000E+00 0. -1.
         36    2    1    2    0    0  0.00000000000E+00  0.35527136788E-14 -0.86402561115E+03  0.13206593553E+04  0.99879971768E+03 0.  0.
         25    2    3    3    0    0 -0.14096261360E+03  0.78033454487E+01 -0.18287006935E+03  0.26101867715E+03  0.12148224941E+03 0.  0.
         35    2    3    3    0    0  0.14096261360E+03 -0.78033454487E+01 -0.68115554180E+03  0.10596406782E+04  0.79933356245E+03 0.  0.
         22    1    5    5    0    0  0.37324144323E+03 -0.91413076314E+02 -0.71375976343E+03  0.81062847554E+03  0.00000000000E+00 0.  1.
         22    1    5    5    0    0 -0.23227882963E+03  0.83609730866E+02  0.32604221628E+02  0.24901220263E+03  0.00000000000E+00 0.  1.
          5    1    4    4  502    0  0.20187894210E+01  0.34797156618E+02 -0.13485356169E+02  0.37667790623E+02  0.47000000000E+01 0. -1.
         -5    1    4    4    0  502 -0.14298140302E+03 -0.26993811169E+02 -0.16938471318E+03  0.22335088652E+03  0.47000000000E+01 0. -1.
<mgrwt>
<rscale>  0 0.99879972E+03</rscale>
<asrwt>0</asrwt>
<pdfrwt beam="1">  1        2 0.16805269E+00 0.99879972E+03</pdfrwt>
<pdfrwt beam="2">  1       -2 0.35125673E-01 0.99879972E+03</pdfrwt>
<totfact> 0.20222921E+02</totfact>
</mgrwt>
</event>
<event>
 9    1  0.4236486E-036  0.1002066E+04  0.7818608E-02  0.8679073E-01
          1   -1    0    0  501    0  0.00000000000E+00  0.00000000000E+00  0.14515572162E+04  0.14515572162E+04  0.00000000000E+00 0.  1.
         -1   -1    0    0    0  501 -0.00000000000E+00 -0.00000000000E+00 -0.17294127600E+03  0.17294127600E+03  0.00000000000E+00 0.  1.
         36    2    1    2    0    0  0.28421709430E-13 -0.14210854715E-13  0.12786159402E+04  0.16244984922E+04  0.10020661798E+04 0.  0.
         25    2    3    3    0    0  0.82717031283E+02 -0.10988407296E+03  0.30322006646E+03  0.35550615685E+03  0.12460177405E+03 0.  0.
         35    2    3    3    0    0 -0.82717031283E+02  0.10988407296E+03  0.97539587375E+03  0.12689923354E+04  0.80001738725E+03 0.  0.
         22    1    5    5    0    0 -0.35833286615E+03 -0.18467825100E+03  0.41561670812E+03  0.57900409966E+03  0.00000000000E+00 0.  1.
         22    1    5    5    0    0  0.27561583487E+03  0.29456232396E+03  0.55977916563E+03  0.68998823570E+03  0.00000000000E+00 0.  1.
          5    1    4    4  502    0 -0.16996934230E+02 -0.13478729743E+02  0.17509874681E+00  0.22196679668E+02  0.47000000000E+01 0. -1.
         -5    1    4    4    0  502  0.99713965513E+02 -0.96405343219E+02  0.30304496772E+03  0.33330947718E+03  0.47000000000E+01 0. -1.
<mgrwt>
<rscale>  0 0.10020662E+04</rscale>
<asrwt>0</asrwt>
<pdfrwt beam="1">  1        1 0.22331649E+00 0.10020662E+04</pdfrwt>
<pdfrwt beam="2">  1       -1 0.26606351E-01 0.10020662E+04</pdfrwt>
<totfact> 0.96343084E+01</totfact>
</mgrwt>
</event>
<event>
 9    1  0.4236486E-036  0.9995357E+03  0.7818608E-02  0.8681480E-01
         -2   -1    0    0    0  501 -0.00000000000E+00  0.00000000000E+00  0.24982506867E+03  0.24982506867E+03  0.00000000000E+00 0.  1.
          2   -1    0    0  501    0  0.00000000000E+00 -0.00000000000E+00 -0.99977127859E+03  0.99977127859E+03  0.00000000000E+00 0.  1.
         36    2    1    2    0    0 -0.35527136788E-14 -0.28421709430E-13 -0.74994620992E+03  0.12495963473E+04  0.99953574889E+03 0.  0.
         25    2    3    3    0    0 -0.20048200210E+02 -0.14013304853E+03 -0.13747043764E+03  0.23358787143E+03  0.12500388328E+03 0.  0.
         35    2    3    3    0    0  0.20048200210E+02  0.14013304853E+03 -0.61247577228E+03  0.10160084758E+04  0.79819010874E+03 0.  0.
         22    1    5    5    0    0  0.18490030722E+03  0.11425029134E+03  0.13117411451E+03  0.25386591145E+03  0.00000000000E+00 0. -1.
         22    1    5    5    0    0 -0.16485210701E+03  0.25882757186E+02 -0.74364988679E+03  0.76214256437E+03  0.00000000000E+00 0. -1.
          5    1    4    4  502    0  0.17763160096E+02 -0.12291794112E+03 -0.14513797672E+03  0.19107975401E+03  0.47000000000E+01 0. -1.
         -5    1    4    4    0  502 -0.37811360306E+02 -0.17215107408E+02  0.76675390817E+01  0.42508117423E+02  0.47000000000E+01 0. -1.
<mgrwt>
<rscale>  0 0.99953575E+03</rscale>
<asrwt>0</asrwt>
<pdfrwt beam="1">  1        2 0.15381097E+00 0.99953575E+03</pdfrwt>
<pdfrwt beam="2">  1       -2 0.38434626E-01 0.99953575E+03</pdfrwt>
<totfact> 0.19471904E+02</totfact>
</mgrwt>
</event>
<event>
 9    1  0.4236486E-036  0.1000532E+04  0.7818608E-02  0.8680531E-01
          1   -1    0    0  501    0  0.00000000000E+00  0.00000000000E+00  0.80773072815E+03  0.80773072815E+03  0.00000000000E+00 0.  1.
         -1   -1    0    0    0  501 -0.00000000000E+00 -0.00000000000E+00 -0.30983863656E+03  0.30983863656E+03  0.00000000000E+00 0.  1.
         36    2    1    2    0    0  0.28421709430E-13  0.00000000000E+00  0.49789209159E+03  0.11175693647E+04  0.10005322334E+04 0.  0.
         25    2    3    3    0    0 -0.12866844080E+03 -0.44372325535E+02  0.76548974930E+02  0.20285973668E+03  0.12949075747E+03 0.  0.
         35    2    3    3    0    0  0.12866844080E+03  0.44372325535E+02  0.42134311666E+03  0.91470962802E+03  0.80039940699E+03 0.  0.
         22    1    5    5    0    0 -0.33298838562E+03 -0.58917333137E+02  0.15754094945E+03  0.37305719113E+03  0.00000000000E+00 0.  1.
         22    1    5    5    0    0  0.46165682642E+03  0.10328965867E+03  0.26380216722E+03  0.54165243690E+03  0.00000000000E+00 0.  1.
          5    1    4    4  502    0 -0.92032437106E+02  0.46751379358E+01 -0.14132457184E+02  0.93346894648E+02  0.47000000000E+01 0. -1.
         -5    1    4    4    0  502 -0.36636003698E+02 -0.49047463470E+02  0.90681432114E+02  0.10951284203E+03  0.47000000000E+01 0. -1.
<mgrwt>
<rscale>  0 0.10005322E+04</rscale>
<asrwt>0</asrwt>
<pdfrwt beam="1">  1        1 0.12426627E+00 0.10005322E+04</pdfrwt>
<pdfrwt beam="2">  1       -1 0.47667483E-01 0.10005322E+04</pdfrwt>
<totfact> 0.10887903E+02</totfact>
</mgrwt>
</event>
<event>
 9    1  0.4236486E-036  0.9991059E+03  0.7818608E-02  0.8681890E-01
          1   -1    0    0  501    0  0.00000000000E+00  0.00000000000E+00  0.34055643242E+03  0.34055643242E+03  0.00000000000E+00 0.  1.
         -1   -1    0    0    0  501 -0.00000000000E+00 -0.00000000000E+00 -0.73278057155E+03  0.73278057155E+03  0.00000000000E+00 0.  1.
         36    2    1    2    0    0  0.14210854715E-13  0.71054273576E-14 -0.39222413913E+03  0.10733370040E+04  0.99910587465E+03 0.  0.
         25    2    3    3    0    0  0.11608803554E+03 -0.33233036947E+02 -0.14029156937E+03  0.22611502009E+03  0.12986689776E+03 0.  0.
         35    2    3    3    0    0 -0.11608803554E+03  0.33233036947E+02 -0.25193256976E+03  0.84722198388E+03  0.79983385995E+03 0.  0.
         22    1    5    5    0    0 -0.82713166597E+02 -0.37788545205E+03 -0.57002074305E+02  0.39100910382E+03  0.00000000000E+00 0. -1.
         22    1    5    5    0    0 -0.33374868943E+02  0.41111848899E+03 -0.19493049546E+03  0.45621288006E+03  0.00000000000E+00 0. -1.
          5    1    4    4  502    0 -0.20504112395E+02 -0.40554307702E+01  0.75121949403E+01  0.22702163259E+02  0.47000000000E+01 0.  1.
         -5    1    4    4    0  502  0.13659214794E+03 -0.29177606176E+02 -0.14780376431E+03  0.20341285683E+03  0.47000000000E+01 0.  1.
<mgrwt>
<rscale>  0 0.99910587E+03</rscale>
<asrwt>0</asrwt>
<pdfrwt beam="1">  1        1 0.52393298E-01 0.99910587E+03</pdfrwt>
<pdfrwt beam="2">  1       -1 0.11273547E+00 0.99910587E+03</pdfrwt>
<totfact> 0.64306816E+01</totfact>
</mgrwt>
</event>
<event>
 9    1  0.4236486E-036  0.1000398E+04  0.7818608E-02  0.8680659E-01
          2   -1    0    0  501    0  0.00000000000E+00  0.00000000000E+00  0.58878731621E+03  0.58878731621E+03  0.00000000000E+00 0.  1.
         -2   -1    0    0    0  501 -0.00000000000E+00 -0.00000000000E+00 -0.42493955937E+03  0.42493955937E+03  0.00000000000E+00 0.  1.
         36    2    1    2    0    0  0.00000000000E+00 -0.28421709430E-13  0.16384775684E+03  0.10137268756E+04  0.10003979662E+04 0.  0.
         25    2    3    3    0    0 -0.10464156688E+03 -0.77618137116E+02 -0.22463101092E+02  0.18180159059E+03  0.12479100409E+03 0.  0.
         35    2    3    3    0    0  0.10464156688E+03  0.77618137116E+02  0.18631085793E+03  0.83192528499E+03  0.80025840283E+03 0.  0.
         22    1    5    5    0    0  0.16241406929E+03  0.40353920176E+03 -0.30778660338E+02  0.43608433037E+03  0.00000000000E+00 0. -1.
         22    1    5    5    0    0 -0.57772502408E+02 -0.32592106464E+03  0.21708951827E+03  0.39584095462E+03  0.00000000000E+00 0. -1.
          5    1    4    4  502    0  0.20746459716E+02  0.71330621395E+01 -0.20470955970E+02  0.30371799495E+02  0.47000000000E+01 0.  1.
         -5    1    4    4    0  502 -0.12538802660E+03 -0.84751199256E+02 -0.19921451220E+01  0.15142979110E+03  0.47000000000E+01 0.  1.
<mgrwt>
<rscale>  0 0.10003980E+04</rscale>
<asrwt>0</asrwt>
<pdfrwt beam="1">  1        2 0.90582665E-01 0.10003980E+04</pdfrwt>
<pdfrwt beam="2">  1       -2 0.65375316E-01 0.10003980E+04</pdfrwt>
<totfact> 0.13237592E+02</totfact>
</mgrwt>
</event>
<event>
 9    1  0.4236486E-036  0.1000387E+04  0.7818608E-02  0.8680670E-01
          2   -1    0    0  501    0  0.00000000000E+00  0.00000000000E+00  0.39880657429E+03  0.39880657429E+03  0.00000000000E+00 0. -1.
         -2   -1    0    0    0  501 -0.00000000000E+00 -0.00000000000E+00 -0.62735512435E+03  0.62735512435E+03  0.00000000000E+00 0. -1.
         36    2    1    2    0    0  0.14210854715E-13  0.00000000000E+00 -0.22854855006E+03  0.10261616986E+04  0.10003866213E+04 0.  0.
         25    2    3    3    0    0  0.12729911029E+03 -0.52442060709E+02 -0.26452952953E+02  0.18891065934E+03  0.12661850291E+03 0.  0.
         35    2    3    3    0    0 -0.12729911029E+03  0.52442060709E+02 -0.20209559710E+03  0.83725103931E+03  0.80074430328E+03 0.  0.
         22    1    5    5    0    0 -0.11263674638E+03 -0.48185952763E+02  0.30047760027E+03  0.32449300599E+03  0.00000000000E+00 0. -1.
         22    1    5    5    0    0 -0.14662363913E+02  0.10062801347E+03 -0.50257319737E+03  0.51275803331E+03  0.00000000000E+00 0. -1.
          5    1    4    4  502    0  0.40788155873E+02  0.41721573661E+02 -0.15092081867E+02  0.60450180342E+02  0.47000000000E+01 0.  1.
         -5    1    4    4    0  502  0.86510954416E+02 -0.94163634370E+02 -0.11360871086E+02  0.12846047899E+03  0.47000000000E+01 0.  1.
<mgrwt>
<rscale>  0 0.10003866E+04</rscale>
<asrwt>0</asrwt>
<pdfrwt beam="1">  1        2 0.61354858E-01 0.10003866E+04</pdfrwt>
<pdfrwt beam="2">  1       -2 0.96516172E-01 0.10003866E+04</pdfrwt>
<totfact> 0.85325596E+01</totfact>
</mgrwt>
</event>
<event>
 9    1  0.4236486E-036  0.1005686E+04  0.7818608E-02  0.8675642E-01
         -2   -1    0    0    0  501 -0.00000000000E+00  0.00000000000E+00  0.13085392451E+03  0.13085392451E+03  0.00000000000E+00 0. -1.
          2   -1    0    0  501    0  0.00000000000E+00 -0.00000000000E+00 -0.19323150835E+04  0.19323150835E+04  0.00000000000E+00 0. -1.
         36    2    1    2    0    0  0.71054273576E-14  0.00000000000E+00 -0.18014611590E+04  0.20631690080E+04  0.10056858596E+04 0.  0.
         25    2    3    3    0    0 -0.15756605684E+01 -0.87533960276E+02 -0.58563740194E+03  0.60518159745E+03  0.12493567320E+03 0.  0.
         35    2    3    3    0    0  0.15756605684E+01  0.87533960276E+02 -0.12158237570E+04  0.14579874105E+04  0.79989699601E+03 0.  0.
         22    1    5    5    0    0  0.47015258326E+02  0.93382345967E+02  0.98039071540E+02  0.14332604998E+03  0.00000000000E+00 0.  1.
         22    1    5    5    0    0 -0.45439597757E+02 -0.58483856912E+01 -0.13138628286E+04  0.13146613606E+04  0.00000000000E+00 0.  1.
          5    1    4    4  502    0 -0.31185675876E+02 -0.93385005954E+02 -0.25904308211E+03  0.27716189151E+03  0.47000000000E+01 0.  1.
         -5    1    4    4    0  502  0.29610015307E+02  0.58510456782E+01 -0.32659431983E+03  0.32801970594E+03  0.47000000000E+01 0.  1.
<mgrwt>
<rscale>  0 0.10056859E+04</rscale>
<asrwt>0</asrwt>
<pdfrwt beam="1">  1        2 0.29727924E+00 0.10056859E+04</pdfrwt>
<pdfrwt beam="2">  1       -2 0.20131373E-01 0.10056859E+04</pdfrwt>
<totfact> 0.18108982E+02</totfact>
</mgrwt>
</event>
<event>
 9    1  0.4236486E-036  0.9995456E+03  0.7818608E-02  0.8681471E-01
          2   -1    0    0  501    0  0.00000000000E+00  0.00000000000E+00  0.44655243447E+03  0.44655243447E+03  0.00000000000E+00 0. -1.
         -2   -1    0    0    0  501 -0.00000000000E+00 -0.00000000000E+00 -0.55933604970E+03  0.55933604970E+03  0.00000000000E+00 0. -1.
         36    2    1    2    0    0  0.28421709430E-13 -0.71054273576E-14 -0.11278361523E+03  0.10058884842E+04  0.99954564614E+03 0.  0.
         25    2    3    3    0    0  0.13739000123E+03 -0.12675811862E+02 -0.43458189634E+02  0.19144015693E+03  0.12539549750E+03 0.  0.
         35    2    3    3    0    0 -0.13739000123E+03  0.12675811862E+02 -0.69325425596E+02  0.81444832724E+03  0.79967704386E+03 0.  0.
         22    1    5    5    0    0  0.28422919550E+03  0.16032796547E+03 -0.15223698032E+03  0.36009358542E+03  0.00000000000E+00 0.  1.
         22    1    5    5    0    0 -0.42161919673E+03 -0.14765215361E+03  0.82911554721E+02  0.45435474182E+03  0.00000000000E+00 0.  1.
          5    1    4    4  502    0  0.83043014462E+02  0.49422255474E+02 -0.49283350374E+02  0.10858010965E+03  0.47000000000E+01 0. -1.
         -5    1    4    4    0  502  0.54346986767E+02 -0.62098067336E+02  0.58251607397E+01  0.82860047279E+02  0.47000000000E+01 0. -1.
<mgrwt>
<rscale>  0 0.99954565E+03</rscale>
<asrwt>0</asrwt>
<pdfrwt beam="1">  1        2 0.68700375E-01 0.99954565E+03</pdfrwt>
<pdfrwt beam="2">  1       -2 0.86051699E-01 0.99954565E+03</pdfrwt>
<totfact> 0.98502580E+01</totfact>
</mgrwt>
</event>
<event>
 9    1  0.4236486E-036  0.9976627E+03  0.7818608E-02  0.8683267E-01
          1   -1    0    0  501    0  0.00000000000E+00  0.00000000000E+00  0.37605636313E+03  0.37605636313E+03  0.00000000000E+00 0. -1.
         -1   -1    0    0    0  501 -0.00000000000E+00 -0.00000000000E+00 -0.66168993803E+03  0.66168993803E+03  0.00000000000E+00 0. -1.
         36    2    1    2    0    0  0.00000000000E+00 -0.14210854715E-13 -0.28563357491E+03  0.10377463012E+04  0.99766269173E+03 0.  0.
         25    2    3    3    0    0  0.10717418308E+03  0.69646934994E+02 -0.11580871879E+03  0.21087407788E+03  0.12132277734E+03 0.  0.
         35    2    3    3    0    0 -0.10717418308E+03 -0.69646934994E+02 -0.16982485612E+03  0.82687222328E+03  0.79908709839E+03 0.  0.
         22    1    5    5    0    0 -0.32118450479E+02  0.12183846790E+03 -0.45677091332E+03  0.47383106101E+03  0.00000000000E+00 0.  1.
         22    1    5    5    0    0 -0.75055732602E+02 -0.19148540290E+03  0.28694605720E+03  0.35304116228E+03  0.00000000000E+00 0.  1.
          5    1    4    4  502    0 -0.67468791569E+01  0.39913068896E+02  0.62410336619E+01  0.41226374425E+02  0.47000000000E+01 0.  1.
         -5    1    4    4    0  502  0.11392106224E+03  0.29733866098E+02 -0.12204975245E+03  0.16964770346E+03  0.47000000000E+01 0.  1.
<mgrwt>
<rscale>  0 0.99766269E+03</rscale>
<asrwt>0</asrwt>
<pdfrwt beam="1">  1        1 0.57854825E-01 0.99766269E+03</pdfrwt>
<pdfrwt beam="2">  1       -1 0.10179845E+00 0.99766269E+03</pdfrwt>
<totfact> 0.71467458E+01</totfact>
</mgrwt>
</event>
<event>
 9    1  0.4236486E-036  0.1000071E+04  0.7818608E-02  0.8680970E-01
         -2   -1    0    0    0  501 -0.00000000000E+00  0.00000000000E+00  0.29859339708E+03  0.29859339708E+03  0.00000000000E+00 0.  1.
          2   -1    0    0  501    0  0.00000000000E+00 -0.00000000000E+00 -0.83737825504E+03  0.83737825504E+03  0.00000000000E+00 0.  1.
         36    2    1    2    0    0  0.00000000000E+00  0.00000000000E+00 -0.53878485796E+03  0.11359716521E+04  0.10000712331E+04 0.  0.
         25    2    3    3    0    0 -0.96201408795E+02 -0.10455809276E+03 -0.92764795131E+02  0.21020139866E+03  0.12406536570E+03 0.  0.
         35    2    3    3    0    0  0.96201408795E+02  0.10455809276E+03 -0.44602006282E+03  0.92577025346E+03  0.79870492670E+03 0.  0.
         22    1    5    5    0    0  0.36913036544E+02  0.19993625797E+03  0.19098066155E+03  0.27894568038E+03  0.00000000000E+00 0.  1.
         22    1    5    5    0    0  0.59288372251E+02 -0.95378165202E+02 -0.63700072438E+03  0.64682457308E+03  0.00000000000E+00 0.  1.
          5    1    4    4  502    0 -0.72915351398E+02 -0.12923829277E+03 -0.52818683373E+02  0.15757883139E+03  0.47000000000E+01 0. -1.
         -5    1    4    4    0  502 -0.23286057397E+02  0.24680200011E+02 -0.39946111757E+02  0.52622567271E+02  0.47000000000E+01 0. -1.
<mgrwt>
<rscale>  0 0.10000712E+04</rscale>
<asrwt>0</asrwt>
<pdfrwt beam="1">  1        2 0.12882742E+00 0.10000712E+04</pdfrwt>
<pdfrwt beam="2">  1       -2 0.45937447E-01 0.10000712E+04</pdfrwt>
<totfact> 0.17614480E+02</totfact>
</mgrwt>
</event>
<event>
 9    1  0.4236486E-036  0.9990993E+03  0.7818608E-02  0.8681896E-01
          1   -1    0    0  501    0  0.00000000000E+00  0.00000000000E+00  0.88041854695E+03  0.88041854695E+03  0.00000000000E+00 0.  1.
         -1   -1    0    0    0  501 -0.00000000000E+00 -0.00000000000E+00 -0.28344458568E+03  0.28344458568E+03  0.00000000000E+00 0.  1.
         36    2    1    2    0    0 -0.14210854715E-13  0.14210854715E-13  0.59697396127E+03  0.11638631326E+04  0.99909933494E+03 0.  0.
         25    2    3    3    0    0 -0.65639157185E+02  0.56353186990E+02  0.23446334710E+03  0.27948561793E+03  0.12511981799E+03 0.  0.
         35    2    3    3    0    0  0.65639157185E+02 -0.56353186990E+02  0.36251061417E+03  0.88437751471E+03  0.80201338050E+03 0.  0.
         22    1    5    5    0    0 -0.21511114903E+03  0.64435283373E+02 -0.16229406921E+03  0.27706330880E+03  0.00000000000E+00 0. -1.
         22    1    5    5    0    0  0.28075030621E+03 -0.12078847036E+03  0.52480468338E+03  0.60731420592E+03  0.00000000000E+00 0. -1.
          5    1    4    4  502    0 -0.80179040131E+02  0.67873693957E+02  0.10495275327E+03  0.14856879627E+03  0.47000000000E+01 0.  1.
         -5    1    4    4    0  502  0.14539882946E+02 -0.11520506967E+02  0.12951059383E+03  0.13091682165E+03  0.47000000000E+01 0.  1.
<mgrwt>
<rscale>  0 0.99909933E+03</rscale>
<asrwt>0</asrwt>
<pdfrwt beam="1">  1        1 0.13544901E+00 0.99909933E+03</pdfrwt>
<pdfrwt beam="2">  1       -1 0.43606860E-01 0.99909933E+03</pdfrwt>
<totfact> 0.11087924E+02</totfact>
</mgrwt>
</event>
<event>
 9    1  0.4236486E-036  0.1006523E+04  0.7818608E-02  0.8674850E-01
         -2   -1    0    0    0  501 -0.00000000000E+00  0.00000000000E+00  0.66536289185E+02  0.66536289185E+02  0.00000000000E+00 0.  1.
          2   -1    0    0  501    0  0.00000000000E+00 -0.00000000000E+00 -0.38065291178E+04  0.38065291178E+04  0.00000000000E+00 0.  1.
         36    2    1    2    0    0  0.00000000000E+00  0.00000000000E+00 -0.37399928286E+04  0.38730654070E+04  0.10065233672E+04 0.  0.
         25    2    3    3    0    0 -0.33085245092E+02  0.72474318031E+02 -0.24097808831E+03  0.28288066264E+03  0.12491545154E+03 0.  0.
         35    2    3    3    0    0  0.33085245092E+02 -0.72474318031E+02 -0.34990147403E+04  0.35901847443E+04  0.79998449076E+03 0.  0.
         22    1    5    5    0    0 -0.18285845124E+03 -0.24378759786E+03 -0.30365544287E+04  0.30518080550E+04  0.00000000000E+00 0. -1.
         22    1    5    5    0    0  0.21594369634E+03  0.17131327983E+03 -0.46246031161E+03  0.53837668936E+03  0.00000000000E+00 0. -1.
          5    1    4    4  502    0 -0.48249049740E+02  0.21349901845E+02 -0.21835978223E+02  0.57294755908E+02  0.47000000000E+01 0.  1.
         -5    1    4    4    0  502  0.15163804648E+02  0.51124416186E+02 -0.21914211009E+03  0.22558590673E+03  0.47000000000E+01 0.  1.
<mgrwt>
<rscale>  0 0.10065234E+04</rscale>
<asrwt>0</asrwt>
<pdfrwt beam="1">  1        2 0.58561997E+00 0.10065234E+04</pdfrwt>
<pdfrwt beam="2">  1       -2 0.10236350E-01 0.10065234E+04</pdfrwt>
<totfact> 0.31832036E+01</totfact>
</mgrwt>
</event>
<event>
 9    1  0.4236486E-036  0.1000348E+04  0.7818608E-02  0.8680707E-01
         -2   -1    0    0    0  501 -0.00000000000E+00  0.00000000000E+00  0.32722827847E+03  0.32722827847E+03  0.00000000000E+00 0.  1.
          2   -1    0    0  501    0  0.00000000000E+00 -0.00000000000E+00 -0.76452454094E+03  0.76452454094E+03  0.00000000000E+00 0.  1.
         36    2    1    2    0    0  0.28421709430E-13 -0.28421709430E-13 -0.43729626247E+03  0.10917528194E+04  0.10003480382E+04 0.  0.
         25    2    3    3    0    0  0.43592390768E+02 -0.83082169768E+02 -0.19827128460E+03  0.25203182143E+03  0.12411927026E+03 0.  0.
         35    2    3    3    0    0 -0.43592390768E+02  0.83082169768E+02 -0.23902497787E+03  0.83972099799E+03  0.79949701122E+03 0.  0.
         22    1    5    5    0    0  0.26241875151E+03 -0.24038665802E+03 -0.14692825422E+03  0.38501591965E+03  0.00000000000E+00 0. -1.
         22    1    5    5    0    0 -0.30601114228E+03  0.32346882779E+03 -0.92096723652E+02  0.45470507833E+03  0.00000000000E+00 0. -1.
          5    1    4    4  502    0 -0.24167962746E+02 -0.18680981521E+02 -0.13633640079E+03  0.13979547086E+03  0.47000000000E+01 0. -1.
         -5    1    4    4    0  502  0.67760353513E+02 -0.64401188248E+02 -0.61934883811E+02  0.11223635057E+03  0.47000000000E+01 0. -1.
<mgrwt>
<rscale>  0 0.10003480E+04</rscale>
<asrwt>0</asrwt>
<pdfrwt beam="1">  1        2 0.11761916E+00 0.10003480E+04</pdfrwt>
<pdfrwt beam="2">  1       -2 0.50342812E-01 0.10003480E+04</pdfrwt>
<totfact> 0.16520202E+02</totfact>
</mgrwt>
</event>
<event>
 9    1  0.4236486E-036  0.9917456E+03  0.7818608E-02  0.8688939E-01
          2   -1    0    0  501    0  0.00000000000E+00  0.00000000000E+00  0.24646145810E+04  0.24646145810E+04  0.00000000000E+00 0. -1.
         -2   -1    0    0    0  501 -0.00000000000E+00 -0.00000000000E+00 -0.99768071610E+02  0.99768071610E+02  0.00000000000E+00 0. -1.
         36    2    1    2    0    0  0.00000000000E+00  0.00000000000E+00  0.23648465094E+04  0.25643826526E+04  0.99174562063E+03 0.  0.
         25    2    3    3    0    0 -0.48779922296E+02 -0.79673332091E+02  0.19443033421E+03  0.24931373563E+03  0.12500745277E+03 0.  0.
         35    2    3    3    0    0  0.48779922296E+02  0.79673332091E+02  0.21704161752E+04  0.23150689170E+04  0.80006899465E+03 0.  0.
         22    1    5    5    0    0  0.38617850625E+03 -0.42150326564E+02  0.69027562956E+03  0.79208013073E+03  0.00000000000E+00 0. -1.
         22    1    5    5    0    0 -0.33739858396E+03  0.12182365866E+03  0.14801405456E+04  0.15229887863E+04  0.00000000000E+00 0. -1.
          5    1    4    4  502    0  0.26717842952E+02 -0.13857584257E+02 -0.10003055763E+00  0.30462694884E+02  0.47000000000E+01 0. -1.
         -5    1    4    4    0  502 -0.75497765249E+02 -0.65815747835E+02  0.19453036477E+03  0.21885104075E+03  0.47000000000E+01 0. -1.
<mgrwt>
<rscale>  0 0.99174562E+03</rscale>
<asrwt>0</asrwt>
<pdfrwt beam="1">  1        2 0.37917143E+00 0.99174562E+03</pdfrwt>
<pdfrwt beam="2">  1       -2 0.15348936E-01 0.99174562E+03</pdfrwt>
<totfact> 0.14079511E+02</totfact>
</mgrwt>
</event>
<event>
 9    1  0.4236486E-036  0.1000931E+04  0.7818608E-02  0.8680152E-01
          2   -1    0    0  501    0  0.00000000000E+00  0.00000000000E+00  0.16563680338E+04  0.16563680338E+04  0.00000000000E+00 0.  1.
         -2   -1    0    0    0  501 -0.00000000000E+00 -0.00000000000E+00 -0.15121366004E+03  0.15121366004E+03  0.00000000000E+00 0.  1.
         36    2    1    2    0    0  0.14210854715E-13 -0.28421709430E-13  0.15051543737E+04  0.18075816938E+04  0.10009305126E+04 0.  0.
         25    2    3    3    0    0 -0.43775951163E+02  0.12471318506E+03  0.19419406649E+03  0.26603498790E+03  0.12487420430E+03 0.  0.
         35    2    3    3    0    0  0.43775951163E+02 -0.12471318506E+03  0.13109603072E+04  0.15415467059E+04  0.80017473524E+03 0.  0.
         22    1    5    5    0    0  0.17408502255E+03  0.11991789627E+03  0.10256853420E+02  0.21163907949E+03  0.00000000000E+00 0.  1.
         22    1    5    5    0    0 -0.13030907139E+03 -0.24463108133E+03  0.13007034538E+04  0.13299076264E+04  0.00000000000E+00 0.  1.
          5    1    4    4  502    0  0.30253199479E+02  0.67759759075E+02  0.13847166646E+03  0.15717230494E+03  0.47000000000E+01 0. -1.
         -5    1    4    4    0  502 -0.74029150641E+02  0.56953425981E+02  0.55722400031E+02  0.10886268296E+03  0.47000000000E+01 0. -1.
<mgrwt>
<rscale>  0 0.10009305E+04</rscale>
<asrwt>0</asrwt>
<pdfrwt beam="1">  1        2 0.25482584E+00 0.10009305E+04</pdfrwt>
<pdfrwt beam="2">  1       -2 0.23263641E-01 0.10009305E+04</pdfrwt>
<totfact> 0.20141868E+02</totfact>
</mgrwt>
</event>
<event>
 9    1  0.4236486E-036  0.9993065E+03  0.7818608E-02  0.8681699E-01
         -2   -1    0    0    0  501 -0.00000000000E+00  0.00000000000E+00  0.59401777736E+02  0.59401777736E+02  0.00000000000E+00 0.  1.
          2   -1    0    0  501    0  0.00000000000E+00 -0.00000000000E+00 -0.42027925870E+04  0.42027925870E+04  0.00000000000E+00 0.  1.
         36    2    1    2    0    0  0.21316282073E-13  0.00000000000E+00 -0.41433908092E+04  0.42621943647E+04  0.99930646174E+03 0.  0.
         25    2    3    3    0    0 -0.30994427634E+02 -0.13388188440E+03 -0.87417796533E+03  0.89357914602E+03  0.12414331076E+03 0.  0.
         35    2    3    3    0    0  0.30994427634E+02  0.13388188440E+03 -0.32692128439E+04  0.33686152187E+04  0.80058157569E+03 0.  0.
         22    1    5    5    0    0  0.30612128833E+03 -0.81400750848E+02 -0.25440206326E+04  0.25636648191E+04  0.00000000000E+00 0. -1.
         22    1    5    5    0    0 -0.27512686070E+03  0.21528263525E+03 -0.72519221127E+03  0.80495039959E+03  0.00000000000E+00 0. -1.
          5    1    4    4  502    0  0.37256338323E+02 -0.10010034792E+03 -0.44426166173E+03  0.45694488560E+03  0.47000000000E+01 0.  1.
         -5    1    4    4    0  502 -0.68250765958E+02 -0.33781536487E+02 -0.42991630361E+03  0.43663426041E+03  0.47000000000E+01 0.  1.
<mgrwt>
<rscale>  0 0.99930646E+03</rscale>
<asrwt>0</asrwt>
<pdfrwt beam="1">  1        2 0.64658350E+00 0.99930646E+03</pdfrwt>
<pdfrwt beam="2">  1       -2 0.91387347E-02 0.99930646E+03</pdfrwt>
<totfact> 0.17279501E+01</totfact>
</mgrwt>
</event>
<event>
 9    1  0.4236486E-036  0.1005636E+04  0.7818608E-02  0.8675689E-01
         -2   -1    0    0    0  501 -0.00000000000E+00  0.00000000000E+00  0.79024180898E+02  0.79024180898E+02  0.00000000000E+00 0. -1.
          2   -1    0    0  501    0  0.00000000000E+00 -0.00000000000E+00 -0.31993512212E+04  0.31993512212E+04  0.00000000000E+00 0. -1.
         36    2    1    2    0    0  0.00000000000E+00  0.00000000000E+00 -0.31203270403E+04  0.32783754021E+04  0.10056363352E+04 0.  0.
         25    2    3    3    0    0  0.25386592480E+02  0.43236191816E+02 -0.10399888520E+04  0.10488323785E+04  0.12632774257E+03 0.  0.
         35    2    3    3    0    0 -0.25386592480E+02 -0.43236191816E+02 -0.20803381883E+04  0.22295430236E+04  0.80033822163E+03 0.  0.
         22    1    5    5    0    0  0.34630473359E+03  0.55761963474E+02 -0.14439227800E+04  0.14859170097E+04  0.00000000000E+00 0.  1.
         22    1    5    5    0    0 -0.37169132607E+03 -0.98998155290E+02 -0.63641540824E+03  0.74362601385E+03  0.00000000000E+00 0.  1.
          5    1    4    4  502    0 -0.57221515212E+00  0.72324312260E+02 -0.33501299276E+03  0.34276366332E+03  0.47000000000E+01 0.  1.
         -5    1    4    4    0  502  0.25958807632E+02 -0.29088120444E+02 -0.70497585925E+03  0.70606871519E+03  0.47000000000E+01 0.  1.
<mgrwt>
<rscale>  0 0.10056363E+04</rscale>
<asrwt>0</asrwt>
<pdfrwt beam="1">  1        2 0.49220775E+00 0.10056363E+04</pdfrwt>
<pdfrwt beam="2">  1       -2 0.12157569E-01 0.10056363E+04</pdfrwt>
<totfact> 0.69325060E+01</totfact>
</mgrwt>
</event>
<event>
 9    1  0.4236486E-036  0.1000568E+04  0.7818608E-02  0.8680497E-01
         -2   -1    0    0    0  501 -0.00000000000E+00  0.00000000000E+00  0.14932060864E+03  0.14932060864E+03  0.00000000000E+00 0.  1.
          2   -1    0    0  501    0  0.00000000000E+00 -0.00000000000E+00 -0.16761517209E+04  0.16761517209E+04  0.00000000000E+00 0.  1.
         36    2    1    2    0    0  0.00000000000E+00  0.00000000000E+00 -0.15268311122E+04  0.18254723295E+04  0.10005678291E+04 0.  0.
         25    2    3    3    0    0  0.12799893615E+03 -0.50706456104E+02 -0.23902824926E+03  0.30298812489E+03  0.12534922232E+03 0.  0.
         35    2    3    3    0    0 -0.12799893615E+03  0.50706456104E+02 -0.12878028630E+04  0.15224842046E+04  0.80035433846E+03 0.  0.
         22    1    5    5    0    0 -0.30078338331E+03  0.23868941454E+03 -0.11877109120E+04  0.12482389558E+04  0.00000000000E+00 0.  1.
         22    1    5    5    0    0  0.17278444716E+03 -0.18798295844E+03 -0.10009195096E+03  0.27424524881E+03  0.00000000000E+00 0.  1.
          5    1    4    4  502    0  0.33480206451E+02  0.33888301513E+02 -0.11910130152E+03  0.12836101911E+03  0.47000000000E+01 0.  1.
         -5    1    4    4    0  502  0.94518729696E+02 -0.84594757617E+02 -0.11992694774E+03  0.17462710578E+03  0.47000000000E+01 0.  1.
<mgrwt>
<rscale>  0 0.10005678E+04</rscale>
<asrwt>0</asrwt>
<pdfrwt beam="1">  1        2 0.25786948E+00 0.10005678E+04</pdfrwt>
<pdfrwt beam="2">  1       -2 0.22972402E-01 0.10005678E+04</pdfrwt>
<totfact> 0.20070835E+02</totfact>
</mgrwt>
</event>
<event>
 9    1  0.4236486E-036  0.1000039E+04  0.7818608E-02  0.8681001E-01
         -1   -1    0    0    0  501 -0.00000000000E+00  0.00000000000E+00  0.19098075411E+03  0.19098075411E+03  0.00000000000E+00 0. -1.
          1   -1    0    0  501    0  0.00000000000E+00 -0.00000000000E+00 -0.13091343017E+04  0.13091343017E+04  0.00000000000E+00 0. -1.
         36    2    1    2    0    0  0.14210854715E-13  0.39079850467E-13 -0.11181535476E+04  0.15001150558E+04  0.10000389116E+04 0.  0.
         25    2    3    3    0    0  0.87478836126E+02 -0.20106218037E+02 -0.37281518223E+03  0.40303171704E+03  0.12404272676E+03 0.  0.
         35    2    3    3    0    0 -0.87478836126E+02  0.20106218037E+02 -0.74533836536E+03  0.10970833388E+04  0.80000360410E+03 0.  0.
         22    1    5    5    0    0  0.23626019558E+02 -0.38326303181E+03 -0.31243405995E+03  0.49503917236E+03  0.00000000000E+00 0. -1.
         22    1    5    5    0    0 -0.11110485568E+03  0.40336924985E+03 -0.43290430541E+03  0.60204416642E+03  0.00000000000E+00 0. -1.
          5    1    4    4  502    0  0.79593368546E+02 -0.40252794832E+01 -0.37587882885E+03  0.38426330969E+03  0.47000000000E+01 0.  1.
         -5    1    4    4    0  502  0.78854675797E+01 -0.16080938554E+02  0.30636466234E+01  0.18768407347E+02  0.47000000000E+01 0.  1.
<mgrwt>
<rscale>  0 0.10000389E+04</rscale>
<asrwt>0</asrwt>
<pdfrwt beam="1">  1        1 0.20140527E+00 0.10000389E+04</pdfrwt>
<pdfrwt beam="2">  1       -1 0.29381655E-01 0.10000389E+04</pdfrwt>
<totfact> 0.10315442E+02</totfact>
</mgrwt>
</event>
<event>
 9    1  0.4236486E-036  0.9997380E+03  0.7818608E-02  0.8681287E-01
         -1   -1    0    0    0  501 -0.00000000000E+00  0.00000000000E+00  0.78466999731E+03  0.78466999731E+03  0.00000000000E+00 0. -1.
          1   -1    0    0  501    0  0.00000000000E+00 -0.00000000000E+00 -0.31843835956E+03  0.31843835956E+03  0.00000000000E+00 0. -1.
         36    2    1    2    0    0  0.00000000000E+00  0.00000000000E+00  0.46623163775E+03  0.11031083569E+04  0.99973801916E+03 0.  0.
         25    2    3    3    0    0  0.43472493345E+02 -0.55347590834E+02 -0.45355946009E+02  0.15068139046E+03  0.12527771591E+03 0.  0.
         35    2    3    3    0    0 -0.43472493345E+02  0.55347590834E+02  0.51158758376E+03  0.95242696641E+03  0.80027623793E+03 0.  0.
         22    1    5    5    0    0 -0.41886282849E+02 -0.34638808234E+03  0.70783103011E+02  0.35601883651E+03  0.00000000000E+00 0. -1.
         22    1    5    5    0    0 -0.15862104965E+01  0.40173567317E+03  0.44080448075E+03  0.59640812990E+03  0.00000000000E+00 0. -1.
          5    1    4    4  502    0  0.77032421961E+01 -0.38015143628E+02  0.40303004532E+02  0.56132996176E+02  0.47000000000E+01 0.  1.
         -5    1    4    4    0  502  0.35769251149E+02 -0.17332447206E+02 -0.85658950541E+02  0.94548394284E+02  0.47000000000E+01 0.  1.
<mgrwt>
<rscale>  0 0.99973802E+03</rscale>
<asrwt>0</asrwt>
<pdfrwt beam="1">  1        1 0.48990517E-01 0.99973802E+03</pdfrwt>
<pdfrwt beam="2">  1       -1 0.12071846E+00 0.99973802E+03</pdfrwt>
<totfact> 0.59456713E+01</totfact>
</mgrwt>
</event>
<event>
 9    1  0.4236486E-036  0.9992194E+03  0.7818608E-02  0.8681782E-01
          1   -1    0    0  501    0  0.00000000000E+00  0.00000000000E+00  0.20160137549E+03  0.20160137549E+03  0.00000000000E+00 0.  1.
         -1   -1    0    0    0  501 -0.00000000000E+00 -0.00000000000E+00 -0.12381357100E+04  0.12381357100E+04  0.00000000000E+00 0.  1.
         36    2    1    2    0    0  0.00000000000E+00  0.00000000000E+00 -0.10365343345E+04  0.14397370855E+04  0.99921941970E+03 0.  0.
         25    2    3    3    0    0  0.79817978252E+02 -0.82978768477E+02 -0.79337767132E+02  0.18742338375E+03  0.12480648145E+03 0.  0.
         35    2    3    3    0    0 -0.79817978252E+02  0.82978768477E+02 -0.95719656736E+03  0.12523137017E+04  0.79925462356E+03 0.  0.
         22    1    5    5    0    0  0.25938330123E+03 -0.22250627841E+03 -0.50505045803E+03  0.60980710560E+03  0.00000000000E+00 0. -1.
         22    1    5    5    0    0 -0.33920127948E+03  0.30548504689E+03 -0.45214610933E+03  0.64250659612E+03  0.00000000000E+00 0. -1.
          5    1    4    4  502    0  0.67062366163E+02 -0.20693887949E+01  0.78361740283E+01  0.67713654079E+02  0.47000000000E+01 0.  1.
         -5    1    4    4    0  502  0.12755612089E+02 -0.80909379682E+02 -0.87173941160E+02  0.11970972967E+03  0.47000000000E+01 0.  1.
<mgrwt>
<rscale>  0 0.99921942E+03</rscale>
<asrwt>0</asrwt>
<pdfrwt beam="1">  1        1 0.31015596E-01 0.99921942E+03</pdfrwt>
<pdfrwt beam="2">  1       -1 0.19048242E+00 0.99921942E+03</pdfrwt>
<totfact> 0.27598992E+01</totfact>
</mgrwt>
</event>
<event>
 9    1  0.4236486E-036  0.1000837E+04  0.7818608E-02  0.8680241E-01
          2   -1    0    0  501    0  0.00000000000E+00  0.00000000000E+00  0.79424416983E+03  0.79424416983E+03  0.00000000000E+00 0.  1.
         -2   -1    0    0    0  501 -0.00000000000E+00 -0.00000000000E+00 -0.31529184423E+03  0.31529184423E+03  0.00000000000E+00 0.  1.
         36    2    1    2    0    0  0.00000000000E+00  0.00000000000E+00  0.47895232560E+03  0.11095360141E+04  0.10008370678E+04 0.  0.
         25    2    3    3    0    0  0.13694270893E+03 -0.32222090725E+02  0.97812198820E+02  0.21210899351E+03  0.12502571828E+03 0.  0.
         35    2    3    3    0    0 -0.13694270893E+03  0.32222090725E+02  0.38114012678E+03  0.89742702055E+03  0.80019740834E+03 0.  0.
         22    1    5    5    0    0  0.31359775435E+03 -0.25599371669E+01  0.30819184814E+03  0.43969571304E+03  0.00000000000E+00 0.  1.
         22    1    5    5    0    0 -0.45054046328E+03  0.34782027892E+02  0.72948278643E+02  0.45773130751E+03  0.00000000000E+00 0.  1.
          5    1    4    4  502    0  0.12770255190E+03 -0.24147081300E+02  0.18079977974E+02  0.13130117631E+03  0.47000000000E+01 0. -1.
         -5    1    4    4    0  502  0.92401570286E+01 -0.80750094243E+01  0.79732220847E+02  0.80807817198E+02  0.47000000000E+01 0. -1.
<mgrwt>
<rscale>  0 0.10008371E+04</rscale>
<asrwt>0</asrwt>
<pdfrwt beam="1">  1        2 0.12219141E+00 0.10008371E+04</pdfrwt>
<pdfrwt beam="2">  1       -2 0.48506438E-01 0.10008371E+04</pdfrwt>
<totfact> 0.16945487E+02</totfact>
</mgrwt>
</event>
<event>
 9    1  0.4236486E-036  0.1002228E+04  0.7818608E-02  0.8678919E-01
         -2   -1    0    0    0  501 -0.00000000000E+00  0.00000000000E+00  0.56604065652E+03  0.56604065652E+03  0.00000000000E+00 0. -1.
          2   -1    0    0  501    0  0.00000000000E+00 -0.00000000000E+00 -0.44363462085E+03  0.44363462085E+03  0.00000000000E+00 0. -1.
         36    2    1    2    0    0  0.14210854715E-13 -0.14210854715E-13  0.12240603567E+03  0.10096752774E+04  0.10022279821E+04 0.  0.
         25    2    3    3    0    0 -0.83827536045E+02  0.11333047179E+03  0.42555775123E+02  0.19304853577E+03  0.12484346811E+03 0.  0.
         35    2    3    3    0    0  0.83827536045E+02 -0.11333047179E+03  0.79850260543E+02  0.81662674160E+03  0.80039510203E+03 0.  0.
         22    1    5    5    0    0 -0.34354959781E+03  0.62666287356E+02  0.11538390610E+02  0.34940882099E+03  0.00000000000E+00 0. -1.
         22    1    5    5    0    0  0.42737713385E+03 -0.17599675915E+03  0.68311869933E+02  0.46721792062E+03  0.00000000000E+00 0. -1.
          5    1    4    4  502    0 -0.36219590341E+02  0.77593230958E+02  0.84249502378E+02  0.12021912022E+03  0.47000000000E+01 0. -1.
         -5    1    4    4    0  502 -0.47607945704E+02  0.35737240835E+02 -0.41693727254E+02  0.72829415548E+02  0.47000000000E+01 0. -1.
<mgrwt>
<rscale>  0 0.10022280E+04</rscale>
<asrwt>0</asrwt>
<pdfrwt beam="1">  1        2 0.68251480E-01 0.10022280E+04</pdfrwt>
<pdfrwt beam="2">  1       -2 0.87083178E-01 0.10022280E+04</pdfrwt>
<totfact> 0.96493642E+01</totfact>
</mgrwt>
</event>
<event>
 9    1  0.4236486E-036  0.1001282E+04  0.7818608E-02  0.8679818E-01
          1   -1    0    0  501    0  0.00000000000E+00  0.00000000000E+00  0.54684556275E+03  0.54684556275E+03  0.00000000000E+00 0.  1.
         -1   -1    0    0    0  501 -0.00000000000E+00 -0.00000000000E+00 -0.45834009413E+03  0.45834009413E+03  0.00000000000E+00 0.  1.
         36    2    1    2    0    0  0.71054273576E-14 -0.28421709430E-13  0.88505468621E+02  0.10051856569E+04  0.10012816721E+04 0.  0.
         25    2    3    3    0    0 -0.42334666965E+00 -0.13546424471E+03  0.57469760666E+02  0.19303378671E+03  0.12493409704E+03 0.  0.
         35    2    3    3    0    0  0.42334666965E+00  0.13546424471E+03  0.31035707955E+02  0.81215187016E+03  0.80017292145E+03 0.  0.
         22    1    5    5    0    0  0.50489126851E+02  0.28069314505E+03 -0.32019791543E+03  0.42879423813E+03  0.00000000000E+00 0.  1.
         22    1    5    5    0    0 -0.50065780182E+02 -0.14522890034E+03  0.35123362339E+03  0.38335763203E+03  0.00000000000E+00 0.  1.
          5    1    4    4  502    0 -0.27501858441E+02 -0.11410896217E+03  0.87967990588E+02  0.14675716280E+03  0.47000000000E+01 0. -1.
         -5    1    4    4    0  502  0.27078511771E+02 -0.21355282546E+02 -0.30498229922E+02  0.46276623912E+02  0.47000000000E+01 0. -1.
<mgrwt>
<rscale>  0 0.10012817E+04</rscale>
<asrwt>0</asrwt>
<pdfrwt beam="1">  1        1 0.84130087E-01 0.10012817E+04</pdfrwt>
<pdfrwt beam="2">  1       -1 0.70513860E-01 0.10012817E+04</pdfrwt>
<totfact> 0.93209142E+01</totfact>
</mgrwt>
</event>
<event>
 9    1  0.4236486E-036  0.1000740E+04  0.7818608E-02  0.8680333E-01
         -2   -1    0    0    0  501 -0.00000000000E+00  0.00000000000E+00  0.24773029852E+03  0.24773029852E+03  0.00000000000E+00 0. -1.
          2   -1    0    0  501    0  0.00000000000E+00 -0.00000000000E+00 -0.10106565722E+04  0.10106565722E+04  0.00000000000E+00 0. -1.
         36    2    1    2    0    0  0.35527136788E-14  0.56843418861E-13 -0.76292627364E+03  0.12583868707E+04  0.10007402347E+04 0.  0.
         25    2    3    3    0    0  0.17946663542E+02 -0.12695843338E+03 -0.72987237718E+02  0.19449367697E+03  0.12672855626E+03 0.  0.
         35    2    3    3    0    0 -0.17946663542E+02  0.12695843338E+03 -0.68993903592E+03  0.10638931937E+04  0.79963262053E+03 0.  0.
         22    1    5    5    0    0 -0.11306586789E+03 -0.25112001638E+03 -0.60522114885E+03  0.66493442693E+03  0.00000000000E+00 0.  1.
         22    1    5    5    0    0  0.95119204352E+02  0.37807844975E+03 -0.84717887076E+02  0.39895876679E+03  0.00000000000E+00 0.  1.
          5    1    4    4  502    0  0.21669672417E+02  0.11086099825E+02  0.16584455901E+02  0.29826338856E+02  0.47000000000E+01 0. -1.
         -5    1    4    4    0  502 -0.37230088754E+01 -0.13804453320E+03 -0.89571693619E+02  0.16466733811E+03  0.47000000000E+01 0. -1.
<mgrwt>
<rscale>  0 0.10007402E+04</rscale>
<asrwt>0</asrwt>
<pdfrwt beam="1">  1        2 0.15548563E+00 0.10007402E+04</pdfrwt>
<pdfrwt beam="2">  1       -2 0.38112354E-01 0.10007402E+04</pdfrwt>
<totfact> 0.19476945E+02</totfact>
</mgrwt>
</event>
<event>
 9    1  0.4236486E-036  0.9997910E+03  0.7818608E-02  0.8681237E-01
          2   -1    0    0  501    0  0.00000000000E+00  0.00000000000E+00  0.25002133488E+04  0.25002133488E+04  0.00000000000E+00 0. -1.
         -2   -1    0    0    0  501 -0.00000000000E+00 -0.00000000000E+00 -0.99949678857E+02  0.99949678857E+02  0.00000000000E+00 0. -1.
         36    2    1    2    0    0  0.42632564146E-13 -0.14210854715E-13  0.24002636699E+04  0.26001630277E+04  0.99979102074E+03 0.  0.
         25    2    3    3    0    0 -0.10595873369E+03  0.85265263139E+02  0.54498110232E+03  0.57543307691E+03  0.12498562227E+03 0.  0.
         35    2    3    3    0    0  0.10595873369E+03 -0.85265263139E+02  0.18552825676E+04  0.20247299508E+04  0.79935007937E+03 0.  0.
         22    1    5    5    0    0 -0.16643784215E+03  0.28336953703E+03  0.10241727171E+04  0.10756066216E+04  0.00000000000E+00 0. -1.
         22    1    5    5    0    0  0.27239657584E+03 -0.36863480017E+03  0.83110985050E+03  0.94912332920E+03  0.00000000000E+00 0. -1.
          5    1    4    4  502    0  0.28224217498E+02  0.12745303153E+02  0.74285322037E+02  0.80619155763E+02  0.47000000000E+01 0. -1.
         -5    1    4    4    0  502 -0.13418295119E+03  0.72519959986E+02  0.47069578028E+03  0.49481392114E+03  0.47000000000E+01 0. -1.
<mgrwt>
<rscale>  0 0.99979102E+03</rscale>
<asrwt>0</asrwt>
<pdfrwt beam="1">  1        2 0.38464816E+00 0.99979102E+03</pdfrwt>
<pdfrwt beam="2">  1       -2 0.15376876E-01 0.99979102E+03</pdfrwt>
<totfact> 0.13353494E+02</totfact>
</mgrwt>
</event>
<event>
 9    1  0.4236486E-036  0.9990747E+03  0.7818608E-02  0.8681920E-01
          2   -1    0    0  501    0  0.00000000000E+00  0.00000000000E+00  0.25142293190E+04  0.25142293190E+04  0.00000000000E+00 0.  1.
         -2   -1    0    0    0  501 -0.00000000000E+00 -0.00000000000E+00 -0.99250115048E+02  0.99250115048E+02  0.00000000000E+00 0.  1.
         36    2    1    2    0    0 -0.10658141036E-13  0.00000000000E+00  0.24149792039E+04  0.26134794340E+04  0.99907467021E+03 0.  0.
         25    2    3    3    0    0 -0.10325952538E+01 -0.62748757933E+01  0.76515690173E+03  0.77532609681E+03  0.12500012721E+03 0.  0.
         35    2    3    3    0    0  0.10325952538E+01  0.62748757933E+01  0.16498223022E+04  0.18381533372E+04  0.81046506524E+03 0.  0.
         22    1    5    5    0    0  0.17962228125E+03 -0.62328635194E+02  0.13415979683E+02  0.19060170828E+03  0.00000000000E+00 0. -1.
         22    1    5    5    0    0 -0.17858968600E+03  0.68603510987E+02  0.16364063225E+04  0.16475516289E+04  0.00000000000E+00 0. -1.
          5    1    4    4  502    0  0.17923573425E+02  0.52682478806E+02  0.23504787941E+03  0.24159117052E+03  0.47000000000E+01 0. -1.
         -5    1    4    4    0  502 -0.18956168678E+02 -0.58957354599E+02  0.53010902232E+03  0.53373492629E+03  0.47000000000E+01 0. -1.
<mgrwt>
<rscale>  0 0.99907467E+03</rscale>
<asrwt>0</asrwt>
<pdfrwt beam="1">  1        2 0.38680446E+00 0.99907467E+03</pdfrwt>
<pdfrwt beam="2">  1       -2 0.15269250E-01 0.99907467E+03</pdfrwt>
<totfact> 0.13249037E+02</totfact>
</mgrwt>
</event>
<event>
 9    1  0.4236486E-036  0.1000663E+04  0.7818608E-02  0.8680407E-01
          1   -1    0    0  501    0  0.00000000000E+00  0.00000000000E+00  0.95372451994E+03  0.95372451994E+03  0.00000000000E+00 0. -1.
         -1   -1    0    0    0  501 -0.00000000000E+00 -0.00000000000E+00 -0.26247791461E+03  0.26247791461E+03  0.00000000000E+00 0. -1.
         36    2    1    2    0    0  0.14210854715E-13 -0.14210854715E-13  0.69124660532E+03  0.12162024345E+04  0.10006630264E+04 0.  0.
         25    2    3    3    0    0 -0.11886032684E+03 -0.64536079483E+02  0.16924680687E+03  0.25016004587E+03  0.12507151579E+03 0.  0.
         35    2    3    3    0    0  0.11886032684E+03  0.64536079483E+02  0.52199979845E+03  0.96604238868E+03  0.80153691387E+03 0.  0.
         22    1    5    5    0    0 -0.33684456295E+03  0.41363144385E+02  0.32206241766E+03  0.46786682953E+03  0.00000000000E+00 0.  1.
         22    1    5    5    0    0  0.45570488979E+03  0.23172935098E+02  0.19993738080E+03  0.49817555915E+03  0.00000000000E+00 0.  1.
          5    1    4    4  502    0 -0.57740446263E+02 -0.69278787533E+02  0.16553230029E+03  0.18856442394E+03  0.47000000000E+01 0. -1.
         -5    1    4    4    0  502 -0.61119880574E+02  0.47427080504E+01  0.37145065781E+01  0.61595621924E+02  0.47000000000E+01 0. -1.
<mgrwt>
<rscale>  0 0.10006630E+04</rscale>
<asrwt>0</asrwt>
<pdfrwt beam="1">  1        1 0.14672685E+00 0.10006630E+04</pdfrwt>
<pdfrwt beam="2">  1       -1 0.40381218E-01 0.10006630E+04</pdfrwt>
<totfact> 0.11070154E+02</totfact>
</mgrwt>
</event>
<event>
 9    1  0.4236486E-036  0.1003570E+04  0.7818608E-02  0.8677645E-01
          2   -1    0    0  501    0  0.00000000000E+00  0.00000000000E+00  0.45089646378E+03  0.45089646378E+03  0.00000000000E+00 0.  1.
         -2   -1    0    0    0  501 -0.00000000000E+00 -0.00000000000E+00 -0.55841736613E+03  0.55841736613E+03  0.00000000000E+00 0.  1.
         36    2    1    2    0    0 -0.14210854715E-13  0.14210854715E-13 -0.10752090234E+03  0.10093138299E+04  0.10035704573E+04 0.  0.
         25    2    3    3    0    0  0.88180663271E+02  0.11313644607E+03 -0.27769135271E+02  0.19188274515E+03  0.12438721078E+03 0.  0.
         35    2    3    3    0    0 -0.88180663271E+02 -0.11313644607E+03 -0.79751767072E+02  0.81743108476E+03  0.80078558252E+03 0.  0.
         22    1    5    5    0    0  0.14481777182E+03  0.29759249732E+03  0.30986452988E+02  0.33240583895E+03  0.00000000000E+00 0.  1.
         22    1    5    5    0    0 -0.23299843509E+03 -0.41072894339E+03 -0.11073822006E+03  0.48502524582E+03  0.00000000000E+00 0.  1.
          5    1    4    4  502    0  0.32625549641E+02  0.10677923421E+03 -0.60339318129E+02  0.12700060890E+03  0.47000000000E+01 0.  1.
         -5    1    4    4    0  502  0.55555113631E+02  0.63572118639E+01  0.32570182858E+02  0.64882136252E+02  0.47000000000E+01 0.  1.
<mgrwt>
<rscale>  0 0.10035705E+04</rscale>
<asrwt>0</asrwt>
<pdfrwt beam="1">  1        2 0.69368688E-01 0.10035705E+04</pdfrwt>
<pdfrwt beam="2">  1       -2 0.85910363E-01 0.10035705E+04</pdfrwt>
<totfact> 0.97784941E+01</totfact>
</mgrwt>
</event>
<event>
 9    1  0.4236486E-036  0.1000325E+04  0.7818608E-02  0.8680729E-01
          4   -1    0    0  501    0  0.00000000000E+00  0.00000000000E+00  0.37243371389E+03  0.37243371389E+03  0.00000000000E+00 0. -1.
         -4   -1    0    0    0  501 -0.00000000000E+00 -0.00000000000E+00 -0.67169648632E+03  0.67169648632E+03  0.00000000000E+00 0. -1.
         36    2    1    2    0    0  0.00000000000E+00  0.28421709430E-13 -0.29926277243E+03  0.10441302002E+04  0.10003247813E+04 0.  0.
         25    2    3    3    0    0  0.28364870547E+02 -0.13465582360E+03 -0.95208281447E+02  0.20884337882E+03  0.12495672574E+03 0.  0.
         35    2    3    3    0    0 -0.28364870547E+02  0.13465582360E+03 -0.20405449098E+03  0.83528682139E+03  0.79820365946E+03 0.  0.
         22    1    5    5    0    0  0.70484226659E+02  0.35066090931E+03  0.16697330820E+03  0.39472925553E+03  0.00000000000E+00 0.  1.
         22    1    5    5    0    0 -0.98849097206E+02 -0.21600508570E+03 -0.37102779918E+03  0.44055756585E+03  0.00000000000E+00 0.  1.
          5    1    4    4  502    0  0.51893028212E+02 -0.12839997789E+03 -0.33820444759E+02  0.14263713816E+03  0.47000000000E+01 0. -1.
         -5    1    4    4    0  502 -0.23528157665E+02 -0.62558457130E+01 -0.61387836688E+02  0.66206240657E+02  0.47000000000E+01 0. -1.
<mgrwt>
<rscale>  0 0.10003248E+04</rscale>
<asrwt>0</asrwt>
<pdfrwt beam="1">  1        4 0.57297495E-01 0.10003248E+04</pdfrwt>
<pdfrwt beam="2">  1       -4 0.10333792E+00 0.10003248E+04</pdfrwt>
<totfact> 0.49294383E+00</totfact>
</mgrwt>
</event>
<event>
 9    1  0.4236486E-036  0.9994710E+03  0.7818608E-02  0.8681542E-01
          2   -1    0    0  501    0  0.00000000000E+00  0.00000000000E+00  0.37404319990E+03  0.37404319990E+03  0.00000000000E+00 0.  1.
         -2   -1    0    0    0  501 -0.00000000000E+00 -0.00000000000E+00 -0.66766504693E+03  0.66766504693E+03  0.00000000000E+00 0.  1.
         36    2    1    2    0    0  0.71054273576E-14 -0.14210854715E-13 -0.29362184704E+03  0.10417082468E+04  0.99947100131E+03 0.  0.
         25    2    3    3    0    0 -0.53337572899E+02 -0.72069134442E+02  0.55884990951E+02  0.16347657198E+03  0.12475015251E+03 0.  0.
         35    2    3    3    0    0  0.53337572899E+02  0.72069134442E+02 -0.34950683799E+03  0.87823167485E+03  0.80068532401E+03 0.  0.
         22    1    5    5    0    0 -0.36575556527E+02  0.26594125942E+03 -0.53285293502E+03  0.59665297717E+03  0.00000000000E+00 0. -1.
         22    1    5    5    0    0  0.89913129426E+02 -0.19387212498E+03  0.18334609704E+03  0.28157869768E+03  0.00000000000E+00 0. -1.
          5    1    4    4  502    0 -0.91293652516E+02 -0.59721325932E+02  0.57193633048E+02  0.12326544293E+03  0.47000000000E+01 0. -1.
         -5    1    4    4    0  502  0.37956079616E+02 -0.12347808510E+02 -0.13086420971E+01  0.40211129044E+02  0.47000000000E+01 0. -1.
<mgrwt>
<rscale>  0 0.99947100E+03</rscale>
<asrwt>0</asrwt>
<pdfrwt beam="1">  1        2 0.57545107E-01 0.99947100E+03</pdfrwt>
<pdfrwt beam="2">  1       -2 0.10271770E+00 0.99947100E+03</pdfrwt>
<totfact> 0.78790575E+01</totfact>
</mgrwt>
</event>
<event>
 9    1  0.4236486E-036  0.1002489E+04  0.7818608E-02  0.8678671E-01
         -2   -1    0    0    0  501 -0.00000000000E+00  0.00000000000E+00  0.17377183295E+03  0.17377183295E+03  0.00000000000E+00 0. -1.
          2   -1    0    0  501    0  0.00000000000E+00 -0.00000000000E+00 -0.14458389893E+04  0.14458389893E+04  0.00000000000E+00 0. -1.
         36    2    1    2    0    0 -0.71054273576E-14  0.00000000000E+00 -0.12720671563E+04  0.16196108222E+04  0.10024890849E+04 0.  0.
         25    2    3    3    0    0  0.34038681889E+02  0.13339512854E+03 -0.17871153293E+03  0.25783213116E+03  0.12484672071E+03 0.  0.
         35    2    3    3    0    0 -0.34038681889E+02 -0.13339512854E+03 -0.10933556234E+04  0.13617786910E+04  0.80003861910E+03 0.  0.
         22    1    5    5    0    0 -0.18258065799E+03  0.45524861606E+02 -0.11126362958E+04  0.11284359691E+04  0.00000000000E+00 0. -1.
         22    1    5    5    0    0  0.14854197611E+03 -0.17891999015E+03  0.19280672433E+02  0.23334272191E+03  0.00000000000E+00 0. -1.
          5    1    4    4  502    0 -0.13302308506E+02 -0.11694156711E+02 -0.64776973886E+02  0.67319024492E+02  0.47000000000E+01 0.  1.
         -5    1    4    4    0  502  0.47340990395E+02  0.14508928525E+03 -0.11393455904E+03  0.19051310667E+03  0.47000000000E+01 0.  1.
<mgrwt>
<rscale>  0 0.10024891E+04</rscale>
<asrwt>0</asrwt>
<pdfrwt beam="1">  1        2 0.22243677E+00 0.10024891E+04</pdfrwt>
<pdfrwt beam="2">  1       -2 0.26734128E-01 0.10024891E+04</pdfrwt>
<totfact> 0.20698757E+02</totfact>
</mgrwt>
</event>
<event>
 9    1  0.4236486E-036  0.1002915E+04  0.7818608E-02  0.8678267E-01
         -2   -1    0    0    0  501 -0.00000000000E+00  0.00000000000E+00  0.25290940484E+03  0.25290940484E+03  0.00000000000E+00 0.  1.
          2   -1    0    0  501    0  0.00000000000E+00 -0.00000000000E+00 -0.99426682600E+03  0.99426682600E+03  0.00000000000E+00 0.  1.
         36    2    1    2    0    0  0.14210854715E-13  0.00000000000E+00 -0.74135742116E+03  0.12471762308E+04  0.10029146149E+04 0.  0.
         25    2    3    3    0    0  0.60532769786E+02 -0.12900591358E+03 -0.17706759609E+03  0.25897617280E+03  0.12413292285E+03 0.  0.
         35    2    3    3    0    0 -0.60532769786E+02  0.12900591358E+03 -0.56428982507E+03  0.98820005804E+03  0.79862983045E+03 0.  0.
         22    1    5    5    0    0  0.24782716117E+03  0.33655695183E+03 -0.18477497229E+03  0.45697994926E+03  0.00000000000E+00 0.  1.
         22    1    5    5    0    0 -0.30835993096E+03 -0.20755103825E+03 -0.37951485278E+03  0.53122010879E+03  0.00000000000E+00 0.  1.
          5    1    4    4  502    0  0.47418160967E+02 -0.13382131769E+03 -0.19144176354E+03  0.23838763786E+03  0.47000000000E+01 0. -1.
         -5    1    4    4    0  502  0.13114608819E+02  0.48154041135E+01  0.14374167443E+02  0.20588534939E+02  0.47000000000E+01 0. -1.
<mgrwt>
<rscale>  0 0.10029146E+04</rscale>
<asrwt>0</asrwt>
<pdfrwt beam="1">  1        2 0.15296412E+00 0.10029146E+04</pdfrwt>
<pdfrwt beam="2">  1       -2 0.38909140E-01 0.10029146E+04</pdfrwt>
<totfact> 0.19174436E+02</totfact>
</mgrwt>
</event>
<event>
 9    1  0.4236486E-036  0.9993509E+03  0.7818608E-02  0.8681656E-01
          2   -1    0    0  501    0  0.00000000000E+00  0.00000000000E+00  0.73486134646E+03  0.73486134646E+03  0.00000000000E+00 0. -1.
         -2   -1    0    0    0  501 -0.00000000000E+00 -0.00000000000E+00 -0.33975869337E+03  0.33975869337E+03  0.00000000000E+00 0. -1.
         36    2    1    2    0    0  0.00000000000E+00  0.35527136788E-14  0.39510265309E+03  0.10746200398E+04  0.99935085106E+03 0.  0.
         25    2    3    3    0    0  0.13785225924E+03 -0.19873387060E+02  0.60775242495E+02  0.19640454914E+03  0.12443038187E+03 0.  0.
         35    2    3    3    0    0 -0.13785225924E+03  0.19873387060E+02  0.33432741059E+03  0.87821549069E+03  0.80005589412E+03 0.  0.
         22    1    5    5    0    0  0.82244560858E+02 -0.80177620753E+02  0.54534449517E+03  0.55730892427E+03  0.00000000000E+00 0.  1.
         22    1    5    5    0    0 -0.22009682010E+03  0.10005100781E+03 -0.21101708458E+03  0.32090656641E+03  0.00000000000E+00 0.  1.
          5    1    4    4  502    0  0.10295817824E+03  0.20340878785E+02  0.87431476063E+02  0.13667659208E+03  0.47000000000E+01 0.  1.
         -5    1    4    4    0  502  0.34894081003E+02 -0.40214265845E+02 -0.26656233568E+02  0.59727957060E+02  0.47000000000E+01 0.  1.
<mgrwt>
<rscale>  0 0.99935085E+03</rscale>
<asrwt>0</asrwt>
<pdfrwt beam="1">  1        2 0.11305559E+00 0.99935085E+03</pdfrwt>
<pdfrwt beam="2">  1       -2 0.52270568E-01 0.99935085E+03</pdfrwt>
<totfact> 0.16099400E+02</totfact>
</mgrwt>
</event>
<event>
 9    1  0.4236486E-036  0.1000603E+04  0.7818608E-02  0.8680464E-01
         -2   -1    0    0    0  501 -0.00000000000E+00  0.00000000000E+00  0.34136262269E+03  0.34136262269E+03  0.00000000000E+00 0. -1.
          2   -1    0    0  501    0  0.00000000000E+00 -0.00000000000E+00 -0.73324278013E+03  0.73324278013E+03  0.00000000000E+00 0. -1.
         36    2    1    2    0    0  0.00000000000E+00 -0.28421709430E-13 -0.39188015743E+03  0.10746054028E+04  0.10006031751E+04 0.  0.
         25    2    3    3    0    0  0.81052995155E+02 -0.11265423565E+03 -0.97701030431E+02  0.21098413756E+03  0.12533255810E+03 0.  0.
         35    2    3    3    0    0 -0.81052995155E+02  0.11265423565E+03 -0.29417912700E+03  0.86362126526E+03  0.80002485350E+03 0.  0.
         22    1    5    5    0    0 -0.24339265284E+03  0.29220472724E+03 -0.43957764731E+03  0.58125045728E+03  0.00000000000E+00 0.  1.
         22    1    5    5    0    0  0.16233965769E+03 -0.17955049159E+03  0.14539852031E+03  0.28237080798E+03  0.00000000000E+00 0.  1.
          5    1    4    4  502    0  0.27089201016E+02 -0.41258423930E+02  0.27744595765E+02  0.56814918385E+02  0.47000000000E+01 0. -1.
         -5    1    4    4    0  502  0.53963794140E+02 -0.71395811717E+02 -0.12544562620E+03  0.15416921917E+03  0.47000000000E+01 0. -1.
<mgrwt>
<rscale>  0 0.10006032E+04</rscale>
<asrwt>0</asrwt>
<pdfrwt beam="1">  1        2 0.11280658E+00 0.10006032E+04</pdfrwt>
<pdfrwt beam="2">  1       -2 0.52517327E-01 0.10006032E+04</pdfrwt>
<totfact> 0.15990229E+02</totfact>
</mgrwt>
</event>
<event>
 9    1  0.4236486E-036  0.1000118E+04  0.7818608E-02  0.8680926E-01
         -1   -1    0    0    0  501 -0.00000000000E+00  0.00000000000E+00  0.26782217015E+03  0.26782217015E+03  0.00000000000E+00 0. -1.
          1   -1    0    0  501    0  0.00000000000E+00 -0.00000000000E+00 -0.93367468297E+03  0.93367468297E+03  0.00000000000E+00 0. -1.
         36    2    1    2    0    0  0.14210854715E-13 -0.14210854715E-13 -0.66585251282E+03  0.12014968531E+04  0.10001175527E+04 0.  0.
         25    2    3    3    0    0 -0.49470127778E+01  0.92896001518E+02 -0.26038993667E+03  0.30361795081E+03  0.12540654251E+03 0.  0.
         35    2    3    3    0    0  0.49470127778E+01 -0.92896001518E+02 -0.40546257615E+03  0.89787890232E+03  0.79569622503E+03 0.  0.
         22    1    5    5    0    0 -0.25956880526E+03 -0.58317268303E+02  0.13264668528E+03  0.29727430357E+03  0.00000000000E+00 0.  1.
         22    1    5    5    0    0  0.26451581804E+03 -0.34578733215E+02 -0.53810926144E+03  0.60060459874E+03  0.00000000000E+00 0.  1.
          5    1    4    4  502    0  0.45225149577E+02  0.95407970533E+02 -0.17674721194E+03  0.20593606271E+03  0.47000000000E+01 0.  1.
         -5    1    4    4    0  502 -0.50172162355E+02 -0.25119690152E+01 -0.83642724727E+02  0.97681888104E+02  0.47000000000E+01 0.  1.
<mgrwt>
<rscale>  0 0.10001176E+04</rscale>
<asrwt>0</asrwt>
<pdfrwt beam="1">  1        1 0.14364226E+00 0.10001176E+04</pdfrwt>
<pdfrwt beam="2">  1       -1 0.41203411E-01 0.10001176E+04</pdfrwt>
<totfact> 0.11088733E+02</totfact>
</mgrwt>
</event>
<event>
 9    1  0.4236486E-036  0.1000738E+04  0.7818608E-02  0.8680336E-01
          2   -1    0    0  501    0  0.00000000000E+00  0.00000000000E+00  0.22073687348E+04  0.22073687348E+04  0.00000000000E+00 0. -1.
         -2   -1    0    0    0  501 -0.00000000000E+00 -0.00000000000E+00 -0.11342418672E+03  0.11342418672E+03  0.00000000000E+00 0. -1.
         36    2    1    2    0    0 -0.71054273576E-14  0.14210854715E-13  0.20939445481E+04  0.23207929215E+04  0.10007377349E+04 0.  0.
         25    2    3    3    0    0  0.47546218858E+02  0.69185700365E+00  0.86421661477E+02  0.15921596979E+03  0.12497959782E+03 0.  0.
         35    2    3    3    0    0 -0.47546218858E+02 -0.69185700365E+00  0.20075228866E+04  0.21615769518E+04  0.80000353525E+03 0.  0.
         22    1    5    5    0    0 -0.84540733050E+02  0.17024925877E+03  0.50396680958E+02  0.19665139488E+03  0.00000000000E+00 0.  1.
         22    1    5    5    0    0  0.36994514192E+02 -0.17094111577E+03  0.19571262057E+04  0.19649255569E+04  0.00000000000E+00 0.  1.
          5    1    4    4  502    0  0.66806785147E+02  0.47994341249E+02  0.51433406444E+02  0.97129236752E+02  0.47000000000E+01 0.  1.
         -5    1    4    4    0  502 -0.19260566288E+02 -0.47302484245E+02  0.34988255033E+02  0.62086733041E+02  0.47000000000E+01 0.  1.
<mgrwt>
<rscale>  0 0.10007377E+04</rscale>
<asrwt>0</asrwt>
<pdfrwt beam="1">  1        2 0.33959516E+00 0.10007377E+04</pdfrwt>
<pdfrwt beam="2">  1       -2 0.17449877E-01 0.10007377E+04</pdfrwt>
<totfact> 0.16097668E+02</totfact>
</mgrwt>
</event>
<event>
 9    1  0.4236486E-036  0.9995040E+03  0.7818608E-02  0.8681510E-01
          2   -1    0    0  501    0  0.00000000000E+00  0.00000000000E+00  0.25194004004E+04  0.25194004004E+04  0.00000000000E+00 0. -1.
         -2   -1    0    0    0  501 -0.00000000000E+00 -0.00000000000E+00 -0.99131542227E+02  0.99131542227E+02  0.00000000000E+00 0. -1.
         36    2    1    2    0    0 -0.42632564146E-13  0.00000000000E+00  0.24202688582E+04  0.26185319426E+04  0.99950397133E+03 0.  0.
         25    2    3    3    0    0 -0.11333016389E+03 -0.75510598401E+02  0.38098286771E+03  0.42345552510E+03  0.12498423794E+03 0.  0.
         35    2    3    3    0    0  0.11333016389E+03  0.75510598401E+02  0.20392859905E+04  0.21950764175E+04  0.80070440948E+03 0.  0.
         22    1    5    5    0    0 -0.29818017249E+03 -0.46154548366E+02  0.13485869787E+04  0.13819292662E+04  0.00000000000E+00 0. -1.
         22    1    5    5    0    0  0.41151033638E+03  0.12166514677E+03  0.69069901171E+03  0.81314715130E+03  0.00000000000E+00 0. -1.
          5    1    4    4  502    0 -0.12367369042E+03 -0.81310477147E+02  0.24077179212E+03  0.28266538747E+03  0.47000000000E+01 0.  1.
         -5    1    4    4    0  502  0.10343526534E+02  0.57998787453E+01  0.14021107559E+03  0.14079013763E+03  0.47000000000E+01 0.  1.
<mgrwt>
<rscale>  0 0.99950397E+03</rscale>
<asrwt>0</asrwt>
<pdfrwt beam="1">  1        2 0.38760001E+00 0.99950397E+03</pdfrwt>
<pdfrwt beam="2">  1       -2 0.15251008E-01 0.99950397E+03</pdfrwt>
<totfact> 0.13179409E+02</totfact>
</mgrwt>
</event>
<event>
 9    1  0.4236486E-036  0.9997744E+03  0.7818608E-02  0.8681253E-01
          1   -1    0    0  501    0  0.00000000000E+00  0.00000000000E+00  0.59355812456E+03  0.59355812456E+03  0.00000000000E+00 0. -1.
         -1   -1    0    0    0  501 -0.00000000000E+00 -0.00000000000E+00 -0.42099869806E+03  0.42099869806E+03  0.00000000000E+00 0. -1.
         36    2    1    2    0    0 -0.71054273576E-14  0.00000000000E+00  0.17255942650E+03  0.10145568226E+04  0.99977436986E+03 0.  0.
         25    2    3    3    0    0 -0.16263752895E+02  0.11566078551E+03  0.10989600015E+03  0.20377039205E+03  0.12571123604E+03 0.  0.
         35    2    3    3    0    0  0.16263752895E+02 -0.11566078551E+03  0.62663426350E+02  0.81078643056E+03  0.79987874332E+03 0.  0.
         22    1    5    5    0    0  0.74536087234E+02  0.25862963229E+03  0.26807216202E+03  0.37987840035E+03  0.00000000000E+00 0. -1.
         22    1    5    5    0    0 -0.58272334340E+02 -0.37429041780E+03 -0.20540873567E+03  0.43090803021E+03  0.00000000000E+00 0. -1.
          5    1    4    4  502    0  0.13859295947E+02 -0.77655110932E+01 -0.17284059243E+02  0.23941845180E+02  0.47000000000E+01 0. -1.
         -5    1    4    4    0  502 -0.30123048841E+02  0.12342629660E+03  0.12718005940E+03  0.17982854688E+03  0.47000000000E+01 0. -1.
<mgrwt>
<rscale>  0 0.99977437E+03</rscale>
<asrwt>0</asrwt>
<pdfrwt beam="1">  1        1 0.91316635E-01 0.99977437E+03</pdfrwt>
<pdfrwt beam="2">  1       -1 0.64769030E-01 0.99977437E+03</pdfrwt>
<totfact> 0.97941119E+01</totfact>
</mgrwt>
</event>
<event>
 9    1  0.4236486E-036  0.1006692E+04  0.7818608E-02  0.8674691E-01
          2   -1    0    0  501    0  0.00000000000E+00  0.00000000000E+00  0.23666399383E+04  0.23666399383E+04  0.00000000000E+00 0. -1.
         -2   -1    0    0    0  501 -0.00000000000E+00 -0.00000000000E+00 -0.10705361862E+03  0.10705361862E+03  0.00000000000E+00 0. -1.
         36    2    1    2    0    0  0.71054273576E-14  0.56843418861E-13  0.22595863197E+04  0.24736935569E+04  0.10066923450E+04 0.  0.
         25    2    3    3    0    0 -0.19894208045E+02 -0.14119931874E+03  0.53244214664E+03  0.56511928038E+03  0.12462798408E+03 0.  0.
         35    2    3    3    0    0  0.19894208045E+02  0.14119931874E+03  0.17271441730E+04  0.19085742765E+04  0.79955972101E+03 0.  0.
         22    1    5    5    0    0 -0.34344684713E+02  0.32666466142E+03  0.16771037067E+04  0.17089664132E+04  0.00000000000E+00 0. -1.
         22    1    5    5    0    0  0.54238892758E+02 -0.18546534268E+03  0.50040466285E+02  0.19960786329E+03  0.00000000000E+00 0. -1.
          5    1    4    4  502    0 -0.68366774744E+02 -0.11553476958E+03  0.37622645657E+03  0.39948809181E+03  0.47000000000E+01 0.  1.
         -5    1    4    4    0  502  0.48472566699E+02 -0.25664549161E+02  0.15621569007E+03  0.16563118858E+03  0.47000000000E+01 0.  1.
<mgrwt>
<rscale>  0 0.10066923E+04</rscale>
<asrwt>0</asrwt>
<pdfrwt beam="1">  1        2 0.36409841E+00 0.10066923E+04</pdfrwt>
<pdfrwt beam="2">  1       -2 0.16469789E-01 0.10066923E+04</pdfrwt>
<totfact> 0.14309773E+02</totfact>
</mgrwt>
</event>
<event>
 9    1  0.4236486E-036  0.1005778E+04  0.7818608E-02  0.8675555E-01
          1   -1    0    0  501    0  0.00000000000E+00  0.00000000000E+00  0.25154718426E+03  0.25154718426E+03  0.00000000000E+00 0.  1.
         -1   -1    0    0    0  501 -0.00000000000E+00 -0.00000000000E+00 -0.10053668214E+04  0.10053668214E+04  0.00000000000E+00 0.  1.
         36    2    1    2    0    0  0.28421709430E-13 -0.24868995752E-13 -0.75381963712E+03  0.12569140056E+04  0.10057776953E+04 0.  0.
         25    2    3    3    0    0 -0.12717815964E+03 -0.27442996407E+02 -0.59036420135E+02  0.18980635864E+03  0.12495500204E+03 0.  0.
         35    2    3    3    0    0  0.12717815964E+03  0.27442996407E+02 -0.69478321699E+03  0.10671076470E+04  0.79941704344E+03 0.  0.
         22    1    5    5    0    0  0.29968517555E+03  0.30666665667E+03 -0.19944738512E+03  0.47290052039E+03  0.00000000000E+00 0. -1.
         22    1    5    5    0    0 -0.17250701590E+03 -0.27922366026E+03 -0.49533583187E+03  0.59420712662E+03  0.00000000000E+00 0. -1.
          5    1    4    4  502    0  0.49713012533E+01  0.30496279436E+02 -0.28382597376E+02  0.42218464318E+02  0.47000000000E+01 0.  1.
         -5    1    4    4    0  502 -0.13214946090E+03 -0.57939275842E+02 -0.30653822759E+02  0.14758789432E+03  0.47000000000E+01 0.  1.
<mgrwt>
<rscale>  0 0.10057777E+04</rscale>
<asrwt>0</asrwt>
<pdfrwt beam="1">  1        1 0.38699567E-01 0.10057777E+04</pdfrwt>
<pdfrwt beam="2">  1       -1 0.15467182E+00 0.10057777E+04</pdfrwt>
<totfact> 0.41277440E+01</totfact>
</mgrwt>
</event>
<event>
 9    1  0.4236486E-036  0.9998280E+03  0.7818608E-02  0.8681202E-01
         -1   -1    0    0    0  501 -0.00000000000E+00  0.00000000000E+00  0.18247709454E+03  0.18247709454E+03  0.00000000000E+00 0.  1.
          1   -1    0    0  501    0  0.00000000000E+00 -0.00000000000E+00 -0.13695636170E+04  0.13695636170E+04  0.00000000000E+00 0.  1.
         36    2    1    2    0    0  0.14210854715E-13  0.35527136788E-13 -0.11870865224E+04  0.15520407115E+04  0.99982796442E+03 0.  0.
         25    2    3    3    0    0  0.53382099678E+02  0.30840263917E+02 -0.42030932859E+03  0.44226979275E+03  0.12305229551E+03 0.  0.
         35    2    3    3    0    0 -0.53382099678E+02 -0.30840263917E+02 -0.76677719384E+03  0.11097709188E+04  0.79990215445E+03 0.  0.
         22    1    5    5    0    0  0.75033286490E+02 -0.40004728613E+03 -0.33336204589E+03  0.52611603175E+03  0.00000000000E+00 0.  1.
         22    1    5    5    0    0 -0.12841538617E+03  0.36920702222E+03 -0.43341514796E+03  0.58365488702E+03  0.00000000000E+00 0.  1.
          5    1    4    4  502    0 -0.39675349431E+02  0.15897490858E+02 -0.11912004034E+03  0.12664334795E+03  0.47000000000E+01 0. -1.
         -5    1    4    4    0  502  0.93057449109E+02  0.14942773059E+02 -0.30118928825E+03  0.31562644480E+03  0.47000000000E+01 0. -1.
<mgrwt>
<rscale>  0 0.99982796E+03</rscale>
<asrwt>0</asrwt>
<pdfrwt beam="1">  1        1 0.21070209E+00 0.99982796E+03</pdfrwt>
<pdfrwt beam="2">  1       -1 0.28073399E-01 0.99982796E+03</pdfrwt>
<totfact> 0.10076995E+02</totfact>
</mgrwt>
</event>
<event>
 9    1  0.4236486E-036  0.9996758E+03  0.7818608E-02  0.8681347E-01
         -2   -1    0    0    0  501 -0.00000000000E+00  0.00000000000E+00  0.61831057844E+03  0.61831057844E+03  0.00000000000E+00 0. -1.
          2   -1    0    0  501    0  0.00000000000E+00 -0.00000000000E+00 -0.40406545263E+03  0.40406545263E+03  0.00000000000E+00 0. -1.
         36    2    1    2    0    0 -0.28421709430E-13  0.71054273576E-14  0.21424512581E+03  0.10223760311E+04  0.99967583494E+03 0.  0.
         25    2    3    3    0    0 -0.72985206365E+02  0.14463547174E+02  0.16242064082E+03  0.21696461419E+03  0.12311435620E+03 0.  0.
         35    2    3    3    0    0  0.72985206365E+02 -0.14463547174E+02  0.51824484989E+02  0.80541141687E+03  0.80029103371E+03 0.  0.
         22    1    5    5    0    0  0.37724444898E+03 -0.10885158036E+03  0.21483125458E+03  0.44756508888E+03  0.00000000000E+00 0. -1.
         22    1    5    5    0    0 -0.30425924262E+03  0.94388033187E+02 -0.16300676959E+03  0.35784632800E+03  0.00000000000E+00 0. -1.
          5    1    4    4  502    0  0.35707354747E+01  0.56185681918E+02  0.66405145489E+02  0.87185516870E+02  0.47000000000E+01 0. -1.
         -5    1    4    4    0  502 -0.76555941840E+02 -0.41722134744E+02  0.96015495329E+02  0.12977909732E+03  0.47000000000E+01 0. -1.
<mgrwt>
<rscale>  0 0.99967583E+03</rscale>
<asrwt>0</asrwt>
<pdfrwt beam="1">  1        2 0.62163916E-01 0.99967583E+03</pdfrwt>
<pdfrwt beam="2">  1       -2 0.95124704E-01 0.99967583E+03</pdfrwt>
<totfact> 0.87056627E+01</totfact>
</mgrwt>
</event>
<event>
 9    1  0.4236486E-036  0.9994833E+03  0.7818608E-02  0.8681530E-01
          1   -1    0    0  501    0  0.00000000000E+00  0.00000000000E+00  0.16151927286E+04  0.16151927286E+04  0.00000000000E+00 0. -1.
         -1   -1    0    0    0  501 -0.00000000000E+00 -0.00000000000E+00 -0.15462039432E+03  0.15462039432E+03  0.00000000000E+00 0. -1.
         36    2    1    2    0    0 -0.28421709430E-13  0.28421709430E-13  0.14605723343E+04  0.17698131230E+04  0.99948333974E+03 0.  0.
         25    2    3    3    0    0 -0.81177154070E+02  0.66894764163E+02  0.11278443602E+03  0.19888848355E+03  0.12558527010E+03 0.  0.
         35    2    3    3    0    0  0.81177154070E+02 -0.66894764163E+02  0.13477878983E+04  0.15709246394E+04  0.80012959206E+03 0.  0.
         22    1    5    5    0    0  0.20689599502E+03 -0.20567503567E+03  0.98847602419E+02  0.30802438468E+03  0.00000000000E+00 0. -1.
         22    1    5    5    0    0 -0.12571884095E+03  0.13878027151E+03  0.12489402959E+04  0.12629002547E+04  0.00000000000E+00 0. -1.
          5    1    4    4  502    0  0.55728514788E+01  0.49644218707E+02  0.96592045179E+02  0.10884722466E+03  0.47000000000E+01 0.  1.
         -5    1    4    4    0  502 -0.86750005549E+02  0.17250545456E+02  0.16192390844E+02  0.90041258890E+02  0.47000000000E+01 0.  1.
<mgrwt>
<rscale>  0 0.99948334E+03</rscale>
<asrwt>0</asrwt>
<pdfrwt beam="1">  1        1 0.24849118E+00 0.99948334E+03</pdfrwt>
<pdfrwt beam="2">  1       -1 0.23787754E-01 0.99948334E+03</pdfrwt>
<totfact> 0.88993693E+01</totfact>
</mgrwt>
</event>
<event>
 9    1  0.4236486E-036  0.9980285E+03  0.7818608E-02  0.8682918E-01
          2   -1    0    0  501    0  0.00000000000E+00  0.00000000000E+00  0.27479180442E+04  0.27479180442E+04  0.00000000000E+00 0. -1.
         -2   -1    0    0    0  501 -0.00000000000E+00 -0.00000000000E+00 -0.90619597360E+02  0.90619597360E+02  0.00000000000E+00 0. -1.
         36    2    1    2    0    0  0.00000000000E+00  0.28421709430E-13  0.26572984469E+04  0.28385376416E+04  0.99802851010E+03 0.  0.
         25    2    3    3    0    0  0.97838986476E+02 -0.98340407937E+02  0.53269016846E+03  0.56432748635E+03  0.12435189247E+03 0.  0.
         35    2    3    3    0    0 -0.97838986476E+02  0.98340407937E+02  0.21246082784E+04  0.22742101552E+04  0.79926728347E+03 0.  0.
         22    1    5    5    0    0 -0.13367214904E+03  0.44006164650E+03  0.13679215123E+04  0.14431672668E+04  0.00000000000E+00 0.  1.
         22    1    5    5    0    0  0.35833162560E+02 -0.34172123857E+03  0.75668676608E+03  0.83104288841E+03  0.00000000000E+00 0.  1.
          5    1    4    4  502    0 -0.26795380754E+02 -0.25739852334E+02  0.66615640921E+02  0.76421633346E+02  0.47000000000E+01 0. -1.
         -5    1    4    4    0  502  0.12463436723E+03 -0.72600555603E+02  0.46607452754E+03  0.48790585300E+03  0.47000000000E+01 0. -1.
<mgrwt>
<rscale>  0 0.99802851E+03</rscale>
<asrwt>0</asrwt>
<pdfrwt beam="1">  1        2 0.42275656E+00 0.99802851E+03</pdfrwt>
<pdfrwt beam="2">  1       -2 0.13941479E-01 0.99802851E+03</pdfrwt>
<totfact> 0.11035798E+02</totfact>
</mgrwt>
</event>
<event>
 9    1  0.4236486E-036  0.1000459E+04  0.7818608E-02  0.8680601E-01
         -1   -1    0    0    0  501 -0.00000000000E+00  0.00000000000E+00  0.10145866636E+04  0.10145866636E+04  0.00000000000E+00 0.  1.
          1   -1    0    0  501    0  0.00000000000E+00 -0.00000000000E+00 -0.24663212186E+03  0.24663212186E+03  0.00000000000E+00 0.  1.
         36    2    1    2    0    0 -0.28421709430E-13  0.14210854715E-13  0.76795454174E+03  0.12612187855E+04  0.10004592179E+04 0.  0.
         25    2    3    3    0    0 -0.89146505404E+02 -0.93850806195E+02  0.77191005419E+02  0.19654116078E+03  0.12615428376E+03 0.  0.
         35    2    3    3    0    0  0.89146505404E+02  0.93850806195E+02  0.69076353632E+03  0.10646776247E+04  0.79976815899E+03 0.  0.
         22    1    5    5    0    0 -0.22478863483E+03 -0.18696484380E+03  0.48138366712E+02  0.29631585431E+03  0.00000000000E+00 0.  1.
         22    1    5    5    0    0  0.31393514023E+03  0.28081565000E+03  0.64262516961E+03  0.76836177037E+03  0.00000000000E+00 0.  1.
          5    1    4    4  502    0 -0.28634628102E+01 -0.64458918862E+02  0.82823023777E+02  0.10509469495E+03  0.47000000000E+01 0. -1.
         -5    1    4    4    0  502 -0.86283042594E+02 -0.29391887333E+02 -0.56320183579E+01  0.91446465821E+02  0.47000000000E+01 0. -1.
<mgrwt>
<rscale>  0 0.10004592E+04</rscale>
<asrwt>0</asrwt>
<pdfrwt beam="1">  1        1 0.37943404E-01 0.10004592E+04</pdfrwt>
<pdfrwt beam="2">  1       -1 0.15609025E+00 0.10004592E+04</pdfrwt>
<totfact> 0.41236023E+01</totfact>
</mgrwt>
</event>
<event>
 9    1  0.4236486E-036  0.9990048E+03  0.7818608E-02  0.8681986E-01
          2   -1    0    0  501    0  0.00000000000E+00  0.00000000000E+00  0.19243436205E+04  0.19243436205E+04  0.00000000000E+00 0. -1.
         -2   -1    0    0    0  501 -0.00000000000E+00 -0.00000000000E+00 -0.12965596654E+03  0.12965596654E+03  0.00000000000E+00 0. -1.
         36    2    1    2    0    0 -0.28421709430E-13 -0.14210854715E-13  0.17946876540E+04  0.20539995871E+04  0.99900476892E+03 0.  0.
         25    2    3    3    0    0  0.10875900301E+03 -0.79002147721E+02  0.40718360258E+03  0.44658735150E+03  0.12478748427E+03 0.  0.
         35    2    3    3    0    0 -0.10875900301E+03  0.79002147721E+02  0.13875040514E+04  0.16074122356E+04  0.80033539363E+03 0.  0.
         22    1    5    5    0    0 -0.37279871552E+03  0.57810990384E+02  0.12564745407E+04  0.13118876721E+04  0.00000000000E+00 0. -1.
         22    1    5    5    0    0  0.26403971250E+03  0.21191157338E+02  0.13102951077E+03  0.29552456348E+03  0.00000000000E+00 0. -1.
          5    1    4    4  502    0  0.64160013383E+02 -0.11007776510E+03  0.25906256143E+03  0.28873711646E+03  0.47000000000E+01 0.  1.
         -5    1    4    4    0  502  0.44598989631E+02  0.31075617381E+02  0.14812104115E+03  0.15785023504E+03  0.47000000000E+01 0.  1.
<mgrwt>
<rscale>  0 0.99900477E+03</rscale>
<asrwt>0</asrwt>
<pdfrwt beam="1">  1        2 0.29605284E+00 0.99900477E+03</pdfrwt>
<pdfrwt beam="2">  1       -2 0.19947073E-01 0.99900477E+03</pdfrwt>
<totfact> 0.18592621E+02</totfact>
</mgrwt>
</event>
<event>
 9    1  0.4236486E-036  0.1001113E+04  0.7818608E-02  0.8679979E-01
          2   -1    0    0  501    0  0.00000000000E+00  0.00000000000E+00  0.12302915249E+04  0.12302915249E+04  0.00000000000E+00 0.  1.
         -2   -1    0    0    0  501 -0.00000000000E+00 -0.00000000000E+00 -0.20365654471E+03  0.20365654471E+03  0.00000000000E+00 0.  1.
         36    2    1    2    0    0  0.00000000000E+00  0.00000000000E+00  0.10266349802E+04  0.14339480697E+04  0.10011132223E+04 0.  0.
         25    2    3    3    0    0  0.10250577271E+03  0.41353776964E+02  0.67739535148E+02  0.18061469972E+03  0.12575951982E+03 0.  0.
         35    2    3    3    0    0 -0.10250577271E+03 -0.41353776964E+02  0.95889544508E+03  0.12533333699E+04  0.79946638034E+03 0.  0.
         22    1    5    5    0    0  0.14437575685E+03 -0.72179327968E+02 -0.83448148058E+02  0.18170802945E+03  0.00000000000E+00 0. -1.
         22    1    5    5    0    0 -0.24688152955E+03  0.30825551004E+02  0.10423435931E+04  0.10716253405E+04  0.00000000000E+00 0. -1.
          5    1    4    4  502    0  0.67065390361E+02  0.20920021087E+02 -0.28482065130E+02  0.75952168505E+02  0.47000000000E+01 0.  1.
         -5    1    4    4    0  502  0.35440382344E+02  0.20433755877E+02  0.96221600278E+02  0.10466253121E+03  0.47000000000E+01 0.  1.
<mgrwt>
<rscale>  0 0.10011132E+04</rscale>
<asrwt>0</asrwt>
<pdfrwt beam="1">  1        2 0.18927561E+00 0.10011132E+04</pdfrwt>
<pdfrwt beam="2">  1       -2 0.31331777E-01 0.10011132E+04</pdfrwt>
<totfact> 0.20670520E+02</totfact>
</mgrwt>
</event>
<event>
 9    1  0.4236486E-036  0.9998310E+03  0.7818608E-02  0.8681199E-01
         -1   -1    0    0    0  501 -0.00000000000E+00  0.00000000000E+00  0.28075117928E+03  0.28075117928E+03  0.00000000000E+00 0.  1.
          1   -1    0    0  501    0  0.00000000000E+00 -0.00000000000E+00 -0.89016729847E+03  0.89016729847E+03  0.00000000000E+00 0.  1.
         36    2    1    2    0    0  0.00000000000E+00 -0.71054273576E-14 -0.60941611919E+03  0.11709184778E+04  0.99983102333E+03 0.  0.
         25    2    3    3    0    0 -0.10405207106E+03  0.58611050539E+02 -0.20389663827E+03  0.26621196862E+03  0.12260866365E+03 0.  0.
         35    2    3    3    0    0  0.10405207106E+03 -0.58611050539E+02 -0.40551948093E+03  0.90470650914E+03  0.79986606974E+03 0.  0.
         22    1    5    5    0    0  0.27946911192E+03  0.56668583181E+02  0.14183526874E+03  0.31848321196E+03  0.00000000000E+00 0.  1.
         22    1    5    5    0    0 -0.17541704086E+03 -0.11527963372E+03 -0.54735474967E+03  0.58622329718E+03  0.00000000000E+00 0.  1.
          5    1    4    4  502    0 -0.16316324552E+02  0.17241691859E+02 -0.15611614251E+03  0.15798049987E+03  0.47000000000E+01 0. -1.
         -5    1    4    4    0  502 -0.87735746513E+02  0.41369358679E+02 -0.47780495754E+02  0.10823146875E+03  0.47000000000E+01 0. -1.
<mgrwt>
<rscale>  0 0.99983102E+03</rscale>
<asrwt>0</asrwt>
<pdfrwt beam="1">  1        1 0.13694882E+00 0.99983102E+03</pdfrwt>
<pdfrwt beam="2">  1       -1 0.43192489E-01 0.99983102E+03</pdfrwt>
<totfact> 0.11069529E+02</totfact>
</mgrwt>
</event>
<event>
 9    1  0.4236486E-036  0.1000595E+04  0.7818608E-02  0.8680472E-01
         -1   -1    0    0    0  501 -0.00000000000E+00  0.00000000000E+00  0.10804465673E+04  0.10804465673E+04  0.00000000000E+00 0.  1.
          1   -1    0    0  501    0  0.00000000000E+00 -0.00000000000E+00 -0.23166123101E+03  0.23166123101E+03  0.00000000000E+00 0.  1.
         36    2    1    2    0    0  0.14210854715E-13 -0.71054273576E-14  0.84878533631E+03  0.13121077983E+04  0.10005949866E+04 0.  0.
         25    2    3    3    0    0 -0.91936158318E+02 -0.31487511954E+02  0.27185009084E+02  0.16050068254E+03  0.12481075179E+03 0.  0.
         35    2    3    3    0    0  0.91936158318E+02  0.31487511954E+02  0.82160032722E+03  0.11516071158E+04  0.80107935364E+03 0.  0.
         22    1    5    5    0    0  0.29223791565E+03 -0.19037538141E+03  0.88379230329E+02  0.35980088041E+03  0.00000000000E+00 0.  1.
         22    1    5    5    0    0 -0.20030175734E+03  0.22186289337E+03  0.73322109689E+03  0.79180623537E+03  0.00000000000E+00 0.  1.
          5    1    4    4  502    0 -0.60023070850E+02 -0.74278038340E+02 -0.86981635878E+01  0.96009083236E+02  0.47000000000E+01 0.  1.
         -5    1    4    4    0  502 -0.31913087468E+02  0.42790526386E+02  0.35883172672E+02  0.64491599306E+02  0.47000000000E+01 0.  1.
<mgrwt>
<rscale>  0 0.10005950E+04</rscale>
<asrwt>0</asrwt>
<pdfrwt beam="1">  1        1 0.35640190E-01 0.10005950E+04</pdfrwt>
<pdfrwt beam="2">  1       -1 0.16622255E+00 0.10005950E+04</pdfrwt>
<totfact> 0.36798501E+01</totfact>
</mgrwt>
</event>
<event>
 9    1  0.4236486E-036  0.9994295E+03  0.7818608E-02  0.8681581E-01
         -2   -1    0    0    0  501 -0.00000000000E+00  0.00000000000E+00  0.38032876671E+03  0.38032876671E+03  0.00000000000E+00 0. -1.
          2   -1    0    0  501    0  0.00000000000E+00 -0.00000000000E+00 -0.65657620014E+03  0.65657620014E+03  0.00000000000E+00 0. -1.
         36    2    1    2    0    0 -0.35527136788E-14  0.28421709430E-13 -0.27624743343E+03  0.10369049669E+04  0.99942947015E+03 0.  0.
         25    2    3    3    0    0  0.28355331019E+02  0.11571785166E+03  0.22842405287E+02  0.17404344702E+03  0.12479863774E+03 0.  0.
         35    2    3    3    0    0 -0.28355331019E+02 -0.11571785166E+03 -0.29908983872E+03  0.86286151983E+03  0.80055020130E+03 0.  0.
         22    1    5    5    0    0  0.10868210246E+03  0.89672623015E+02 -0.51557786412E+03  0.53448434279E+03  0.00000000000E+00 0. -1.
         22    1    5    5    0    0 -0.13703743347E+03 -0.20539047468E+03  0.21648802541E+03  0.32837717705E+03  0.00000000000E+00 0. -1.
          5    1    4    4  502    0  0.45850997495E+01 -0.82620219697E+01  0.44623087220E+02  0.45854051727E+02  0.47000000000E+01 0.  1.
         -5    1    4    4    0  502  0.23770231269E+02  0.12397987363E+03 -0.21780681933E+02  0.12818939529E+03  0.47000000000E+01 0.  1.
<mgrwt>
<rscale>  0 0.99942947E+03</rscale>
<asrwt>0</asrwt>
<pdfrwt beam="1">  1        2 0.10101172E+00 0.99942947E+03</pdfrwt>
<pdfrwt beam="2">  1       -2 0.58512119E-01 0.99942947E+03</pdfrwt>
<totfact> 0.14672471E+02</totfact>
</mgrwt>
</event>
<event>
 9    1  0.4236486E-036  0.1000150E+04  0.7818608E-02  0.8680895E-01
          1   -1    0    0  501    0  0.00000000000E+00  0.00000000000E+00  0.72376790990E+03  0.72376790990E+03  0.00000000000E+00 0. -1.
         -1   -1    0    0    0  501 -0.00000000000E+00 -0.00000000000E+00 -0.34551814470E+03  0.34551814470E+03  0.00000000000E+00 0. -1.
         36    2    1    2    0    0  0.00000000000E+00 -0.14210854715E-13  0.37824976520E+03  0.10692860546E+04  0.10001498796E+04 0.  0.
         25    2    3    3    0    0 -0.63194426033E+02 -0.10733848785E+03  0.13675931323E+03  0.22329643319E+03  0.12507238250E+03 0.  0.
         35    2    3    3    0    0  0.63194426033E+02  0.10733848785E+03  0.24149045197E+03  0.84598962141E+03  0.80116522309E+03 0.  0.
         22    1    5    5    0    0  0.38005210200E+03  0.24275843790E+03  0.55367525187E+02  0.45435319108E+03  0.00000000000E+00 0. -1.
         22    1    5    5    0    0 -0.31685767596E+03 -0.13541995005E+03  0.18612292678E+03  0.39163643033E+03  0.00000000000E+00 0. -1.
          5    1    4    4  502    0 -0.92899793483E+02 -0.11074116043E+03  0.12378953160E+03  0.19036783966E+03  0.47000000000E+01 0. -1.
         -5    1    4    4    0  502  0.29705367450E+02  0.34026725834E+01  0.12969781627E+02  0.32928593525E+02  0.47000000000E+01 0. -1.
<mgrwt>
<rscale>  0 0.10001499E+04</rscale>
<asrwt>0</asrwt>
<pdfrwt beam="1">  1        1 0.11134891E+00 0.10001499E+04</pdfrwt>
<pdfrwt beam="2">  1       -1 0.53156638E-01 0.10001499E+04</pdfrwt>
<totfact> 0.10600537E+02</totfact>
</mgrwt>
</event>
<event>
 9    1  0.4236486E-036  0.9998156E+03  0.7818608E-02  0.8681214E-01
         -3   -1    0    0    0  501 -0.00000000000E+00  0.00000000000E+00  0.84759955456E+02  0.84759955456E+02  0.00000000000E+00 0.  1.
          3   -1    0    0  501    0  0.00000000000E+00 -0.00000000000E+00 -0.29484181052E+04  0.29484181052E+04  0.00000000000E+00 0.  1.
         36    2    1    2    0    0 -0.14210854715E-13 -0.42632564146E-13 -0.28636581497E+04  0.30331780607E+04  0.99981555752E+03 0.  0.
         25    2    3    3    0    0  0.99198506954E+02  0.95812114604E+02 -0.62539293067E+03  0.65241707084E+03  0.12454481723E+03 0.  0.
         35    2    3    3    0    0 -0.99198506954E+02 -0.95812114604E+02 -0.22382652191E+04  0.23807609898E+04  0.79948195393E+03 0.  0.
         22    1    5    5    0    0 -0.17688100380E+03 -0.28312387837E+03 -0.21197701969E+04  0.21458964811E+04  0.00000000000E+00 0. -1.
         22    1    5    5    0    0  0.77682496841E+02  0.18731176377E+03 -0.11849502215E+03  0.23486450868E+03  0.00000000000E+00 0. -1.
          5    1    4    4  502    0 -0.15146776984E+02  0.64219119605E+02 -0.25638223659E+03  0.26477813621E+03  0.47000000000E+01 0. -1.
         -5    1    4    4    0  502  0.11434528394E+03  0.31592994999E+02 -0.36901069408E+03  0.38763893463E+03  0.47000000000E+01 0. -1.
<mgrwt>
<rscale>  0 0.99981556E+03</rscale>
<asrwt>0</asrwt>
<pdfrwt beam="1">  1        3 0.45360279E+00 0.99981556E+03</pdfrwt>
<pdfrwt beam="2">  1       -3 0.13039993E-01 0.99981556E+03</pdfrwt>
<totfact> 0.31149358E+00</totfact>
</mgrwt>
</event>
<event>
 9    1  0.4236486E-036  0.9998888E+03  0.7818608E-02  0.8681144E-01
          2   -1    0    0  501    0  0.00000000000E+00  0.00000000000E+00  0.41568263433E+04  0.41568263433E+04  0.00000000000E+00 0. -1.
         -2   -1    0    0    0  501 -0.00000000000E+00 -0.00000000000E+00 -0.60128656933E+02  0.60128656933E+02  0.00000000000E+00 0. -1.
         36    2    1    2    0    0  0.00000000000E+00  0.14210854715E-13  0.40966976863E+04  0.42169550002E+04  0.99988876406E+03 0.  0.
         25    2    3    3    0    0 -0.93517433406E+02  0.99875592817E+02  0.92393307842E+03  0.94218621806E+03  0.12386239017E+03 0.  0.
         35    2    3    3    0    0  0.93517433406E+02 -0.99875592817E+02  0.31727646079E+04  0.32747687821E+04  0.79934640482E+03 0.  0.
         22    1    5    5    0    0  0.43900262334E+03 -0.55503548476E+02  0.21263147180E+04  0.21718697537E+04  0.00000000000E+00 0.  1.
         22    1    5    5    0    0 -0.34548518993E+03 -0.44372044341E+02  0.10464498899E+04  0.11028990284E+04  0.00000000000E+00 0.  1.
          5    1    4    4  502    0 -0.10345305555E+03  0.10903021645E+03  0.62216451307E+03  0.64007881869E+03  0.47000000000E+01 0. -1.
         -5    1    4    4    0  502  0.99356221494E+01 -0.91546236290E+01  0.30176856535E+03  0.30210739937E+03  0.47000000000E+01 0. -1.
<mgrwt>
<rscale>  0 0.99988876E+03</rscale>
<asrwt>0</asrwt>
<pdfrwt beam="1">  1        2 0.63951152E+00 0.99988876E+03</pdfrwt>
<pdfrwt beam="2">  1       -2 0.92505658E-02 0.99988876E+03</pdfrwt>
<totfact> 0.18679133E+01</totfact>
</mgrwt>
</event>
<event>
 9    1  0.4236486E-036  0.9998631E+03  0.7818608E-02  0.8681168E-01
         -1   -1    0    0    0  501 -0.00000000000E+00  0.00000000000E+00  0.10227094661E+03  0.10227094661E+03  0.00000000000E+00 0.  1.
          1   -1    0    0  501    0  0.00000000000E+00 -0.00000000000E+00 -0.24438179841E+04  0.24438179841E+04  0.00000000000E+00 0.  1.
         36    2    1    2    0    0  0.14210854715E-13  0.28421709430E-13 -0.23415470375E+04  0.25460889307E+04  0.99986314780E+03 0.  0.
         25    2    3    3    0    0  0.59066373839E+02  0.12476591152E+03 -0.38316611617E+03  0.42602733772E+03  0.12501060237E+03 0.  0.
         35    2    3    3    0    0 -0.59066373839E+02 -0.12476591152E+03 -0.19583809213E+04  0.21200615930E+04  0.80021869256E+03 0.  0.
         22    1    5    5    0    0  0.30565092102E+03 -0.23887412509E+03 -0.64943829940E+03  0.75647434715E+03  0.00000000000E+00 0. -1.
         22    1    5    5    0    0 -0.36471729486E+03  0.11410821357E+03 -0.13089426219E+04  0.13635872458E+04  0.00000000000E+00 0. -1.
          5    1    4    4  502    0  0.62527186936E+02  0.43768315764E+01 -0.97878389640E+02  0.11632314868E+03  0.47000000000E+01 0. -1.
         -5    1    4    4    0  502 -0.34608130971E+01  0.12038907995E+03 -0.28528772653E+03  0.30970418904E+03  0.47000000000E+01 0. -1.
<mgrwt>
<rscale>  0 0.99986315E+03</rscale>
<asrwt>0</asrwt>
<pdfrwt beam="1">  1        1 0.37597197E+00 0.99986315E+03</pdfrwt>
<pdfrwt beam="2">  1       -1 0.15733993E-01 0.99986315E+03</pdfrwt>
<totfact> 0.46023138E+01</totfact>
</mgrwt>
</event>
<event>
 9    1  0.4236486E-036  0.9995028E+03  0.7818608E-02  0.8681512E-01
         -2   -1    0    0    0  501 -0.00000000000E+00  0.00000000000E+00  0.16423382240E+03  0.16423382240E+03  0.00000000000E+00 0. -1.
          2   -1    0    0  501    0  0.00000000000E+00 -0.00000000000E+00 -0.15207065975E+04  0.15207065975E+04  0.00000000000E+00 0. -1.
         36    2    1    2    0    0 -0.71054273576E-14  0.00000000000E+00 -0.13564727751E+04  0.16849404199E+04  0.99950279092E+03 0.  0.
         25    2    3    3    0    0  0.46010300142E+02  0.44427247615E+02 -0.46255991780E+03  0.48330120274E+03  0.12460997938E+03 0.  0.
         35    2    3    3    0    0 -0.46010300142E+02 -0.44427247615E+02 -0.89391285735E+03  0.12016392172E+04  0.80047853423E+03 0.  0.
         22    1    5    5    0    0 -0.31569278487E+02 -0.37205841843E+03 -0.17688708203E+03  0.41317444966E+03  0.00000000000E+00 0.  1.
         22    1    5    5    0    0 -0.14441021655E+02  0.32763117081E+03 -0.71702577532E+03  0.78846476755E+03  0.00000000000E+00 0.  1.
          5    1    4    4  502    0 -0.27774063731E+02  0.55641351584E+02 -0.26010649478E+03  0.26747866690E+03  0.47000000000E+01 0.  1.
         -5    1    4    4    0  502  0.73784363873E+02 -0.11214103969E+02 -0.20245342302E+03  0.21582253583E+03  0.47000000000E+01 0.  1.
<mgrwt>
<rscale>  0 0.99950279E+03</rscale>
<asrwt>0</asrwt>
<pdfrwt beam="1">  1        2 0.23395485E+00 0.99950279E+03</pdfrwt>
<pdfrwt beam="2">  1       -2 0.25266743E-01 0.99950279E+03</pdfrwt>
<totfact> 0.20760662E+02</totfact>
</mgrwt>
</event>
<event>
 9    1  0.4236486E-036  0.1001784E+04  0.7818608E-02  0.8679341E-01
         -1   -1    0    0    0  501 -0.00000000000E+00  0.00000000000E+00  0.22160511013E+03  0.22160511013E+03  0.00000000000E+00 0. -1.
          1   -1    0    0  501    0  0.00000000000E+00 -0.00000000000E+00 -0.11321613573E+04  0.11321613573E+04  0.00000000000E+00 0. -1.
         36    2    1    2    0    0  0.28421709430E-13 -0.17763568394E-13 -0.91055624720E+03  0.13537664675E+04  0.10017838934E+04 0.  0.
         25    2    3    3    0    0  0.14382335186E+03 -0.14165305115E+02 -0.13109862450E+03  0.23218247274E+03  0.12584132426E+03 0.  0.
         35    2    3    3    0    0 -0.14382335186E+03  0.14165305115E+02 -0.77945762270E+03  0.11215839947E+04  0.79341707771E+03 0.  0.
         22    1    5    5    0    0 -0.36879896023E+03  0.17713100371E+03 -0.73367293328E+03  0.84003811734E+03  0.00000000000E+00 0. -1.
         22    1    5    5    0    0  0.22497560837E+03 -0.16296569860E+03 -0.45784689412E+02  0.28154587737E+03  0.00000000000E+00 0. -1.
          5    1    4    4  502    0  0.33213829624E+02  0.20890050454E+02 -0.10634052022E+03  0.11344579731E+03  0.47000000000E+01 0.  1.
         -5    1    4    4    0  502  0.11060952224E+03 -0.35055355569E+02 -0.24758104276E+02  0.11873667543E+03  0.47000000000E+01 0.  1.
<mgrwt>
<rscale>  0 0.10017839E+04</rscale>
<asrwt>0</asrwt>
<pdfrwt beam="1">  1        1 0.17417867E+00 0.10017839E+04</pdfrwt>
<pdfrwt beam="2">  1       -1 0.34093094E-01 0.10017839E+04</pdfrwt>
<totfact> 0.10808879E+02</totfact>
</mgrwt>
</event>
<event>
 9    1  0.4236486E-036  0.1002079E+04  0.7818608E-02  0.8679061E-01
          1   -1    0    0  501    0  0.00000000000E+00  0.00000000000E+00  0.10787477122E+04  0.10787477122E+04  0.00000000000E+00 0.  1.
         -1   -1    0    0    0  501 -0.00000000000E+00 -0.00000000000E+00 -0.23271467682E+03  0.23271467682E+03  0.00000000000E+00 0.  1.
         36    2    1    2    0    0  0.71054273576E-14 -0.28421709430E-13  0.84603303540E+03  0.13114623890E+04  0.10020786900E+04 0.  0.
         25    2    3    3    0    0 -0.24962429112E+01  0.13981736857E+03  0.12470296836E+03  0.22542775572E+03  0.12534637988E+03 0.  0.
         35    2    3    3    0    0  0.24962429112E+01 -0.13981736857E+03  0.72133006704E+03  0.10860346333E+04  0.79974935533E+03 0.  0.
         22    1    5    5    0    0 -0.27284695720E+03 -0.36497805364E+03  0.42411962057E+03  0.62252059745E+03  0.00000000000E+00 0.  1.
         22    1    5    5    0    0  0.27534320012E+03  0.22516068507E+03  0.29721044647E+03  0.46351403586E+03  0.00000000000E+00 0.  1.
          5    1    4    4  502    0 -0.62813179893E+02  0.55490894146E+02  0.52817421822E+02  0.99179155821E+02  0.47000000000E+01 0.  1.
         -5    1    4    4    0  502  0.60316936982E+02  0.84326474427E+02  0.71885546538E+02  0.12624859990E+03  0.47000000000E+01 0.  1.
<mgrwt>
<rscale>  0 0.10020787E+04</rscale>
<asrwt>0</asrwt>
<pdfrwt beam="1">  1        1 0.16596118E+00 0.10020787E+04</pdfrwt>
<pdfrwt beam="2">  1       -1 0.35802259E-01 0.10020787E+04</pdfrwt>
<totfact> 0.10904942E+02</totfact>
</mgrwt>
</event>
<event>
 9    1  0.4236486E-036  0.9999384E+03  0.7818608E-02  0.8681097E-01
          2   -1    0    0  501    0  0.00000000000E+00  0.00000000000E+00  0.68466352316E+03  0.68466352316E+03  0.00000000000E+00 0. -1.
         -2   -1    0    0    0  501 -0.00000000000E+00 -0.00000000000E+00 -0.36509787889E+03  0.36509787889E+03  0.00000000000E+00 0. -1.
         36    2    1    2    0    0  0.35527136788E-14  0.00000000000E+00  0.31956564427E+03  0.10497614020E+04  0.99993839821E+03 0.  0.
         25    2    3    3    0    0 -0.22120422119E+02  0.13250003470E+03  0.20661260391E+02  0.18441374528E+03  0.12464336924E+03 0.  0.
         35    2    3    3    0    0  0.22120422119E+02 -0.13250003470E+03  0.29890438388E+03  0.86534765676E+03  0.80089772387E+03 0.  0.
         22    1    5    5    0    0 -0.12908432273E+02  0.10718247477E+02 -0.27362473101E+03  0.27413865447E+03  0.00000000000E+00 0. -1.
         22    1    5    5    0    0  0.35028854392E+02 -0.14321828218E+03  0.57252911489E+03  0.59120900229E+03  0.00000000000E+00 0. -1.
          5    1    4    4  502    0 -0.39538034206E+02  0.15108389477E+03  0.24757004739E+02  0.15819165178E+03  0.47000000000E+01 0.  1.
         -5    1    4    4    0  502  0.17417612087E+02 -0.18583860068E+02 -0.40957443475E+01  0.26222093502E+02  0.47000000000E+01 0.  1.
<mgrwt>
<rscale>  0 0.99993840E+03</rscale>
<asrwt>0</asrwt>
<pdfrwt beam="1">  1        2 0.10533285E+00 0.99993840E+03</pdfrwt>
<pdfrwt beam="2">  1       -2 0.56168904E-01 0.99993840E+03</pdfrwt>
<totfact> 0.15172540E+02</totfact>
</mgrwt>
</event>
<event>
 9    1  0.4236486E-036  0.9987634E+03  0.7818608E-02  0.8682216E-01
          1   -1    0    0  501    0  0.00000000000E+00  0.00000000000E+00  0.18350637942E+04  0.18350637942E+04  0.00000000000E+00 0. -1.
         -1   -1    0    0    0  501 -0.00000000000E+00 -0.00000000000E+00 -0.13589832691E+03  0.13589832691E+03  0.00000000000E+00 0. -1.
         36    2    1    2    0    0  0.00000000000E+00 -0.42632564146E-13  0.16991654673E+04  0.19709621212E+04  0.99876343429E+03 0.  0.
         25    2    3    3    0    0 -0.42566044469E+02 -0.10674830904E+03  0.17372158548E+03  0.24335888663E+03  0.12584629042E+03 0.  0.
         35    2    3    3    0    0  0.42566044469E+02  0.10674830904E+03  0.15254438818E+04  0.17276032345E+04  0.80276200064E+03 0.  0.
         22    1    5    5    0    0  0.44935810985E+02 -0.19555072148E+03  0.13756730499E+04  0.13902286330E+04  0.00000000000E+00 0.  1.
         22    1    5    5    0    0 -0.23697665160E+01  0.30229903052E+03  0.14977083192E+03  0.33737460150E+03  0.00000000000E+00 0.  1.
          5    1    4    4  502    0  0.98205303454E+01 -0.45183536756E+02 -0.53959600115E+01  0.46788900334E+02  0.47000000000E+01 0. -1.
         -5    1    4    4    0  502 -0.52386574814E+02 -0.61564772287E+02  0.17911754550E+03  0.19656998629E+03  0.47000000000E+01 0. -1.
<mgrwt>
<rscale>  0 0.99876343E+03</rscale>
<asrwt>0</asrwt>
<pdfrwt beam="1">  1        1 0.28231749E+00 0.99876343E+03</pdfrwt>
<pdfrwt beam="2">  1       -1 0.20907436E-01 0.99876343E+03</pdfrwt>
<totfact> 0.77247490E+01</totfact>
</mgrwt>
</event>
<event>
 9    1  0.4236486E-036  0.1001487E+04  0.7818608E-02  0.8679624E-01
         -1   -1    0    0    0  501 -0.00000000000E+00  0.00000000000E+00  0.21388979860E+03  0.21388979860E+03  0.00000000000E+00 0.  1.
          1   -1    0    0  501    0  0.00000000000E+00 -0.00000000000E+00 -0.11723040013E+04  0.11723040013E+04  0.00000000000E+00 0.  1.
         36    2    1    2    0    0 -0.35527136788E-13  0.00000000000E+00 -0.95841420266E+03  0.13861937999E+04  0.10014866284E+04 0.  0.
         25    2    3    3    0    0 -0.95827307579E+01 -0.11801291206E+03 -0.29405249930E+03  0.34093482546E+03  0.12550221803E+03 0.  0.
         35    2    3    3    0    0  0.95827307579E+01  0.11801291206E+03 -0.66436170337E+03  0.10452589744E+04  0.79822990079E+03 0.  0.
         22    1    5    5    0    0  0.29306985380E+03  0.51405154741E+01  0.22190869078E+02  0.29395373578E+03  0.00000000000E+00 0. -1.
         22    1    5    5    0    0 -0.28348712305E+03  0.11287239658E+03 -0.68655257245E+03  0.75130523862E+03  0.00000000000E+00 0. -1.
          5    1    4    4  502    0 -0.27388684900E+02 -0.90171805399E+02 -0.29269328533E+03  0.30752649289E+03  0.47000000000E+01 0.  1.
         -5    1    4    4    0  502  0.17805954142E+02 -0.27841106657E+02 -0.13592139639E+01  0.33408332574E+02  0.47000000000E+01 0.  1.
<mgrwt>
<rscale>  0 0.10014866E+04</rscale>
<asrwt>0</asrwt>
<pdfrwt beam="1">  1        1 0.18035446E+00 0.10014866E+04</pdfrwt>
<pdfrwt beam="2">  1       -1 0.32906123E-01 0.10014866E+04</pdfrwt>
<totfact> 0.10718658E+02</totfact>
</mgrwt>
</event>
<event>
 9    1  0.4236486E-036  0.1000659E+04  0.7818608E-02  0.8680411E-01
          2   -1    0    0  501    0  0.00000000000E+00  0.00000000000E+00  0.18901766318E+04  0.18901766318E+04  0.00000000000E+00 0. -1.
         -2   -1    0    0    0  501 -0.00000000000E+00 -0.00000000000E+00 -0.13243714648E+03  0.13243714648E+03  0.00000000000E+00 0. -1.
         36    2    1    2    0    0 -0.71054273576E-14 -0.56843418861E-13  0.17577394853E+04  0.20226137782E+04  0.10006589818E+04 0.  0.
         25    2    3    3    0    0 -0.17967458156E+02 -0.12568885910E+03  0.45378380944E+03  0.48752875677E+03  0.12507607330E+03 0.  0.
         35    2    3    3    0    0  0.17967458156E+02  0.12568885910E+03  0.13039556758E+04  0.15350850215E+04  0.80004068629E+03 0.  0.
         22    1    5    5    0    0 -0.73427007614E+02  0.44914214439E+03  0.58276994827E+03  0.73941936945E+03  0.00000000000E+00 0. -1.
         22    1    5    5    0    0  0.91394465769E+02 -0.32345328529E+03  0.72118572757E+03  0.79566565201E+03  0.00000000000E+00 0. -1.
          5    1    4    4  502    0 -0.36902901592E+02 -0.43923921068E+01  0.35620706500E+02  0.51691798052E+02  0.47000000000E+01 0.  1.
         -5    1    4    4    0  502  0.18935443436E+02 -0.12129646699E+03  0.41816310295E+03  0.43583695872E+03  0.47000000000E+01 0.  1.
<mgrwt>
<rscale>  0 0.10006590E+04</rscale>
<asrwt>0</asrwt>
<pdfrwt beam="1">  1        2 0.29079639E+00 0.10006590E+04</pdfrwt>
<pdfrwt beam="2">  1       -2 0.20374947E-01 0.10006590E+04</pdfrwt>
<totfact> 0.18739063E+02</totfact>
</mgrwt>
</event>
<event>
 9    1  0.4236486E-036  0.9994403E+03  0.7818608E-02  0.8681571E-01
          2   -1    0    0  501    0  0.00000000000E+00  0.00000000000E+00  0.11353406426E+04  0.11353406426E+04  0.00000000000E+00 0. -1.
         -2   -1    0    0    0  501 -0.00000000000E+00 -0.00000000000E+00 -0.21995182325E+03  0.21995182325E+03  0.00000000000E+00 0. -1.
         36    2    1    2    0    0 -0.71054273576E-14  0.00000000000E+00  0.91538881940E+03  0.13552924659E+04  0.99944033211E+03 0.  0.
         25    2    3    3    0    0 -0.69304676789E+01  0.57542562509E+02  0.34169946934E+03  0.36833516924E+03  0.12471203498E+03 0.  0.
         35    2    3    3    0    0  0.69304676789E+01 -0.57542562509E+02  0.57368935006E+03  0.98695729666E+03  0.80100315679E+03 0.  0.
         22    1    5    5    0    0  0.14696056414E+03 -0.29532592843E+03  0.62459225926E+03  0.70634998531E+03  0.00000000000E+00 0. -1.
         22    1    5    5    0    0 -0.14003009646E+03  0.23778336592E+03 -0.50902909204E+02  0.28060731136E+03  0.00000000000E+00 0. -1.
          5    1    4    4  502    0  0.43585889011E+02 -0.18655471904E+01  0.21542039467E+03  0.21984368635E+03  0.47000000000E+01 0.  1.
         -5    1    4    4    0  502 -0.50516356690E+02  0.59408109699E+02  0.12627907467E+03  0.14849148289E+03  0.47000000000E+01 0.  1.
<mgrwt>
<rscale>  0 0.99944033E+03</rscale>
<asrwt>0</asrwt>
<pdfrwt beam="1">  1        2 0.17466779E+00 0.99944033E+03</pdfrwt>
<pdfrwt beam="2">  1       -2 0.33838743E-01 0.99944033E+03</pdfrwt>
<totfact> 0.20419910E+02</totfact>
</mgrwt>
</event>
<event>
 9    1  0.4236486E-036  0.9980294E+03  0.7818608E-02  0.8682917E-01
          1   -1    0    0  501    0  0.00000000000E+00  0.00000000000E+00  0.90692610479E+03  0.90692610479E+03  0.00000000000E+00 0.  1.
         -1   -1    0    0    0  501 -0.00000000000E+00 -0.00000000000E+00 -0.27457107687E+03  0.27457107687E+03  0.00000000000E+00 0.  1.
         36    2    1    2    0    0  0.42632564146E-13 -0.14210854715E-13  0.63235502791E+03  0.11814971817E+04  0.99802941287E+03 0.  0.
         25    2    3    3    0    0 -0.11337377898E+03 -0.78741336471E+02  0.11264502584E+03  0.21778813393E+03  0.12525556916E+03 0.  0.
         35    2    3    3    0    0  0.11337377898E+03  0.78741336471E+02  0.51971000207E+03  0.96370904773E+03  0.79973922662E+03 0.  0.
         22    1    5    5    0    0  0.37929681652E+03  0.20955347042E+03  0.91402609022E+02  0.44286924585E+03  0.00000000000E+00 0.  1.
         22    1    5    5    0    0 -0.26592303754E+03 -0.13081213394E+03  0.42830739305E+03  0.52083980188E+03  0.00000000000E+00 0.  1.
          5    1    4    4  502    0 -0.22081774056E+01  0.30178340997E+02  0.16337840480E+02  0.34707684226E+02  0.47000000000E+01 0. -1.
         -5    1    4    4    0  502 -0.11116560157E+03 -0.10891967747E+03  0.96307185359E+02  0.18308044971E+03  0.47000000000E+01 0. -1.
<mgrwt>
<rscale>  0 0.99802941E+03</rscale>
<asrwt>0</asrwt>
<pdfrwt beam="1">  1        1 0.13952709E+00 0.99802941E+03</pdfrwt>
<pdfrwt beam="2">  1       -1 0.42241705E-01 0.99802941E+03</pdfrwt>
<totfact> 0.11159247E+02</totfact>
</mgrwt>
</event>
<event>
 9    1  0.4236486E-036  0.1000085E+04  0.7818608E-02  0.8680957E-01
         -2   -1    0    0    0  501 -0.00000000000E+00  0.00000000000E+00  0.72338491808E+02  0.72338491808E+02  0.00000000000E+00 0. -1.
          2   -1    0    0  501    0  0.00000000000E+00 -0.00000000000E+00 -0.34565620148E+04  0.34565620148E+04  0.00000000000E+00 0. -1.
         36    2    1    2    0    0  0.71054273576E-14 -0.28421709430E-13 -0.33842235230E+04  0.35289005066E+04  0.10000849624E+04 0.  0.
         25    2    3    3    0    0  0.38509609025E+02  0.13175795210E+03 -0.51731222304E+03  0.54927940618E+03  0.12350215391E+03 0.  0.
         35    2    3    3    0    0 -0.38509609025E+02 -0.13175795210E+03 -0.28669113000E+04  0.29796211004E+04  0.80007396682E+03 0.  0.
         22    1    5    5    0    0 -0.25077210426E+03 -0.14068574851E+03 -0.26837683265E+04  0.26991279255E+04  0.00000000000E+00 0. -1.
         22    1    5    5    0    0  0.21226249524E+03  0.89277964108E+01 -0.18314297345E+03  0.28049317489E+03  0.00000000000E+00 0. -1.
          5    1    4    4  502    0  0.82067173176E+02  0.70360098543E+02 -0.33272696993E+03  0.34987839444E+03  0.47000000000E+01 0.  1.
         -5    1    4    4    0  502 -0.43557564151E+02  0.61397853558E+02 -0.18458525311E+03  0.19940101174E+03  0.47000000000E+01 0.  1.
<mgrwt>
<rscale>  0 0.10000850E+04</rscale>
<asrwt>0</asrwt>
<pdfrwt beam="1">  1        2 0.53177860E+00 0.10000850E+04</pdfrwt>
<pdfrwt beam="2">  1       -2 0.11129002E-01 0.10000850E+04</pdfrwt>
<totfact> 0.52263228E+01</totfact>
</mgrwt>
</event>
<event>
 9    1  0.4236486E-036  0.9993892E+03  0.7818608E-02  0.8681620E-01
          2   -1    0    0  501    0  0.00000000000E+00  0.00000000000E+00  0.27727918688E+03  0.27727918688E+03  0.00000000000E+00 0.  1.
         -2   -1    0    0    0  501 -0.00000000000E+00 -0.00000000000E+00 -0.90051718785E+03  0.90051718785E+03  0.00000000000E+00 0.  1.
         36    2    1    2    0    0 -0.28421709430E-13  0.71054273576E-14 -0.62323800097E+03  0.11777963747E+04  0.99938916068E+03 0.  0.
         25    2    3    3    0    0 -0.12240666339E+03 -0.58229974555E+02 -0.75667383513E+02  0.19907513483E+03  0.12462437644E+03 0.  0.
         35    2    3    3    0    0  0.12240666339E+03  0.58229974555E+02 -0.54757061745E+03  0.97872123990E+03  0.79980470313E+03 0.  0.
         22    1    5    5    0    0  0.41825395417E+03 -0.15345322790E+03 -0.26787268211E+03  0.51984616681E+03  0.00000000000E+00 0.  1.
         22    1    5    5    0    0 -0.29584729078E+03  0.21168320246E+03 -0.27969793534E+03  0.45887507308E+03  0.00000000000E+00 0.  1.
          5    1    4    4  502    0 -0.25400130139E+02 -0.77556233061E+02 -0.15490379616E+02  0.83199625951E+02  0.47000000000E+01 0. -1.
         -5    1    4    4    0  502 -0.97006533246E+02  0.19326258505E+02 -0.60177003897E+02  0.11587550888E+03  0.47000000000E+01 0. -1.
<mgrwt>
<rscale>  0 0.99938916E+03</rscale>
<asrwt>0</asrwt>
<pdfrwt beam="1">  1        2 0.42658336E-01 0.99938916E+03</pdfrwt>
<pdfrwt beam="2">  1       -2 0.13854111E+00 0.99938916E+03</pdfrwt>
<totfact> 0.50631910E+01</totfact>
</mgrwt>
</event>
<event>
 9    1  0.4236486E-036  0.1001373E+04  0.7818608E-02  0.8679731E-01
         -1   -1    0    0    0  501 -0.00000000000E+00  0.00000000000E+00  0.88714836225E+02  0.88714836225E+02  0.00000000000E+00 0. -1.
          1   -1    0    0  501    0  0.00000000000E+00 -0.00000000000E+00 -0.28257619580E+04  0.28257619580E+04  0.00000000000E+00 0. -1.
         36    2    1    2    0    0  0.00000000000E+00 -0.14210854715E-13 -0.27370471218E+04  0.29144767942E+04  0.10013730760E+04 0.  0.
         25    2    3    3    0    0  0.89823243016E+02  0.11115705832E+03 -0.46983704036E+03  0.50627111970E+03  0.12304265742E+03 0.  0.
         35    2    3    3    0    0 -0.89823243016E+02 -0.11115705832E+03 -0.22672100814E+04  0.24082056745E+04  0.79924271091E+03 0.  0.
         22    1    5    5    0    0 -0.20238934329E+03 -0.20054248996E+03 -0.23064149397E+03  0.36657091442E+03  0.00000000000E+00 0. -1.
         22    1    5    5    0    0  0.11256610027E+03  0.89385431642E+02 -0.20365685874E+04  0.20416347601E+04  0.00000000000E+00 0. -1.
          5    1    4    4  502    0  0.71489830208E+02  0.82927978610E+01 -0.10995015916E+03  0.13149408283E+03  0.47000000000E+01 0. -1.
         -5    1    4    4    0  502  0.18333412808E+02  0.10286426046E+03 -0.35988688120E+03  0.37477703687E+03  0.47000000000E+01 0. -1.
<mgrwt>
<rscale>  0 0.10013731E+04</rscale>
<asrwt>0</asrwt>
<pdfrwt beam="1">  1        1 0.43473258E+00 0.10013731E+04</pdfrwt>
<pdfrwt beam="2">  1       -1 0.13648437E-01 0.10013731E+04</pdfrwt>
<totfact> 0.31122651E+01</totfact>
</mgrwt>
</event>
<event>
 9    1  0.4236486E-036  0.1000085E+04  0.7818608E-02  0.8680957E-01
          2   -1    0    0  501    0  0.00000000000E+00  0.00000000000E+00  0.12272623839E+04  0.12272623839E+04  0.00000000000E+00 0. -1.
         -2   -1    0    0    0  501 -0.00000000000E+00 -0.00000000000E+00 -0.20374014218E+03  0.20374014218E+03  0.00000000000E+00 0. -1.
         36    2    1    2    0    0 -0.35527136788E-14  0.26645352591E-13  0.10235222417E+04  0.14310025260E+04  0.10000852215E+04 0.  0.
         25    2    3    3    0    0  0.63708785480E+01 -0.55751832465E+01  0.39364766282E+03  0.41287921478E+03  0.12425414598E+03 0.  0.
         35    2    3    3    0    0 -0.63708785480E+01  0.55751832465E+01  0.62987457886E+03  0.10181233113E+04  0.79985087426E+03 0.  0.
         22    1    5    5    0    0  0.32721759565E+02  0.38049866535E+03  0.47773965511E+03  0.61162498800E+03  0.00000000000E+00 0. -1.
         22    1    5    5    0    0 -0.39092638113E+02 -0.37492348210E+03  0.15213492375E+03  0.40649832326E+03  0.00000000000E+00 0. -1.
          5    1    4    4  502    0 -0.17267948982E+02  0.10980523137E+02  0.38005455658E+03  0.38063408929E+03  0.47000000000E+01 0. -1.
         -5    1    4    4    0  502  0.23638827530E+02 -0.16555706383E+02  0.13593106241E+02  0.32245125494E+02  0.47000000000E+01 0. -1.
<mgrwt>
<rscale>  0 0.10000852E+04</rscale>
<asrwt>0</asrwt>
<pdfrwt beam="1">  1        2 0.18880959E+00 0.10000852E+04</pdfrwt>
<pdfrwt beam="2">  1       -2 0.31344638E-01 0.10000852E+04</pdfrwt>
<totfact> 0.20739821E+02</totfact>
</mgrwt>
</event>
<event>
 9    1  0.4236486E-036  0.1000300E+04  0.7818608E-02  0.8680752E-01
         -2   -1    0    0    0  501 -0.00000000000E+00  0.00000000000E+00  0.16301194920E+03  0.16301194920E+03  0.00000000000E+00 0.  1.
          2   -1    0    0  501    0  0.00000000000E+00 -0.00000000000E+00 -0.15345513123E+04  0.15345513123E+04  0.00000000000E+00 0.  1.
         36    2    1    2    0    0  0.00000000000E+00 -0.14210854715E-13 -0.13715393631E+04  0.16975632615E+04  0.10003003560E+04 0.  0.
         25    2    3    3    0    0  0.55364919343E+02  0.39103338078E+02 -0.47717119819E+02  0.15056837829E+03  0.12569633119E+03 0.  0.
         35    2    3    3    0    0 -0.55364919343E+02 -0.39103338078E+02 -0.13238222433E+04  0.15469948832E+04  0.79755469501E+03 0.  0.
         22    1    5    5    0    0  0.11738049860E+03 -0.21225740095E+03 -0.12746381897E+04  0.12975106552E+04  0.00000000000E+00 0. -1.
         22    1    5    5    0    0 -0.17274541795E+03  0.17315406287E+03 -0.49184053607E+02  0.24948422804E+03  0.00000000000E+00 0. -1.
          5    1    4    4  502    0 -0.57242940641E+01 -0.34878625651E+00  0.37623811346E+02  0.38347495024E+02  0.47000000000E+01 0.  1.
         -5    1    4    4    0  502  0.61089213407E+02  0.39452124334E+02 -0.85340931164E+02  0.11222088327E+03  0.47000000000E+01 0.  1.
<mgrwt>
<rscale>  0 0.10003004E+04</rscale>
<asrwt>0</asrwt>
<pdfrwt beam="1">  1        2 0.23608482E+00 0.10003004E+04</pdfrwt>
<pdfrwt beam="2">  1       -2 0.25078762E-01 0.10003004E+04</pdfrwt>
<totfact> 0.20661765E+02</totfact>
</mgrwt>
</event>
<event>
 9    1  0.4236486E-036  0.9991812E+03  0.7818608E-02  0.8681818E-01
         -2   -1    0    0    0  501 -0.00000000000E+00  0.00000000000E+00  0.31325581399E+03  0.31325581399E+03  0.00000000000E+00 0.  1.
          2   -1    0    0  501    0  0.00000000000E+00 -0.00000000000E+00 -0.79676345405E+03  0.79676345405E+03  0.00000000000E+00 0.  1.
         36    2    1    2    0    0 -0.28421709430E-13  0.14210854715E-13 -0.48350764006E+03  0.11100192680E+04  0.99918123352E+03 0.  0.
         25    2    3    3    0    0 -0.12024249538E+03  0.53668532380E+02 -0.38898218435E+02  0.18549321438E+03  0.12472406392E+03 0.  0.
         35    2    3    3    0    0  0.12024249538E+03 -0.53668532380E+02 -0.44460942162E+03  0.92452605365E+03  0.79983268064E+03 0.  0.
         22    1    5    5    0    0  0.39845026442E+03 -0.22408647573E+03 -0.13980011830E+03  0.47803915624E+03  0.00000000000E+00 0.  1.
         22    1    5    5    0    0 -0.27820776904E+03  0.17041794335E+03 -0.30480930332E+03  0.44648689741E+03  0.00000000000E+00 0.  1.
          5    1    4    4  502    0 -0.63825651051E+02  0.78148899129E+02 -0.63252827586E+02  0.11918042778E+03  0.47000000000E+01 0. -1.
         -5    1    4    4    0  502 -0.56416844330E+02 -0.24480366748E+02  0.24354609151E+02  0.66312786604E+02  0.47000000000E+01 0. -1.
<mgrwt>
<rscale>  0 0.99918123E+03</rscale>
<asrwt>0</asrwt>
<pdfrwt beam="1">  1        2 0.12257899E+00 0.99918123E+03</pdfrwt>
<pdfrwt beam="2">  1       -2 0.48193202E-01 0.99918123E+03</pdfrwt>
<totfact> 0.17095719E+02</totfact>
</mgrwt>
</event>
<event>
 9    1  0.4236486E-036  0.9982700E+03  0.7818608E-02  0.8682687E-01
         -2   -1    0    0    0  501 -0.00000000000E+00  0.00000000000E+00  0.96668770621E+02  0.96668770621E+02  0.00000000000E+00 0. -1.
          2   -1    0    0  501    0  0.00000000000E+00 -0.00000000000E+00 -0.25772104322E+04  0.25772104322E+04  0.00000000000E+00 0. -1.
         36    2    1    2    0    0 -0.14210854715E-13 -0.28421709430E-13 -0.24805416616E+04  0.26738792028E+04  0.99827003182E+03 0.  0.
         25    2    3    3    0    0  0.10444891203E+03 -0.25258742173E+01 -0.22348637749E+03  0.27699409899E+03  0.12595084235E+03 0.  0.
         35    2    3    3    0    0 -0.10444891203E+03  0.25258742173E+01 -0.22570552841E+04  0.23968851038E+04  0.79990230044E+03 0.  0.
         22    1    5    5    0    0  0.12878885116E+03 -0.33581218476E+03 -0.14137560276E+04  0.14587880234E+04  0.00000000000E+00 0. -1.
         22    1    5    5    0    0 -0.23323776318E+03  0.33833805897E+03 -0.84329925646E+03  0.93809708041E+03  0.00000000000E+00 0. -1.
          5    1    4    4  502    0  0.10802761869E+03 -0.44556617643E+02 -0.18921972178E+03  0.22244426647E+03  0.47000000000E+01 0. -1.
         -5    1    4    4    0  502 -0.35787066642E+01  0.42030743425E+02 -0.34266655705E+02  0.54549832516E+02  0.47000000000E+01 0. -1.
<mgrwt>
<rscale>  0 0.99827003E+03</rscale>
<asrwt>0</asrwt>
<pdfrwt beam="1">  1        2 0.39649390E+00 0.99827003E+03</pdfrwt>
<pdfrwt beam="2">  1       -2 0.14872119E-01 0.99827003E+03</pdfrwt>
<totfact> 0.12670112E+02</totfact>
</mgrwt>
</event>
<event>
 9    1  0.4236486E-036  0.1000351E+04  0.7818608E-02  0.8680704E-01
         -1   -1    0    0    0  501 -0.00000000000E+00  0.00000000000E+00  0.19954205520E+03  0.19954205520E+03  0.00000000000E+00 0.  1.
          1   -1    0    0  501    0  0.00000000000E+00 -0.00000000000E+00 -0.12537477466E+04  0.12537477466E+04  0.00000000000E+00 0.  1.
         36    2    1    2    0    0  0.17763568394E-13  0.28421709430E-13 -0.10542056914E+04  0.14532898018E+04  0.10003507426E+04 0.  0.
         25    2    3    3    0    0  0.24488239282E+02  0.12921679993E+03 -0.26965674518E+03  0.32353189384E+03  0.12108456078E+03 0.  0.
         35    2    3    3    0    0 -0.24488239282E+02 -0.12921679993E+03 -0.78454894626E+03  0.11297579080E+04  0.80220896677E+03 0.  0.
         22    1    5    5    0    0  0.35108503918E+03  0.11447809263E+02 -0.58364530284E+03  0.68120011494E+03  0.00000000000E+00 0. -1.
         22    1    5    5    0    0 -0.37557327846E+03 -0.14066460920E+03 -0.20090364341E+03  0.44855779305E+03  0.00000000000E+00 0. -1.
          5    1    4    4  502    0  0.54368270221E+02  0.14764738877E+02 -0.57843069622E+02  0.80881499889E+02  0.47000000000E+01 0.  1.
         -5    1    4    4    0  502 -0.29880030939E+02  0.11445206106E+03 -0.21181367556E+03  0.24265039395E+03  0.47000000000E+01 0.  1.
<mgrwt>
<rscale>  0 0.10003507E+04</rscale>
<asrwt>0</asrwt>
<pdfrwt beam="1">  1        1 0.19288427E+00 0.10003507E+04</pdfrwt>
<pdfrwt beam="2">  1       -1 0.30698778E-01 0.10003507E+04</pdfrwt>
<totfact> 0.10507573E+02</totfact>
</mgrwt>
</event>
<event>
 9    1  0.4236486E-036  0.9955088E+03  0.7818608E-02  0.8685327E-01
          2   -1    0    0  501    0  0.00000000000E+00  0.00000000000E+00  0.10588574430E+04  0.10588574430E+04  0.00000000000E+00 0. -1.
         -2   -1    0    0    0  501 -0.00000000000E+00 -0.00000000000E+00 -0.23398755711E+03  0.23398755711E+03  0.00000000000E+00 0. -1.
         36    2    1    2    0    0  0.14210854715E-13  0.00000000000E+00  0.82486988591E+03  0.12928450001E+04  0.99550884760E+03 0.  0.
         25    2    3    3    0    0  0.32172501598E+02  0.13037879991E+03  0.17278423096E+03  0.25161949649E+03  0.12419452171E+03 0.  0.
         35    2    3    3    0    0 -0.32172501598E+02 -0.13037879991E+03  0.65208565495E+03  0.10412255036E+04  0.80056301856E+03 0.  0.
         22    1    5    5    0    0  0.33766511201E+03  0.12447683790E+03  0.33267205671E+03  0.49008459306E+03  0.00000000000E+00 0.  1.
         22    1    5    5    0    0 -0.36983761361E+03 -0.25485563781E+03  0.31941359824E+03  0.55114091057E+03  0.00000000000E+00 0.  1.
          5    1    4    4  502    0 -0.45747324683E+02  0.71492643823E+02  0.85047760259E+02  0.12024652744E+03  0.47000000000E+01 0. -1.
         -5    1    4    4    0  502  0.77919826281E+02  0.58886156086E+02  0.87736470698E+02  0.13137296905E+03  0.47000000000E+01 0. -1.
<mgrwt>
<rscale>  0 0.99550885E+03</rscale>
<asrwt>0</asrwt>
<pdfrwt beam="1">  1        2 0.16290114E+00 0.99550885E+03</pdfrwt>
<pdfrwt beam="2">  1       -2 0.35998086E-01 0.99550885E+03</pdfrwt>
<totfact> 0.20248299E+02</totfact>
</mgrwt>
</event>
<event>
 9    1  0.4236486E-036  0.9994844E+03  0.7818608E-02  0.8681529E-01
          2   -1    0    0  501    0  0.00000000000E+00  0.00000000000E+00  0.81745083476E+03  0.81745083476E+03  0.00000000000E+00 0. -1.
         -2   -1    0    0    0  501 -0.00000000000E+00 -0.00000000000E+00 -0.30551350235E+03  0.30551350235E+03  0.00000000000E+00 0. -1.
         36    2    1    2    0    0  0.28421709430E-13  0.00000000000E+00  0.51193733241E+03  0.11229643371E+04  0.99948440214E+03 0.  0.
         25    2    3    3    0    0  0.66153965288E+02  0.56206955413E+02 -0.27468772031E+02  0.15502614527E+03  0.12547112544E+03 0.  0.
         35    2    3    3    0    0 -0.66153965288E+02 -0.56206955413E+02  0.53940610444E+03  0.96793819185E+03  0.79900552486E+03 0.  0.
         22    1    5    5    0    0 -0.31239777270E+03  0.19258792800E+03  0.49333824932E+03  0.61486999166E+03  0.00000000000E+00 0. -1.
         22    1    5    5    0    0  0.24624380742E+03 -0.24879488341E+03  0.46067855121E+02  0.35306820018E+03  0.00000000000E+00 0. -1.
          5    1    4    4  502    0  0.89155604698E+02  0.11992204850E+02  0.12529345050E+02  0.90948388186E+02  0.47000000000E+01 0. -1.
         -5    1    4    4    0  502 -0.23001639410E+02  0.44214750562E+02 -0.39998117081E+02  0.64077757084E+02  0.47000000000E+01 0. -1.
<mgrwt>
<rscale>  0 0.99948440E+03</rscale>
<asrwt>0</asrwt>
<pdfrwt beam="1">  1        2 0.12576167E+00 0.99948440E+03</pdfrwt>
<pdfrwt beam="2">  1       -2 0.47002078E-01 0.99948440E+03</pdfrwt>
<totfact> 0.17377013E+02</totfact>
</mgrwt>
</event>
<event>
 9    1  0.4236486E-036  0.9999596E+03  0.7818608E-02  0.8681076E-01
         -2   -1    0    0    0  501 -0.00000000000E+00  0.00000000000E+00  0.59573558322E+03  0.59573558322E+03  0.00000000000E+00 0. -1.
          2   -1    0    0  501    0  0.00000000000E+00 -0.00000000000E+00 -0.41961537423E+03  0.41961537423E+03  0.00000000000E+00 0. -1.
         36    2    1    2    0    0  0.00000000000E+00  0.00000000000E+00  0.17612020899E+03  0.10153509575E+04  0.99995961858E+03 0.  0.
         25    2    3    3    0    0 -0.10431603979E+03 -0.13262445029E+02 -0.60201065173E+02  0.17466173245E+03  0.12579675643E+03 0.  0.
         35    2    3    3    0    0  0.10431603979E+03  0.13262445029E+02  0.23632127417E+03  0.84068922500E+03  0.79990805709E+03 0.  0.
         22    1    5    5    0    0 -0.26125872037E+03  0.29027535697E+02  0.36761868537E+03  0.45193164818E+03  0.00000000000E+00 0. -1.
         22    1    5    5    0    0  0.36557476016E+03 -0.15765090668E+02 -0.13129741120E+03  0.38875757682E+03  0.00000000000E+00 0. -1.
          5    1    4    4  502    0 -0.11349445206E+03 -0.32560320799E+02 -0.84413505428E+01  0.11846734377E+03  0.47000000000E+01 0. -1.
         -5    1    4    4    0  502  0.91784122706E+01  0.19297875770E+02 -0.51759714631E+02  0.56194388685E+02  0.47000000000E+01 0. -1.
<mgrwt>
<rscale>  0 0.99995962E+03</rscale>
<asrwt>0</asrwt>
<pdfrwt beam="1">  1        2 0.64556211E-01 0.99995962E+03</pdfrwt>
<pdfrwt beam="2">  1       -2 0.91651628E-01 0.99995962E+03</pdfrwt>
<totfact> 0.91130648E+01</totfact>
</mgrwt>
</event>
<event>
 9    1  0.4236486E-036  0.1003790E+04  0.7818608E-02  0.8677437E-01
          2   -1    0    0  501    0  0.00000000000E+00  0.00000000000E+00  0.83311238038E+03  0.83311238038E+03  0.00000000000E+00 0. -1.
         -2   -1    0    0    0  501 -0.00000000000E+00 -0.00000000000E+00 -0.30235822884E+03  0.30235822884E+03  0.00000000000E+00 0. -1.
         36    2    1    2    0    0  0.00000000000E+00  0.00000000000E+00  0.53075415154E+03  0.11354706092E+04  0.10037895870E+04 0.  0.
         25    2    3    3    0    0  0.64420670471E+02  0.34951122518E+02  0.23898251613E+03  0.27960910250E+03  0.12528768268E+03 0.  0.
         35    2    3    3    0    0 -0.64420670471E+02 -0.34951122518E+02  0.29177163541E+03  0.85586150673E+03  0.80124692057E+03 0.  0.
         22    1    5    5    0    0 -0.41660213144E+03 -0.10694444978E+03  0.76480534269E+02  0.43685663939E+03  0.00000000000E+00 0. -1.
         22    1    5    5    0    0  0.35218146097E+03  0.71993327267E+02  0.21529110114E+03  0.41900486734E+03  0.00000000000E+00 0. -1.
          5    1    4    4  502    0 -0.25802678897E+01  0.35061222300E+02  0.19751369540E+03  0.20067310972E+03  0.47000000000E+01 0.  1.
         -5    1    4    4    0  502  0.67000938360E+02 -0.11009978232E+00  0.41468820728E+02  0.78935992777E+02  0.47000000000E+01 0.  1.
<mgrwt>
<rscale>  0 0.10037896E+04</rscale>
<asrwt>0</asrwt>
<pdfrwt beam="1">  1        2 0.12817113E+00 0.10037896E+04</pdfrwt>
<pdfrwt beam="2">  1       -2 0.46516651E-01 0.10037896E+04</pdfrwt>
<totfact> 0.17300006E+02</totfact>
</mgrwt>
</event>
<event>
 9    1  0.4236486E-036  0.9974318E+03  0.7818608E-02  0.8683487E-01
         -2   -1    0    0    0  501 -0.00000000000E+00  0.00000000000E+00  0.71688517234E+03  0.71688517234E+03  0.00000000000E+00 0.  1.
          2   -1    0    0  501    0  0.00000000000E+00 -0.00000000000E+00 -0.34694196906E+03  0.34694196906E+03  0.00000000000E+00 0.  1.
         36    2    1    2    0    0  0.00000000000E+00  0.00000000000E+00  0.36994320328E+03  0.10638271414E+04  0.99743180876E+03 0.  0.
         25    2    3    3    0    0  0.12625943850E+02  0.10549844170E+03  0.16835716604E+03  0.23446978142E+03  0.12386527917E+03 0.  0.
         35    2    3    3    0    0 -0.12625943850E+02 -0.10549844170E+03  0.20158603725E+03  0.82935735998E+03  0.79743800040E+03 0.  0.
         22    1    5    5    0    0 -0.18928087891E+03  0.21397290705E+03 -0.14987831683E+03  0.32260682871E+03  0.00000000000E+00 0.  1.
         22    1    5    5    0    0  0.17665493506E+03 -0.31947134875E+03  0.35146435408E+03  0.50675053127E+03  0.00000000000E+00 0.  1.
          5    1    4    4  502    0  0.30509860297E+02  0.53271112758E+02  0.16814758443E+03  0.17906524839E+03  0.47000000000E+01 0.  1.
         -5    1    4    4    0  502 -0.17883916448E+02  0.52227328943E+02  0.20958160402E+00  0.55404533032E+02  0.47000000000E+01 0.  1.
<mgrwt>
<rscale>  0 0.99743181E+03</rscale>
<asrwt>0</asrwt>
<pdfrwt beam="1">  1        2 0.53375688E-01 0.99743181E+03</pdfrwt>
<pdfrwt beam="2">  1       -2 0.11029003E+00 0.99743181E+03</pdfrwt>
<totfact> 0.71791388E+01</totfact>
</mgrwt>
</event>
<event>
 9    1  0.4236486E-036  0.1005976E+04  0.7818608E-02  0.8675368E-01
          2   -1    0    0  501    0  0.00000000000E+00  0.00000000000E+00  0.33581025325E+03  0.33581025325E+03  0.00000000000E+00 0. -1.
         -2   -1    0    0    0  501 -0.00000000000E+00 -0.00000000000E+00 -0.75339221695E+03  0.75339221695E+03  0.00000000000E+00 0. -1.
         36    2    1    2    0    0  0.35527136788E-13  0.71054273576E-14 -0.41758196371E+03  0.10892024702E+04  0.10059758072E+04 0.  0.
         25    2    3    3    0    0 -0.27290979513E+02 -0.35707580318E+02 -0.22266318348E+03  0.26462991634E+03  0.13575813232E+03 0.  0.
         35    2    3    3    0    0  0.27290979513E+02  0.35707580318E+02 -0.19491878023E+03  0.82457255386E+03  0.79994170840E+03 0.  0.
         22    1    5    5    0    0 -0.33907781856E+03 -0.15045790269E+03 -0.29022852902E+01  0.37097138808E+03  0.00000000000E+00 0.  1.
         22    1    5    5    0    0  0.36636879807E+03  0.18616548300E+03 -0.19201649494E+03  0.45360116577E+03  0.00000000000E+00 0.  1.
          5    1    4    4  502    0  0.41394211662E+02 -0.24919614203E+02 -0.17133968902E+03  0.17808382005E+03  0.47000000000E+01 0. -1.
         -5    1    4    4    0  502 -0.68685191176E+02 -0.10787966115E+02 -0.51323494461E+02  0.86546096292E+02  0.47000000000E+01 0. -1.
<mgrwt>
<rscale>  0 0.10059758E+04</rscale>
<asrwt>0</asrwt>
<pdfrwt beam="1">  1        2 0.51663116E-01 0.10059758E+04</pdfrwt>
<pdfrwt beam="2">  1       -2 0.11590649E+00 0.10059758E+04</pdfrwt>
<totfact> 0.65555824E+01</totfact>
</mgrwt>
</event>
<event>
 9    1  0.4236486E-036  0.1003570E+04  0.7818608E-02  0.8677646E-01
         -1   -1    0    0    0  501 -0.00000000000E+00  0.00000000000E+00  0.25118467012E+03  0.25118467012E+03  0.00000000000E+00 0. -1.
          1   -1    0    0  501    0  0.00000000000E+00 -0.00000000000E+00 -0.10024019375E+04  0.10024019375E+04  0.00000000000E+00 0. -1.
         36    2    1    2    0    0  0.00000000000E+00  0.00000000000E+00 -0.75121726734E+03  0.12535866076E+04  0.10035696288E+04 0.  0.
         25    2    3    3    0    0  0.12913237596E+03  0.60514343439E+02 -0.16604212823E+03  0.25236585202E+03  0.12562395724E+03 0.  0.
         35    2    3    3    0    0 -0.12913237596E+03 -0.60514343439E+02 -0.58517513911E+03  0.10012207556E+04  0.79979741288E+03 0.  0.
         22    1    5    5    0    0 -0.61739824500E+02 -0.25170108652E+02  0.20079513670E+03  0.21157511011E+03  0.00000000000E+00 0.  1.
         22    1    5    5    0    0 -0.67392551464E+02 -0.35344234787E+02 -0.78597027581E+03  0.78964564545E+03  0.00000000000E+00 0.  1.
          5    1    4    4  502    0  0.52066935035E+02  0.31218609780E+02 -0.15808172076E+03  0.16940332865E+03  0.47000000000E+01 0.  1.
         -5    1    4    4    0  502  0.77065440928E+02  0.29295733659E+02 -0.79604074784E+01  0.82962523366E+02  0.47000000000E+01 0.  1.
<mgrwt>
<rscale>  0 0.10035696E+04</rscale>
<asrwt>0</asrwt>
<pdfrwt beam="1">  1        1 0.15421568E+00 0.10035696E+04</pdfrwt>
<pdfrwt beam="2">  1       -1 0.38643796E-01 0.10035696E+04</pdfrwt>
<totfact> 0.10938044E+02</totfact>
</mgrwt>
</event>
<event>
 9    1  0.4236486E-036  0.1000445E+04  0.7818608E-02  0.8680615E-01
         -1   -1    0    0    0  501 -0.00000000000E+00  0.00000000000E+00  0.15926021912E+03  0.15926021912E+03  0.00000000000E+00 0. -1.
          1   -1    0    0  501    0  0.00000000000E+00 -0.00000000000E+00 -0.15711540892E+04  0.15711540892E+04  0.00000000000E+00 0. -1.
         36    2    1    2    0    0 -0.28421709430E-13  0.00000000000E+00 -0.14118938701E+04  0.17304143084E+04  0.10004445902E+04 0.  0.
         25    2    3    3    0    0 -0.21456348786E+02  0.93773192767E+02 -0.44481533447E+03  0.47211821756E+03  0.12562301936E+03 0.  0.
         35    2    3    3    0    0  0.21456348786E+02 -0.93773192767E+02 -0.96707853564E+03  0.12582960908E+04  0.79925863862E+03 0.  0.
         22    1    5    5    0    0  0.28837312668E+03  0.13548990428E+03 -0.11898585582E+03  0.34010911225E+03  0.00000000000E+00 0.  1.
         22    1    5    5    0    0 -0.26691677789E+03 -0.22926309705E+03 -0.84809267982E+03  0.91818697854E+03  0.00000000000E+00 0.  1.
          5    1    4    4  502    0  0.51536886679E+02  0.53332472749E+02 -0.22464933560E+03  0.23662167551E+03  0.47000000000E+01 0. -1.
         -5    1    4    4    0  502 -0.72993235465E+02  0.40440720018E+02 -0.22016599887E+03  0.23549654205E+03  0.47000000000E+01 0. -1.
<mgrwt>
<rscale>  0 0.10004446E+04</rscale>
<asrwt>0</asrwt>
<pdfrwt beam="1">  1        1 0.24171601E+00 0.10004446E+04</pdfrwt>
<pdfrwt beam="2">  1       -1 0.24501573E-01 0.10004446E+04</pdfrwt>
<totfact> 0.90988867E+01</totfact>
</mgrwt>
</event>
<event>
 9    1  0.4236486E-036  0.1000081E+04  0.7818608E-02  0.8680961E-01
         -2   -1    0    0    0  501 -0.00000000000E+00  0.00000000000E+00  0.83985337248E+02  0.83985337248E+02  0.00000000000E+00 0.  1.
          2   -1    0    0  501    0  0.00000000000E+00 -0.00000000000E+00 -0.29771924183E+04  0.29771924183E+04  0.00000000000E+00 0.  1.
         36    2    1    2    0    0 -0.42632564146E-13  0.14210854715E-13 -0.28932070811E+04  0.30611777556E+04  0.10000810153E+04 0.  0.
         25    2    3    3    0    0 -0.64525400019E+02  0.12364282482E+03 -0.52004485019E+03  0.55284164929E+03  0.12544388230E+03 0.  0.
         35    2    3    3    0    0  0.64525400019E+02 -0.12364282482E+03 -0.23731622309E+04  0.25083361063E+04  0.80024994381E+03 0.  0.
         22    1    5    5    0    0 -0.27754068891E+03  0.18478524120E+03 -0.74357157643E+03  0.81490680979E+03  0.00000000000E+00 0. -1.
         22    1    5    5    0    0  0.34206608893E+03 -0.30842806602E+03 -0.16295906544E+04  0.16934292965E+04  0.00000000000E+00 0. -1.
          5    1    4    4  502    0 -0.72621934333E+02  0.16294848101E+02 -0.27924095140E+03  0.28902779514E+03  0.47000000000E+01 0.  1.
         -5    1    4    4    0  502  0.80965343143E+01  0.10734797672E+03 -0.24080389878E+03  0.26381385415E+03  0.47000000000E+01 0.  1.
<mgrwt>
<rscale>  0 0.10000810E+04</rscale>
<asrwt>0</asrwt>
<pdfrwt beam="1">  1        2 0.45802957E+00 0.10000810E+04</pdfrwt>
<pdfrwt beam="2">  1       -2 0.12920822E-01 0.10000810E+04</pdfrwt>
<totfact> 0.88855990E+01</totfact>
</mgrwt>
</event>
<event>
 9    1  0.4236486E-036  0.1000628E+04  0.7818608E-02  0.8680440E-01
          2   -1    0    0  501    0  0.00000000000E+00  0.00000000000E+00  0.15020801159E+04  0.15020801159E+04  0.00000000000E+00 0. -1.
         -2   -1    0    0    0  501 -0.00000000000E+00 -0.00000000000E+00 -0.16664495466E+03  0.16664495466E+03  0.00000000000E+00 0. -1.
         36    2    1    2    0    0 -0.14210854715E-13  0.28421709430E-13  0.13354351613E+04  0.16687250706E+04  0.10006279485E+04 0.  0.
         25    2    3    3    0    0  0.28260823375E+02 -0.13517726650E+03  0.20028391919E+03  0.27339910740E+03  0.12474716881E+03 0.  0.
         35    2    3    3    0    0 -0.28260823375E+02  0.13517726650E+03  0.11351512421E+04  0.13953259632E+04  0.79955902450E+03 0.  0.
         22    1    5    5    0    0 -0.14793520918E+03 -0.22540715281E+03  0.91576702006E+02  0.28474462770E+03  0.00000000000E+00 0. -1.
         22    1    5    5    0    0  0.11967438581E+03  0.36058441930E+03  0.10435745401E+04  0.11105813355E+04  0.00000000000E+00 0. -1.
          5    1    4    4  502    0  0.13415087302E+02 -0.34210574794E+02 -0.11057398819E+02  0.38661144107E+02  0.47000000000E+01 0. -1.
         -5    1    4    4    0  502  0.14845736073E+02 -0.10096669171E+03  0.21134131801E+03  0.23473796330E+03  0.47000000000E+01 0. -1.
<mgrwt>
<rscale>  0 0.10006279E+04</rscale>
<asrwt>0</asrwt>
<pdfrwt beam="1">  1        2 0.23108924E+00 0.10006279E+04</pdfrwt>
<pdfrwt beam="2">  1       -2 0.25637686E-01 0.10006279E+04</pdfrwt>
<totfact> 0.20726428E+02</totfact>
</mgrwt>
</event>
<event>
 9    1  0.4236486E-036  0.9994823E+03  0.7818608E-02  0.8681531E-01
         -1   -1    0    0    0  501 -0.00000000000E+00  0.00000000000E+00  0.71086523352E+02  0.71086523352E+02  0.00000000000E+00 0. -1.
          1   -1    0    0  501    0  0.00000000000E+00 -0.00000000000E+00 -0.35132007645E+04  0.35132007645E+04  0.00000000000E+00 0. -1.
         36    2    1    2    0    0 -0.21316282073E-13 -0.56843418861E-13 -0.34421142412E+04  0.35842872879E+04  0.99948232237E+03 0.  0.
         25    2    3    3    0    0 -0.32040552969E+02  0.13542652375E+03 -0.50518741826E+03  0.53872343363E+03  0.12506666227E+03 0.  0.
         35    2    3    3    0    0  0.32040552969E+02 -0.13542652375E+03 -0.29369268229E+04  0.30455638542E+04  0.79407372877E+03 0.  0.
         22    1    5    5    0    0  0.24312600284E+03  0.25773948985E+03 -0.11239659439E+04  0.11784902804E+04  0.00000000000E+00 0.  1.
         22    1    5    5    0    0 -0.21108544987E+03 -0.39316601361E+03 -0.18129608790E+04  0.18670735738E+04  0.00000000000E+00 0.  1.
          5    1    4    4  502    0 -0.25103146817E+02  0.11476367126E+03 -0.50272560639E+03  0.51629060958E+03  0.47000000000E+01 0. -1.
         -5    1    4    4    0  502 -0.69374061517E+01  0.20662852492E+02 -0.24618118647E+01  0.22432824051E+02  0.47000000000E+01 0. -1.
<mgrwt>
<rscale>  0 0.99948232E+03</rscale>
<asrwt>0</asrwt>
<pdfrwt beam="1">  1        1 0.54049225E+00 0.99948232E+03</pdfrwt>
<pdfrwt beam="2">  1       -1 0.10936392E-01 0.99948232E+03</pdfrwt>
<totfact> 0.13935781E+01</totfact>
</mgrwt>
</event>
<event>
 9    1  0.4236486E-036  0.1003501E+04  0.7818608E-02  0.8677711E-01
          2   -1    0    0  501    0  0.00000000000E+00  0.00000000000E+00  0.31369749351E+03  0.31369749351E+03  0.00000000000E+00 0.  1.
         -2   -1    0    0    0  501 -0.00000000000E+00 -0.00000000000E+00 -0.80253562006E+03  0.80253562006E+03  0.00000000000E+00 0.  1.
         36    2    1    2    0    0  0.00000000000E+00  0.00000000000E+00 -0.48883812654E+03  0.11162331136E+04  0.10035006975E+04 0.  0.
         25    2    3    3    0    0  0.73725716315E+02 -0.76010960933E+02  0.15544085979E+02  0.16462452725E+03  0.12508584626E+03 0.  0.
         35    2    3    3    0    0 -0.73725716315E+02  0.76010960933E+02 -0.50438221252E+03  0.95160858633E+03  0.79996521039E+03 0.  0.
         22    1    5    5    0    0 -0.16598385846E+03  0.12728918884E+03 -0.69931811953E+03  0.72993082629E+03  0.00000000000E+00 0.  1.
         22    1    5    5    0    0  0.92258142142E+02 -0.51278227912E+02  0.19493590701E+03  0.22167776003E+03  0.00000000000E+00 0.  1.
          5    1    4    4  502    0  0.80058753915E+02 -0.10574773362E+03  0.80603618221E+01  0.13296257623E+03  0.47000000000E+01 0. -1.
         -5    1    4    4    0  502 -0.63330376004E+01  0.29736772686E+02  0.74837241567E+01  0.31661951019E+02  0.47000000000E+01 0. -1.
<mgrwt>
<rscale>  0 0.10035007E+04</rscale>
<asrwt>0</asrwt>
<pdfrwt beam="1">  1        2 0.48261153E-01 0.10035007E+04</pdfrwt>
<pdfrwt beam="2">  1       -2 0.12346702E+00 0.10035007E+04</pdfrwt>
<totfact> 0.60015219E+01</totfact>
</mgrwt>
</event>
<event>
 9    1  0.4236486E-036  0.9987013E+03  0.7818608E-02  0.8682276E-01
         -1   -1    0    0    0  501 -0.00000000000E+00  0.00000000000E+00  0.42009244952E+03  0.42009244952E+03  0.00000000000E+00 0.  1.
          1   -1    0    0  501    0  0.00000000000E+00 -0.00000000000E+00 -0.59356232351E+03  0.59356232351E+03  0.00000000000E+00 0.  1.
         36    2    1    2    0    0  0.71054273576E-14  0.00000000000E+00 -0.17346987399E+03  0.10136547730E+04  0.99870125748E+03 0.  0.
         25    2    3    3    0    0  0.25825926974E+02 -0.13588914310E+03 -0.21723091445E+02  0.18703895567E+03  0.12401145319E+03 0.  0.
         35    2    3    3    0    0 -0.25825926974E+02  0.13588914310E+03 -0.15174678255E+03  0.82661581735E+03  0.80070830255E+03 0.  0.
         22    1    5    5    0    0 -0.32604213441E+03  0.32216722781E+03 -0.66445382625E+02  0.46315244246E+03  0.00000000000E+00 0.  1.
         22    1    5    5    0    0  0.30021620744E+03 -0.18627808471E+03 -0.85301399924E+02  0.36346337489E+03  0.00000000000E+00 0.  1.
          5    1    4    4  502    0  0.71477489865E+02 -0.79312141352E+02  0.10489099820E+02  0.10738509458E+03  0.47000000000E+01 0. -1.
         -5    1    4    4    0  502 -0.45651562891E+02 -0.56577001744E+02 -0.32212191265E+02  0.79653861092E+02  0.47000000000E+01 0. -1.
<mgrwt>
<rscale>  0 0.99870126E+03</rscale>
<asrwt>0</asrwt>
<pdfrwt beam="1">  1        1 0.91317281E-01 0.99870126E+03</pdfrwt>
<pdfrwt beam="2">  1       -1 0.64629608E-01 0.99870126E+03</pdfrwt>
<totfact> 0.98361294E+01</totfact>
</mgrwt>
</event>
<event>
 9    1  0.4236486E-036  0.9997591E+03  0.7818608E-02  0.8681267E-01
         -1   -1    0    0    0  501 -0.00000000000E+00  0.00000000000E+00  0.12181384527E+04  0.12181384527E+04  0.00000000000E+00 0.  1.
          1   -1    0    0  501    0  0.00000000000E+00 -0.00000000000E+00 -0.20513230599E+03  0.20513230599E+03  0.00000000000E+00 0.  1.
         36    2    1    2    0    0 -0.71054273576E-14  0.00000000000E+00  0.10130061467E+04  0.14232707587E+04  0.99975907062E+03 0.  0.
         25    2    3    3    0    0  0.38963692824E+02 -0.12558855776E+03  0.24576384203E+03  0.30563505186E+03  0.12538845113E+03 0.  0.
         35    2    3    3    0    0 -0.38963692824E+02  0.12558855776E+03  0.76724230468E+03  0.11176357068E+04  0.80197142338E+03 0.  0.
         22    1    5    5    0    0 -0.24011004464E+03 -0.27336557361E+03  0.38396472962E+03  0.52897115607E+03  0.00000000000E+00 0.  1.
         22    1    5    5    0    0  0.20114635181E+03  0.39895413137E+03  0.38327757507E+03  0.58866455077E+03  0.00000000000E+00 0.  1.
          5    1    4    4  502    0  0.21396543140E+02 -0.63383521842E+02  0.18869742670E+02  0.69666635399E+02  0.47000000000E+01 0.  1.
         -5    1    4    4    0  502  0.17567149684E+02 -0.62205035916E+02  0.22689409936E+03  0.23596841646E+03  0.47000000000E+01 0.  1.
<mgrwt>
<rscale>  0 0.99975907E+03</rscale>
<asrwt>0</asrwt>
<pdfrwt beam="1">  1        1 0.31558817E-01 0.99975907E+03</pdfrwt>
<pdfrwt beam="2">  1       -1 0.18740591E+00 0.99975907E+03</pdfrwt>
<totfact> 0.28640300E+01</totfact>
</mgrwt>
</event>
<event>
 9    1  0.4236486E-036  0.9998899E+03  0.7818608E-02  0.8681143E-01
         -3   -1    0    0    0  501 -0.00000000000E+00  0.00000000000E+00  0.13976965357E+04  0.13976965357E+04  0.00000000000E+00 0. -1.
          3   -1    0    0  501    0  0.00000000000E+00 -0.00000000000E+00 -0.17882634502E+03  0.17882634502E+03  0.00000000000E+00 0. -1.
         36    2    1    2    0    0  0.28421709430E-13 -0.14210854715E-13  0.12188701906E+04  0.15765228807E+04  0.99988991979E+03 0.  0.
         25    2    3    3    0    0 -0.11632991075E+03  0.70363005849E+02  0.17333105672E+03  0.25334205558E+03  0.12511970738E+03 0.  0.
         35    2    3    3    0    0  0.11632991075E+03 -0.70363005849E+02  0.10455391339E+04  0.13231808251E+04  0.79948221658E+03 0.  0.
         22    1    5    5    0    0 -0.30928459823E+03 -0.10047217183E+03  0.21615727042E+03  0.39048122307E+03  0.00000000000E+00 0. -1.
         22    1    5    5    0    0  0.42561450898E+03  0.30109165977E+02  0.82938186350E+03  0.93269960204E+03  0.00000000000E+00 0. -1.
          5    1    4    4  502    0  0.12972557951E+02 -0.21466420231E+02  0.17427116148E+02  0.30901275614E+02  0.47000000000E+01 0. -1.
         -5    1    4    4    0  502 -0.12930246870E+03  0.91829426080E+02  0.15590394057E+03  0.22244077997E+03  0.47000000000E+01 0. -1.
<mgrwt>
<rscale>  0 0.99988992E+03</rscale>
<asrwt>0</asrwt>
<pdfrwt beam="1">  1        3 0.27511746E-01 0.99988992E+03</pdfrwt>
<pdfrwt beam="2">  1       -3 0.21503023E+00 0.99988992E+03</pdfrwt>
<totfact> 0.39518855E+00</totfact>
</mgrwt>
</event>
<event>
 9    1  0.4236486E-036  0.1000491E+04  0.7818608E-02  0.8680570E-01
          1   -1    0    0  501    0  0.00000000000E+00  0.00000000000E+00  0.13635638057E+04  0.13635638057E+04  0.00000000000E+00 0.  1.
         -1   -1    0    0    0  501 -0.00000000000E+00 -0.00000000000E+00 -0.18352334943E+03  0.18352334943E+03  0.00000000000E+00 0.  1.
         36    2    1    2    0    0  0.71054273576E-14 -0.56843418861E-13  0.11800404563E+04  0.15470871552E+04  0.10004914728E+04 0.  0.
         25    2    3    3    0    0 -0.29751006713E+02 -0.13086133027E+03  0.25287580127E+03  0.31177702206E+03  0.12348655983E+03 0.  0.
         35    2    3    3    0    0  0.29751006713E+02  0.13086133027E+03  0.92716465503E+03  0.12353101331E+04  0.80519998586E+03 0.  0.
         22    1    5    5    0    0 -0.31791231743E+03  0.24908185071E+03  0.68577224940E+03  0.79586028169E+03  0.00000000000E+00 0.  1.
         22    1    5    5    0    0  0.34766332414E+03 -0.11822052044E+03  0.24139240563E+03  0.43944985141E+03  0.00000000000E+00 0.  1.
          5    1    4    4  502    0  0.21915669412E+02 -0.66889548957E+02  0.20434221572E+03  0.21617663947E+03  0.47000000000E+01 0.  1.
         -5    1    4    4    0  502 -0.51666676125E+02 -0.63971781313E+02  0.48533585549E+02  0.95600382596E+02  0.47000000000E+01 0.  1.
<mgrwt>
<rscale>  0 0.10004915E+04</rscale>
<asrwt>0</asrwt>
<pdfrwt beam="1">  1        1 0.20977904E+00 0.10004915E+04</pdfrwt>
<pdfrwt beam="2">  1       -1 0.28234362E-01 0.10004915E+04</pdfrwt>
<totfact> 0.10079012E+02</totfact>
</mgrwt>
</event>
<event>
 9    1  0.4236486E-036  0.1001522E+04  0.7818608E-02  0.8679590E-01
         -1   -1    0    0    0  501 -0.00000000000E+00  0.00000000000E+00  0.99061723403E+03  0.99061723403E+03  0.00000000000E+00 0.  1.
          1   -1    0    0  501    0  0.00000000000E+00 -0.00000000000E+00 -0.25313681468E+03  0.25313681468E+03  0.00000000000E+00 0.  1.
         36    2    1    2    0    0 -0.14210854715E-13 -0.21316282073E-13  0.73748041935E+03  0.12437540487E+04  0.10015222238E+04 0.  0.
         25    2    3    3    0    0 -0.57031799104E+02  0.59234984252E+01 -0.21346742854E+02  0.13943525609E+03  0.12529482538E+03 0.  0.
         35    2    3    3    0    0  0.57031799104E+02 -0.59234984252E+01  0.75882716220E+03  0.11043187926E+04  0.80025847056E+03 0.  0.
         22    1    5    5    0    0 -0.20924091510E+03 -0.32263130537E+03  0.31063999440E+03  0.49433786612E+03  0.00000000000E+00 0. -1.
         22    1    5    5    0    0  0.26627271421E+03  0.31670780695E+03  0.44818716780E+03  0.60998092650E+03  0.00000000000E+00 0. -1.
          5    1    4    4  502    0 -0.27663455424E+02  0.41194464981E+02  0.39130778543E+02  0.63368434891E+02  0.47000000000E+01 0.  1.
         -5    1    4    4    0  502 -0.29368343680E+02 -0.35270966556E+02 -0.60477521397E+02  0.76066821194E+02  0.47000000000E+01 0.  1.
<mgrwt>
<rscale>  0 0.10015222E+04</rscale>
<asrwt>0</asrwt>
<pdfrwt beam="1">  1        1 0.38944126E-01 0.10015222E+04</pdfrwt>
<pdfrwt beam="2">  1       -1 0.15240265E+00 0.10015222E+04</pdfrwt>
<totfact> 0.42798830E+01</totfact>
</mgrwt>
</event>
<event>
 9    1  0.4236486E-036  0.1000042E+04  0.7818608E-02  0.8680998E-01
          2   -1    0    0  501    0  0.00000000000E+00  0.00000000000E+00  0.14100954663E+04  0.14100954663E+04  0.00000000000E+00 0. -1.
         -2   -1    0    0    0  501 -0.00000000000E+00 -0.00000000000E+00 -0.17730768956E+03  0.17730768956E+03  0.00000000000E+00 0. -1.
         36    2    1    2    0    0  0.00000000000E+00  0.00000000000E+00  0.12327877768E+04  0.15874031559E+04  0.10000415375E+04 0.  0.
         25    2    3    3    0    0  0.13538756582E+03  0.17103176946E+02  0.17093630666E+03  0.25119749806E+03  0.12352591005E+03 0.  0.
         35    2    3    3    0    0 -0.13538756582E+03 -0.17103176946E+02  0.10618514701E+04  0.13362056578E+04  0.79955906837E+03 0.  0.
         22    1    5    5    0    0 -0.21450748312E+03 -0.12162848411E+03 -0.19104397749E+02  0.24732959078E+03  0.00000000000E+00 0.  1.
         22    1    5    5    0    0  0.79119917301E+02  0.10452530717E+03  0.10809558678E+04  0.10888760670E+04  0.00000000000E+00 0.  1.
          5    1    4    4  502    0 -0.19991637470E+01 -0.33661806577E+02  0.14982661321E+02  0.37197903408E+02  0.47000000000E+01 0. -1.
         -5    1    4    4    0  502  0.13738672957E+03  0.50764983522E+02  0.15595364534E+03  0.21399959465E+03  0.47000000000E+01 0. -1.
<mgrwt>
<rscale>  0 0.10000415E+04</rscale>
<asrwt>0</asrwt>
<pdfrwt beam="1">  1        2 0.21693776E+00 0.10000415E+04</pdfrwt>
<pdfrwt beam="2">  1       -2 0.27278107E-01 0.10000415E+04</pdfrwt>
<totfact> 0.20923243E+02</totfact>
</mgrwt>
</event>
<event>
 9    1  0.4236486E-036  0.9993365E+03  0.7818608E-02  0.8681670E-01
          1   -1    0    0  501    0  0.00000000000E+00  0.00000000000E+00  0.23588636787E+04  0.23588636787E+04  0.00000000000E+00 0.  1.
         -1   -1    0    0    0  501 -0.00000000000E+00 -0.00000000000E+00 -0.10584263116E+03  0.10584263116E+03  0.00000000000E+00 0.  1.
         36    2    1    2    0    0  0.28421709430E-13 -0.14210854715E-13  0.22530210475E+04  0.24647063098E+04  0.99933645644E+03 0.  0.
         25    2    3    3    0    0 -0.45092182522E+02  0.12053923278E+02  0.98778179066E+02  0.16632525059E+03  0.12541275188E+03 0.  0.
         35    2    3    3    0    0  0.45092182522E+02 -0.12053923278E+02  0.21542428684E+04  0.22983810592E+04  0.79975906072E+03 0.  0.
         22    1    5    5    0    0 -0.19607896242E+03 -0.11103724819E+03  0.19609275762E+04  0.19738321077E+04  0.00000000000E+00 0.  1.
         22    1    5    5    0    0  0.24117114494E+03  0.98983324916E+02  0.19331529220E+03  0.32454895156E+03  0.00000000000E+00 0.  1.
          5    1    4    4  502    0  0.19237216434E+02  0.46994670543E+02  0.11433766569E+02  0.52262707292E+02  0.47000000000E+01 0.  1.
         -5    1    4    4    0  502 -0.64329398956E+02 -0.34940747265E+02  0.87344412497E+02  0.11406254330E+03  0.47000000000E+01 0.  1.
<mgrwt>
<rscale>  0 0.99933646E+03</rscale>
<asrwt>0</asrwt>
<pdfrwt beam="1">  1        1 0.36290206E+00 0.99933646E+03</pdfrwt>
<pdfrwt beam="2">  1       -1 0.16283484E-01 0.99933646E+03</pdfrwt>
<totfact> 0.49946940E+01</totfact>
</mgrwt>
</event>
<event>
 9    1  0.4236486E-036  0.1000358E+04  0.7818608E-02  0.8680697E-01
          2   -1    0    0  501    0  0.00000000000E+00  0.00000000000E+00  0.16090194000E+04  0.16090194000E+04  0.00000000000E+00 0. -1.
         -2   -1    0    0    0  501 -0.00000000000E+00 -0.00000000000E+00 -0.15548548240E+03  0.15548548240E+03  0.00000000000E+00 0. -1.
         36    2    1    2    0    0  0.71054273576E-14  0.00000000000E+00  0.14535339176E+04  0.17645048824E+04  0.10003582510E+04 0.  0.
         25    2    3    3    0    0  0.46464764659E+02  0.10744899068E+03  0.41209165351E+03  0.44607504029E+03  0.12433483311E+03 0.  0.
         35    2    3    3    0    0 -0.46464764659E+02 -0.10744899068E+03  0.10414422641E+04  0.13184298421E+04  0.79996937391E+03 0.  0.
         22    1    5    5    0    0 -0.45833496774E+01  0.11203468762E+01 -0.13558356625E+03  0.13566563938E+03  0.00000000000E+00 0.  1.
         22    1    5    5    0    0 -0.41881414982E+02 -0.10856933756E+03  0.11770258304E+04  0.11827642028E+04  0.00000000000E+00 0.  1.
          5    1    4    4  502    0  0.50210233620E+02  0.10473177586E+03  0.41999333477E+03  0.43578240405E+03  0.47000000000E+01 0. -1.
         -5    1    4    4    0  502 -0.37454689611E+01  0.27172148208E+01 -0.79016812541E+01  0.10292636240E+02  0.47000000000E+01 0. -1.
<mgrwt>
<rscale>  0 0.10003583E+04</rscale>
<asrwt>0</asrwt>
<pdfrwt beam="1">  1        2 0.24754143E+00 0.10003583E+04</pdfrwt>
<pdfrwt beam="2">  1       -2 0.23920845E-01 0.10003583E+04</pdfrwt>
<totfact> 0.20392370E+02</totfact>
</mgrwt>
</event>
<event>
 9    1  0.4236486E-036  0.1002152E+04  0.7818608E-02  0.8678992E-01
          2   -1    0    0  501    0  0.00000000000E+00  0.00000000000E+00  0.15755284875E+04  0.15755284875E+04  0.00000000000E+00 0.  1.
         -2   -1    0    0    0  501 -0.00000000000E+00 -0.00000000000E+00 -0.15936051660E+03  0.15936051660E+03  0.00000000000E+00 0.  1.
         36    2    1    2    0    0  0.00000000000E+00 -0.14210854715E-13  0.14161679709E+04  0.17348890041E+04  0.10021517524E+04 0.  0.
         25    2    3    3    0    0 -0.33200035762E+02  0.30017105861E+02  0.50459228151E+03  0.52156100808E+03  0.12413398234E+03 0.  0.
         35    2    3    3    0    0  0.33200035762E+02 -0.30017105861E+02  0.91157568940E+03  0.12133279960E+04  0.79949441489E+03 0.  0.
         22    1    5    5    0    0 -0.18175150826E+02  0.34731666438E+03  0.69011788448E+03  0.77280133019E+03  0.00000000000E+00 0.  1.
         22    1    5    5    0    0  0.51375186587E+02 -0.37733377024E+03  0.22145780492E+03  0.44052666585E+03  0.00000000000E+00 0.  1.
          5    1    4    4  502    0  0.42560528752E+02  0.74553039761E+01  0.28140624190E+03  0.28474294222E+03  0.47000000000E+01 0.  1.
         -5    1    4    4    0  502 -0.75760564514E+02  0.22561801885E+02  0.22318603961E+03  0.23681806585E+03  0.47000000000E+01 0.  1.
<mgrwt>
<rscale>  0 0.10021518E+04</rscale>
<asrwt>0</asrwt>
<pdfrwt beam="1">  1        2 0.24238899E+00 0.10021518E+04</pdfrwt>
<pdfrwt beam="2">  1       -2 0.24517004E-01 0.10021518E+04</pdfrwt>
<totfact> 0.20391620E+02</totfact>
</mgrwt>
</event>
<event>
 9    1  0.4236486E-036  0.9983881E+03  0.7818608E-02  0.8682574E-01
          4   -1    0    0  501    0  0.00000000000E+00  0.00000000000E+00  0.29366450899E+03  0.29366450899E+03  0.00000000000E+00 0. -1.
         -4   -1    0    0    0  501 -0.00000000000E+00 -0.00000000000E+00 -0.84856937096E+03  0.84856937096E+03  0.00000000000E+00 0. -1.
         36    2    1    2    0    0 -0.28421709430E-13  0.28421709430E-13 -0.55490486197E+03  0.11422338799E+04  0.99838811625E+03 0.  0.
         25    2    3    3    0    0 -0.96526959577E+02  0.90202169098E+02 -0.14456085136E+03  0.23244660327E+03  0.12521860242E+03 0.  0.
         35    2    3    3    0    0  0.96526959577E+02 -0.90202169098E+02 -0.41034401061E+03  0.90978727668E+03  0.80117213913E+03 0.  0.
         22    1    5    5    0    0 -0.77490082753E+02 -0.24723789640E+03 -0.57003907263E+03  0.62615959201E+03  0.00000000000E+00 0.  1.
         22    1    5    5    0    0  0.17401704233E+03  0.15703572730E+03  0.15969506203E+03  0.28362768466E+03  0.00000000000E+00 0.  1.
          5    1    4    4  502    0 -0.44127848036E+02 -0.22112309771E+02 -0.75969983692E+02  0.90717967558E+02  0.47000000000E+01 0.  1.
         -5    1    4    4    0  502 -0.52399111541E+02  0.11231447887E+03 -0.68590867667E+02  0.14172863571E+03  0.47000000000E+01 0.  1.
<mgrwt>
<rscale>  0 0.99838812E+03</rscale>
<asrwt>0</asrwt>
<pdfrwt beam="1">  1        4 0.45179155E-01 0.99838812E+03</pdfrwt>
<pdfrwt beam="2">  1       -4 0.13054913E+00 0.99838812E+03</pdfrwt>
<totfact> 0.42929363E+00</totfact>
</mgrwt>
</event>
<event>
 9    1  0.4236486E-036  0.9989263E+03  0.7818608E-02  0.8682061E-01
         -2   -1    0    0    0  501 -0.00000000000E+00  0.00000000000E+00  0.96061974174E+02  0.96061974174E+02  0.00000000000E+00 0. -1.
          2   -1    0    0  501    0  0.00000000000E+00 -0.00000000000E+00 -0.25969007748E+04  0.25969007748E+04  0.00000000000E+00 0. -1.
         36    2    1    2    0    0  0.28421709430E-13  0.28421709430E-13 -0.25008388006E+04  0.26929627489E+04  0.99892625385E+03 0.  0.
         25    2    3    3    0    0 -0.50731532848E+02 -0.12492605800E+03 -0.36809471661E+03  0.41128510118E+03  0.12442469879E+03 0.  0.
         35    2    3    3    0    0  0.50731532848E+02  0.12492605800E+03 -0.21327440840E+04  0.22816776478E+04  0.79954696679E+03 0.  0.
         22    1    5    5    0    0  0.34870595394E+03 -0.33140725333E+02 -0.47625924913E+03  0.59119964679E+03  0.00000000000E+00 0. -1.
         22    1    5    5    0    0 -0.29797442109E+03  0.15806678334E+03 -0.16564848349E+04  0.16904780010E+04  0.00000000000E+00 0. -1.
          5    1    4    4  502    0 -0.63981682571E+01  0.22587961128E+02 -0.22354862659E+02  0.32756410509E+02  0.47000000000E+01 0.  1.
         -5    1    4    4    0  502 -0.44333364591E+02 -0.14751401913E+03 -0.34573985395E+03  0.37852869067E+03  0.47000000000E+01 0.  1.
<mgrwt>
<rscale>  0 0.99892625E+03</rscale>
<asrwt>0</asrwt>
<pdfrwt beam="1">  1        2 0.39952320E+00 0.99892625E+03</pdfrwt>
<pdfrwt beam="2">  1       -2 0.14778765E-01 0.99892625E+03</pdfrwt>
<totfact> 0.12450629E+02</totfact>
</mgrwt>
</event>
<event>
 9    1  0.4236486E-036  0.1001527E+04  0.7818608E-02  0.8679585E-01
          2   -1    0    0  501    0  0.00000000000E+00  0.00000000000E+00  0.18530119270E+04  0.18530119270E+04  0.00000000000E+00 0. -1.
         -2   -1    0    0    0  501 -0.00000000000E+00 -0.00000000000E+00 -0.13532777040E+03  0.13532777040E+03  0.00000000000E+00 0. -1.
         36    2    1    2    0    0  0.71054273576E-14  0.24868995752E-13  0.17176841566E+04  0.19883396974E+04  0.10015267797E+04 0.  0.
         25    2    3    3    0    0 -0.36918784003E+02  0.13463529272E+02  0.53138327691E+02  0.14102843818E+03  0.12458360757E+03 0.  0.
         35    2    3    3    0    0  0.36918784003E+02 -0.13463529272E+02  0.16645458289E+04  0.18473112592E+04  0.80018860818E+03 0.  0.
         22    1    5    5    0    0 -0.61415848848E+02 -0.31767635217E+03  0.13860425685E+04  0.14233074766E+04  0.00000000000E+00 0. -1.
         22    1    5    5    0    0  0.98334632851E+02  0.30421282289E+03  0.27850326043E+03  0.42400378265E+03  0.00000000000E+00 0. -1.
          5    1    4    4  502    0  0.43289838772E+02  0.23782699383E+02  0.21132815042E+02  0.53928775273E+02  0.47000000000E+01 0. -1.
         -5    1    4    4    0  502 -0.80208622775E+02 -0.10319170111E+02  0.32005512650E+02  0.87099662911E+02  0.47000000000E+01 0. -1.
<mgrwt>
<rscale>  0 0.10015268E+04</rscale>
<asrwt>0</asrwt>
<pdfrwt beam="1">  1        2 0.28507874E+00 0.10015268E+04</pdfrwt>
<pdfrwt beam="2">  1       -2 0.20819658E-01 0.10015268E+04</pdfrwt>
<totfact> 0.18945064E+02</totfact>
</mgrwt>
</event>
<event>
 9    1  0.4236486E-036  0.1000409E+04  0.7818608E-02  0.8680648E-01
          3   -1    0    0  501    0  0.00000000000E+00  0.00000000000E+00  0.27195941572E+04  0.27195941572E+04  0.00000000000E+00 0.  1.
         -3   -1    0    0    0  501 -0.00000000000E+00 -0.00000000000E+00 -0.92000765708E+02  0.92000765708E+02  0.00000000000E+00 0.  1.
         36    2    1    2    0    0  0.14210854715E-13 -0.14210854715E-13  0.26275933915E+04  0.28115949229E+04  0.10004094060E+04 0.  0.
         25    2    3    3    0    0  0.47527614737E+02  0.10744669030E+03  0.27311492527E+03  0.32201815934E+03  0.12369424853E+03 0.  0.
         35    2    3    3    0    0 -0.47527614737E+02 -0.10744669030E+03  0.23544784662E+04  0.24895767636E+04  0.80038737395E+03 0.  0.
         22    1    5    5    0    0  0.10072094006E+03 -0.13034483189E+03  0.23320997698E+04  0.23379101392E+04  0.00000000000E+00 0.  1.
         22    1    5    5    0    0 -0.14824855480E+03  0.22898141589E+02  0.22378696476E+02  0.15166662436E+03  0.00000000000E+00 0.  1.
          5    1    4    4  502    0  0.60507509187E+02  0.18516692535E+02  0.18695129415E+03  0.19742568971E+03  0.47000000000E+01 0. -1.
         -5    1    4    4    0  502 -0.12979894450E+02  0.88929997763E+02  0.86163631116E+02  0.12459246963E+03  0.47000000000E+01 0. -1.
<mgrwt>
<rscale>  0 0.10004094E+04</rscale>
<asrwt>0</asrwt>
<pdfrwt beam="1">  1        3 0.41839904E+00 0.10004094E+04</pdfrwt>
<pdfrwt beam="2">  1       -3 0.14153966E-01 0.10004094E+04</pdfrwt>
<totfact> 0.33296187E+00</totfact>
</mgrwt>
</event>
<event>
 9    1  0.4236486E-036  0.1000249E+04  0.7818608E-02  0.8680801E-01
         -2   -1    0    0    0  501 -0.00000000000E+00  0.00000000000E+00  0.26532012948E+03  0.26532012948E+03  0.00000000000E+00 0.  1.
          2   -1    0    0  501    0  0.00000000000E+00 -0.00000000000E+00 -0.94272672274E+03  0.94272672274E+03  0.00000000000E+00 0.  1.
         36    2    1    2    0    0 -0.28421709430E-13  0.28421709430E-13 -0.67740659326E+03  0.12080468522E+04  0.10002487214E+04 0.  0.
         25    2    3    3    0    0 -0.11176362292E+03  0.37932253930E+02 -0.21949482812E+03  0.27985582444E+03  0.12732375900E+03 0.  0.
         35    2    3    3    0    0  0.11176362292E+03 -0.37932253930E+02 -0.45791176514E+03  0.92819102779E+03  0.79870234513E+03 0.  0.
         22    1    5    5    0    0 -0.18324255454E+03  0.26539500655E+03 -0.26000081732E+02  0.32355578737E+03  0.00000000000E+00 0.  1.
         22    1    5    5    0    0  0.29500617746E+03 -0.30332726048E+03 -0.43191168341E+03  0.60463524041E+03  0.00000000000E+00 0.  1.
          5    1    4    4  502    0 -0.28066529917E+02 -0.46457886592E+02 -0.74987716556E+02  0.92689335754E+02  0.47000000000E+01 0.  1.
         -5    1    4    4    0  502 -0.83697093001E+02  0.84390140522E+02 -0.14450711156E+03  0.18716648868E+03  0.47000000000E+01 0.  1.
<mgrwt>
<rscale>  0 0.10002487E+04</rscale>
<asrwt>0</asrwt>
<pdfrwt beam="1">  1        2 0.14503488E+00 0.10002487E+04</pdfrwt>
<pdfrwt beam="2">  1       -2 0.40818482E-01 0.10002487E+04</pdfrwt>
<totfact> 0.18869536E+02</totfact>
</mgrwt>
</event>
<event>
 9    1  0.4236486E-036  0.9987351E+03  0.7818608E-02  0.8682243E-01
         -1   -1    0    0    0  501 -0.00000000000E+00  0.00000000000E+00  0.40045953203E+03  0.40045953203E+03  0.00000000000E+00 0. -1.
          1   -1    0    0  501    0  0.00000000000E+00 -0.00000000000E+00 -0.62270454153E+03  0.62270454153E+03  0.00000000000E+00 0. -1.
         36    2    1    2    0    0  0.28421709430E-13 -0.14210854715E-13 -0.22224500949E+03  0.10231640736E+04  0.99873513865E+03 0.  0.
         25    2    3    3    0    0  0.93358900845E+02 -0.10243861711E+03 -0.44879182767E+02  0.19152585615E+03  0.12433204690E+03 0.  0.
         35    2    3    3    0    0 -0.93358900845E+02  0.10243861711E+03 -0.17736582672E+03  0.83163821741E+03  0.80059598646E+03 0.  0.
         22    1    5    5    0    0  0.17112357509E+03  0.22287488198E+03 -0.38344004206E+03  0.47537643697E+03  0.00000000000E+00 0. -1.
         22    1    5    5    0    0 -0.26448247594E+03 -0.12043626488E+03  0.20607421534E+03  0.35626178044E+03  0.00000000000E+00 0. -1.
          5    1    4    4  502    0  0.14167698196E+02 -0.30746788336E+02 -0.73309322126E+02  0.80885322376E+02  0.47000000000E+01 0. -1.
         -5    1    4    4    0  502  0.79191202649E+02 -0.71691828769E+02  0.28430139359E+02  0.11064053377E+03  0.47000000000E+01 0. -1.
<mgrwt>
<rscale>  0 0.99873514E+03</rscale>
<asrwt>0</asrwt>
<pdfrwt beam="1">  1        1 0.95800698E-01 0.99873514E+03</pdfrwt>
<pdfrwt beam="2">  1       -1 0.61609159E-01 0.99873514E+03</pdfrwt>
<totfact> 0.10059110E+02</totfact>
</mgrwt>
</event>
<event>
 9    1  0.4236486E-036  0.9995907E+03  0.7818608E-02  0.8681428E-01
         -1   -1    0    0    0  501 -0.00000000000E+00  0.00000000000E+00  0.12164979331E+03  0.12164979331E+03  0.00000000000E+00 0.  1.
          1   -1    0    0  501    0  0.00000000000E+00 -0.00000000000E+00 -0.20533976774E+04  0.20533976774E+04  0.00000000000E+00 0.  1.
         36    2    1    2    0    0  0.14210854715E-13 -0.14210854715E-13 -0.19317478841E+04  0.21750474707E+04  0.99959072234E+03 0.  0.
         25    2    3    3    0    0 -0.37884319005E+02  0.78610408744E+02 -0.59978076693E+03  0.61856089486E+03  0.12355482300E+03 0.  0.
         35    2    3    3    0    0  0.37884319005E+02 -0.78610408744E+02 -0.13319671172E+04  0.15564865759E+04  0.80056182874E+03 0.  0.
         22    1    5    5    0    0  0.62990819073E+02 -0.20574567164E+03 -0.13956181338E+04  0.14121080341E+04  0.00000000000E+00 0. -1.
         22    1    5    5    0    0 -0.25106500067E+02  0.12713526289E+03  0.63651016570E+02  0.14437854178E+03  0.00000000000E+00 0. -1.
          5    1    4    4  502    0 -0.73588095064E+02  0.66173959342E+02 -0.52880088191E+03  0.53800247521E+03  0.47000000000E+01 0. -1.
         -5    1    4    4    0  502  0.35703776059E+02  0.12436449402E+02 -0.70979885017E+02  0.80558419645E+02  0.47000000000E+01 0. -1.
<mgrwt>
<rscale>  0 0.99959072E+03</rscale>
<asrwt>0</asrwt>
<pdfrwt beam="1">  1        1 0.31590736E+00 0.99959072E+03</pdfrwt>
<pdfrwt beam="2">  1       -1 0.18715351E-01 0.99959072E+03</pdfrwt>
<totfact> 0.65193332E+01</totfact>
</mgrwt>
</event>
<event>
 9    1  0.4236486E-036  0.9997737E+03  0.7818608E-02  0.8681254E-01
         -2   -1    0    0    0  501 -0.00000000000E+00  0.00000000000E+00  0.10270696667E+03  0.10270696667E+03  0.00000000000E+00 0. -1.
          2   -1    0    0  501    0  0.00000000000E+00 -0.00000000000E+00 -0.24330077430E+04  0.24330077430E+04  0.00000000000E+00 0. -1.
         36    2    1    2    0    0 -0.14210854715E-13  0.14210854715E-13 -0.23303007764E+04  0.25357147097E+04  0.99977366471E+03 0.  0.
         25    2    3    3    0    0 -0.94102645354E+02  0.98403980971E+02 -0.51387140641E+03  0.54608360351E+03  0.12491928740E+03 0.  0.
         35    2    3    3    0    0  0.94102645354E+02 -0.98403980971E+02 -0.18164293700E+04  0.19896311062E+04  0.80042340753E+03 0.  0.
         22    1    5    5    0    0  0.43067349049E+02 -0.26829601348E+03 -0.17897306443E+04  0.18102412343E+04  0.00000000000E+00 0.  1.
         22    1    5    5    0    0  0.51035296305E+02  0.16989203251E+03 -0.26698725703E+02  0.17938987188E+03  0.00000000000E+00 0.  1.
          5    1    4    4  502    0  0.90856986674E+01 -0.17793268047E+02 -0.13502867481E+03  0.13657958606E+03  0.47000000000E+01 0.  1.
         -5    1    4    4    0  502 -0.10318834402E+03  0.11619724902E+03 -0.37884273160E+03  0.40950401745E+03  0.47000000000E+01 0.  1.
<mgrwt>
<rscale>  0 0.99977366E+03</rscale>
<asrwt>0</asrwt>
<pdfrwt beam="1">  1        2 0.37430890E+00 0.99977366E+03</pdfrwt>
<pdfrwt beam="2">  1       -2 0.15801071E-01 0.99977366E+03</pdfrwt>
<totfact> 0.14007440E+02</totfact>
</mgrwt>
</event>
<event>
 9    1  0.4236486E-036  0.1000237E+04  0.7818608E-02  0.8680812E-01
         -1   -1    0    0    0  501 -0.00000000000E+00  0.00000000000E+00  0.22639570987E+03  0.22639570987E+03  0.00000000000E+00 0.  1.
          1   -1    0    0  501    0  0.00000000000E+00 -0.00000000000E+00 -0.11047851922E+04  0.11047851922E+04  0.00000000000E+00 0.  1.
         36    2    1    2    0    0  0.14210854715E-13 -0.14210854715E-13 -0.87838948229E+03  0.13311809020E+04  0.10002372275E+04 0.  0.
         25    2    3    3    0    0 -0.55778515243E+02 -0.10712289851E+03 -0.69117920214E+02  0.18685806206E+03  0.12470802025E+03 0.  0.
         35    2    3    3    0    0  0.55778515243E+02  0.10712289851E+03 -0.80927156208E+03  0.11443228400E+04  0.79997983897E+03 0.  0.
         22    1    5    5    0    0  0.24946392561E+03 -0.10526844399E+03  0.15189216049E+02  0.27119072213E+03  0.00000000000E+00 0.  1.
         22    1    5    5    0    0 -0.19368541037E+03  0.21239134249E+03 -0.82446077813E+03  0.87313211785E+03  0.00000000000E+00 0.  1.
          5    1    4    4  502    0 -0.46630896217E+02 -0.16728837447E+02  0.25228309871E+02  0.55792939547E+02  0.47000000000E+01 0.  1.
         -5    1    4    4    0  502 -0.91476190259E+01 -0.90394061059E+02 -0.94346230085E+02  0.13106512252E+03  0.47000000000E+01 0.  1.
<mgrwt>
<rscale>  0 0.10002372E+04</rscale>
<asrwt>0</asrwt>
<pdfrwt beam="1">  1        1 0.16996695E+00 0.10002372E+04</pdfrwt>
<pdfrwt beam="2">  1       -1 0.34830109E-01 0.10002372E+04</pdfrwt>
<totfact> 0.10928090E+02</totfact>
</mgrwt>
</event>
<event>
 9    1  0.4236486E-036  0.1000342E+04  0.7818608E-02  0.8680712E-01
          1   -1    0    0  501    0  0.00000000000E+00  0.00000000000E+00  0.10371281045E+04  0.10371281045E+04  0.00000000000E+00 0.  1.
         -1   -1    0    0    0  501 -0.00000000000E+00 -0.00000000000E+00 -0.24121516967E+03  0.24121516967E+03  0.00000000000E+00 0.  1.
         36    2    1    2    0    0  0.14210854715E-13  0.17763568394E-13  0.79591293479E+03  0.12783432741E+04  0.10003420049E+04 0.  0.
         25    2    3    3    0    0  0.22261313427E+02 -0.11562064454E+02 -0.26265823176E+02  0.13075112930E+03  0.12560540170E+03 0.  0.
         35    2    3    3    0    0 -0.22261313427E+02  0.11562064454E+02  0.82217875797E+03  0.11475921448E+04  0.80022532667E+03 0.  0.
         22    1    5    5    0    0 -0.28046191178E+03  0.30123539157E+03  0.39464718204E+03  0.57021754041E+03  0.00000000000E+00 0.  1.
         22    1    5    5    0    0  0.25820059836E+03 -0.28967332712E+03  0.42753157593E+03  0.57737460444E+03  0.00000000000E+00 0.  1.
          5    1    4    4  502    0 -0.48465359884E+02 -0.21696053393E+02 -0.25620448705E+02  0.59144798869E+02  0.47000000000E+01 0. -1.
         -5    1    4    4    0  502  0.70726673310E+02  0.10133988939E+02 -0.64537447118E+00  0.71606330429E+02  0.47000000000E+01 0. -1.
<mgrwt>
<rscale>  0 0.10003420E+04</rscale>
<asrwt>0</asrwt>
<pdfrwt beam="1">  1        1 0.15955817E+00 0.10003420E+04</pdfrwt>
<pdfrwt beam="2">  1       -1 0.37110027E-01 0.10003420E+04</pdfrwt>
<totfact> 0.11034217E+02</totfact>
</mgrwt>
</event>
<event>
 9    1  0.4236486E-036  0.9999993E+03  0.7818608E-02  0.8681039E-01
          2   -1    0    0  501    0  0.00000000000E+00  0.00000000000E+00  0.23494873749E+04  0.23494873749E+04  0.00000000000E+00 0. -1.
         -2   -1    0    0    0  501 -0.00000000000E+00 -0.00000000000E+00 -0.10640604463E+03  0.10640604463E+03  0.00000000000E+00 0. -1.
         36    2    1    2    0    0  0.00000000000E+00 -0.42632564146E-13  0.22430813303E+04  0.24558934196E+04  0.99999931697E+03 0.  0.
         25    2    3    3    0    0 -0.35206223095E+02 -0.84487194465E+02  0.17770341618E+03  0.23903066115E+03  0.13107092994E+03 0.  0.
         35    2    3    3    0    0  0.35206223095E+02  0.84487194465E+02  0.20653779141E+04  0.22168627584E+04  0.80019809882E+03 0.  0.
         22    1    5    5    0    0 -0.10397050067E+03  0.41827151113E+03  0.13161396937E+04  0.13849132159E+04  0.00000000000E+00 0. -1.
         22    1    5    5    0    0  0.13917672376E+03 -0.33378431666E+03  0.74923822040E+03  0.83194954257E+03  0.00000000000E+00 0. -1.
          5    1    4    4  502    0  0.19302439349E+02 -0.80349604042E+01  0.13338644264E+03  0.13509692015E+03  0.47000000000E+01 0. -1.
         -5    1    4    4    0  502 -0.54508662444E+02 -0.76452234060E+02  0.44316973536E+02  0.10393374100E+03  0.47000000000E+01 0. -1.
<mgrwt>
<rscale>  0 0.99999932E+03</rscale>
<asrwt>0</asrwt>
<pdfrwt beam="1">  1        2 0.36145956E+00 0.99999932E+03</pdfrwt>
<pdfrwt beam="2">  1       -2 0.16370163E-01 0.99999932E+03</pdfrwt>
<totfact> 0.14802512E+02</totfact>
</mgrwt>
</event>
<event>
 9    1  0.4236486E-036  0.1001809E+04  0.7818608E-02  0.8679317E-01
          2   -1    0    0  501    0  0.00000000000E+00  0.00000000000E+00  0.26815949369E+04  0.26815949369E+04  0.00000000000E+00 0.  1.
         -2   -1    0    0    0  501 -0.00000000000E+00 -0.00000000000E+00 -0.93565645501E+02  0.93565645501E+02  0.00000000000E+00 0.  1.
         36    2    1    2    0    0  0.00000000000E+00  0.14210854715E-13  0.25880292914E+04  0.27751605824E+04  0.10018086868E+04 0.  0.
         25    2    3    3    0    0  0.89326106154E+02 -0.11034199090E+03  0.47408910319E+03  0.51046742656E+03  0.12514794291E+03 0.  0.
         35    2    3    3    0    0 -0.89326106154E+02  0.11034199090E+03  0.21139401882E+04  0.22646931558E+04  0.79996091318E+03 0.  0.
         22    1    5    5    0    0 -0.16945532687E+03  0.92563203323E+02  0.50448582667E+02  0.19956982213E+03  0.00000000000E+00 0.  1.
         22    1    5    5    0    0  0.80129220713E+02  0.17778787572E+02  0.20634916055E+04  0.20651233337E+04  0.00000000000E+00 0.  1.
          5    1    4    4  502    0  0.17125592969E+02  0.21968878099E+02  0.28824162682E+02  0.40358888659E+02  0.47000000000E+01 0. -1.
         -5    1    4    4    0  502  0.72200513186E+02 -0.13231086899E+03  0.44526494051E+03  0.47010853790E+03  0.47000000000E+01 0. -1.
<mgrwt>
<rscale>  0 0.10018087E+04</rscale>
<asrwt>0</asrwt>
<pdfrwt beam="1">  1        2 0.41255301E+00 0.10018087E+04</pdfrwt>
<pdfrwt beam="2">  1       -2 0.14394717E-01 0.10018087E+04</pdfrwt>
<totfact> 0.11520583E+02</totfact>
</mgrwt>
</event>
<event>
 9    1  0.4236486E-036  0.9978762E+03  0.7818608E-02  0.8683063E-01
         -1   -1    0    0    0  501 -0.00000000000E+00  0.00000000000E+00  0.20056472327E+03  0.20056472327E+03  0.00000000000E+00 0.  1.
          1   -1    0    0  501    0  0.00000000000E+00 -0.00000000000E+00 -0.12411915986E+04  0.12411915986E+04  0.00000000000E+00 0.  1.
         36    2    1    2    0    0  0.00000000000E+00  0.71054273576E-14 -0.10406268754E+04  0.14417563219E+04  0.99787624383E+03 0.  0.
         25    2    3    3    0    0 -0.13210010484E+03 -0.27785943115E+02 -0.22105008588E+03  0.28859245309E+03  0.12727909169E+03 0.  0.
         35    2    3    3    0    0  0.13210010484E+03  0.27785943115E+02 -0.81957678948E+03  0.11531638688E+04  0.79991143143E+03 0.  0.
         22    1    5    5    0    0 -0.24448877868E+03 -0.12143822516E+03 -0.66630683890E+03  0.72006028150E+03  0.00000000000E+00 0.  1.
         22    1    5    5    0    0  0.37658888352E+03  0.14922416827E+03 -0.15326995059E+03  0.43310358731E+03  0.00000000000E+00 0.  1.
          5    1    4    4  502    0 -0.12355175594E+03 -0.19243738506E+02 -0.83498088642E+02  0.15043064407E+03  0.47000000000E+01 0. -1.
         -5    1    4    4    0  502 -0.85483488934E+01 -0.85422046086E+01 -0.13755199724E+03  0.13816180902E+03  0.47000000000E+01 0. -1.
<mgrwt>
<rscale>  0 0.99787624E+03</rscale>
<asrwt>0</asrwt>
<pdfrwt beam="1">  1        1 0.19095255E+00 0.99787624E+03</pdfrwt>
<pdfrwt beam="2">  1       -1 0.30856112E-01 0.99787624E+03</pdfrwt>
<totfact> 0.10642637E+02</totfact>
</mgrwt>
</event>
<event>
 9    1  0.4236486E-036  0.1000525E+04  0.7818608E-02  0.8680538E-01
         -1   -1    0    0    0  501 -0.00000000000E+00  0.00000000000E+00  0.36915699405E+03  0.36915699405E+03  0.00000000000E+00 0.  1.
          1   -1    0    0  501    0  0.00000000000E+00 -0.00000000000E+00 -0.67793019102E+03  0.67793019102E+03  0.00000000000E+00 0.  1.
         36    2    1    2    0    0  0.00000000000E+00  0.00000000000E+00 -0.30877319697E+03  0.10470871851E+04  0.10005252051E+04 0.  0.
         25    2    3    3    0    0 -0.11105881540E+03  0.21765108029E+02 -0.14891914822E+03  0.22350085326E+03  0.12234352577E+03 0.  0.
         35    2    3    3    0    0  0.11105881540E+03 -0.21765108029E+02 -0.15985404875E+03  0.82358633181E+03  0.79995834182E+03 0.  0.
         22    1    5    5    0    0  0.38864708672E+03 -0.21927406944E+03  0.23879798244E+01  0.44624363075E+03  0.00000000000E+00 0.  1.
         22    1    5    5    0    0 -0.27758827132E+03  0.19750896141E+03 -0.16224202858E+03  0.37734270106E+03  0.00000000000E+00 0.  1.
          5    1    4    4  502    0 -0.10130826570E+03  0.54615448293E+02 -0.14972097895E+03  0.18890387352E+03  0.47000000000E+01 0.  1.
         -5    1    4    4    0  502 -0.97505496972E+01 -0.32850340264E+02  0.80183073279E+00  0.34596979744E+02  0.47000000000E+01 0.  1.
<mgrwt>
<rscale>  0 0.10005252E+04</rscale>
<asrwt>0</asrwt>
<pdfrwt beam="1">  1        1 0.10429695E+00 0.10005252E+04</pdfrwt>
<pdfrwt beam="2">  1       -1 0.56793384E-01 0.10005252E+04</pdfrwt>
<totfact> 0.10347667E+02</totfact>
</mgrwt>
</event>
<event>
 9    1  0.4236486E-036  0.1000435E+04  0.7818608E-02  0.8680624E-01
          4   -1    0    0  501    0  0.00000000000E+00  0.00000000000E+00  0.84198599728E+03  0.84198599728E+03  0.00000000000E+00 0. -1.
         -4   -1    0    0    0  501 -0.00000000000E+00 -0.00000000000E+00 -0.29717519560E+03  0.29717519560E+03  0.00000000000E+00 0. -1.
         36    2    1    2    0    0  0.00000000000E+00 -0.28421709430E-13  0.54481080168E+03  0.11391611929E+04  0.10004346124E+04 0.  0.
         25    2    3    3    0    0 -0.86937252417E+02  0.29148169385E+02  0.23406979280E+03  0.27608365753E+03  0.11413069885E+03 0.  0.
         35    2    3    3    0    0  0.86937252417E+02 -0.29148169385E+02  0.31074100888E+03  0.86307753535E+03  0.79995947134E+03 0.  0.
         22    1    5    5    0    0  0.41867040671E+02 -0.37950890703E+03  0.33644485187E+03  0.50889586161E+03  0.00000000000E+00 0. -1.
         22    1    5    5    0    0  0.45070211746E+02  0.35036073765E+03 -0.25703842986E+02  0.35418167374E+03  0.00000000000E+00 0. -1.
          5    1    4    4  502    0 -0.57074512233E+02  0.48224777165E+02  0.22780546621E+03  0.23979272198E+03  0.47000000000E+01 0.  1.
         -5    1    4    4    0  502 -0.29862740184E+02 -0.19076607780E+02  0.62643265885E+01  0.36290935552E+02  0.47000000000E+01 0.  1.
<mgrwt>
<rscale>  0 0.10004346E+04</rscale>
<asrwt>0</asrwt>
<pdfrwt beam="1">  1        4 0.12953631E+00 0.10004346E+04</pdfrwt>
<pdfrwt beam="2">  1       -4 0.45719261E-01 0.10004346E+04</pdfrwt>
<totfact> 0.42619587E+00</totfact>
</mgrwt>
</event>
<event>
 9    1  0.4236486E-036  0.9998267E+03  0.7818608E-02  0.8681203E-01
          1   -1    0    0  501    0  0.00000000000E+00  0.00000000000E+00  0.99548615200E+03  0.99548615200E+03  0.00000000000E+00 0. -1.
         -1   -1    0    0    0  501 -0.00000000000E+00 -0.00000000000E+00 -0.25104653617E+03  0.25104653617E+03  0.00000000000E+00 0. -1.
         36    2    1    2    0    0  0.71054273576E-14  0.00000000000E+00  0.74443961583E+03  0.12465326882E+04  0.99982668551E+03 0.  0.
         25    2    3    3    0    0 -0.36465036605E+02  0.71299424621E+02 -0.29502725509E+01  0.14860722311E+03  0.12514829526E+03 0.  0.
         35    2    3    3    0    0  0.36465036605E+02 -0.71299424621E+02  0.74738988838E+03  0.10979254651E+04  0.80027206295E+03 0.  0.
         22    1    5    5    0    0 -0.12278358428E+03  0.14069540094E+03 -0.98732354308E+02  0.21123229441E+03  0.00000000000E+00 0.  1.
         22    1    5    5    0    0  0.15924862088E+03 -0.21199482556E+03  0.84612224268E+03  0.88669317065E+03  0.00000000000E+00 0.  1.
          5    1    4    4  502    0 -0.49474273014E+01  0.72409933287E+02  0.48968245036E+02  0.87679270626E+02  0.47000000000E+01 0. -1.
         -5    1    4    4    0  502 -0.31517609303E+02 -0.11105086654E+01 -0.51918517587E+02  0.60927952486E+02  0.47000000000E+01 0. -1.
<mgrwt>
<rscale>  0 0.99982669E+03</rscale>
<asrwt>0</asrwt>
<pdfrwt beam="1">  1        1 0.15315171E+00 0.99982669E+03</pdfrwt>
<pdfrwt beam="2">  1       -1 0.38622544E-01 0.99982669E+03</pdfrwt>
<totfact> 0.11091884E+02</totfact>
</mgrwt>
</event>
<event>
 9    1  0.4236486E-036  0.9992239E+03  0.7818608E-02  0.8681777E-01
         -2   -1    0    0    0  501 -0.00000000000E+00  0.00000000000E+00  0.27560660990E+03  0.27560660990E+03  0.00000000000E+00 0.  1.
          2   -1    0    0  501    0  0.00000000000E+00 -0.00000000000E+00 -0.90568249241E+03  0.90568249241E+03  0.00000000000E+00 0.  1.
         36    2    1    2    0    0  0.00000000000E+00 -0.14210854715E-13 -0.63007588251E+03  0.11812891023E+04  0.99922386157E+03 0.  0.
         25    2    3    3    0    0 -0.10881568180E+03 -0.28599093209E+02 -0.21331034287E+03  0.27150433714E+03  0.12471784945E+03 0.  0.
         35    2    3    3    0    0  0.10881568180E+03  0.28599093209E+02 -0.41676553964E+03  0.90978476518E+03  0.80084707853E+03 0.  0.
         22    1    5    5    0    0 -0.27080286049E+02  0.23655741663E+03 -0.57011789088E+03  0.61784072604E+03  0.00000000000E+00 0. -1.
         22    1    5    5    0    0  0.13589596785E+03 -0.20795832342E+03  0.15335235124E+03  0.29194403914E+03  0.00000000000E+00 0. -1.
          5    1    4    4  502    0 -0.59642092833E+02 -0.55990149289E+02 -0.19598264676E+03  0.21242260682E+03  0.47000000000E+01 0.  1.
         -5    1    4    4    0  502 -0.49173588967E+02  0.27391056080E+02 -0.17327696105E+02  0.59081730318E+02  0.47000000000E+01 0.  1.
<mgrwt>
<rscale>  0 0.99922386E+03</rscale>
<asrwt>0</asrwt>
<pdfrwt beam="1">  1        2 0.13933577E+00 0.99922386E+03</pdfrwt>
<pdfrwt beam="2">  1       -2 0.42401017E-01 0.99922386E+03</pdfrwt>
<totfact> 0.18535614E+02</totfact>
</mgrwt>
</event>
<event>
 9    1  0.4236486E-036  0.1000296E+04  0.7818608E-02  0.8680756E-01
          1   -1    0    0  501    0  0.00000000000E+00  0.00000000000E+00  0.16239215851E+03  0.16239215851E+03  0.00000000000E+00 0. -1.
         -1   -1    0    0    0  501 -0.00000000000E+00 -0.00000000000E+00 -0.15403944161E+04  0.15403944161E+04  0.00000000000E+00 0. -1.
         36    2    1    2    0    0  0.00000000000E+00  0.35527136788E-14 -0.13780022576E+04  0.17027865746E+04  0.10002959046E+04 0.  0.
         25    2    3    3    0    0 -0.13028391793E+03 -0.31846416058E+02 -0.32417566597E+03  0.37230557251E+03  0.12463339613E+03 0.  0.
         35    2    3    3    0    0  0.13028391793E+03  0.31846416058E+02 -0.10538265916E+04  0.13304810021E+04  0.80102504220E+03 0.  0.
         22    1    5    5    0    0 -0.14793363652E+03 -0.20679902338E+03 -0.89603714430E+03  0.93141438729E+03  0.00000000000E+00 0. -1.
         22    1    5    5    0    0  0.27821755445E+03  0.23864543943E+03 -0.15778944733E+03  0.39906661481E+03  0.00000000000E+00 0. -1.
          5    1    4    4  502    0 -0.14340467814E+02 -0.42955845808E+02 -0.26641948547E+02  0.52751655221E+02  0.47000000000E+01 0.  1.
         -5    1    4    4    0  502 -0.11594345011E+03  0.11109429750E+02 -0.29753371742E+03  0.31955391729E+03  0.47000000000E+01 0.  1.
<mgrwt>
<rscale>  0 0.10002959E+04</rscale>
<asrwt>0</asrwt>
<pdfrwt beam="1">  1        1 0.24983409E-01 0.10002959E+04</pdfrwt>
<pdfrwt beam="2">  1       -1 0.23698376E+00 0.10002959E+04</pdfrwt>
<totfact> 0.14466676E+01</totfact>
</mgrwt>
</event>
<event>
 9    1  0.4236486E-036  0.1001097E+04  0.7818608E-02  0.8679994E-01
          2   -1    0    0  501    0  0.00000000000E+00  0.00000000000E+00  0.17679363031E+04  0.17679363031E+04  0.00000000000E+00 0. -1.
         -2   -1    0    0    0  501 -0.00000000000E+00 -0.00000000000E+00 -0.14171823872E+03  0.14171823872E+03  0.00000000000E+00 0. -1.
         36    2    1    2    0    0 -0.28421709430E-13  0.21316282073E-13  0.16262180644E+04  0.19096545418E+04  0.10010970363E+04 0.  0.
         25    2    3    3    0    0  0.13838059709E+03  0.25700890869E+02  0.27076566144E+03  0.32950125154E+03  0.12428719125E+03 0.  0.
         35    2    3    3    0    0 -0.13838059709E+03 -0.25700890869E+02  0.13554524029E+04  0.15801532903E+04  0.79988966658E+03 0.  0.
         22    1    5    5    0    0 -0.73943670482E+02  0.36517230241E+03  0.91395037501E+03  0.98697708425E+03  0.00000000000E+00 0.  1.
         22    1    5    5    0    0 -0.64436926607E+02 -0.39087319328E+03  0.44150202793E+03  0.59317620603E+03  0.00000000000E+00 0.  1.
          5    1    4    4  502    0  0.31540464159E+02  0.60310882444E+02  0.14848045721E+03  0.16340360949E+03  0.47000000000E+01 0.  1.
         -5    1    4    4    0  502  0.10684013293E+03 -0.34609991575E+02  0.12228520422E+03  0.16609764204E+03  0.47000000000E+01 0.  1.
<mgrwt>
<rscale>  0 0.10010970E+04</rscale>
<asrwt>0</asrwt>
<pdfrwt beam="1">  1        2 0.27199018E+00 0.10010970E+04</pdfrwt>
<pdfrwt beam="2">  1       -2 0.21802807E-01 0.10010970E+04</pdfrwt>
<totfact> 0.19525663E+02</totfact>
</mgrwt>
</event>
<event>
 9    1  0.4236486E-036  0.1001205E+04  0.7818608E-02  0.8679892E-01
          2   -1    0    0  501    0  0.00000000000E+00  0.00000000000E+00  0.41660146119E+03  0.41660146119E+03  0.00000000000E+00 0. -1.
         -2   -1    0    0    0  501 -0.00000000000E+00 -0.00000000000E+00 -0.60154072038E+03  0.60154072038E+03  0.00000000000E+00 0. -1.
         36    2    1    2    0    0 -0.14210854715E-13  0.00000000000E+00 -0.18493925918E+03  0.10181421816E+04  0.10012047604E+04 0.  0.
         25    2    3    3    0    0  0.91978922187E+02 -0.93488182655E+02  0.19083321790E+02  0.18197434087E+03  0.12470094283E+03 0.  0.
         35    2    3    3    0    0 -0.91978922187E+02  0.93488182655E+02 -0.20402258097E+03  0.83616784070E+03  0.80021952103E+03 0.  0.
         22    1    5    5    0    0  0.35322337585E+03  0.67950194785E+01 -0.48086463924E+02  0.35654625724E+03  0.00000000000E+00 0.  1.
         22    1    5    5    0    0 -0.44520229804E+03  0.86693163177E+02 -0.15593611705E+03  0.47962158346E+03  0.00000000000E+00 0.  1.
          5    1    4    4  502    0  0.37622524377E+02 -0.10007676124E+03  0.50864357417E+02  0.11849086605E+03  0.47000000000E+01 0.  1.
         -5    1    4    4    0  502  0.54356397809E+02  0.65885785844E+01 -0.31781035627E+02  0.63483474827E+02  0.47000000000E+01 0.  1.
<mgrwt>
<rscale>  0 0.10012048E+04</rscale>
<asrwt>0</asrwt>
<pdfrwt beam="1">  1        2 0.64092533E-01 0.10012048E+04</pdfrwt>
<pdfrwt beam="2">  1       -2 0.92544726E-01 0.10012048E+04</pdfrwt>
<totfact> 0.89785748E+01</totfact>
</mgrwt>
</event>
<event>
 9    1  0.4236486E-036  0.1000039E+04  0.7818608E-02  0.8681001E-01
         -2   -1    0    0    0  501 -0.00000000000E+00  0.00000000000E+00  0.14644825453E+03  0.14644825453E+03  0.00000000000E+00 0. -1.
          2   -1    0    0  501    0  0.00000000000E+00 -0.00000000000E+00 -0.17072205250E+04  0.17072205250E+04  0.00000000000E+00 0. -1.
         36    2    1    2    0    0  0.14210854715E-13  0.00000000000E+00 -0.15607722705E+04  0.18536687796E+04  0.10000389312E+04 0.  0.
         25    2    3    3    0    0  0.50197754620E+02 -0.12367385499E+03 -0.17595496542E+03  0.25425648717E+03  0.12598084948E+03 0.  0.
         35    2    3    3    0    0 -0.50197754620E+02  0.12367385499E+03 -0.13848173051E+04  0.15994122924E+04  0.78904098473E+03 0.  0.
         22    1    5    5    0    0 -0.41819435838E+03  0.82769563593E+02 -0.81710230180E+03  0.92162546277E+03  0.00000000000E+00 0. -1.
         22    1    5    5    0    0  0.36799660375E+03  0.40904291401E+02 -0.56771500328E+03  0.67778682960E+03  0.00000000000E+00 0. -1.
          5    1    4    4  502    0  0.91168419571E+02 -0.75150532195E+02 -0.97835867911E+02  0.15347061695E+03  0.47000000000E+01 0. -1.
         -5    1    4    4    0  502 -0.40970664951E+02 -0.48523322799E+02 -0.78119097508E+02  0.10078587023E+03  0.47000000000E+01 0. -1.
<mgrwt>
<rscale>  0 0.10000389E+04</rscale>
<asrwt>0</asrwt>
<pdfrwt beam="1">  1        2 0.26264934E+00 0.10000389E+04</pdfrwt>
<pdfrwt beam="2">  1       -2 0.22530498E-01 0.10000389E+04</pdfrwt>
<totfact> 0.19946269E+02</totfact>
</mgrwt>
</event>
<event>
 9    1  0.4236486E-036  0.1000559E+04  0.7818608E-02  0.8680506E-01
         -2   -1    0    0    0  501 -0.00000000000E+00  0.00000000000E+00  0.18310131970E+03  0.18310131970E+03  0.00000000000E+00 0.  1.
          2   -1    0    0  501    0  0.00000000000E+00 -0.00000000000E+00 -0.13668920034E+04  0.13668920034E+04  0.00000000000E+00 0.  1.
         36    2    1    2    0    0 -0.28421709430E-13  0.00000000000E+00 -0.11837906837E+04  0.15499933231E+04  0.10005593030E+04 0.  0.
         25    2    3    3    0    0  0.12162801538E+03  0.64275337646E+02 -0.18290650388E+03  0.26073604684E+03  0.12491518644E+03 0.  0.
         35    2    3    3    0    0 -0.12162801538E+03 -0.64275337646E+02 -0.10008841798E+04  0.12892572763E+04  0.80093101441E+03 0.  0.
         22    1    5    5    0    0  0.18840508261E+03 -0.16692185417E+03 -0.16659034193E+02  0.25226356053E+03  0.00000000000E+00 0. -1.
         22    1    5    5    0    0 -0.31003309799E+03  0.10264651652E+03 -0.98422514562E+03  0.10369937157E+04  0.00000000000E+00 0. -1.
          5    1    4    4  502    0  0.55588673729E+02  0.81833640452E+02 -0.16063170555E+03  0.18871004262E+03  0.47000000000E+01 0.  1.
         -5    1    4    4    0  502  0.66039341653E+02 -0.17558302806E+02 -0.22274798329E+02  0.72026004221E+02  0.47000000000E+01 0.  1.
<mgrwt>
<rscale>  0 0.10005593E+04</rscale>
<asrwt>0</asrwt>
<pdfrwt beam="1">  1        2 0.21029107E+00 0.10005593E+04</pdfrwt>
<pdfrwt beam="2">  1       -2 0.28169435E-01 0.10005593E+04</pdfrwt>
<totfact> 0.20902426E+02</totfact>
</mgrwt>
</event>
<event>
 9    1  0.4236486E-036  0.1003246E+04  0.7818608E-02  0.8677953E-01
         -1   -1    0    0    0  501 -0.00000000000E+00  0.00000000000E+00  0.87076561344E+03  0.87076561344E+03  0.00000000000E+00 0. -1.
          1   -1    0    0  501    0  0.00000000000E+00 -0.00000000000E+00 -0.28897042591E+03  0.28897042591E+03  0.00000000000E+00 0. -1.
         36    2    1    2    0    0  0.00000000000E+00 -0.56843418861E-13  0.58179518753E+03  0.11597360393E+04  0.10032457529E+04 0.  0.
         25    2    3    3    0    0  0.63743555712E+02 -0.12352155810E+03  0.14883174755E+03  0.23895687210E+03  0.12501472487E+03 0.  0.
         35    2    3    3    0    0 -0.63743555712E+02  0.12352155810E+03  0.43296343998E+03  0.92077916725E+03  0.80065980183E+03 0.  0.
         22    1    5    5    0    0  0.26826533464E+02 -0.28429043670E+03 -0.41571191985E+02  0.28856347534E+03  0.00000000000E+00 0.  1.
         22    1    5    5    0    0 -0.90570089176E+02  0.40781199480E+03  0.47453463196E+03  0.63221569191E+03  0.00000000000E+00 0.  1.
          5    1    4    4  502    0 -0.27573642502E+02 -0.37053183845E+00  0.47490187286E+02  0.55116702942E+02  0.47000000000E+01 0. -1.
         -5    1    4    4    0  502  0.91317198214E+02 -0.12315102626E+03  0.10134156026E+03  0.18384016916E+03  0.47000000000E+01 0. -1.
<mgrwt>
<rscale>  0 0.10032458E+04</rscale>
<asrwt>0</asrwt>
<pdfrwt beam="1">  1        1 0.44456989E-01 0.10032458E+04</pdfrwt>
<pdfrwt beam="2">  1       -1 0.13396394E+00 0.10032458E+04</pdfrwt>
<totfact> 0.51645547E+01</totfact>
</mgrwt>
</event>
<event>
 9    1  0.4236486E-036  0.1000264E+04  0.7818608E-02  0.8680786E-01
         -2   -1    0    0    0  501 -0.00000000000E+00  0.00000000000E+00  0.20237429185E+03  0.20237429185E+03  0.00000000000E+00 0.  1.
          2   -1    0    0  501    0  0.00000000000E+00 -0.00000000000E+00 -0.12359880942E+04  0.12359880942E+04  0.00000000000E+00 0.  1.
         36    2    1    2    0    0  0.00000000000E+00  0.00000000000E+00 -0.10336138023E+04  0.14383623860E+04  0.10002643956E+04 0.  0.
         25    2    3    3    0    0  0.23337164810E+02  0.12532795512E+03 -0.27844931477E+03  0.33069440022E+03  0.12479201033E+03 0.  0.
         35    2    3    3    0    0 -0.23337164810E+02 -0.12532795512E+03 -0.75516448755E+03  0.11076679858E+04  0.80025198776E+03 0.  0.
         22    1    5    5    0    0  0.30403663036E+02 -0.43998047472E+03 -0.24129002279E+03  0.50272067389E+03  0.00000000000E+00 0.  1.
         22    1    5    5    0    0 -0.53740827846E+02  0.31465251959E+03 -0.51387446475E+03  0.60494731191E+03  0.00000000000E+00 0.  1.
          5    1    4    4  502    0  0.19346929848E+02  0.14099002727E+03 -0.17370516941E+03  0.22460647222E+03  0.47000000000E+01 0.  1.
         -5    1    4    4    0  502  0.39902349622E+01 -0.15662072149E+02 -0.10474414536E+03  0.10608792800E+03  0.47000000000E+01 0.  1.
<mgrwt>
<rscale>  0 0.10002644E+04</rscale>
<asrwt>0</asrwt>
<pdfrwt beam="1">  1        2 0.19015201E+00 0.10002644E+04</pdfrwt>
<pdfrwt beam="2">  1       -2 0.31134507E-01 0.10002644E+04</pdfrwt>
<totfact> 0.20751007E+02</totfact>
</mgrwt>
</event>
<event>
 9    1  0.4236486E-036  0.9994055E+03  0.7818608E-02  0.8681604E-01
         -2   -1    0    0    0  501 -0.00000000000E+00  0.00000000000E+00  0.17898574741E+03  0.17898574741E+03  0.00000000000E+00 0. -1.
          2   -1    0    0  501    0  0.00000000000E+00 -0.00000000000E+00 -0.13950990744E+04  0.13950990744E+04  0.00000000000E+00 0. -1.
         36    2    1    2    0    0  0.35527136788E-14  0.28421709430E-13 -0.12161133270E+04  0.15740848218E+04  0.99940552438E+03 0.  0.
         25    2    3    3    0    0 -0.29240565190E+02 -0.13800795764E+03 -0.24445065781E+03  0.30835736919E+03  0.12420521731E+03 0.  0.
         35    2    3    3    0    0  0.29240565190E+02  0.13800795764E+03 -0.97166266915E+03  0.12657274526E+04  0.79877182887E+03 0.  0.
         22    1    5    5    0    0  0.21744994815E+03  0.22149314584E+03 -0.41624755352E+02  0.31317138097E+03  0.00000000000E+00 0. -1.
         22    1    5    5    0    0 -0.18820938296E+03 -0.83485188196E+02 -0.93003791379E+03  0.95255607162E+03  0.00000000000E+00 0. -1.
          5    1    4    4  502    0 -0.24651347040E+02 -0.12050234168E+03 -0.89263524851E+02  0.15204792050E+03  0.47000000000E+01 0.  1.
         -5    1    4    4    0  502 -0.45892181506E+01 -0.17505615965E+02 -0.15518713296E+03  0.15630944869E+03  0.47000000000E+01 0.  1.
<mgrwt>
<rscale>  0 0.99940552E+03</rscale>
<asrwt>0</asrwt>
<pdfrwt beam="1">  1        2 0.21463062E+00 0.99940552E+03</pdfrwt>
<pdfrwt beam="2">  1       -2 0.27536269E-01 0.99940552E+03</pdfrwt>
<totfact> 0.20981861E+02</totfact>
</mgrwt>
</event>
<event>
 9    1  0.4236486E-036  0.9997652E+03  0.7818608E-02  0.8681262E-01
         -2   -1    0    0    0  501 -0.00000000000E+00  0.00000000000E+00  0.23799048234E+03  0.23799048234E+03  0.00000000000E+00 0. -1.
          2   -1    0    0  501    0  0.00000000000E+00 -0.00000000000E+00 -0.10499688409E+04  0.10499688409E+04  0.00000000000E+00 0. -1.
         36    2    1    2    0    0  0.00000000000E+00  0.71054273576E-14 -0.81197835860E+03  0.12879593233E+04  0.99976515422E+03 0.  0.
         25    2    3    3    0    0 -0.40775413323E+02  0.55932846449E+02 -0.30639526422E+03  0.33839713368E+03  0.12587074521E+03 0.  0.
         35    2    3    3    0    0  0.40775413323E+02 -0.55932846449E+02 -0.50558309438E+03  0.94956218960E+03  0.80078896656E+03 0.  0.
         22    1    5    5    0    0 -0.20366817171E+03 -0.30773192619E+03 -0.46892703137E+03  0.59671787581E+03  0.00000000000E+00 0. -1.
         22    1    5    5    0    0  0.24444358503E+03  0.25179907974E+03 -0.36656063007E+02  0.35284431379E+03  0.00000000000E+00 0. -1.
          5    1    4    4  502    0 -0.39753306280E+01  0.67723511500E+02 -0.28692211997E+03  0.29487059906E+03  0.47000000000E+01 0.  1.
         -5    1    4    4    0  502 -0.36800082695E+02 -0.11790665050E+02 -0.19473144255E+02  0.43526534618E+02  0.47000000000E+01 0.  1.
<mgrwt>
<rscale>  0 0.99976515E+03</rscale>
<asrwt>0</asrwt>
<pdfrwt beam="1">  1        2 0.16153367E+00 0.99976515E+03</pdfrwt>
<pdfrwt beam="2">  1       -2 0.36613920E-01 0.99976515E+03</pdfrwt>
<totfact> 0.19861377E+02</totfact>
</mgrwt>
</event>
<event>
 9    1  0.4236486E-036  0.9996560E+03  0.7818608E-02  0.8681366E-01
         -1   -1    0    0    0  501 -0.00000000000E+00  0.00000000000E+00  0.11629908613E+03  0.11629908613E+03  0.00000000000E+00 0. -1.
          1   -1    0    0  501    0  0.00000000000E+00 -0.00000000000E+00 -0.21481510685E+04  0.21481510685E+04  0.00000000000E+00 0. -1.
         36    2    1    2    0    0  0.00000000000E+00 -0.14210854715E-13 -0.20318519823E+04  0.22644501546E+04  0.99965595309E+03 0.  0.
         25    2    3    3    0    0  0.11428608655E+03  0.60472256598E+02 -0.50276991859E+03  0.53395718025E+03  0.12495789650E+03 0.  0.
         35    2    3    3    0    0 -0.11428608655E+03 -0.60472256598E+02 -0.15290820637E+04  0.17304929744E+04  0.79987234809E+03 0.  0.
         22    1    5    5    0    0 -0.24361442284E+03 -0.35797970155E+03 -0.55575481485E+03  0.70452882693E+03  0.00000000000E+00 0. -1.
         22    1    5    5    0    0  0.12932833629E+03  0.29750744496E+03 -0.97332724889E+03  0.10259641474E+04  0.00000000000E+00 0. -1.
          5    1    4    4  502    0  0.64143895890E+02  0.77741899668E+01 -0.71149475351E+02  0.96224816198E+02  0.47000000000E+01 0. -1.
         -5    1    4    4    0  502  0.50142190656E+02  0.52698066632E+02 -0.43162044324E+03  0.43773236405E+03  0.47000000000E+01 0. -1.
<mgrwt>
<rscale>  0 0.99965595E+03</rscale>
<asrwt>0</asrwt>
<pdfrwt beam="1">  1        1 0.33048475E+00 0.99965595E+03</pdfrwt>
<pdfrwt beam="2">  1       -1 0.17892168E-01 0.99965595E+03</pdfrwt>
<totfact> 0.60226786E+01</totfact>
</mgrwt>
</event>
<event>
 9    1  0.4236486E-036  0.9995175E+03  0.7818608E-02  0.8681498E-01
         -1   -1    0    0    0  501 -0.00000000000E+00  0.00000000000E+00  0.96016313527E+03  0.96016313527E+03  0.00000000000E+00 0.  1.
          1   -1    0    0  501    0  0.00000000000E+00 -0.00000000000E+00 -0.26012124423E+03  0.26012124423E+03  0.00000000000E+00 0.  1.
         36    2    1    2    0    0 -0.71054273576E-14 -0.28421709430E-13  0.70004189105E+03  0.12202843795E+04  0.99951754243E+03 0.  0.
         25    2    3    3    0    0 -0.19832954950E+02 -0.13724675553E+03  0.10209933476E+03  0.21292486690E+03  0.12523061439E+03 0.  0.
         35    2    3    3    0    0  0.19832954950E+02  0.13724675553E+03  0.59794255629E+03  0.10073595126E+04  0.79875394772E+03 0.  0.
         22    1    5    5    0    0 -0.22115661856E+03 -0.81008633249E+02 -0.85464198661E+02  0.25055294420E+03  0.00000000000E+00 0. -1.
         22    1    5    5    0    0  0.24098957351E+03  0.21825538878E+03  0.68340675495E+03  0.75680656840E+03  0.00000000000E+00 0. -1.
          5    1    4    4  502    0  0.38095623673E+02 -0.88002261294E+02  0.97152142905E+02  0.13658807930E+03  0.47000000000E+01 0.  1.
         -5    1    4    4    0  502 -0.57928578622E+02 -0.49244494234E+02  0.49471918526E+01  0.76336787598E+02  0.47000000000E+01 0.  1.
<mgrwt>
<rscale>  0 0.99951754E+03</rscale>
<asrwt>0</asrwt>
<pdfrwt beam="1">  1        1 0.40018653E-01 0.99951754E+03</pdfrwt>
<pdfrwt beam="2">  1       -1 0.14771740E+00 0.99951754E+03</pdfrwt>
<totfact> 0.45243041E+01</totfact>
</mgrwt>
</event>
<event>
 9    1  0.4236486E-036  0.9998764E+03  0.7818608E-02  0.8681156E-01
         -1   -1    0    0    0  501 -0.00000000000E+00  0.00000000000E+00  0.21238059733E+03  0.21238059733E+03  0.00000000000E+00 0.  1.
          1   -1    0    0  501    0  0.00000000000E+00 -0.00000000000E+00 -0.11768411220E+04  0.11768411220E+04  0.00000000000E+00 0.  1.
         36    2    1    2    0    0 -0.14210854715E-13 -0.14210854715E-13 -0.96446052469E+03  0.13892217194E+04  0.99987643329E+03 0.  0.
         25    2    3    3    0    0 -0.10927214983E+03 -0.81163507485E+02 -0.24010463889E+03  0.30275167765E+03  0.12442034812E+03 0.  0.
         35    2    3    3    0    0  0.10927214983E+03  0.81163507485E+02 -0.72435588580E+03  0.10864700417E+04  0.79824669405E+03 0.  0.
         22    1    5    5    0    0 -0.21780024228E+03  0.18944239150E+03 -0.68045949899E+03  0.73915525771E+03  0.00000000000E+00 0.  1.
         22    1    5    5    0    0  0.32707239211E+03 -0.10827888402E+03 -0.43896386809E+02  0.34731478400E+03  0.00000000000E+00 0.  1.
          5    1    4    4  502    0 -0.84744193214E+02 -0.15784779340E+02 -0.20907068916E+03  0.22619323732E+03  0.47000000000E+01 0.  1.
         -5    1    4    4    0  502 -0.24527956615E+02 -0.65378728145E+02 -0.31033949728E+02  0.76558440327E+02  0.47000000000E+01 0.  1.
<mgrwt>
<rscale>  0 0.99987643E+03</rscale>
<asrwt>0</asrwt>
<pdfrwt beam="1">  1        1 0.18105248E+00 0.99987643E+03</pdfrwt>
<pdfrwt beam="2">  1       -1 0.32673938E-01 0.99987643E+03</pdfrwt>
<totfact> 0.10767362E+02</totfact>
</mgrwt>
</event>
<event>
 9    1  0.4236486E-036  0.1000012E+04  0.7818608E-02  0.8681027E-01
          2   -1    0    0  501    0  0.00000000000E+00  0.00000000000E+00  0.25227385521E+04  0.25227385521E+04  0.00000000000E+00 0. -1.
         -2   -1    0    0    0  501 -0.00000000000E+00 -0.00000000000E+00 -0.99100958154E+02  0.99100958154E+02  0.00000000000E+00 0. -1.
         36    2    1    2    0    0  0.71054273576E-14 -0.35527136788E-14  0.24236375939E+04  0.26218395103E+04  0.10000116153E+04 0.  0.
         25    2    3    3    0    0  0.42457342233E+02  0.16867876701E+01  0.11483315844E+03  0.17492296153E+03  0.12492364481E+03 0.  0.
         35    2    3    3    0    0 -0.42457342233E+02 -0.16867876701E+01  0.23088044355E+04  0.24469165487E+04  0.80933133130E+03 0.  0.
         22    1    5    5    0    0  0.17007748530E+03 -0.86900614314E+02  0.81137910997E+02  0.20751247764E+03  0.00000000000E+00 0. -1.
         22    1    5    5    0    0 -0.21253482753E+03  0.85213826644E+02  0.22276665245E+04  0.22394040711E+04  0.00000000000E+00 0. -1.
          5    1    4    4  502    0  0.37597402709E+02  0.24763443754E+02  0.13572156285E+03  0.14307070091E+03  0.47000000000E+01 0.  1.
         -5    1    4    4    0  502  0.48599395241E+01 -0.23076656084E+02 -0.20888404407E+02  0.31852260624E+02  0.47000000000E+01 0.  1.
<mgrwt>
<rscale>  0 0.10000116E+04</rscale>
<asrwt>0</asrwt>
<pdfrwt beam="1">  1        2 0.38811358E+00 0.10000116E+04</pdfrwt>
<pdfrwt beam="2">  1       -2 0.15246303E-01 0.10000116E+04</pdfrwt>
<totfact> 0.13124339E+02</totfact>
</mgrwt>
</event>
<event>
 9    1  0.4236486E-036  0.9993867E+03  0.7818608E-02  0.8681622E-01
          1   -1    0    0  501    0  0.00000000000E+00  0.00000000000E+00  0.21048609838E+03  0.21048609838E+03  0.00000000000E+00 0.  1.
         -1   -1    0    0    0  501 -0.00000000000E+00 -0.00000000000E+00 -0.11862705665E+04  0.11862705665E+04  0.00000000000E+00 0.  1.
         36    2    1    2    0    0  0.00000000000E+00 -0.14210854715E-13 -0.97578446809E+03  0.13967566648E+04  0.99938673827E+03 0.  0.
         25    2    3    3    0    0  0.52329529475E+02 -0.66512732380E+02 -0.29421534777E+02  0.15387734738E+03  0.12510111152E+03 0.  0.
         35    2    3    3    0    0 -0.52329529475E+02  0.66512732380E+02 -0.94636293331E+03  0.12428793175E+04  0.80123896125E+03 0.  0.
         22    1    5    5    0    0 -0.17483852398E+03  0.51208054226E+02 -0.10597229955E+04  0.10752690833E+04  0.00000000000E+00 0.  1.
         22    1    5    5    0    0  0.12250899451E+03  0.15304678154E+02  0.11336006218E+03  0.16761023419E+03  0.00000000000E+00 0.  1.
          5    1    4    4  502    0 -0.22378861746E+02  0.23004179729E+02 -0.16736028983E+02  0.36499183609E+02  0.47000000000E+01 0. -1.
         -5    1    4    4    0  502  0.74708391220E+02 -0.89516912108E+02 -0.12685505794E+02  0.11737816377E+03  0.47000000000E+01 0. -1.
<mgrwt>
<rscale>  0 0.99938674E+03</rscale>
<asrwt>0</asrwt>
<pdfrwt beam="1">  1        1 0.32382476E-01 0.99938674E+03</pdfrwt>
<pdfrwt beam="2">  1       -1 0.18250317E+00 0.99938674E+03</pdfrwt>
<totfact> 0.30456630E+01</totfact>
</mgrwt>
</event>
<event>
 9    1  0.4236486E-036  0.9994525E+03  0.7818608E-02  0.8681559E-01
          2   -1    0    0  501    0  0.00000000000E+00  0.00000000000E+00  0.81954689018E+03  0.81954689018E+03  0.00000000000E+00 0. -1.
         -2   -1    0    0    0  501 -0.00000000000E+00 -0.00000000000E+00 -0.30471269754E+03  0.30471269754E+03  0.00000000000E+00 0. -1.
         36    2    1    2    0    0 -0.14210854715E-13  0.00000000000E+00  0.51483419263E+03  0.11242595877E+04  0.99945253748E+03 0.  0.
         25    2    3    3    0    0 -0.18027391203E+02 -0.63427914250E+02  0.24372130834E+03  0.28140996976E+03  0.12427150840E+03 0.  0.
         35    2    3    3    0    0  0.18027391203E+02  0.63427914250E+02  0.27111288429E+03  0.84284961796E+03  0.79532709958E+03 0.  0.
         22    1    5    5    0    0 -0.19375663617E+03 -0.31159767841E+03  0.11083725098E+03  0.38330098285E+03  0.00000000000E+00 0. -1.
         22    1    5    5    0    0  0.21178402737E+03  0.37502559266E+03  0.16027563331E+03  0.45954863511E+03  0.00000000000E+00 0. -1.
          5    1    4    4  502    0 -0.44242484249E+02 -0.81417678124E+02  0.11011228984E+03  0.14398972914E+03  0.47000000000E+01 0.  1.
         -5    1    4    4    0  502  0.26215093047E+02  0.17989763874E+02  0.13360901850E+03  0.13742024062E+03  0.47000000000E+01 0.  1.
<mgrwt>
<rscale>  0 0.99945254E+03</rscale>
<asrwt>0</asrwt>
<pdfrwt beam="1">  1        2 0.12608414E+00 0.99945254E+03</pdfrwt>
<pdfrwt beam="2">  1       -2 0.46878877E-01 0.99945254E+03</pdfrwt>
<totfact> 0.17409072E+02</totfact>
</mgrwt>
</event>
<event>
 9    1  0.4236486E-036  0.9999144E+03  0.7818608E-02  0.8681119E-01
         -2   -1    0    0    0  501 -0.00000000000E+00  0.00000000000E+00  0.32159970685E+03  0.32159970685E+03  0.00000000000E+00 0.  1.
          2   -1    0    0  501    0  0.00000000000E+00 -0.00000000000E+00 -0.77723086345E+03  0.77723086345E+03  0.00000000000E+00 0.  1.
         36    2    1    2    0    0 -0.17763568394E-13  0.00000000000E+00 -0.45563115661E+03  0.10988305703E+04  0.99991443202E+03 0.  0.
         25    2    3    3    0    0  0.56792080724E+01  0.14089787402E+03 -0.10488000393E+03  0.21595395081E+03  0.12550629204E+03 0.  0.
         35    2    3    3    0    0 -0.56792080724E+01 -0.14089787402E+03 -0.35075115268E+03  0.88287661949E+03  0.79784728477E+03 0.  0.
         22    1    5    5    0    0 -0.21254698325E+03  0.60294401092E+02 -0.50820046709E+03  0.55414740786E+03  0.00000000000E+00 0.  1.
         22    1    5    5    0    0  0.20686777517E+03 -0.20119227511E+03  0.15744931441E+03  0.32872921163E+03  0.00000000000E+00 0.  1.
          5    1    4    4  502    0  0.34989816690E+02  0.14642260752E+03 -0.10837699286E+03  0.18555734921E+03  0.47000000000E+01 0. -1.
         -5    1    4    4    0  502 -0.29310608617E+02 -0.55247334972E+01  0.34969889266E+01  0.30396601608E+02  0.47000000000E+01 0. -1.
<mgrwt>
<rscale>  0 0.99991443E+03</rscale>
<asrwt>0</asrwt>
<pdfrwt beam="1">  1        2 0.11957398E+00 0.99991443E+03</pdfrwt>
<pdfrwt beam="2">  1       -2 0.49476879E-01 0.99991443E+03</pdfrwt>
<totfact> 0.16748715E+02</totfact>
</mgrwt>
</event>
<event>
 9    1  0.4236486E-036  0.9971481E+03  0.7818608E-02  0.8683759E-01
         -2   -1    0    0    0  501 -0.00000000000E+00  0.00000000000E+00  0.18980164391E+03  0.18980164391E+03  0.00000000000E+00 0.  1.
          2   -1    0    0  501    0  0.00000000000E+00 -0.00000000000E+00 -0.13096623718E+04  0.13096623718E+04  0.00000000000E+00 0.  1.
         36    2    1    2    0    0  0.00000000000E+00  0.00000000000E+00 -0.11198607279E+04  0.14994640158E+04  0.99714807555E+03 0.  0.
         25    2    3    3    0    0  0.55148255587E+01  0.11637397347E+03 -0.97084968818E+02  0.19574096942E+03  0.12375670057E+03 0.  0.
         35    2    3    3    0    0 -0.55148255587E+01 -0.11637397347E+03 -0.10227757591E+04  0.13037230463E+04  0.80003138258E+03 0.  0.
         22    1    5    5    0    0  0.10672822680E+03  0.19839531847E+03 -0.93000582528E+03  0.95690252996E+03  0.00000000000E+00 0.  1.
         22    1    5    5    0    0 -0.11224305236E+03 -0.31476929195E+03 -0.92769933841E+02  0.34682051638E+03  0.00000000000E+00 0.  1.
          5    1    4    4  502    0  0.58556814593E+02  0.38823806884E+02 -0.66416734708E+02  0.96795977011E+02  0.47000000000E+01 0.  1.
         -5    1    4    4    0  502 -0.53041989034E+02  0.77550166591E+02 -0.30668234110E+02  0.98944992407E+02  0.47000000000E+01 0.  1.
<mgrwt>
<rscale>  0 0.99714808E+03</rscale>
<asrwt>0</asrwt>
<pdfrwt beam="1">  1        2 0.20148652E+00 0.99714808E+03</pdfrwt>
<pdfrwt beam="2">  1       -2 0.29200253E-01 0.99714808E+03</pdfrwt>
<totfact> 0.21131158E+02</totfact>
</mgrwt>
</event>
<event>
 9    1  0.4236486E-036  0.9962940E+03  0.7818608E-02  0.8684575E-01
          2   -1    0    0  501    0  0.00000000000E+00  0.00000000000E+00  0.10613077364E+04  0.10613077364E+04  0.00000000000E+00 0.  1.
         -2   -1    0    0    0  501 -0.00000000000E+00 -0.00000000000E+00 -0.23381574303E+03  0.23381574303E+03  0.00000000000E+00 0.  1.
         36    2    1    2    0    0 -0.17763568394E-14  0.00000000000E+00  0.82749199334E+03  0.12951234794E+04  0.99629404688E+03 0.  0.
         25    2    3    3    0    0 -0.14816336305E+02  0.92725162106E+02  0.29590805648E+03  0.33376273259E+03  0.12255000719E+03 0.  0.
         35    2    3    3    0    0  0.14816336305E+02 -0.92725162106E+02  0.53158393686E+03  0.96136074682E+03  0.79549702959E+03 0.  0.
         22    1    5    5    0    0 -0.12066883122E+02 -0.35836768775E+03  0.58777306916E+03  0.68851302829E+03  0.00000000000E+00 0.  1.
         22    1    5    5    0    0  0.26883219427E+02  0.26564252564E+03 -0.56189132304E+02  0.27284771853E+03  0.00000000000E+00 0.  1.
          5    1    4    4  502    0  0.33296739873E+02 -0.12731084001E+02  0.47254120982E+02  0.59378407993E+02  0.47000000000E+01 0. -1.
         -5    1    4    4    0  502 -0.48113076178E+02  0.10545624611E+03  0.24865393550E+03  0.27438432459E+03  0.47000000000E+01 0. -1.
<mgrwt>
<rscale>  0 0.99629405E+03</rscale>
<asrwt>0</asrwt>
<pdfrwt beam="1">  1        2 0.16327811E+00 0.99629405E+03</pdfrwt>
<pdfrwt beam="2">  1       -2 0.35971653E-01 0.99629405E+03</pdfrwt>
<totfact> 0.20205900E+02</totfact>
</mgrwt>
</event>
<event>
 9    1  0.4236486E-036  0.1000197E+04  0.7818608E-02  0.8680850E-01
          2   -1    0    0  501    0  0.00000000000E+00  0.00000000000E+00  0.91532658918E+03  0.91532658918E+03  0.00000000000E+00 0. -1.
         -2   -1    0    0    0  501 -0.00000000000E+00 -0.00000000000E+00 -0.27323438861E+03  0.27323438861E+03  0.00000000000E+00 0. -1.
         36    2    1    2    0    0 -0.28421709430E-13 -0.14210854715E-13  0.64209220057E+03  0.11885609778E+04  0.10001973825E+04 0.  0.
         25    2    3    3    0    0 -0.13018351645E+03  0.42350020081E+02  0.81564567360E+02  0.20231584354E+03  0.12465010929E+03 0.  0.
         35    2    3    3    0    0  0.13018351645E+03 -0.42350020081E+02  0.56052763321E+03  0.98624513425E+03  0.79984183754E+03 0.  0.
         22    1    5    5    0    0 -0.25735407611E+03  0.19531455177E+03  0.97779061789E+02  0.33754946237E+03  0.00000000000E+00 0. -1.
         22    1    5    5    0    0  0.38753759255E+03 -0.23766457185E+03  0.46274857142E+03  0.64869567187E+03  0.00000000000E+00 0. -1.
          5    1    4    4  502    0 -0.24640273436E+02  0.71177751081E+02  0.37510574852E+02  0.84276619235E+02  0.47000000000E+01 0.  1.
         -5    1    4    4    0  502 -0.10554324301E+03 -0.28827731000E+02  0.44053992508E+02  0.11803922431E+03  0.47000000000E+01 0.  1.
<mgrwt>
<rscale>  0 0.10001974E+04</rscale>
<asrwt>0</asrwt>
<pdfrwt beam="1">  1        2 0.14081947E+00 0.10001974E+04</pdfrwt>
<pdfrwt beam="2">  1       -2 0.42036060E-01 0.10001974E+04</pdfrwt>
<totfact> 0.18575663E+02</totfact>
</mgrwt>
</event>
<event>
 9    1  0.4236486E-036  0.9988586E+03  0.7818608E-02  0.8682126E-01
         -1   -1    0    0    0  501 -0.00000000000E+00  0.00000000000E+00  0.49510106978E+03  0.49510106978E+03  0.00000000000E+00 0.  1.
          1   -1    0    0  501    0  0.00000000000E+00 -0.00000000000E+00 -0.50379537935E+03  0.50379537935E+03  0.00000000000E+00 0.  1.
         36    2    1    2    0    0  0.14210854715E-13 -0.35527136788E-14 -0.86943095700E+01  0.99889644913E+03  0.99885861115E+03 0.  0.
         25    2    3    3    0    0  0.10411908873E+03  0.21168581708E+02  0.88705433458E+02  0.18611500045E+03  0.12442365522E+03 0.  0.
         35    2    3    3    0    0 -0.10411908873E+03 -0.21168581708E+02 -0.97399743028E+02  0.81278144868E+03  0.79989879352E+03 0.  0.
         22    1    5    5    0    0 -0.18363619256E+03  0.35746267078E+03 -0.13530228655E+03  0.42403834846E+03  0.00000000000E+00 0. -1.
         22    1    5    5    0    0  0.79517103828E+02 -0.37863125249E+03  0.37902543521E+02  0.38874310022E+03  0.00000000000E+00 0. -1.
          5    1    4    4  502    0  0.69664511093E+01 -0.21259808216E+02 -0.22728973654E+02  0.32236735719E+02  0.47000000000E+01 0. -1.
         -5    1    4    4    0  502  0.97152637621E+02  0.42428389924E+02  0.11143440711E+03  0.15387826473E+03  0.47000000000E+01 0. -1.
<mgrwt>
<rscale>  0 0.99885861E+03</rscale>
<asrwt>0</asrwt>
<pdfrwt beam="1">  1        1 0.77506981E-01 0.99885861E+03</pdfrwt>
<pdfrwt beam="2">  1       -1 0.76169395E-01 0.99885861E+03</pdfrwt>
<totfact> 0.89552101E+01</totfact>
</mgrwt>
</event>
<event>
 9    1  0.4236486E-036  0.1000518E+04  0.7818608E-02  0.8680545E-01
          1   -1    0    0  501    0  0.00000000000E+00  0.00000000000E+00  0.27968132022E+04  0.27968132022E+04  0.00000000000E+00 0. -1.
         -1   -1    0    0    0  501 -0.00000000000E+00 -0.00000000000E+00 -0.89480079035E+02  0.89480079035E+02  0.00000000000E+00 0. -1.
         36    2    1    2    0    0 -0.71054273576E-14  0.14210854715E-13  0.27073331231E+04  0.28862932812E+04  0.10005179986E+04 0.  0.
         25    2    3    3    0    0  0.22344918783E+02  0.96027950487E+02  0.21820852305E+03  0.27017392041E+03  0.12513322927E+03 0.  0.
         35    2    3    3    0    0 -0.22344918783E+02 -0.96027950487E+02  0.24891246001E+04  0.26161193608E+04  0.79913614141E+03 0.  0.
         22    1    5    5    0    0  0.22385966552E+03 -0.34654675865E+03  0.17472104194E+04  0.17952582142E+04  0.00000000000E+00 0. -1.
         22    1    5    5    0    0 -0.24620458431E+03  0.25051880817E+03  0.74191418063E+03  0.82086114660E+03  0.00000000000E+00 0. -1.
          5    1    4    4  502    0 -0.42256471537E+02  0.80984347429E+02  0.10876153793E+03  0.14210994352E+03  0.47000000000E+01 0. -1.
         -5    1    4    4    0  502  0.64601390320E+02  0.15043603058E+02  0.10944698512E+03  0.12806397688E+03  0.47000000000E+01 0. -1.
<mgrwt>
<rscale>  0 0.10005180E+04</rscale>
<asrwt>0</asrwt>
<pdfrwt beam="1">  1        1 0.43027889E+00 0.10005180E+04</pdfrwt>
<pdfrwt beam="2">  1       -1 0.13766168E-01 0.10005180E+04</pdfrwt>
<totfact> 0.32193785E+01</totfact>
</mgrwt>
</event>
<event>
 9    1  0.4236486E-036  0.1000587E+04  0.7818608E-02  0.8680479E-01
          2   -1    0    0  501    0  0.00000000000E+00  0.00000000000E+00  0.16931639698E+04  0.16931639698E+04  0.00000000000E+00 0. -1.
         -2   -1    0    0    0  501 -0.00000000000E+00 -0.00000000000E+00 -0.14782610263E+03  0.14782610263E+03  0.00000000000E+00 0. -1.
         36    2    1    2    0    0  0.14210854715E-13  0.00000000000E+00  0.15453378671E+04  0.18409900724E+04  0.10005874889E+04 0.  0.
         25    2    3    3    0    0  0.63194871194E+02 -0.21974689558E+02  0.52092679806E+03  0.53961006871E+03  0.12384594701E+03 0.  0.
         35    2    3    3    0    0 -0.63194871194E+02  0.21974689558E+02  0.10244110691E+04  0.13013800037E+04  0.79980960034E+03 0.  0.
         22    1    5    5    0    0  0.70064390947E+02 -0.51779562551E+02  0.11188057767E+04  0.11221927232E+04  0.00000000000E+00 0. -1.
         22    1    5    5    0    0 -0.13325926214E+03  0.73754252109E+02 -0.94394707651E+02  0.17918728047E+03  0.00000000000E+00 0. -1.
          5    1    4    4  502    0  0.76815719100E+02  0.22006086862E+02  0.20097555653E+03  0.21632888591E+03  0.47000000000E+01 0. -1.
         -5    1    4    4    0  502 -0.13620847906E+02 -0.43980776419E+02  0.31995124154E+03  0.32328118280E+03  0.47000000000E+01 0. -1.
<mgrwt>
<rscale>  0 0.10005875E+04</rscale>
<asrwt>0</asrwt>
<pdfrwt beam="1">  1        2 0.26048675E+00 0.10005875E+04</pdfrwt>
<pdfrwt beam="2">  1       -2 0.22742479E-01 0.10005875E+04</pdfrwt>
<totfact> 0.19982410E+02</totfact>
</mgrwt>
</event>
<event>
 9    1  0.4236486E-036  0.9952102E+03  0.7818608E-02  0.8685613E-01
          1   -1    0    0  501    0  0.00000000000E+00  0.00000000000E+00  0.23746831061E+04  0.23746831061E+04  0.00000000000E+00 0.  1.
         -1   -1    0    0    0  501 -0.00000000000E+00 -0.00000000000E+00 -0.10427111317E+03  0.10427111317E+03  0.00000000000E+00 0.  1.
         36    2    1    2    0    0 -0.14210854715E-13  0.35527136788E-14  0.22704119929E+04  0.24789542192E+04  0.99521023085E+03 0.  0.
         25    2    3    3    0    0  0.33557633233E+02 -0.20674168587E+02  0.94597575434E+02  0.16048447814E+03  0.12350315967E+03 0.  0.
         35    2    3    3    0    0 -0.33557633233E+02  0.20674168587E+02  0.21758144175E+04  0.23184697411E+04  0.79973747265E+03 0.  0.
         22    1    5    5    0    0  0.25347023017E+03 -0.46316869707E+02  0.21488038790E+03  0.33550855593E+03  0.00000000000E+00 0.  1.
         22    1    5    5    0    0 -0.28702786340E+03  0.66991038294E+02  0.19609340296E+04  0.19829611852E+04  0.00000000000E+00 0.  1.
          5    1    4    4  502    0  0.55069815902E+02 -0.41058799388E+02  0.10763107240E+03  0.12776950879E+03  0.47000000000E+01 0. -1.
         -5    1    4    4    0  502 -0.21512182669E+02  0.20384630801E+02 -0.13033496966E+02  0.32714969345E+02  0.47000000000E+01 0. -1.
<mgrwt>
<rscale>  0 0.99521023E+03</rscale>
<asrwt>0</asrwt>
<pdfrwt beam="1">  1        1 0.36533582E+00 0.99521023E+03</pdfrwt>
<pdfrwt beam="2">  1       -1 0.16041712E-01 0.99521023E+03</pdfrwt>
<totfact> 0.49893745E+01</totfact>
</mgrwt>
</event>
<event>
 9    1  0.4236486E-036  0.9999900E+03  0.7818608E-02  0.8681047E-01
          2   -1    0    0  501    0  0.00000000000E+00  0.00000000000E+00  0.88653135239E+03  0.88653135239E+03  0.00000000000E+00 0. -1.
         -2   -1    0    0    0  501 -0.00000000000E+00 -0.00000000000E+00 -0.28199229153E+03  0.28199229153E+03  0.00000000000E+00 0. -1.
         36    2    1    2    0    0  0.00000000000E+00 -0.28421709430E-13  0.60453906085E+03  0.11685236439E+04  0.99999001510E+03 0.  0.
         25    2    3    3    0    0 -0.62433136458E+02  0.65062478559E+02 -0.10999596050E+02  0.15507659253E+03  0.12568506592E+03 0.  0.
         35    2    3    3    0    0  0.62433136458E+02 -0.65062478559E+02  0.61553865690E+03  0.10134470514E+04  0.80003503996E+03 0.  0.
         22    1    5    5    0    0  0.54188186974E+02 -0.43330962565E+03  0.34085169609E+03  0.55396161421E+03  0.00000000000E+00 0. -1.
         22    1    5    5    0    0  0.82449494842E+01  0.36824714709E+03  0.27468696081E+03  0.45948543717E+03  0.00000000000E+00 0. -1.
          5    1    4    4  502    0  0.34727387939E+02  0.10832842695E+02 -0.22633825987E+02  0.43101299664E+02  0.47000000000E+01 0.  1.
         -5    1    4    4    0  502 -0.97160524397E+02  0.54229635864E+02  0.11634229937E+02  0.11197529287E+03  0.47000000000E+01 0.  1.
<mgrwt>
<rscale>  0 0.99999002E+03</rscale>
<asrwt>0</asrwt>
<pdfrwt beam="1">  1        2 0.13638944E+00 0.99999002E+03</pdfrwt>
<pdfrwt beam="2">  1       -2 0.43383430E-01 0.99999002E+03</pdfrwt>
<totfact> 0.18253613E+02</totfact>
</mgrwt>
</event>
<event>
 9    1  0.4236486E-036  0.9997195E+03  0.7818608E-02  0.8681305E-01
         -4   -1    0    0    0  501 -0.00000000000E+00  0.00000000000E+00  0.51066203134E+03  0.51066203134E+03  0.00000000000E+00 0.  1.
          4   -1    0    0  501    0  0.00000000000E+00 -0.00000000000E+00 -0.48928598273E+03  0.48928598273E+03  0.00000000000E+00 0.  1.
         36    2    1    2    0    0  0.00000000000E+00 -0.28421709430E-13  0.21376048606E+02  0.99994801407E+03  0.99971950835E+03 0.  0.
         25    2    3    3    0    0 -0.47893890347E+02 -0.50981364385E+02 -0.11877548275E+03  0.18627703179E+03  0.12529402628E+03 0.  0.
         35    2    3    3    0    0  0.47893890347E+02  0.50981364385E+02  0.14015153136E+03  0.81367098228E+03  0.79845168383E+03 0.  0.
         22    1    5    5    0    0 -0.45382211462E+01  0.42437242900E+03  0.69297385799E+02  0.43001707132E+03  0.00000000000E+00 0. -1.
         22    1    5    5    0    0  0.52432111493E+02 -0.37339106462E+03  0.70854145560E+02  0.38365391096E+03  0.00000000000E+00 0. -1.
          5    1    4    4  502    0 -0.47265399666E+02  0.33665941706E+02 -0.56052295669E+02  0.80816851500E+02  0.47000000000E+01 0. -1.
         -5    1    4    4    0  502 -0.62849068110E+00 -0.84647306091E+02 -0.62723187084E+02  0.10546018029E+03  0.47000000000E+01 0. -1.
<mgrwt>
<rscale>  0 0.99971951E+03</rscale>
<asrwt>0</asrwt>
<pdfrwt beam="1">  1        4 0.75274766E-01 0.99971951E+03</pdfrwt>
<pdfrwt beam="2">  1       -4 0.78563390E-01 0.99971951E+03</pdfrwt>
<totfact> 0.53166234E+00</totfact>
</mgrwt>
</event>
<event>
 9    1  0.4236486E-036  0.9990519E+03  0.7818608E-02  0.8681941E-01
          2   -1    0    0  501    0  0.00000000000E+00  0.00000000000E+00  0.13866778101E+04  0.13866778101E+04  0.00000000000E+00 0. -1.
         -2   -1    0    0    0  501 -0.00000000000E+00 -0.00000000000E+00 -0.17994530262E+03  0.17994530262E+03  0.00000000000E+00 0. -1.
         36    2    1    2    0    0  0.00000000000E+00  0.00000000000E+00  0.12067325075E+04  0.15666231128E+04  0.99905186688E+03 0.  0.
         25    2    3    3    0    0  0.11521115916E+03 -0.78020192540E+01  0.10466753155E+03  0.20005759465E+03  0.12543231768E+03 0.  0.
         35    2    3    3    0    0 -0.11521115916E+03  0.78020192540E+01  0.11020649760E+04  0.13665655181E+04  0.79976222799E+03 0.  0.
         22    1    5    5    0    0  0.27544354156E+03 -0.19387795603E+03  0.29605442321E+03  0.44844846741E+03  0.00000000000E+00 0. -1.
         22    1    5    5    0    0 -0.39065470071E+03  0.20167997528E+03  0.80601055275E+03  0.91811705069E+03  0.00000000000E+00 0. -1.
          5    1    4    4  502    0  0.56358448260E+02 -0.53952317964E+02  0.97231340957E+02  0.12475235857E+03  0.47000000000E+01 0. -1.
         -5    1    4    4    0  502  0.58852710896E+02  0.46150298710E+02  0.74361905920E+01  0.75305236082E+02  0.47000000000E+01 0. -1.
<mgrwt>
<rscale>  0 0.99905187E+03</rscale>
<asrwt>0</asrwt>
<pdfrwt beam="1">  1        2 0.21333504E+00 0.99905187E+03</pdfrwt>
<pdfrwt beam="2">  1       -2 0.27683894E-01 0.99905187E+03</pdfrwt>
<totfact> 0.21012725E+02</totfact>
</mgrwt>
</event>
<event>
 9    1  0.4236486E-036  0.1000607E+04  0.7818608E-02  0.8680460E-01
         -2   -1    0    0    0  501 -0.00000000000E+00  0.00000000000E+00  0.10710580380E+03  0.10710580380E+03  0.00000000000E+00 0. -1.
          2   -1    0    0  501    0  0.00000000000E+00 -0.00000000000E+00 -0.23369773018E+04  0.23369773018E+04  0.00000000000E+00 0. -1.
         36    2    1    2    0    0  0.00000000000E+00 -0.28421709430E-13 -0.22298714980E+04  0.24440831056E+04  0.10006074802E+04 0.  0.
         25    2    3    3    0    0 -0.46440926366E+02 -0.11094447326E+03 -0.26693224272E+03  0.31842634486E+03  0.12520814314E+03 0.  0.
         35    2    3    3    0    0  0.46440926366E+02  0.11094447326E+03 -0.19629392553E+04  0.21256567607E+04  0.80673459622E+03 0.  0.
         22    1    5    5    0    0  0.64572232219E+02  0.45274500867E+03 -0.13248439642E+04  0.14015559730E+04  0.00000000000E+00 0. -1.
         22    1    5    5    0    0 -0.18131305853E+02 -0.34180053541E+03 -0.63809529109E+03  0.72410078771E+03  0.00000000000E+00 0. -1.
          5    1    4    4  502    0 -0.38141789385E+02 -0.12059966477E+03 -0.27493416422E+03  0.30267137277E+03  0.47000000000E+01 0.  1.
         -5    1    4    4    0  502 -0.82991369810E+01  0.96551915050E+01  0.80019215046E+01  0.15754972085E+02  0.47000000000E+01 0.  1.
<mgrwt>
<rscale>  0 0.10006075E+04</rscale>
<asrwt>0</asrwt>
<pdfrwt beam="1">  1        2 0.35953495E+00 0.10006075E+04</pdfrwt>
<pdfrwt beam="2">  1       -2 0.16477817E-01 0.10006075E+04</pdfrwt>
<totfact> 0.14891361E+02</totfact>
</mgrwt>
</event>
<event>
 9    1  0.4236486E-036  0.1001008E+04  0.7818608E-02  0.8680078E-01
         -1   -1    0    0    0  501 -0.00000000000E+00  0.00000000000E+00  0.28081119830E+03  0.28081119830E+03  0.00000000000E+00 0.  1.
          1   -1    0    0  501    0  0.00000000000E+00 -0.00000000000E+00 -0.89207436684E+03  0.89207436684E+03  0.00000000000E+00 0.  1.
         36    2    1    2    0    0  0.00000000000E+00  0.14210854715E-13 -0.61126316854E+03  0.11728855651E+04  0.10010084354E+04 0.  0.
         25    2    3    3    0    0  0.32902004611E+02 -0.78228253259E+02  0.16915125071E+02  0.15216019922E+03  0.12515751378E+03 0.  0.
         35    2    3    3    0    0 -0.32902004611E+02  0.78228253259E+02 -0.62817829361E+03  0.10207253659E+04  0.80004381290E+03 0.  0.
         22    1    5    5    0    0 -0.35433343292E+02  0.28465563689E+03  0.67815545594E+02  0.29475973547E+03  0.00000000000E+00 0.  1.
         22    1    5    5    0    0  0.25313386811E+01 -0.20642738363E+03 -0.69599383921E+03  0.72596563045E+03  0.00000000000E+00 0.  1.
          5    1    4    4  502    0  0.13150777991E+02 -0.21659249704E+02  0.68354317158E+02  0.73051137799E+02  0.47000000000E+01 0.  1.
         -5    1    4    4    0  502  0.19751226620E+02 -0.56569003555E+02 -0.51439192087E+02  0.79109061420E+02  0.47000000000E+01 0.  1.
<mgrwt>
<rscale>  0 0.10010084E+04</rscale>
<asrwt>0</asrwt>
<pdfrwt beam="1">  1        1 0.13724221E+00 0.10010084E+04</pdfrwt>
<pdfrwt beam="2">  1       -1 0.43201723E-01 0.10010084E+04</pdfrwt>
<totfact> 0.11023586E+02</totfact>
</mgrwt>
</event>
<event>
 9    1  0.4236486E-036  0.9998270E+03  0.7818608E-02  0.8681203E-01
         -2   -1    0    0    0  501 -0.00000000000E+00  0.00000000000E+00  0.57084831190E+03  0.57084831190E+03  0.00000000000E+00 0.  1.
          2   -1    0    0  501    0  0.00000000000E+00 -0.00000000000E+00 -0.43779319378E+03  0.43779319378E+03  0.00000000000E+00 0.  1.
         36    2    1    2    0    0  0.28421709430E-13  0.00000000000E+00  0.13305511812E+03  0.10086415057E+04  0.99982699630E+03 0.  0.
         25    2    3    3    0    0  0.13842392810E+03 -0.32366024989E+02  0.48019994755E+02  0.19530011574E+03  0.12500988708E+03 0.  0.
         35    2    3    3    0    0 -0.13842392810E+03  0.32366024989E+02  0.85035123365E+02  0.81334138995E+03  0.79629423014E+03 0.  0.
         22    1    5    5    0    0 -0.46388428939E+03  0.10441433105E+03  0.54611233003E+02  0.47861610216E+03  0.00000000000E+00 0.  1.
         22    1    5    5    0    0  0.32546036129E+03 -0.72048306062E+02  0.30423890362E+02  0.33472528779E+03  0.00000000000E+00 0.  1.
          5    1    4    4  502    0  0.41773988570E+02  0.23646207418E+02 -0.31935642831E+02  0.57846214477E+02  0.47000000000E+01 0. -1.
         -5    1    4    4    0  502  0.96649939528E+02 -0.56012232407E+02  0.79955637586E+02  0.13745390126E+03  0.47000000000E+01 0. -1.
<mgrwt>
<rscale>  0 0.99982700E+03</rscale>
<asrwt>0</asrwt>
<pdfrwt beam="1">  1        2 0.67352799E-01 0.99982700E+03</pdfrwt>
<pdfrwt beam="2">  1       -2 0.87822818E-01 0.99982700E+03</pdfrwt>
<totfact> 0.96040612E+01</totfact>
</mgrwt>
</event>
<event>
 9    1  0.4236486E-036  0.9991479E+03  0.7818608E-02  0.8681850E-01
          1   -1    0    0  501    0  0.00000000000E+00  0.00000000000E+00  0.67088655036E+03  0.67088655036E+03  0.00000000000E+00 0. -1.
         -1   -1    0    0    0  501 -0.00000000000E+00 -0.00000000000E+00 -0.37200646951E+03  0.37200646951E+03  0.00000000000E+00 0. -1.
         36    2    1    2    0    0  0.71054273576E-14  0.28421709430E-13  0.29888008085E+03  0.10428930199E+04  0.99914791106E+03 0.  0.
         25    2    3    3    0    0  0.62482723734E+02 -0.83649424579E+02  0.15244798549E+03  0.22307117817E+03  0.12497617873E+03 0.  0.
         35    2    3    3    0    0 -0.62482723734E+02  0.83649424579E+02  0.14643209536E+03  0.81982184171E+03  0.79985259679E+03 0.  0.
         22    1    5    5    0    0 -0.28166788359E+02 -0.35940049827E+03  0.92528494613E+02  0.37218759845E+03  0.00000000000E+00 0.  1.
         22    1    5    5    0    0 -0.34315935376E+02  0.44304992285E+03  0.53903600744E+02  0.44763424325E+03  0.00000000000E+00 0.  1.
          5    1    4    4  502    0  0.67467885489E+02 -0.56653219418E+02  0.16902105813E+03  0.19066124655E+03  0.47000000000E+01 0.  1.
         -5    1    4    4    0  502 -0.49851617549E+01 -0.26996205161E+02 -0.16573072641E+02  0.32409931620E+02  0.47000000000E+01 0.  1.
<mgrwt>
<rscale>  0 0.99914791E+03</rscale>
<asrwt>0</asrwt>
<pdfrwt beam="1">  1        1 0.10321331E+00 0.99914791E+03</pdfrwt>
<pdfrwt beam="2">  1       -1 0.57231765E-01 0.99914791E+03</pdfrwt>
<totfact> 0.10361624E+02</totfact>
</mgrwt>
</event>
<event>
 9    1  0.4236486E-036  0.1000188E+04  0.7818608E-02  0.8680859E-01
          1   -1    0    0  501    0  0.00000000000E+00  0.00000000000E+00  0.68492019674E+03  0.68492019674E+03  0.00000000000E+00 0. -1.
         -1   -1    0    0    0  501 -0.00000000000E+00 -0.00000000000E+00 -0.36514329558E+03  0.36514329558E+03  0.00000000000E+00 0. -1.
         36    2    1    2    0    0  0.00000000000E+00  0.14210854715E-13  0.31977690116E+03  0.10500634923E+04  0.10001880180E+04 0.  0.
         25    2    3    3    0    0 -0.12510648918E+03 -0.60604158010E+02  0.11124455977E+03  0.21150841801E+03  0.11417513393E+03 0.  0.
         35    2    3    3    0    0  0.12510648918E+03  0.60604158010E+02  0.20853234139E+03  0.83855507431E+03  0.80022770362E+03 0.  0.
         22    1    5    5    0    0 -0.24412445699E+03  0.28874897776E+03  0.91774697223E+02  0.38909551232E+03  0.00000000000E+00 0. -1.
         22    1    5    5    0    0  0.36923094617E+03 -0.22814481975E+03  0.11675764417E+03  0.44945956199E+03  0.00000000000E+00 0. -1.
          5    1    4    4  502    0 -0.77657051349E+02  0.20498740637E+02  0.77071735190E+02  0.11141345680E+03  0.47000000000E+01 0.  1.
         -5    1    4    4    0  502 -0.47449437829E+02 -0.81102898646E+02  0.34172824579E+02  0.10009496121E+03  0.47000000000E+01 0.  1.
<mgrwt>
<rscale>  0 0.10001880E+04</rscale>
<asrwt>0</asrwt>
<pdfrwt beam="1">  1        1 0.10537234E+00 0.10001880E+04</pdfrwt>
<pdfrwt beam="2">  1       -1 0.56175892E-01 0.10001880E+04</pdfrwt>
<totfact> 0.10401108E+02</totfact>
</mgrwt>
</event>
<event>
 9    1  0.4236486E-036  0.1000819E+04  0.7818608E-02  0.8680259E-01
          1   -1    0    0  501    0  0.00000000000E+00  0.00000000000E+00  0.14048257432E+04  0.14048257432E+04  0.00000000000E+00 0. -1.
         -1   -1    0    0    0  501 -0.00000000000E+00 -0.00000000000E+00 -0.17824956353E+03  0.17824956353E+03  0.00000000000E+00 0. -1.
         36    2    1    2    0    0  0.00000000000E+00  0.00000000000E+00  0.12265761797E+04  0.15830753068E+04  0.10008188159E+04 0.  0.
         25    2    3    3    0    0  0.62268969461E+02 -0.17715720893E+02  0.23993251404E+02  0.14386190654E+03  0.12621133355E+03 0.  0.
         35    2    3    3    0    0 -0.62268969461E+02  0.17715720893E+02  0.12025829283E+04  0.14392134002E+04  0.78799634555E+03 0.  0.
         22    1    5    5    0    0  0.10375224501E+03 -0.19133276000E+03  0.10824216429E+02  0.21792181409E+03  0.00000000000E+00 0.  1.
         22    1    5    5    0    0 -0.16602121447E+03  0.20904848089E+03  0.11917587119E+04  0.12212915861E+04  0.00000000000E+00 0.  1.
          5    1    4    4  502    0  0.19000756477E+02 -0.10264495900E+02 -0.51702643265E+02  0.56228479824E+02  0.47000000000E+01 0. -1.
         -5    1    4    4    0  502  0.43268212984E+02 -0.74512249932E+01  0.75695894669E+02  0.87633426719E+02  0.47000000000E+01 0. -1.
<mgrwt>
<rscale>  0 0.10008188E+04</rscale>
<asrwt>0</asrwt>
<pdfrwt beam="1">  1        1 0.21612703E+00 0.10008188E+04</pdfrwt>
<pdfrwt beam="2">  1       -1 0.27423011E-01 0.10008188E+04</pdfrwt>
<totfact> 0.98892775E+01</totfact>
</mgrwt>
</event>
<event>
 9    1  0.4236486E-036  0.1000115E+04  0.7818608E-02  0.8680929E-01
         -2   -1    0    0    0  501 -0.00000000000E+00  0.00000000000E+00  0.17341055548E+03  0.17341055548E+03  0.00000000000E+00 0. -1.
          2   -1    0    0  501    0  0.00000000000E+00 -0.00000000000E+00 -0.14419957125E+04  0.14419957125E+04  0.00000000000E+00 0. -1.
         36    2    1    2    0    0 -0.28421709430E-13  0.14210854715E-13 -0.12685851571E+04  0.16154062680E+04  0.10001145484E+04 0.  0.
         25    2    3    3    0    0 -0.10593539973E+03  0.77294051638E+02 -0.31890255465E+03  0.36648919104E+03  0.12417249475E+03 0.  0.
         35    2    3    3    0    0  0.10593539973E+03 -0.77294051638E+02 -0.94968260241E+03  0.12489170770E+04  0.80043746820E+03 0.  0.
         22    1    5    5    0    0  0.29353703175E+03 -0.12778223126E+03 -0.99852764070E+03  0.10485941717E+04  0.00000000000E+00 0. -1.
         22    1    5    5    0    0 -0.18760163202E+03  0.50488179618E+02  0.48845038294E+02  0.20032290529E+03  0.00000000000E+00 0. -1.
          5    1    4    4  502    0 -0.11646382261E+03  0.18881626992E+02 -0.24164432706E+03  0.26895056910E+03  0.47000000000E+01 0. -1.
         -5    1    4    4    0  502  0.10528422879E+02  0.58412424646E+02 -0.77258227588E+02  0.97538621948E+02  0.47000000000E+01 0. -1.
<mgrwt>
<rscale>  0 0.10001145E+04</rscale>
<asrwt>0</asrwt>
<pdfrwt beam="1">  1        2 0.22184549E+00 0.10001145E+04</pdfrwt>
<pdfrwt beam="2">  1       -2 0.26678547E-01 0.10001145E+04</pdfrwt>
<totfact> 0.20881231E+02</totfact>
</mgrwt>
</event>
<event>
 9    1  0.4236486E-036  0.1000261E+04  0.7818608E-02  0.8680790E-01
         -1   -1    0    0    0  501 -0.00000000000E+00  0.00000000000E+00  0.11062383462E+04  0.11062383462E+04  0.00000000000E+00 0. -1.
          1   -1    0    0  501    0  0.00000000000E+00 -0.00000000000E+00 -0.22610888134E+03  0.22610888134E+03  0.00000000000E+00 0. -1.
         36    2    1    2    0    0  0.28421709430E-13  0.17763568394E-14  0.88012946485E+03  0.13323472275E+04  0.10002605959E+04 0.  0.
         25    2    3    3    0    0  0.13429621818E+03  0.28152038486E+01  0.11059425648E+03  0.21430721757E+03  0.12511232693E+03 0.  0.
         35    2    3    3    0    0 -0.13429621818E+03 -0.28152038486E+01  0.76953520838E+03  0.11180400100E+04  0.79986600586E+03 0.  0.
         22    1    5    5    0    0  0.18169757565E+03 -0.14260565647E+02 -0.89218530704E+02  0.20292195285E+03  0.00000000000E+00 0.  1.
         22    1    5    5    0    0 -0.31599379383E+03  0.11445361799E+02  0.85875373908E+03  0.91511805710E+03  0.00000000000E+00 0.  1.
          5    1    4    4  502    0  0.22604997900E+02  0.24054559554E+02 -0.21720302706E+02  0.39792829945E+02  0.47000000000E+01 0.  1.
         -5    1    4    4    0  502  0.11169122028E+03 -0.21239355705E+02  0.13231455918E+03  0.17451438763E+03  0.47000000000E+01 0.  1.
<mgrwt>
<rscale>  0 0.10002606E+04</rscale>
<asrwt>0</asrwt>
<pdfrwt beam="1">  1        1 0.34785982E-01 0.10002606E+04</pdfrwt>
<pdfrwt beam="2">  1       -1 0.17019051E+00 0.10002606E+04</pdfrwt>
<totfact> 0.35185374E+01</totfact>
</mgrwt>
</event>
<event>
 9    1  0.4236486E-036  0.1000870E+04  0.7818608E-02  0.8680210E-01
         -2   -1    0    0    0  501 -0.00000000000E+00  0.00000000000E+00  0.81908443595E+03  0.81908443595E+03  0.00000000000E+00 0. -1.
          2   -1    0    0  501    0  0.00000000000E+00 -0.00000000000E+00 -0.30575012923E+03  0.30575012923E+03  0.00000000000E+00 0. -1.
         36    2    1    2    0    0  0.00000000000E+00  0.00000000000E+00  0.51333430672E+03  0.11248345652E+04  0.10008699659E+04 0.  0.
         25    2    3    3    0    0  0.35130079019E+02 -0.11461573070E+03  0.11224085581E+02  0.17316914040E+03  0.12446157204E+03 0.  0.
         35    2    3    3    0    0 -0.35130079019E+02  0.11461573070E+03  0.50211022114E+03  0.95166542478E+03  0.79948828532E+03 0.  0.
         22    1    5    5    0    0 -0.17937433417E+03 -0.21810990119E+03 -0.54241181384E+02  0.28755727519E+03  0.00000000000E+00 0.  1.
         22    1    5    5    0    0  0.14424425515E+03  0.33272563189E+03  0.55635140253E+03  0.66410814959E+03  0.00000000000E+00 0.  1.
          5    1    4    4  502    0  0.61849738118E+02 -0.12793915723E+03  0.13710400765E+02  0.14284216166E+03  0.47000000000E+01 0. -1.
         -5    1    4    4    0  502 -0.26719659099E+02  0.13323426524E+02 -0.24863151839E+01  0.30326978747E+02  0.47000000000E+01 0. -1.
<mgrwt>
<rscale>  0 0.10008700E+04</rscale>
<asrwt>0</asrwt>
<pdfrwt beam="1">  1        2 0.47038482E-01 0.10008700E+04</pdfrwt>
<pdfrwt beam="2">  1       -2 0.12601299E+00 0.10008700E+04</pdfrwt>
<totfact> 0.58541526E+01</totfact>
</mgrwt>
</event>
<event>
 9    1  0.4236486E-036  0.9996923E+03  0.7818608E-02  0.8681331E-01
          2   -1    0    0  501    0  0.00000000000E+00  0.00000000000E+00  0.17459801720E+04  0.17459801720E+04  0.00000000000E+00 0.  1.
         -2   -1    0    0    0  501 -0.00000000000E+00 -0.00000000000E+00 -0.14309793175E+03  0.14309793175E+03  0.00000000000E+00 0.  1.
         36    2    1    2    0    0  0.28421709430E-13  0.00000000000E+00  0.16028822402E+04  0.18890781037E+04  0.99969225561E+03 0.  0.
         25    2    3    3    0    0 -0.61480213868E+02 -0.11043654727E+03  0.18626437922E+03  0.25732177464E+03  0.12467569556E+03 0.  0.
         35    2    3    3    0    0  0.61480213868E+02  0.11043654727E+03  0.14166178610E+04  0.16317563291E+04  0.79990406033E+03 0.  0.
         22    1    5    5    0    0 -0.28913192462E+03  0.28267380312E+03  0.56462702850E+03  0.69448213088E+03  0.00000000000E+00 0.  1.
         22    1    5    5    0    0  0.35061213848E+03 -0.17223725585E+03  0.85199083251E+03  0.93727419821E+03  0.00000000000E+00 0.  1.
          5    1    4    4  502    0 -0.18794699359E+01  0.24172021480E+02  0.53932166498E+02  0.59317683812E+02  0.47000000000E+01 0.  1.
         -5    1    4    4    0  502 -0.59600743932E+02 -0.13460856875E+03  0.13233221273E+03  0.19800409082E+03  0.47000000000E+01 0.  1.
<mgrwt>
<rscale>  0 0.99969226E+03</rscale>
<asrwt>0</asrwt>
<pdfrwt beam="1">  1        2 0.26861232E+00 0.99969226E+03</pdfrwt>
<pdfrwt beam="2">  1       -2 0.22015068E-01 0.99969226E+03</pdfrwt>
<totfact> 0.19752934E+02</totfact>
</mgrwt>
</event>
<event>
 9    1  0.4236486E-036  0.1001004E+04  0.7818608E-02  0.8680083E-01
          1   -1    0    0  501    0  0.00000000000E+00  0.00000000000E+00  0.37665119934E+03  0.37665119934E+03  0.00000000000E+00 0.  1.
         -1   -1    0    0    0  501 -0.00000000000E+00 -0.00000000000E+00 -0.66507697406E+03  0.66507697406E+03  0.00000000000E+00 0.  1.
         36    2    1    2    0    0 -0.35527136788E-14  0.00000000000E+00 -0.28842577472E+03  0.10417281734E+04  0.10010035763E+04 0.  0.
         25    2    3    3    0    0  0.13782703584E+02 -0.87959278027E+02  0.59416639678E+02  0.16455427971E+03  0.12498390453E+03 0.  0.
         35    2    3    3    0    0 -0.13782703584E+02  0.87959278027E+02 -0.34784241440E+03  0.87717389369E+03  0.80032049643E+03 0.  0.
         22    1    5    5    0    0  0.63322219648E+02  0.32995860730E+02  0.25609273188E+03  0.26586071099E+03  0.00000000000E+00 0. -1.
         22    1    5    5    0    0 -0.77104923232E+02  0.54963417298E+02 -0.60393514628E+03  0.61131318270E+03  0.00000000000E+00 0. -1.
          5    1    4    4  502    0  0.39405426564E+02 -0.10713876360E+03  0.65414927693E+02  0.13165373171E+03  0.47000000000E+01 0. -1.
         -5    1    4    4    0  502 -0.25622722980E+02  0.19179485569E+02 -0.59982880145E+01  0.32900548000E+02  0.47000000000E+01 0. -1.
<mgrwt>
<rscale>  0 0.10010036E+04</rscale>
<asrwt>0</asrwt>
<pdfrwt beam="1">  1        1 0.57946338E-01 0.10010036E+04</pdfrwt>
<pdfrwt beam="2">  1       -1 0.10231953E+00 0.10010036E+04</pdfrwt>
<totfact> 0.70468962E+01</totfact>
</mgrwt>
</event>
<event>
 9    1  0.4236486E-036  0.9999011E+03  0.7818608E-02  0.8681132E-01
         -1   -1    0    0    0  501 -0.00000000000E+00  0.00000000000E+00  0.38449427994E+03  0.38449427994E+03  0.00000000000E+00 0. -1.
          1   -1    0    0  501    0  0.00000000000E+00 -0.00000000000E+00 -0.65007611973E+03  0.65007611973E+03  0.00000000000E+00 0. -1.
         36    2    1    2    0    0  0.28421709430E-13 -0.28421709430E-13 -0.26558183979E+03  0.10345703997E+04  0.99990109423E+03 0.  0.
         25    2    3    3    0    0  0.13672429494E+03  0.23607045731E+02 -0.52627108476E+02  0.19416498994E+03  0.12521823085E+03 0.  0.
         35    2    3    3    0    0 -0.13672429494E+03 -0.23607045731E+02 -0.21295473132E+03  0.84040540974E+03  0.80104975481E+03 0.  0.
         22    1    5    5    0    0  0.10665446961E+03 -0.37015144983E+03 -0.58394742775E+02  0.38961162417E+03  0.00000000000E+00 0. -1.
         22    1    5    5    0    0 -0.24337876455E+03  0.34654440410E+03 -0.15455998854E+03  0.45079378557E+03  0.00000000000E+00 0. -1.
          5    1    4    4  502    0  0.36947056607E+02  0.56380588855E+02  0.14931126306E+02  0.69201765327E+02  0.47000000000E+01 0. -1.
         -5    1    4    4    0  502  0.99777238330E+02 -0.32773543124E+02 -0.67558234783E+02  0.12496322461E+03  0.47000000000E+01 0. -1.
<mgrwt>
<rscale>  0 0.99990109E+03</rscale>
<asrwt>0</asrwt>
<pdfrwt beam="1">  1        1 0.10001171E+00 0.99990109E+03</pdfrwt>
<pdfrwt beam="2">  1       -1 0.59152966E-01 0.99990109E+03</pdfrwt>
<totfact> 0.10201149E+02</totfact>
</mgrwt>
</event>
<event>
 9    1  0.4236486E-036  0.1004052E+04  0.7818608E-02  0.8677189E-01
          2   -1    0    0  501    0  0.00000000000E+00  0.00000000000E+00  0.57496869215E+03  0.57496869215E+03  0.00000000000E+00 0. -1.
         -2   -1    0    0    0  501 -0.00000000000E+00 -0.00000000000E+00 -0.43833731541E+03  0.43833731541E+03  0.00000000000E+00 0. -1.
         36    2    1    2    0    0  0.00000000000E+00 -0.49737991503E-13  0.13663137674E+03  0.10133060076E+04  0.10040522555E+04 0.  0.
         25    2    3    3    0    0  0.13739508643E+03 -0.21453442278E+02  0.30230164729E+02  0.19217360421E+03  0.12914786616E+03 0.  0.
         35    2    3    3    0    0 -0.13739508643E+03  0.21453442278E+02  0.10640121201E+03  0.82113240335E+03  0.80224656182E+03 0.  0.
         22    1    5    5    0    0  0.68411894838E+02 -0.27734317330E+03 -0.19797155812E+03  0.34755166660E+03  0.00000000000E+00 0.  1.
         22    1    5    5    0    0 -0.20580698127E+03  0.29879661558E+03  0.30437277013E+03  0.47358073675E+03  0.00000000000E+00 0.  1.
          5    1    4    4  502    0  0.86029861596E+02  0.34302441145E+02 -0.27547496148E+02  0.96740627964E+02  0.47000000000E+01 0. -1.
         -5    1    4    4    0  502  0.51365224837E+02 -0.55755883422E+02  0.57777660877E+02  0.95432976246E+02  0.47000000000E+01 0. -1.
<mgrwt>
<rscale>  0 0.10040523E+04</rscale>
<asrwt>0</asrwt>
<pdfrwt beam="1">  1        2 0.88456722E-01 0.10040523E+04</pdfrwt>
<pdfrwt beam="2">  1       -2 0.67436510E-01 0.10040523E+04</pdfrwt>
<totfact> 0.12736772E+02</totfact>
</mgrwt>
</event>
<event>
 9    1  0.4236486E-036  0.1000283E+04  0.7818608E-02  0.8680768E-01
          1   -1    0    0  501    0  0.00000000000E+00  0.00000000000E+00  0.24392444579E+03  0.24392444579E+03  0.00000000000E+00 0.  1.
         -1   -1    0    0    0  501 -0.00000000000E+00 -0.00000000000E+00 -0.10254882999E+04  0.10254882999E+04  0.00000000000E+00 0.  1.
         36    2    1    2    0    0 -0.11546319456E-13  0.00000000000E+00 -0.78156385413E+03  0.12694127457E+04  0.10002832903E+04 0.  0.
         25    2    3    3    0    0 -0.11409591684E+01  0.55468479889E+02 -0.28626275221E+03  0.31725550646E+03  0.12500655593E+03 0.  0.
         35    2    3    3    0    0  0.11409591684E+01 -0.55468479889E+02 -0.49530110192E+03  0.95215723925E+03  0.81129659968E+03 0.  0.
         22    1    5    5    0    0  0.13318203842E+03 -0.34265366107E+03 -0.36248598234E+01  0.36764402132E+03  0.00000000000E+00 0. -1.
         22    1    5    5    0    0 -0.13204107925E+03  0.28718518118E+03 -0.49167624210E+03  0.58451321794E+03  0.00000000000E+00 0. -1.
          5    1    4    4  502    0 -0.62409894700E+01  0.78247242499E+02 -0.89836248053E+02  0.11939104813E+03  0.47000000000E+01 0. -1.
         -5    1    4    4    0  502  0.51000303016E+01 -0.22778762609E+02 -0.19642650416E+03  0.19786445833E+03  0.47000000000E+01 0. -1.
<mgrwt>
<rscale>  0 0.10002833E+04</rscale>
<asrwt>0</asrwt>
<pdfrwt beam="1">  1        1 0.37526838E-01 0.10002833E+04</pdfrwt>
<pdfrwt beam="2">  1       -1 0.15776743E+00 0.10002833E+04</pdfrwt>
<totfact> 0.40501485E+01</totfact>
</mgrwt>
</event>
<event>
 9    1  0.4236486E-036  0.1000185E+04  0.7818608E-02  0.8680861E-01
          2   -1    0    0  501    0  0.00000000000E+00  0.00000000000E+00  0.11147319626E+04  0.11147319626E+04  0.00000000000E+00 0.  1.
         -2   -1    0    0    0  501 -0.00000000000E+00 -0.00000000000E+00 -0.22435234350E+03  0.22435234350E+03  0.00000000000E+00 0.  1.
         36    2    1    2    0    0  0.21316282073E-13  0.71054273576E-14  0.89037961908E+03  0.13390843061E+04  0.10001854392E+04 0.  0.
         25    2    3    3    0    0  0.49646949297E+02 -0.42430175786E+01  0.34073602491E+03  0.36565281191E+03  0.12295575388E+03 0.  0.
         35    2    3    3    0    0 -0.49646949297E+02  0.42430175786E+01  0.54964359417E+03  0.97343149416E+03  0.80185907144E+03 0.  0.
         22    1    5    5    0    0 -0.22958440498E+03  0.32834819493E+03  0.42066395021E+03  0.58093002602E+03  0.00000000000E+00 0. -1.
         22    1    5    5    0    0  0.17993745568E+03 -0.32410517735E+03  0.12897964396E+03  0.39250146815E+03  0.00000000000E+00 0. -1.
          5    1    4    4  502    0  0.27531603922E+02  0.58188779183E+02  0.13863946680E+03  0.15292780974E+03  0.47000000000E+01 0. -1.
         -5    1    4    4    0  502  0.22115345375E+02 -0.62431796762E+02  0.20209655812E+03  0.21272500217E+03  0.47000000000E+01 0. -1.
<mgrwt>
<rscale>  0 0.10001854E+04</rscale>
<asrwt>0</asrwt>
<pdfrwt beam="1">  1        2 0.17149722E+00 0.10001854E+04</pdfrwt>
<pdfrwt beam="2">  1       -2 0.34515746E-01 0.10001854E+04</pdfrwt>
<totfact> 0.20251678E+02</totfact>
</mgrwt>
</event>
<event>
 9    1  0.4236486E-036  0.1000233E+04  0.7818608E-02  0.8680816E-01
          2   -1    0    0  501    0  0.00000000000E+00  0.00000000000E+00  0.11225424164E+04  0.11225424164E+04  0.00000000000E+00 0. -1.
         -2   -1    0    0    0  501 -0.00000000000E+00 -0.00000000000E+00 -0.22281265986E+03  0.22281265986E+03  0.00000000000E+00 0. -1.
         36    2    1    2    0    0  0.00000000000E+00  0.00000000000E+00  0.89972975649E+03  0.13453550762E+04  0.10002332960E+04 0.  0.
         25    2    3    3    0    0  0.42898765221E+02 -0.13202453544E+03  0.20556765505E+03  0.27733681038E+03  0.12404379701E+03 0.  0.
         35    2    3    3    0    0 -0.42898765221E+02  0.13202453544E+03  0.69416210144E+03  0.10680182658E+04  0.79970695324E+03 0.  0.
         22    1    5    5    0    0  0.16384933681E+02  0.46910545666E+03  0.40516855502E+03  0.62007253890E+03  0.00000000000E+00 0. -1.
         22    1    5    5    0    0 -0.59283698903E+02 -0.33708092122E+03  0.28899354642E+03  0.44794572693E+03  0.00000000000E+00 0. -1.
          5    1    4    4  502    0  0.53204572191E+02 -0.11086586716E+03  0.21797910133E+03  0.25031768939E+03  0.47000000000E+01 0. -1.
         -5    1    4    4    0  502 -0.10305806970E+02 -0.21158668276E+02 -0.12411446284E+02  0.27019120996E+02  0.47000000000E+01 0. -1.
<mgrwt>
<rscale>  0 0.10002333E+04</rscale>
<asrwt>0</asrwt>
<pdfrwt beam="1">  1        2 0.17269883E+00 0.10002333E+04</pdfrwt>
<pdfrwt beam="2">  1       -2 0.34278872E-01 0.10002333E+04</pdfrwt>
<totfact> 0.20291654E+02</totfact>
</mgrwt>
</event>
<event>
 9    1  0.4236486E-036  0.1000090E+04  0.7818608E-02  0.8680952E-01
         -2   -1    0    0    0  501 -0.00000000000E+00  0.00000000000E+00  0.41865322044E+03  0.41865322044E+03  0.00000000000E+00 0.  1.
          2   -1    0    0  501    0  0.00000000000E+00 -0.00000000000E+00 -0.59726067287E+03  0.59726067287E+03  0.00000000000E+00 0.  1.
         36    2    1    2    0    0 -0.17763568394E-13  0.00000000000E+00 -0.17860745242E+03  0.10159138933E+04  0.10000902042E+04 0.  0.
         25    2    3    3    0    0  0.22329885434E+02 -0.13516136302E+03 -0.67239068107E+02  0.19753204955E+03  0.12542169063E+03 0.  0.
         35    2    3    3    0    0 -0.22329885434E+02  0.13516136302E+03 -0.11136838432E+03  0.81838184376E+03  0.79911119836E+03 0.  0.
         22    1    5    5    0    0 -0.14264970508E+03  0.41920308147E+03  0.87483804246E+02  0.45136856102E+03  0.00000000000E+00 0. -1.
         22    1    5    5    0    0  0.12031981964E+03 -0.28404171845E+03 -0.19885218856E+03  0.36701328275E+03  0.00000000000E+00 0. -1.
          5    1    4    4  502    0 -0.12951796986E+02 -0.90778265666E+02 -0.96798812143E+02  0.13341867409E+03  0.47000000000E+01 0. -1.
         -5    1    4    4    0  502  0.35281682420E+02 -0.44383097356E+02  0.29559744037E+02  0.64113375459E+02  0.47000000000E+01 0. -1.
<mgrwt>
<rscale>  0 0.10000902E+04</rscale>
<asrwt>0</asrwt>
<pdfrwt beam="1">  1        2 0.91886257E-01 0.10000902E+04</pdfrwt>
<pdfrwt beam="2">  1       -2 0.64408188E-01 0.10000902E+04</pdfrwt>
<totfact> 0.13435153E+02</totfact>
</mgrwt>
</event>
<event>
 9    1  0.4236486E-036  0.1000008E+04  0.7818608E-02  0.8681030E-01
          2   -1    0    0  501    0  0.00000000000E+00  0.00000000000E+00  0.27053892338E+04  0.27053892338E+04  0.00000000000E+00 0.  1.
         -2   -1    0    0    0  501 -0.00000000000E+00 -0.00000000000E+00 -0.92409674851E+02  0.92409674851E+02  0.00000000000E+00 0.  1.
         36    2    1    2    0    0 -0.71054273576E-14  0.28421709430E-13  0.26129795589E+04  0.27977989086E+04  0.10000082788E+04 0.  0.
         25    2    3    3    0    0  0.64398973963E+01  0.13189764231E+03  0.64807691385E+03  0.67304415941E+03  0.12468477824E+03 0.  0.
         35    2    3    3    0    0 -0.64398973963E+01 -0.13189764231E+03  0.19649026451E+04  0.21247547492E+04  0.79768532604E+03 0.  0.
         22    1    5    5    0    0  0.51822524479E+02  0.22653248188E+03  0.15745702154E+04  0.15916261818E+04  0.00000000000E+00 0.  1.
         22    1    5    5    0    0 -0.58262421875E+02 -0.35843012419E+03  0.39033242967E+03  0.53312856740E+03  0.00000000000E+00 0.  1.
          5    1    4    4  502    0  0.36236836558E+02  0.13985061681E+03  0.58607099668E+03  0.60363284080E+03  0.47000000000E+01 0.  1.
         -5    1    4    4    0  502 -0.29796939162E+02 -0.79529744994E+01  0.62005917165E+02  0.69411318604E+02  0.47000000000E+01 0.  1.
<mgrwt>
<rscale>  0 0.10000083E+04</rscale>
<asrwt>0</asrwt>
<pdfrwt beam="1">  1        2 0.41621367E+00 0.10000083E+04</pdfrwt>
<pdfrwt beam="2">  1       -2 0.14216875E-01 0.10000083E+04</pdfrwt>
<totfact> 0.11364284E+02</totfact>
</mgrwt>
</event>
<event>
 9    1  0.4236486E-036  0.1000345E+04  0.7818608E-02  0.8680709E-01
          2   -1    0    0  501    0  0.00000000000E+00  0.00000000000E+00  0.20300231590E+04  0.20300231590E+04  0.00000000000E+00 0.  1.
         -2   -1    0    0    0  501 -0.00000000000E+00 -0.00000000000E+00 -0.12323632337E+03  0.12323632337E+03  0.00000000000E+00 0.  1.
         36    2    1    2    0    0  0.88817841970E-14  0.14210854715E-13  0.19067868357E+04  0.21532594824E+04  0.10003451214E+04 0.  0.
         25    2    3    3    0    0 -0.10708248133E+02 -0.80157594045E+02  0.59519438595E+03  0.61402867181E+03  0.12741642858E+03 0.  0.
         35    2    3    3    0    0  0.10708248133E+02  0.80157594045E+02  0.13115924497E+04  0.15392308106E+04  0.80150909394E+03 0.  0.
         22    1    5    5    0    0  0.10540269480E+03  0.31972826315E+03  0.12203632871E+04  0.12659472512E+04  0.00000000000E+00 0.  1.
         22    1    5    5    0    0 -0.94694446669E+02 -0.23957066910E+03  0.91229162618E+02  0.27328355939E+03  0.00000000000E+00 0.  1.
          5    1    4    4  502    0 -0.23610246863E+01  0.33302434046E+02  0.19742072246E+03  0.20027895098E+03  0.47000000000E+01 0. -1.
         -5    1    4    4    0  502 -0.83472234471E+01 -0.11346002809E+03  0.39777366349E+03  0.41374972082E+03  0.47000000000E+01 0. -1.
<mgrwt>
<rscale>  0 0.10003451E+04</rscale>
<asrwt>0</asrwt>
<pdfrwt beam="1">  1        2 0.31231123E+00 0.10003451E+04</pdfrwt>
<pdfrwt beam="2">  1       -2 0.18959436E-01 0.10003451E+04</pdfrwt>
<totfact> 0.17670745E+02</totfact>
</mgrwt>
</event>
<event>
 9    1  0.4236486E-036  0.1002096E+04  0.7818608E-02  0.8679044E-01
         -2   -1    0    0    0  501 -0.00000000000E+00  0.00000000000E+00  0.23574736793E+03  0.23574736793E+03  0.00000000000E+00 0. -1.
          2   -1    0    0  501    0  0.00000000000E+00 -0.00000000000E+00 -0.10649076207E+04  0.10649076207E+04  0.00000000000E+00 0. -1.
         36    2    1    2    0    0  0.71054273576E-14  0.53290705182E-14 -0.82916025278E+03  0.13006549886E+04  0.10020961404E+04 0.  0.
         25    2    3    3    0    0  0.16246325921E+02  0.93776125525E+01  0.21482022830E+02  0.12826582033E+03  0.12505503044E+03 0.  0.
         35    2    3    3    0    0 -0.16246325921E+02 -0.93776125525E+01 -0.85064227561E+03  0.11723891683E+04  0.80656816090E+03 0.  0.
         22    1    5    5    0    0  0.15357558496E+03 -0.37251570994E+03 -0.47665018046E+03  0.62413845338E+03  0.00000000000E+00 0.  1.
         22    1    5    5    0    0 -0.16982191088E+03  0.36313809738E+03 -0.37399209515E+03  0.54825071493E+03  0.00000000000E+00 0.  1.
          5    1    4    4  502    0  0.54972247953E+02 -0.53010320558E+01 -0.29198608533E+02  0.62647407976E+02  0.47000000000E+01 0. -1.
         -5    1    4    4    0  502 -0.38725922032E+02  0.14678644608E+02  0.50680631363E+02  0.65618412356E+02  0.47000000000E+01 0. -1.
<mgrwt>
<rscale>  0 0.10020961E+04</rscale>
<asrwt>0</asrwt>
<pdfrwt beam="1">  1        2 0.16383194E+00 0.10020961E+04</pdfrwt>
<pdfrwt beam="2">  1       -2 0.36268827E-01 0.10020961E+04</pdfrwt>
<totfact> 0.19794372E+02</totfact>
</mgrwt>
</event>
<event>
 9    1  0.4236486E-036  0.9992080E+03  0.7818608E-02  0.8681792E-01
         -2   -1    0    0    0  501 -0.00000000000E+00  0.00000000000E+00  0.26916615566E+03  0.26916615566E+03  0.00000000000E+00 0.  1.
          2   -1    0    0  501    0  0.00000000000E+00 -0.00000000000E+00 -0.92732378014E+03  0.92732378014E+03  0.00000000000E+00 0.  1.
         36    2    1    2    0    0  0.00000000000E+00 -0.14210854715E-13 -0.65815762449E+03  0.11964899358E+04  0.99920804030E+03 0.  0.
         25    2    3    3    0    0 -0.13350726486E+03 -0.30679290750E+02 -0.12906683711E+03  0.22783098965E+03  0.12838731539E+03 0.  0.
         35    2    3    3    0    0  0.13350726486E+03  0.30679290750E+02 -0.52909078738E+03  0.96865894615E+03  0.79974851298E+03 0.  0.
         22    1    5    5    0    0 -0.36877438898E+02 -0.35157532274E+03 -0.39296024013E+03  0.52856683909E+03  0.00000000000E+00 0.  1.
         22    1    5    5    0    0  0.17038470376E+03  0.38225461349E+03 -0.13613054725E+03  0.44009210707E+03  0.00000000000E+00 0.  1.
          5    1    4    4  502    0 -0.97099641599E+02 -0.72681989599E+02 -0.50480750612E+02  0.13145876994E+03  0.47000000000E+01 0.  1.
         -5    1    4    4    0  502 -0.36407623264E+02  0.42002698849E+02 -0.78586086495E+02  0.96372219716E+02  0.47000000000E+01 0.  1.
<mgrwt>
<rscale>  0 0.99920804E+03</rscale>
<asrwt>0</asrwt>
<pdfrwt beam="1">  1        2 0.14266520E+00 0.99920804E+03</pdfrwt>
<pdfrwt beam="2">  1       -2 0.41410178E-01 0.99920804E+03</pdfrwt>
<totfact> 0.18780410E+02</totfact>
</mgrwt>
</event>
<event>
 9    1  0.4236486E-036  0.1001224E+04  0.7818608E-02  0.8679873E-01
         -2   -1    0    0    0  501 -0.00000000000E+00  0.00000000000E+00  0.11326867254E+03  0.11326867254E+03  0.00000000000E+00 0.  1.
          2   -1    0    0  501    0  0.00000000000E+00 -0.00000000000E+00 -0.22125488066E+04  0.22125488066E+04  0.00000000000E+00 0.  1.
         36    2    1    2    0    0  0.00000000000E+00  0.28421709430E-13 -0.20992801341E+04  0.23258174792E+04  0.10012241832E+04 0.  0.
         25    2    3    3    0    0 -0.35051983849E+02  0.11986593541E+03 -0.55824710506E+03  0.58568517193E+03  0.12566147488E+03 0.  0.
         35    2    3    3    0    0  0.35051983849E+02 -0.11986593541E+03 -0.15410330290E+04  0.17401323072E+04  0.79854941366E+03 0.  0.
         22    1    5    5    0    0  0.15979138581E+03 -0.30781317579E+03 -0.14597112162E+04  0.15003463176E+04  0.00000000000E+00 0. -1.
         22    1    5    5    0    0 -0.12473940196E+03  0.18794724038E+03 -0.81321812856E+02  0.23978598961E+03  0.00000000000E+00 0. -1.
          5    1    4    4  502    0 -0.58763529115E+02  0.10477770612E+03 -0.53659222633E+03  0.54989528768E+03  0.47000000000E+01 0.  1.
         -5    1    4    4    0  502  0.23711545266E+02  0.15088229292E+02 -0.21654878730E+02  0.35789884254E+02  0.47000000000E+01 0.  1.
<mgrwt>
<rscale>  0 0.10012242E+04</rscale>
<asrwt>0</asrwt>
<pdfrwt beam="1">  1        2 0.34039212E+00 0.10012242E+04</pdfrwt>
<pdfrwt beam="2">  1       -2 0.17425950E-01 0.10012242E+04</pdfrwt>
<totfact> 0.16023650E+02</totfact>
</mgrwt>
</event>
<event>
 9    1  0.4236486E-036  0.9987816E+03  0.7818608E-02  0.8682199E-01
          2   -1    0    0  501    0  0.00000000000E+00  0.00000000000E+00  0.26838522251E+03  0.26838522251E+03  0.00000000000E+00 0. -1.
         -2   -1    0    0    0  501 -0.00000000000E+00 -0.00000000000E+00 -0.92922835421E+03  0.92922835421E+03  0.00000000000E+00 0. -1.
         36    2    1    2    0    0 -0.28421709430E-13  0.14210854715E-13 -0.66084313170E+03  0.11976135767E+04  0.99878157493E+03 0.  0.
         25    2    3    3    0    0 -0.10925928320E+03  0.82641069514E+02 -0.15471823167E+03  0.24179943840E+03  0.12554720173E+03 0.  0.
         35    2    3    3    0    0  0.10925928320E+03 -0.82641069514E+02 -0.50612490002E+03  0.95581413832E+03  0.79915650235E+03 0.  0.
         22    1    5    5    0    0 -0.77431137426E+02 -0.11631427714E+03 -0.68257797238E+03  0.69673329222E+03  0.00000000000E+00 0. -1.
         22    1    5    5    0    0  0.18669042063E+03  0.33673207622E+02  0.17645307236E+03  0.25908084609E+03  0.00000000000E+00 0. -1.
          5    1    4    4  502    0 -0.21451279766E+02 -0.22277180477E+02  0.47414758414E+01  0.31638611960E+02  0.47000000000E+01 0.  1.
         -5    1    4    4    0  502 -0.87808003438E+02  0.10491824999E+03 -0.15945970752E+03  0.21016082644E+03  0.47000000000E+01 0.  1.
<mgrwt>
<rscale>  0 0.99878157E+03</rscale>
<asrwt>0</asrwt>
<pdfrwt beam="1">  1        2 0.41290034E-01 0.99878157E+03</pdfrwt>
<pdfrwt beam="2">  1       -2 0.14295821E+00 0.99878157E+03</pdfrwt>
<totfact> 0.48188745E+01</totfact>
</mgrwt>
</event>
<event>
 9    1  0.4236486E-036  0.9976764E+03  0.7818608E-02  0.8683254E-01
          2   -1    0    0  501    0  0.00000000000E+00  0.00000000000E+00  0.96865013450E+03  0.96865013450E+03  0.00000000000E+00 0. -1.
         -2   -1    0    0    0  501 -0.00000000000E+00 -0.00000000000E+00 -0.25689312658E+03  0.25689312658E+03  0.00000000000E+00 0. -1.
         36    2    1    2    0    0  0.00000000000E+00  0.00000000000E+00  0.71175700792E+03  0.12255432611E+04  0.99767642373E+03 0.  0.
         25    2    3    3    0    0 -0.11718485894E+03  0.57707767576E+02  0.17410203113E+03  0.25222371432E+03  0.12744727232E+03 0.  0.
         35    2    3    3    0    0  0.11718485894E+03 -0.57707767576E+02  0.53765497679E+03  0.97331954676E+03  0.80075938236E+03 0.  0.
         22    1    5    5    0    0  0.30741016316E+03 -0.34613962028E+02 -0.85841054513E+02  0.32104177520E+03  0.00000000000E+00 0. -1.
         22    1    5    5    0    0 -0.19022530423E+03 -0.23093805547E+02  0.62349603130E+03  0.65227777156E+03  0.00000000000E+00 0. -1.
          5    1    4    4  502    0 -0.30989938378E+02  0.31284959631E+02  0.15331792757E+03  0.15958571958E+03  0.47000000000E+01 0.  1.
         -5    1    4    4    0  502 -0.86194920558E+02  0.26422807944E+02  0.20784103562E+02  0.92637994746E+02  0.47000000000E+01 0.  1.
<mgrwt>
<rscale>  0 0.99767642E+03</rscale>
<asrwt>0</asrwt>
<pdfrwt beam="1">  1        2 0.14902310E+00 0.99767642E+03</pdfrwt>
<pdfrwt beam="2">  1       -2 0.39522020E-01 0.99767642E+03</pdfrwt>
<totfact> 0.19320582E+02</totfact>
</mgrwt>
</event>
<event>
 9    1  0.4236486E-036  0.9990119E+03  0.7818608E-02  0.8681979E-01
          2   -1    0    0  501    0  0.00000000000E+00  0.00000000000E+00  0.20573443481E+04  0.20573443481E+04  0.00000000000E+00 0.  1.
         -2   -1    0    0    0  501 -0.00000000000E+00 -0.00000000000E+00 -0.12127586645E+03  0.12127586645E+03  0.00000000000E+00 0.  1.
         36    2    1    2    0    0  0.35527136788E-14  0.00000000000E+00  0.19360684817E+04  0.21786202146E+04  0.99901194868E+03 0.  0.
         25    2    3    3    0    0 -0.20463920326E+02 -0.75530140154E+02  0.10919170986E+03  0.18310748548E+03  0.12442647479E+03 0.  0.
         35    2    3    3    0    0  0.20463920326E+02  0.75530140154E+02  0.18268767718E+04  0.19955127291E+04  0.79904238841E+03 0.  0.
         22    1    5    5    0    0 -0.20237123848E+03  0.35800506133E+03  0.12472556173E+04  0.13133043505E+04  0.00000000000E+00 0.  1.
         22    1    5    5    0    0  0.22283515880E+03 -0.28247492118E+03  0.57962115455E+03  0.68220837865E+03  0.00000000000E+00 0.  1.
          5    1    4    4  502    0  0.21612635732E+02 -0.30405852136E+01  0.95469692205E+02  0.98045414535E+02  0.47000000000E+01 0. -1.
         -5    1    4    4    0  502 -0.42076556058E+02 -0.72489554940E+02  0.13722017660E+02  0.85062070947E+02  0.47000000000E+01 0. -1.
<mgrwt>
<rscale>  0 0.99901195E+03</rscale>
<asrwt>0</asrwt>
<pdfrwt beam="1">  1        2 0.31651449E+00 0.99901195E+03</pdfrwt>
<pdfrwt beam="2">  1       -2 0.18657827E-01 0.99901195E+03</pdfrwt>
<totfact> 0.17522898E+02</totfact>
</mgrwt>
</event>
<event>
 9    1  0.4236486E-036  0.9998151E+03  0.7818608E-02  0.8681214E-01
          2   -1    0    0  501    0  0.00000000000E+00  0.00000000000E+00  0.22514217137E+03  0.22514217137E+03  0.00000000000E+00 0. -1.
         -2   -1    0    0    0  501 -0.00000000000E+00 -0.00000000000E+00 -0.11099988034E+04  0.11099988034E+04  0.00000000000E+00 0. -1.
         36    2    1    2    0    0  0.00000000000E+00  0.00000000000E+00 -0.88485663204E+03  0.13351409748E+04  0.99981506453E+03 0.  0.
         25    2    3    3    0    0  0.74944175813E+02  0.46535807872E+02 -0.31185350252E+03  0.34727810479E+03  0.12476884277E+03 0.  0.
         35    2    3    3    0    0 -0.74944175813E+02 -0.46535807872E+02 -0.57300312952E+03  0.98786286999E+03  0.79984889358E+03 0.  0.
         22    1    5    5    0    0 -0.22119194118E+03 -0.83262533628E+01 -0.73422405653E+03  0.76686385136E+03  0.00000000000E+00 0. -1.
         22    1    5    5    0    0  0.14624776537E+03 -0.38209554509E+02  0.16122092701E+03  0.22099901863E+03  0.00000000000E+00 0. -1.
          5    1    4    4  502    0  0.99721553452E+02  0.25839249306E+02 -0.14909985044E+03  0.18128681813E+03  0.47000000000E+01 0.  1.
         -5    1    4    4    0  502 -0.24777377639E+02  0.20696558566E+02 -0.16275365208E+03  0.16599128666E+03  0.47000000000E+01 0.  1.
<mgrwt>
<rscale>  0 0.99981506E+03</rscale>
<asrwt>0</asrwt>
<pdfrwt beam="1">  1        2 0.34637257E-01 0.99981506E+03</pdfrwt>
<pdfrwt beam="2">  1       -2 0.17076905E+00 0.99981506E+03</pdfrwt>
<totfact> 0.35426011E+01</totfact>
</mgrwt>
</event>
<event>
 9    1  0.4236486E-036  0.9994533E+03  0.7818608E-02  0.8681559E-01
         -1   -1    0    0    0  501 -0.00000000000E+00  0.00000000000E+00  0.70457672857E+03  0.70457672857E+03  0.00000000000E+00 0. -1.
          1   -1    0    0  501    0  0.00000000000E+00 -0.00000000000E+00 -0.35443507569E+03  0.35443507569E+03  0.00000000000E+00 0. -1.
         36    2    1    2    0    0 -0.12434497876E-13  0.14210854715E-13  0.35014165288E+03  0.10590118043E+04  0.99945326277E+03 0.  0.
         25    2    3    3    0    0  0.11652446190E+02 -0.41938148671E+02  0.20639111609E+03  0.24542195969E+03  0.12545938657E+03 0.  0.
         35    2    3    3    0    0 -0.11652446190E+02  0.41938148671E+02  0.14375053679E+03  0.81358984457E+03  0.79960592203E+03 0.  0.
         22    1    5    5    0    0 -0.37275482076E+03  0.71037460274E+02  0.22658798535E+03  0.44196673208E+03  0.00000000000E+00 0.  1.
         22    1    5    5    0    0  0.36110237457E+03 -0.29099311603E+02 -0.82837448562E+02  0.37162311249E+03  0.00000000000E+00 0.  1.
          5    1    4    4  502    0 -0.15469415318E+01 -0.46950323776E+02  0.22015001840E+03  0.22515516102E+03  0.47000000000E+01 0. -1.
         -5    1    4    4    0  502  0.13199387722E+02  0.50121751047E+01 -0.13758902309E+02  0.20266798668E+02  0.47000000000E+01 0. -1.
<mgrwt>
<rscale>  0 0.99945326E+03</rscale>
<asrwt>0</asrwt>
<pdfrwt beam="1">  1        1 0.54528473E-01 0.99945326E+03</pdfrwt>
<pdfrwt beam="2">  1       -1 0.10839642E+00 0.99945326E+03</pdfrwt>
<totfact> 0.66914475E+01</totfact>
</mgrwt>
</event>
<event>
 9    1  0.4236486E-036  0.1000384E+04  0.7818608E-02  0.8680672E-01
          2   -1    0    0  501    0  0.00000000000E+00  0.00000000000E+00  0.22542238581E+04  0.22542238581E+04  0.00000000000E+00 0.  1.
         -2   -1    0    0    0  501 -0.00000000000E+00 -0.00000000000E+00 -0.11098819804E+03  0.11098819804E+03  0.00000000000E+00 0.  1.
         36    2    1    2    0    0 -0.14210854715E-13 -0.28421709430E-13  0.21432356601E+04  0.23652120561E+04  0.10003844141E+04 0.  0.
         25    2    3    3    0    0  0.11659199106E+03 -0.59775981705E+02  0.28004611699E+03  0.33304939670E+03  0.12381119751E+03 0.  0.
         35    2    3    3    0    0 -0.11659199106E+03  0.59775981705E+02  0.18631895431E+04  0.20321626594E+04  0.80065157257E+03 0.  0.
         22    1    5    5    0    0 -0.42199978568E+02  0.39483591628E+03  0.14027966768E+04  0.14579145226E+04  0.00000000000E+00 0.  1.
         22    1    5    5    0    0 -0.74392012494E+02 -0.33505993457E+03  0.46039286632E+03  0.57424813682E+03  0.00000000000E+00 0.  1.
          5    1    4    4  502    0  0.82588621373E+02 -0.80757091118E+02  0.26667472367E+03  0.29065458260E+03  0.47000000000E+01 0.  1.
         -5    1    4    4    0  502  0.34003369689E+02  0.20981109413E+02  0.13371393324E+02  0.42394814091E+02  0.47000000000E+01 0.  1.
<mgrwt>
<rscale>  0 0.10003844E+04</rscale>
<asrwt>0</asrwt>
<pdfrwt beam="1">  1        2 0.34680363E+00 0.10003844E+04</pdfrwt>
<pdfrwt beam="2">  1       -2 0.17075109E-01 0.10003844E+04</pdfrwt>
<totfact> 0.15683809E+02</totfact>
</mgrwt>
</event>
<event>
 9    1  0.4236486E-036  0.9998431E+03  0.7818608E-02  0.8681187E-01
         -1   -1    0    0    0  501 -0.00000000000E+00  0.00000000000E+00  0.19304442343E+03  0.19304442343E+03  0.00000000000E+00 0. -1.
          1   -1    0    0  501    0  0.00000000000E+00 -0.00000000000E+00 -0.12946323300E+04  0.12946323300E+04  0.00000000000E+00 0. -1.
         36    2    1    2    0    0 -0.35527136788E-14 -0.28421709430E-13 -0.11015879066E+04  0.14876767534E+04  0.99984309110E+03 0.  0.
         25    2    3    3    0    0 -0.33148810369E+01 -0.37453533710E+02 -0.40889845423E+03  0.42912572541E+03  0.12464825195E+03 0.  0.
         35    2    3    3    0    0  0.33148810369E+01  0.37453533710E+02 -0.69268945235E+03  0.10585510280E+04  0.79956103328E+03 0.  0.
         22    1    5    5    0    0  0.11080497082E+02 -0.33765722624E+03 -0.91701629669E+02  0.35006337816E+03  0.00000000000E+00 0. -1.
         22    1    5    5    0    0 -0.77656160453E+01  0.37511075994E+03 -0.60098782268E+03  0.70848764987E+03  0.00000000000E+00 0. -1.
          5    1    4    4  502    0 -0.46687033586E+02 -0.58500236643E+02 -0.17715769706E+03  0.19237696437E+03  0.47000000000E+01 0.  1.
         -5    1    4    4    0  502  0.43372152549E+02  0.21046702934E+02 -0.23174075717E+03  0.23674876104E+03  0.47000000000E+01 0.  1.
<mgrwt>
<rscale>  0 0.99984309E+03</rscale>
<asrwt>0</asrwt>
<pdfrwt beam="1">  1        1 0.19917421E+00 0.99984309E+03</pdfrwt>
<pdfrwt beam="2">  1       -1 0.29699142E-01 0.99984309E+03</pdfrwt>
<totfact> 0.10378136E+02</totfact>
</mgrwt>
</event>
<event>
 9    1  0.4236486E-036  0.9990975E+03  0.7818608E-02  0.8681898E-01
          2   -1    0    0  501    0  0.00000000000E+00  0.00000000000E+00  0.18626515733E+03  0.18626515733E+03  0.00000000000E+00 0. -1.
         -2   -1    0    0    0  501 -0.00000000000E+00 -0.00000000000E+00 -0.13397510379E+04  0.13397510379E+04  0.00000000000E+00 0. -1.
         36    2    1    2    0    0  0.00000000000E+00  0.24868995752E-13 -0.11534858806E+04  0.15260161953E+04  0.99909746845E+03 0.  0.
         25    2    3    3    0    0 -0.12069641333E+03 -0.28833435312E+02 -0.13961181690E+03  0.22358743468E+03  0.12288567998E+03 0.  0.
         35    2    3    3    0    0  0.12069641333E+03  0.28833435312E+02 -0.10138740637E+04  0.13024287606E+04  0.80807243993E+03 0.  0.
         22    1    5    5    0    0 -0.19020484304E+03 -0.26614473044E+03 -0.69534720840E+03  0.76845210657E+03  0.00000000000E+00 0. -1.
         22    1    5    5    0    0  0.31090125638E+03  0.29497816575E+03 -0.31852685530E+03  0.53397665402E+03  0.00000000000E+00 0. -1.
          5    1    4    4  502    0 -0.12293512329E+03 -0.10295929072E+02 -0.52127062667E+02  0.13400884805E+03  0.47000000000E+01 0.  1.
         -5    1    4    4    0  502  0.22387099507E+01 -0.18537506241E+02 -0.87484754232E+02  0.89578586631E+02  0.47000000000E+01 0.  1.
<mgrwt>
<rscale>  0 0.99909747E+03</rscale>
<asrwt>0</asrwt>
<pdfrwt beam="1">  1        2 0.28656178E-01 0.99909747E+03</pdfrwt>
<pdfrwt beam="2">  1       -2 0.20611554E+00 0.99909747E+03</pdfrwt>
<totfact> 0.24709768E+01</totfact>
</mgrwt>
</event>
<event>
 9    1  0.4236486E-036  0.9998213E+03  0.7818608E-02  0.8681208E-01
         -2   -1    0    0    0  501 -0.00000000000E+00  0.00000000000E+00  0.13595943952E+04  0.13595943952E+04  0.00000000000E+00 0. -1.
          2   -1    0    0  501    0  0.00000000000E+00 -0.00000000000E+00 -0.18381264329E+03  0.18381264329E+03  0.00000000000E+00 0. -1.
         36    2    1    2    0    0  0.00000000000E+00  0.00000000000E+00  0.11757817519E+04  0.15434070385E+04  0.99982126319E+03 0.  0.
         25    2    3    3    0    0  0.94067749924E+02  0.85591798822E+02  0.12829981551E+03  0.21989509173E+03  0.12537268884E+03 0.  0.
         35    2    3    3    0    0 -0.94067749924E+02 -0.85591798822E+02  0.10474819364E+04  0.13235119467E+04  0.79893101612E+03 0.  0.
         22    1    5    5    0    0  0.27886283064E+03  0.11411233424E+03  0.74452480351E+03  0.80318322080E+03  0.00000000000E+00 0. -1.
         22    1    5    5    0    0 -0.37293058056E+03 -0.19970413306E+03  0.30295713286E+03  0.52032872593E+03  0.00000000000E+00 0. -1.
          5    1    4    4  502    0  0.59166049407E+02  0.59025842367E+02  0.14920316708E+03  0.17107994195E+03  0.47000000000E+01 0.  1.
         -5    1    4    4    0  502  0.34901700517E+02  0.26565956456E+02 -0.20903351573E+02  0.48815149783E+02  0.47000000000E+01 0.  1.
<mgrwt>
<rscale>  0 0.99982126E+03</rscale>
<asrwt>0</asrwt>
<pdfrwt beam="1">  1        2 0.28278869E-01 0.99982126E+03</pdfrwt>
<pdfrwt beam="2">  1       -2 0.20916836E+00 0.99982126E+03</pdfrwt>
<totfact> 0.23930208E+01</totfact>
</mgrwt>
</event>
<event>
 9    1  0.4236486E-036  0.1001486E+04  0.7818608E-02  0.8679624E-01
          2   -1    0    0  501    0  0.00000000000E+00  0.00000000000E+00  0.98975233954E+03  0.98975233954E+03  0.00000000000E+00 0. -1.
         -2   -1    0    0    0  501 -0.00000000000E+00 -0.00000000000E+00 -0.25333954687E+03  0.25333954687E+03  0.00000000000E+00 0. -1.
         36    2    1    2    0    0  0.00000000000E+00 -0.14210854715E-13  0.73641279266E+03  0.12430918864E+04  0.10014857148E+04 0.  0.
         25    2    3    3    0    0 -0.13136429411E+03 -0.36675553623E+02  0.17482779553E+03  0.25575512913E+03  0.12745294814E+03 0.  0.
         35    2    3    3    0    0  0.13136429411E+03  0.36675553623E+02  0.56158499714E+03  0.98733675727E+03  0.80053387764E+03 0.  0.
         22    1    5    5    0    0  0.74824106201E+02  0.25658949682E+03 -0.10192303435E+03  0.28605090749E+03  0.00000000000E+00 0. -1.
         22    1    5    5    0    0  0.56540187908E+02 -0.21991394319E+03  0.66350803148E+03  0.70128584978E+03  0.00000000000E+00 0. -1.
          5    1    4    4  502    0 -0.25228926485E+01  0.11828674935E+02  0.96348857207E+02  0.97218695851E+02  0.47000000000E+01 0. -1.
         -5    1    4    4    0  502 -0.12884140146E+03 -0.48504228558E+02  0.78478938322E+02  0.15853643328E+03  0.47000000000E+01 0. -1.
<mgrwt>
<rscale>  0 0.10014857E+04</rscale>
<asrwt>0</asrwt>
<pdfrwt beam="1">  1        2 0.15226959E+00 0.10014857E+04</pdfrwt>
<pdfrwt beam="2">  1       -2 0.38975315E-01 0.10014857E+04</pdfrwt>
<totfact> 0.19238375E+02</totfact>
</mgrwt>
</event>
<event>
 9    1  0.4236486E-036  0.9939743E+03  0.7818608E-02  0.8686798E-01
          2   -1    0    0  501    0  0.00000000000E+00  0.00000000000E+00  0.34145695630E+03  0.34145695630E+03  0.00000000000E+00 0. -1.
         -2   -1    0    0    0  501 -0.00000000000E+00 -0.00000000000E+00 -0.72335970518E+03  0.72335970518E+03  0.00000000000E+00 0. -1.
         36    2    1    2    0    0  0.28421709430E-13  0.35527136788E-14 -0.38190274889E+03  0.10648166615E+04  0.99397425166E+03 0.  0.
         25    2    3    3    0    0 -0.11996912373E+03 -0.98672176547E+01 -0.38980688582E+02  0.18558425453E+03  0.13576475542E+03 0.  0.
         35    2    3    3    0    0  0.11996912373E+03  0.98672176547E+01 -0.34292206030E+03  0.87923240695E+03  0.80060235657E+03 0.  0.
         22    1    5    5    0    0  0.20897938798E+03 -0.19329940467E+03 -0.52172100398E+03  0.59433143147E+03  0.00000000000E+00 0. -1.
         22    1    5    5    0    0 -0.89010264250E+02  0.20316662232E+03  0.17879894368E+03  0.28490097547E+03  0.00000000000E+00 0. -1.
          5    1    4    4  502    0  0.10883840244E+02 -0.35255216558E+01  0.33556170526E+02  0.35763023666E+02  0.47000000000E+01 0.  1.
         -5    1    4    4    0  502 -0.13085296397E+03 -0.63416959990E+01 -0.72536859108E+02  0.14982123086E+03  0.47000000000E+01 0.  1.
<mgrwt>
<rscale>  0 0.99397425E+03</rscale>
<asrwt>0</asrwt>
<pdfrwt beam="1">  1        2 0.52531840E-01 0.99397425E+03</pdfrwt>
<pdfrwt beam="2">  1       -2 0.11128611E+00 0.99397425E+03</pdfrwt>
<totfact> 0.71454520E+01</totfact>
</mgrwt>
</event>
<event>
 9    1  0.4236486E-036  0.1000417E+04  0.7818608E-02  0.8680641E-01
         -1   -1    0    0    0  501 -0.00000000000E+00  0.00000000000E+00  0.31877313511E+03  0.31877313511E+03  0.00000000000E+00 0.  1.
          1   -1    0    0  501    0  0.00000000000E+00 -0.00000000000E+00 -0.78491138916E+03  0.78491138916E+03  0.00000000000E+00 0.  1.
         36    2    1    2    0    0 -0.14210854715E-13  0.00000000000E+00 -0.46613825405E+03  0.11036845243E+04  0.10004172416E+04 0.  0.
         25    2    3    3    0    0  0.63459226544E+02 -0.71821927724E+02 -0.20134826890E+03  0.25585091912E+03  0.12543167341E+03 0.  0.
         35    2    3    3    0    0 -0.63459226544E+02  0.71821927724E+02 -0.26478998516E+03  0.84783360514E+03  0.79970158374E+03 0.  0.
         22    1    5    5    0    0 -0.13269906038E+03  0.70413117478E+02  0.26978595756E+03  0.30879039920E+03  0.00000000000E+00 0.  1.
         22    1    5    5    0    0  0.69239833837E+02  0.14088102457E+01 -0.53457594272E+03  0.53904320594E+03  0.00000000000E+00 0.  1.
          5    1    4    4  502    0 -0.36576952284E+02 -0.29882415883E+02 -0.79997400811E+02  0.93018849455E+02  0.47000000000E+01 0.  1.
         -5    1    4    4    0  502  0.10003617883E+03 -0.41939511841E+02 -0.12135086809E+03  0.16283206967E+03  0.47000000000E+01 0.  1.
<mgrwt>
<rscale>  0 0.10004172E+04</rscale>
<asrwt>0</asrwt>
<pdfrwt beam="1">  1        1 0.12075560E+00 0.10004172E+04</pdfrwt>
<pdfrwt beam="2">  1       -1 0.49042021E-01 0.10004172E+04</pdfrwt>
<totfact> 0.10826201E+02</totfact>
</mgrwt>
</event>
<event>
 9    1  0.4236486E-036  0.9941939E+03  0.7818608E-02  0.8686587E-01
          1   -1    0    0  501    0  0.00000000000E+00  0.00000000000E+00  0.91559126195E+03  0.91559126195E+03  0.00000000000E+00 0.  1.
         -1   -1    0    0    0  501 -0.00000000000E+00 -0.00000000000E+00 -0.26988611188E+03  0.26988611188E+03  0.00000000000E+00 0.  1.
         36    2    1    2    0    0  0.21316282073E-13 -0.71054273576E-14  0.64570515007E+03  0.11854773738E+04  0.99419387598E+03 0.  0.
         25    2    3    3    0    0  0.19600790672E+02 -0.47482861058E+02 -0.26184627103E+02  0.13842388419E+03  0.12584404606E+03 0.  0.
         35    2    3    3    0    0 -0.19600790672E+02  0.47482861058E+02  0.67188977717E+03  0.10470534896E+04  0.80140272298E+03 0.  0.
         22    1    5    5    0    0  0.35785149433E+03 -0.13539152124E+03  0.29421804940E+03  0.48265185860E+03  0.00000000000E+00 0.  1.
         22    1    5    5    0    0 -0.37745228500E+03  0.18287438230E+03  0.37767172777E+03  0.56440163103E+03  0.00000000000E+00 0.  1.
          5    1    4    4  502    0 -0.36273364013E+01 -0.84392841260E+02 -0.38375285599E+02  0.92898125762E+02  0.47000000000E+01 0.  1.
         -5    1    4    4    0  502  0.23228127073E+02  0.36909980202E+02  0.12190658497E+02  0.45525758428E+02  0.47000000000E+01 0.  1.
<mgrwt>
<rscale>  0 0.99419388E+03</rscale>
<asrwt>0</asrwt>
<pdfrwt beam="1">  1        1 0.14086019E+00 0.99419388E+03</pdfrwt>
<pdfrwt beam="2">  1       -1 0.41520941E-01 0.99419388E+03</pdfrwt>
<totfact> 0.11324423E+02</totfact>
</mgrwt>
</event>
<event>
 9    1  0.4236486E-036  0.1003051E+04  0.7818608E-02  0.8678137E-01
         -2   -1    0    0    0  501 -0.00000000000E+00  0.00000000000E+00  0.14014163283E+03  0.14014163283E+03  0.00000000000E+00 0.  1.
          2   -1    0    0  501    0  0.00000000000E+00 -0.00000000000E+00 -0.17948133333E+04  0.17948133333E+04  0.00000000000E+00 0.  1.
         36    2    1    2    0    0  0.00000000000E+00  0.00000000000E+00 -0.16546717005E+04  0.19349549661E+04  0.10030514865E+04 0.  0.
         25    2    3    3    0    0 -0.10428712655E+03 -0.97949298948E+02 -0.28135681029E+03  0.33922543896E+03  0.12426734815E+03 0.  0.
         35    2    3    3    0    0  0.10428712655E+03  0.97949298948E+02 -0.13733148902E+04  0.15957295272E+04  0.79993066346E+03 0.  0.
         22    1    5    5    0    0  0.23256629808E+03 -0.36410394638E+02 -0.27323405696E+02  0.23697967917E+03  0.00000000000E+00 0.  1.
         22    1    5    5    0    0 -0.12827917154E+03  0.13435969359E+03 -0.13459914845E+04  0.13587498480E+04  0.00000000000E+00 0.  1.
          5    1    4    4  502    0 -0.93353486466E+02 -0.12722660330E+03 -0.23663122166E+03  0.28446073031E+03  0.47000000000E+01 0. -1.
         -5    1    4    4    0  502 -0.10933640081E+02  0.29277304356E+02 -0.44725588626E+02  0.54764708652E+02  0.47000000000E+01 0. -1.
<mgrwt>
<rscale>  0 0.10030515E+04</rscale>
<asrwt>0</asrwt>
<pdfrwt beam="1">  1        2 0.27612513E+00 0.10030515E+04</pdfrwt>
<pdfrwt beam="2">  1       -2 0.21560251E-01 0.10030515E+04</pdfrwt>
<totfact> 0.19227388E+02</totfact>
</mgrwt>
</event>
<event>
 9    1  0.4236486E-036  0.1000349E+04  0.7818608E-02  0.8680706E-01
          3   -1    0    0  501    0  0.00000000000E+00  0.00000000000E+00  0.39278449813E+04  0.39278449813E+04  0.00000000000E+00 0.  1.
         -3   -1    0    0    0  501 -0.00000000000E+00 -0.00000000000E+00 -0.63692507976E+02  0.63692507976E+02  0.00000000000E+00 0.  1.
         36    2    1    2    0    0  0.00000000000E+00 -0.39079850467E-13  0.38641524734E+04  0.39915374893E+04  0.10003485349E+04 0.  0.
         25    2    3    3    0    0 -0.34685725017E+02 -0.20992894513E+02  0.19147746768E+03  0.23247347613E+03  0.12544518857E+03 0.  0.
         35    2    3    3    0    0  0.34685725017E+02  0.20992894513E+02  0.36726750057E+04  0.37590640132E+04  0.80023543829E+03 0.  0.
         22    1    5    5    0    0 -0.55692894743E+02  0.34798056789E+03  0.91362938343E+03  0.97923992179E+03  0.00000000000E+00 0. -1.
         22    1    5    5    0    0  0.90378619761E+02 -0.32698767337E+03  0.27590456222E+04  0.27798240914E+04  0.00000000000E+00 0. -1.
          5    1    4    4  502    0 -0.42891897096E+02 -0.28095275486E+02  0.20680221776E+03  0.21311571178E+03  0.47000000000E+01 0. -1.
         -5    1    4    4    0  502  0.82061720784E+01  0.71023809728E+01 -0.15324750075E+02  0.19357764347E+02  0.47000000000E+01 0. -1.
<mgrwt>
<rscale>  0 0.10003485E+04</rscale>
<asrwt>0</asrwt>
<pdfrwt beam="1">  1        3 0.60428366E+00 0.10003485E+04</pdfrwt>
<pdfrwt beam="2">  1       -3 0.97988504E-02 0.10003485E+04</pdfrwt>
<totfact> 0.16034400E+00</totfact>
</mgrwt>
</event>
<event>
 9    1  0.4236486E-036  0.9999927E+03  0.7818608E-02  0.8681045E-01
         -1   -1    0    0    0  501 -0.00000000000E+00  0.00000000000E+00  0.82105152018E+03  0.82105152018E+03  0.00000000000E+00 0.  1.
          1   -1    0    0  501    0  0.00000000000E+00 -0.00000000000E+00 -0.30448316230E+03  0.30448316230E+03  0.00000000000E+00 0.  1.
         36    2    1    2    0    0 -0.21316282073E-13  0.00000000000E+00  0.51656835789E+03  0.11255346825E+04  0.99999272652E+03 0.  0.
         25    2    3    3    0    0  0.23894062066E+02  0.12971671918E+03  0.15282891355E+03  0.23727226962E+03  0.12467597875E+03 0.  0.
         35    2    3    3    0    0 -0.23894062066E+02 -0.12971671918E+03  0.36373944433E+03  0.88826241286E+03  0.79956636828E+03 0.  0.
         22    1    5    5    0    0  0.36393669970E+03 -0.12931684722E+03  0.31298576820E+03  0.49712459148E+03  0.00000000000E+00 0.  1.
         22    1    5    5    0    0 -0.38783076176E+03 -0.39987196423E+00  0.50753676135E+02  0.39113782137E+03  0.00000000000E+00 0.  1.
          5    1    4    4  502    0  0.43729763546E+02  0.84619764157E+02  0.22673574804E+02  0.98025393140E+02  0.47000000000E+01 0. -1.
         -5    1    4    4    0  502 -0.19835701479E+02  0.45096955026E+02  0.13015533875E+03  0.13924687648E+03  0.47000000000E+01 0. -1.
<mgrwt>
<rscale>  0 0.99999273E+03</rscale>
<asrwt>0</asrwt>
<pdfrwt beam="1">  1        1 0.46843564E-01 0.99999273E+03</pdfrwt>
<pdfrwt beam="2">  1       -1 0.12631562E+00 0.99999273E+03</pdfrwt>
<totfact> 0.56243856E+01</totfact>
</mgrwt>
</event>
<event>
 9    1  0.4236486E-036  0.9997543E+03  0.7818608E-02  0.8681272E-01
         -2   -1    0    0    0  501 -0.00000000000E+00  0.00000000000E+00  0.15202429735E+04  0.15202429735E+04  0.00000000000E+00 0.  1.
          2   -1    0    0  501    0  0.00000000000E+00 -0.00000000000E+00 -0.16436659162E+03  0.16436659162E+03  0.00000000000E+00 0.  1.
         36    2    1    2    0    0  0.14210854715E-13 -0.28421709430E-13  0.13558763819E+04  0.16846095651E+04  0.99975428180E+03 0.  0.
         25    2    3    3    0    0 -0.43003077071E+02  0.12448924459E+03  0.29690490160E+03  0.34809061675E+03  0.12517076422E+03 0.  0.
         35    2    3    3    0    0  0.43003077071E+02 -0.12448924459E+03  0.10589714803E+04  0.13365189484E+04  0.80468345745E+03 0.  0.
         22    1    5    5    0    0  0.20068670528E+03 -0.31377572169E+02 -0.52712789162E+02  0.20985314830E+03  0.00000000000E+00 0. -1.
         22    1    5    5    0    0 -0.15768362821E+03 -0.93111672423E+02  0.11116842695E+04  0.11266658001E+04  0.00000000000E+00 0. -1.
          5    1    4    4  502    0 -0.68048624813E+02  0.11843037185E+03  0.16808967344E+03  0.21663932384E+03  0.47000000000E+01 0. -1.
         -5    1    4    4    0  502  0.25045547742E+02  0.60588727386E+01  0.12881522816E+03  0.13145129291E+03  0.47000000000E+01 0. -1.
<mgrwt>
<rscale>  0 0.99975428E+03</rscale>
<asrwt>0</asrwt>
<pdfrwt beam="1">  1        2 0.25287169E-01 0.99975428E+03</pdfrwt>
<pdfrwt beam="2">  1       -2 0.23388352E+00 0.99975428E+03</pdfrwt>
<totfact> 0.18795286E+01</totfact>
</mgrwt>
</event>
<event>
 9    1  0.4236486E-036  0.9934028E+03  0.7818608E-02  0.8687346E-01
         -2   -1    0    0    0  501 -0.00000000000E+00  0.00000000000E+00  0.43074988946E+03  0.43074988946E+03  0.00000000000E+00 0.  1.
          2   -1    0    0  501    0  0.00000000000E+00 -0.00000000000E+00 -0.57275060221E+03  0.57275060221E+03  0.00000000000E+00 0.  1.
         36    2    1    2    0    0  0.00000000000E+00 -0.71054273576E-14 -0.14200071275E+03  0.10035004917E+04  0.99340275537E+03 0.  0.
         25    2    3    3    0    0 -0.74036866394E+02 -0.37661005748E+02 -0.13233444865E+03  0.19954701644E+03  0.12412411745E+03 0.  0.
         35    2    3    3    0    0  0.74036866394E+02  0.37661005748E+02 -0.96662641039E+01  0.80395347524E+03  0.79959236161E+03 0.  0.
         22    1    5    5    0    0 -0.37392024047E+01 -0.35450323027E+03 -0.14332855454E+03  0.38239978616E+03  0.00000000000E+00 0.  1.
         22    1    5    5    0    0  0.77776068799E+02  0.39216423602E+03  0.13366229043E+03  0.42155368908E+03  0.00000000000E+00 0.  1.
          5    1    4    4  502    0 -0.38793934660E+02  0.30381098955E+02 -0.10834208158E+03  0.11911371533E+03  0.47000000000E+01 0. -1.
         -5    1    4    4    0  502 -0.35242931734E+02 -0.68042104704E+02 -0.23992367070E+02  0.80433301110E+02  0.47000000000E+01 0. -1.
<mgrwt>
<rscale>  0 0.99340276E+03</rscale>
<asrwt>0</asrwt>
<pdfrwt beam="1">  1        2 0.88115477E-01 0.99340276E+03</pdfrwt>
<pdfrwt beam="2">  1       -2 0.66269214E-01 0.99340276E+03</pdfrwt>
<totfact> 0.13286653E+02</totfact>
</mgrwt>
</event>
<event>
 9    1  0.4236486E-036  0.9977667E+03  0.7818608E-02  0.8683168E-01
         -1   -1    0    0    0  501 -0.00000000000E+00  0.00000000000E+00  0.31945333487E+03  0.31945333487E+03  0.00000000000E+00 0. -1.
          1   -1    0    0  501    0  0.00000000000E+00 -0.00000000000E+00 -0.77909524473E+03  0.77909524473E+03  0.00000000000E+00 0. -1.
         36    2    1    2    0    0 -0.28421709430E-13  0.00000000000E+00 -0.45964190986E+03  0.10985485796E+04  0.99776665430E+03 0.  0.
         25    2    3    3    0    0 -0.11353697386E+03  0.78845596099E+02 -0.90143173489E+02  0.20663592393E+03  0.12435972368E+03 0.  0.
         35    2    3    3    0    0  0.11353697386E+03 -0.78845596099E+02 -0.36949873637E+03  0.89191265567E+03  0.79991974391E+03 0.  0.
         22    1    5    5    0    0 -0.58776398294E+02  0.33554307223E+03 -0.26378292408E+03  0.43084248787E+03  0.00000000000E+00 0. -1.
         22    1    5    5    0    0  0.17231337216E+03 -0.41438866833E+03 -0.10571581230E+03  0.46107016780E+03  0.00000000000E+00 0. -1.
          5    1    4    4  502    0 -0.33120025841E+01 -0.18884017439E+02 -0.50187086273E+02  0.53929668127E+02  0.47000000000E+01 0. -1.
         -5    1    4    4    0  502 -0.11022497128E+03  0.97729613538E+02 -0.39956087216E+02  0.15270625580E+03  0.47000000000E+01 0. -1.
<mgrwt>
<rscale>  0 0.99776665E+03</rscale>
<asrwt>0</asrwt>
<pdfrwt beam="1">  1        1 0.11986081E+00 0.99776665E+03</pdfrwt>
<pdfrwt beam="2">  1       -1 0.49146667E-01 0.99776665E+03</pdfrwt>
<totfact> 0.10916234E+02</totfact>
</mgrwt>
</event>
<event>
 9    1  0.4236486E-036  0.1000221E+04  0.7818608E-02  0.8680827E-01
          2   -1    0    0  501    0  0.00000000000E+00  0.00000000000E+00  0.22928730324E+04  0.22928730324E+04  0.00000000000E+00 0. -1.
         -2   -1    0    0    0  501 -0.00000000000E+00 -0.00000000000E+00 -0.10908178850E+03  0.10908178850E+03  0.00000000000E+00 0. -1.
         36    2    1    2    0    0  0.71054273576E-14 -0.14210854715E-13  0.21837912439E+04  0.24019548209E+04  0.10002213579E+04 0.  0.
         25    2    3    3    0    0  0.31608831977E+02 -0.45615991975E+02  0.71285201036E+03  0.72553530298E+03  0.12314036791E+03 0.  0.
         35    2    3    3    0    0 -0.31608831977E+02  0.45615991975E+02  0.14709392335E+04  0.16764195179E+04  0.80227192044E+03 0.  0.
         22    1    5    5    0    0  0.14030444630E+03 -0.34741260552E+03  0.71626966640E+03  0.80834589820E+03  0.00000000000E+00 0. -1.
         22    1    5    5    0    0 -0.17191327827E+03  0.39302859750E+03  0.75466956710E+03  0.86807361969E+03  0.00000000000E+00 0. -1.
          5    1    4    4  502    0  0.27600217235E+01  0.17749412668E+02  0.52193210763E+03  0.52226226587E+03  0.47000000000E+01 0.  1.
         -5    1    4    4    0  502  0.28848810253E+02 -0.63365404643E+02  0.19091990273E+03  0.20327303711E+03  0.47000000000E+01 0.  1.
<mgrwt>
<rscale>  0 0.10002214E+04</rscale>
<asrwt>0</asrwt>
<pdfrwt beam="1">  1        2 0.35274966E+00 0.10002214E+04</pdfrwt>
<pdfrwt beam="2">  1       -2 0.16781815E-01 0.10002214E+04</pdfrwt>
<totfact> 0.15329333E+02</totfact>
</mgrwt>
</event>
<event>
 9    1  0.4236486E-036  0.9997457E+03  0.7818608E-02  0.8681280E-01
         -1   -1    0    0    0  501 -0.00000000000E+00  0.00000000000E+00  0.71744374027E+03  0.71744374027E+03  0.00000000000E+00 0.  1.
          1   -1    0    0  501    0  0.00000000000E+00 -0.00000000000E+00 -0.34828214356E+03  0.34828214356E+03  0.00000000000E+00 0.  1.
         36    2    1    2    0    0 -0.35527136788E-14  0.28421709430E-13  0.36916159671E+03  0.10657258838E+04  0.99974565515E+03 0.  0.
         25    2    3    3    0    0 -0.87594296024E+01 -0.51571063678E+02 -0.68757839768E+02  0.15141082907E+03  0.12434346149E+03 0.  0.
         35    2    3    3    0    0  0.87594296024E+01  0.51571063678E+02  0.43791943647E+03  0.91431505476E+03  0.80091340624E+03 0.  0.
         22    1    5    5    0    0  0.23479245610E+03  0.35311046972E+03  0.20191920570E+03  0.46966569696E+03  0.00000000000E+00 0.  1.
         22    1    5    5    0    0 -0.22603302649E+03 -0.30153940605E+03  0.23600023077E+03  0.44464935780E+03  0.00000000000E+00 0.  1.
          5    1    4    4  502    0 -0.31247253196E+02 -0.85178720941E+02 -0.31303436533E+02  0.96092666069E+02  0.47000000000E+01 0. -1.
         -5    1    4    4    0  502  0.22487823593E+02  0.33607657263E+02 -0.37454403235E+02  0.55318163006E+02  0.47000000000E+01 0. -1.
<mgrwt>
<rscale>  0 0.99974566E+03</rscale>
<asrwt>0</asrwt>
<pdfrwt beam="1">  1        1 0.53581868E-01 0.99974566E+03</pdfrwt>
<pdfrwt beam="2">  1       -1 0.11037596E+00 0.99974566E+03</pdfrwt>
<totfact> 0.65635515E+01</totfact>
</mgrwt>
</event>
<event>
 9    1  0.4236486E-036  0.1001141E+04  0.7818608E-02  0.8679952E-01
         -2   -1    0    0    0  501 -0.00000000000E+00  0.00000000000E+00  0.63735388869E+03  0.63735388869E+03  0.00000000000E+00 0. -1.
          2   -1    0    0  501    0  0.00000000000E+00 -0.00000000000E+00 -0.39314247449E+03  0.39314247449E+03  0.00000000000E+00 0. -1.
         36    2    1    2    0    0  0.14210854715E-13  0.00000000000E+00  0.24421141420E+03  0.10304963632E+04  0.10011411188E+04 0.  0.
         25    2    3    3    0    0 -0.52821876874E+02  0.13140015602E+03  0.52637033269E+02  0.19624286059E+03  0.12523757976E+03 0.  0.
         35    2    3    3    0    0  0.52821876874E+02 -0.13140015602E+03  0.19157438093E+03  0.83425350260E+03  0.79951360932E+03 0.  0.
         22    1    5    5    0    0 -0.15198742429E+03  0.22775288400E+03  0.30066395866E+03  0.40665755784E+03  0.00000000000E+00 0. -1.
         22    1    5    5    0    0  0.20480930116E+03 -0.35915304002E+03 -0.10908957773E+03  0.42759594475E+03  0.00000000000E+00 0. -1.
          5    1    4    4  502    0  0.31171173263E+02 -0.10290075135E+01  0.29733577792E+01  0.31680147657E+02  0.47000000000E+01 0. -1.
         -5    1    4    4    0  502 -0.83993050137E+02  0.13242916353E+03  0.49663675490E+02  0.16456271293E+03  0.47000000000E+01 0. -1.
<mgrwt>
<rscale>  0 0.10011411E+04</rscale>
<asrwt>0</asrwt>
<pdfrwt beam="1">  1        2 0.60483458E-01 0.10011411E+04</pdfrwt>
<pdfrwt beam="2">  1       -2 0.98054444E-01 0.10011411E+04</pdfrwt>
<totfact> 0.83461688E+01</totfact>
</mgrwt>
</event>
<event>
 9    1  0.4236486E-036  0.9976103E+03  0.7818608E-02  0.8683317E-01
          2   -1    0    0  501    0  0.00000000000E+00  0.00000000000E+00  0.68218123615E+03  0.68218123615E+03  0.00000000000E+00 0. -1.
         -2   -1    0    0    0  501 -0.00000000000E+00 -0.00000000000E+00 -0.36472212444E+03  0.36472212444E+03  0.00000000000E+00 0. -1.
         36    2    1    2    0    0 -0.28421709430E-13  0.28421709430E-13  0.31745911171E+03  0.10469033606E+04  0.99761032413E+03 0.  0.
         25    2    3    3    0    0 -0.18146475016E+02 -0.13033886830E+03  0.41346488471E+02  0.19060422758E+03  0.13154058050E+03 0.  0.
         35    2    3    3    0    0  0.18146475016E+02  0.13033886830E+03  0.27611262324E+03  0.85629913301E+03  0.79980779524E+03 0.  0.
         22    1    5    5    0    0 -0.22472763251E+03 -0.17144410422E+03  0.36223249809E+03  0.45946487610E+03  0.00000000000E+00 0.  1.
         22    1    5    5    0    0  0.24287410753E+03  0.30178297253E+03 -0.86119874855E+02  0.39683425691E+03  0.00000000000E+00 0.  1.
          5    1    4    4  502    0 -0.59059081423E+02 -0.12284776843E+03  0.71867340706E+01  0.13657704219E+03  0.47000000000E+01 0. -1.
         -5    1    4    4    0  502  0.40912606407E+02 -0.74910998670E+01  0.34159754400E+02  0.54027185388E+02  0.47000000000E+01 0. -1.
<mgrwt>
<rscale>  0 0.99761032E+03</rscale>
<asrwt>0</asrwt>
<pdfrwt beam="1">  1        2 0.10495096E+00 0.99761032E+03</pdfrwt>
<pdfrwt beam="2">  1       -2 0.56111096E-01 0.99761032E+03</pdfrwt>
<totfact> 0.15273281E+02</totfact>
</mgrwt>
</event>
<event>
 9    1  0.4236486E-036  0.9998022E+03  0.7818608E-02  0.8681226E-01
          2   -1    0    0  501    0  0.00000000000E+00  0.00000000000E+00  0.15605369886E+03  0.15605369886E+03  0.00000000000E+00 0. -1.
         -2   -1    0    0    0  501 -0.00000000000E+00 -0.00000000000E+00 -0.16013790872E+04  0.16013790872E+04  0.00000000000E+00 0. -1.
         36    2    1    2    0    0 -0.14210854715E-13  0.35527136788E-14 -0.14453253883E+04  0.17574327861E+04  0.99980224013E+03 0.  0.
         25    2    3    3    0    0  0.73597717635E+02 -0.15255824007E+02 -0.66110451559E+02  0.16094034824E+03  0.12602317120E+03 0.  0.
         35    2    3    3    0    0 -0.73597717635E+02  0.15255824007E+02 -0.13792149368E+04  0.15964924378E+04  0.80056536148E+03 0.  0.
         22    1    5    5    0    0  0.20684328821E+03  0.89352249446E+01 -0.19284043458E+02  0.20793234105E+03  0.00000000000E+00 0. -1.
         22    1    5    5    0    0 -0.28044100585E+03  0.63205990621E+01 -0.13599308933E+04  0.13885600968E+04  0.00000000000E+00 0. -1.
          5    1    4    4  502    0 -0.30373271857E+02  0.17741366804E+02 -0.50554622919E+01  0.35846051922E+02  0.47000000000E+01 0.  1.
         -5    1    4    4    0  502  0.10397098949E+03 -0.32997190810E+02 -0.61054989267E+02  0.12509429632E+03  0.47000000000E+01 0.  1.
<mgrwt>
<rscale>  0 0.99980224E+03</rscale>
<asrwt>0</asrwt>
<pdfrwt beam="1">  1        2 0.24008264E-01 0.99980224E+03</pdfrwt>
<pdfrwt beam="2">  1       -2 0.24636599E+00 0.99980224E+03</pdfrwt>
<totfact> 0.16659835E+01</totfact>
</mgrwt>
</event>
<event>
 9    1  0.4236486E-036  0.9998507E+03  0.7818608E-02  0.8681180E-01
         -2   -1    0    0    0  501 -0.00000000000E+00  0.00000000000E+00  0.15673032760E+03  0.15673032760E+03  0.00000000000E+00 0. -1.
          2   -1    0    0  501    0  0.00000000000E+00 -0.00000000000E+00 -0.15946203070E+04  0.15946203070E+04  0.00000000000E+00 0. -1.
         36    2    1    2    0    0  0.28421709430E-13  0.14210854715E-13 -0.14378899794E+04  0.17513506346E+04  0.99985071510E+03 0.  0.
         25    2    3    3    0    0 -0.13597863904E+03  0.37877515933E+02 -0.26677727082E+03  0.32643846927E+03  0.12436665753E+03 0.  0.
         35    2    3    3    0    0  0.13597863904E+03 -0.37877515933E+02 -0.11711127086E+04  0.14249121654E+04  0.79934023185E+03 0.  0.
         22    1    5    5    0    0  0.26609498638E+03 -0.12654683590E+03 -0.57485526067E+02  0.30020864272E+03  0.00000000000E+00 0. -1.
         22    1    5    5    0    0 -0.13011634735E+03  0.88669319967E+02 -0.11136271826E+04  0.11247035227E+04  0.00000000000E+00 0. -1.
          5    1    4    4  502    0 -0.35109279914E+02 -0.34340106720E+02 -0.26542260942E+02  0.56022192759E+02  0.47000000000E+01 0.  1.
         -5    1    4    4    0  502 -0.10086935912E+03  0.72217622652E+02 -0.24023500987E+03  0.27041627651E+03  0.47000000000E+01 0.  1.
<mgrwt>
<rscale>  0 0.99985072E+03</rscale>
<asrwt>0</asrwt>
<pdfrwt beam="1">  1        2 0.24532620E+00 0.99985072E+03</pdfrwt>
<pdfrwt beam="2">  1       -2 0.24112358E-01 0.99985072E+03</pdfrwt>
<totfact> 0.20486393E+02</totfact>
</mgrwt>
</event>
<event>
 9    1  0.4236486E-036  0.1000329E+04  0.7818608E-02  0.8680725E-01
          2   -1    0    0  501    0  0.00000000000E+00  0.00000000000E+00  0.26399462640E+03  0.26399462640E+03  0.00000000000E+00 0. -1.
         -2   -1    0    0    0  501 -0.00000000000E+00 -0.00000000000E+00 -0.94761220817E+03  0.94761220817E+03  0.00000000000E+00 0. -1.
         36    2    1    2    0    0  0.14210854715E-13  0.00000000000E+00 -0.68361758177E+03  0.12116068346E+04  0.10003290076E+04 0.  0.
         25    2    3    3    0    0 -0.66477154254E+02 -0.78088728854E+02 -0.11560682451E+02  0.16208368548E+03  0.12498163908E+03 0.  0.
         35    2    3    3    0    0  0.66477154254E+02  0.78088728854E+02 -0.67205689932E+03  0.10495231491E+04  0.79957570182E+03 0.  0.
         22    1    5    5    0    0 -0.28633123812E+03 -0.33590938444E+02 -0.69285957351E+01  0.28837811032E+03  0.00000000000E+00 0. -1.
         22    1    5    5    0    0  0.35280839238E+03  0.11167966730E+03 -0.66512830359E+03  0.76114503877E+03  0.00000000000E+00 0. -1.
          5    1    4    4  502    0 -0.96883332371E+02 -0.44086715983E+02  0.17242114316E+02  0.10793238218E+03  0.47000000000E+01 0.  1.
         -5    1    4    4    0  502  0.30406178117E+02 -0.34002012871E+02 -0.28802796767E+02  0.54151303295E+02  0.47000000000E+01 0.  1.
<mgrwt>
<rscale>  0 0.10003290E+04</rscale>
<asrwt>0</asrwt>
<pdfrwt beam="1">  1        2 0.40614558E-01 0.10003290E+04</pdfrwt>
<pdfrwt beam="2">  1       -2 0.14578649E+00 0.10003290E+04</pdfrwt>
<totfact> 0.46500057E+01</totfact>
</mgrwt>
</event>
<event>
 9    1  0.4236486E-036  0.1000548E+04  0.7818608E-02  0.8680517E-01
          1   -1    0    0  501    0  0.00000000000E+00  0.00000000000E+00  0.42209265069E+03  0.42209265069E+03  0.00000000000E+00 0.  1.
         -1   -1    0    0    0  501 -0.00000000000E+00 -0.00000000000E+00 -0.59293605338E+03  0.59293605338E+03  0.00000000000E+00 0.  1.
         36    2    1    2    0    0  0.42632564146E-13  0.35527136788E-14 -0.17084340269E+03  0.10150287041E+04  0.10005477509E+04 0.  0.
         25    2    3    3    0    0  0.85559166153E+02 -0.30486044340E+02  0.77636960687E+02  0.17217987411E+03  0.12397032537E+03 0.  0.
         35    2    3    3    0    0 -0.85559166153E+02  0.30486044340E+02 -0.24848036338E+03  0.84284882995E+03  0.80025114143E+03 0.  0.
         22    1    5    5    0    0 -0.43619490403E+03  0.58336511898E+02 -0.61066731433E+02  0.44429527187E+03  0.00000000000E+00 0. -1.
         22    1    5    5    0    0  0.35063573788E+03 -0.27850467558E+02 -0.18741363195E+03  0.39855355808E+03  0.00000000000E+00 0. -1.
          5    1    4    4  502    0 -0.57963326976E+01 -0.17055509204E+02  0.77518688568E+02  0.79722800655E+02  0.47000000000E+01 0.  1.
         -5    1    4    4    0  502  0.91355498851E+02 -0.13430535135E+02  0.11827211868E+00  0.92457073459E+02  0.47000000000E+01 0.  1.
<mgrwt>
<rscale>  0 0.10005478E+04</rscale>
<asrwt>0</asrwt>
<pdfrwt beam="1">  1        1 0.64937331E-01 0.10005478E+04</pdfrwt>
<pdfrwt beam="2">  1       -1 0.91220931E-01 0.10005478E+04</pdfrwt>
<totfact> 0.77967446E+01</totfact>
</mgrwt>
</event>
<event>
 9    1  0.4236486E-036  0.9998077E+03  0.7818608E-02  0.8681221E-01
         -2   -1    0    0    0  501 -0.00000000000E+00  0.00000000000E+00  0.40785315815E+03  0.40785315815E+03  0.00000000000E+00 0.  1.
          2   -1    0    0  501    0  0.00000000000E+00 -0.00000000000E+00 -0.61273001913E+03  0.61273001913E+03  0.00000000000E+00 0.  1.
         36    2    1    2    0    0 -0.28421709430E-13 -0.28421709430E-13 -0.20487686098E+03  0.10205831773E+04  0.99980772831E+03 0.  0.
         25    2    3    3    0    0 -0.44787819943E+02  0.81580972112E+02  0.67796854531E+02  0.17022469662E+03  0.12537396073E+03 0.  0.
         35    2    3    3    0    0  0.44787819943E+02 -0.81580972112E+02 -0.27267371551E+03  0.85035848066E+03  0.80006073937E+03 0.  0.
         22    1    5    5    0    0  0.28146607645E+03 -0.34508439157E+03 -0.20289818302E+03  0.48936087111E+03  0.00000000000E+00 0. -1.
         22    1    5    5    0    0 -0.23667825651E+03  0.26350341946E+03 -0.69775532484E+02  0.36099760955E+03  0.00000000000E+00 0. -1.
          5    1    4    4  502    0 -0.52097863757E+02 -0.13744136184E+02  0.20958893976E+01  0.54125515608E+02  0.47000000000E+01 0. -1.
         -5    1    4    4    0  502  0.73100438140E+01  0.95325108296E+02  0.65700965134E+02  0.11609918101E+03  0.47000000000E+01 0. -1.
<mgrwt>
<rscale>  0 0.99980773E+03</rscale>
<asrwt>0</asrwt>
<pdfrwt beam="1">  1        2 0.94266156E-01 0.99980773E+03</pdfrwt>
<pdfrwt beam="2">  1       -2 0.62746640E-01 0.99980773E+03</pdfrwt>
<totfact> 0.13774430E+02</totfact>
</mgrwt>
</event>
<event>
 9    1  0.4236486E-036  0.9997851E+03  0.7818608E-02  0.8681243E-01
         -1   -1    0    0    0  501 -0.00000000000E+00  0.00000000000E+00  0.25453146968E+03  0.25453146968E+03  0.00000000000E+00 0.  1.
          1   -1    0    0  501    0  0.00000000000E+00 -0.00000000000E+00 -0.98177468754E+03  0.98177468754E+03  0.00000000000E+00 0.  1.
         36    2    1    2    0    0 -0.71054273576E-13  0.00000000000E+00 -0.72724321786E+03  0.12363061572E+04  0.99978508513E+03 0.  0.
         25    2    3    3    0    0  0.11921736689E+03  0.29229395548E+02 -0.52794310662E+02  0.18310328573E+03  0.12518959971E+03 0.  0.
         35    2    3    3    0    0 -0.11921736689E+03 -0.29229395548E+02 -0.67444890720E+03  0.10532028715E+04  0.79955476482E+03 0.  0.
         22    1    5    5    0    0  0.17455583702E+03 -0.21859909619E+02  0.11544472718E+03  0.21041644641E+03  0.00000000000E+00 0.  1.
         22    1    5    5    0    0 -0.29377320392E+03 -0.73694859284E+01 -0.78989363438E+03  0.84278642508E+03  0.00000000000E+00 0.  1.
          5    1    4    4  502    0 -0.19676391888E+02 -0.16285919266E+02 -0.21122622963E+02  0.33476062565E+02  0.47000000000E+01 0.  1.
         -5    1    4    4    0  502  0.13889375878E+03  0.45515314813E+02 -0.31671687699E+02  0.14962722317E+03  0.47000000000E+01 0.  1.
<mgrwt>
<rscale>  0 0.99978509E+03</rscale>
<asrwt>0</asrwt>
<pdfrwt beam="1">  1        1 0.15104226E+00 0.99978509E+03</pdfrwt>
<pdfrwt beam="2">  1       -1 0.39158688E-01 0.99978509E+03</pdfrwt>
<totfact> 0.11100361E+02</totfact>
</mgrwt>
</event>
<event>
 9    1  0.4236486E-036  0.1001316E+04  0.7818608E-02  0.8679786E-01
          1   -1    0    0  501    0  0.00000000000E+00  0.00000000000E+00  0.21108627232E+03  0.21108627232E+03  0.00000000000E+00 0.  1.
         -1   -1    0    0    0  501 -0.00000000000E+00 -0.00000000000E+00 -0.11874694072E+04  0.11874694072E+04  0.00000000000E+00 0.  1.
         36    2    1    2    0    0  0.00000000000E+00  0.28421709430E-13 -0.97638313484E+03  0.13985556795E+04  0.10013161152E+04 0.  0.
         25    2    3    3    0    0  0.43097024490E+02  0.11905301081E+03 -0.27517691746E+03  0.32781332629E+03  0.12533262978E+03 0.  0.
         35    2    3    3    0    0 -0.43097024490E+02 -0.11905301081E+03 -0.70120621738E+03  0.10707423532E+04  0.79922966331E+03 0.  0.
         22    1    5    5    0    0 -0.64318179410E+02  0.34105684213E+03 -0.33407668557E+03  0.48173003810E+03  0.00000000000E+00 0. -1.
         22    1    5    5    0    0  0.21221154920E+02 -0.46010985294E+03 -0.36712953181E+03  0.58901231508E+03  0.00000000000E+00 0. -1.
          5    1    4    4  502    0 -0.12953560098E+01  0.12764817275E+03 -0.16532367041E+03  0.20892520181E+03  0.47000000000E+01 0. -1.
         -5    1    4    4    0  502  0.44392380500E+02 -0.85951619401E+01 -0.10985324704E+03  0.11888812447E+03  0.47000000000E+01 0. -1.
<mgrwt>
<rscale>  0 0.10013161E+04</rscale>
<asrwt>0</asrwt>
<pdfrwt beam="1">  1        1 0.32474811E-01 0.10013161E+04</pdfrwt>
<pdfrwt beam="2">  1       -1 0.18268760E+00 0.10013161E+04</pdfrwt>
<totfact> 0.30228326E+01</totfact>
</mgrwt>
</event>
<event>
 9    1  0.4236486E-036  0.9964466E+03  0.7818608E-02  0.8684429E-01
          2   -1    0    0  501    0  0.00000000000E+00  0.00000000000E+00  0.15627418833E+04  0.15627418833E+04  0.00000000000E+00 0.  1.
         -2   -1    0    0    0  501 -0.00000000000E+00 -0.00000000000E+00 -0.15884033415E+03  0.15884033415E+03  0.00000000000E+00 0.  1.
         36    2    1    2    0    0 -0.71054273576E-14  0.00000000000E+00  0.14039015492E+04  0.17215822175E+04  0.99644657246E+03 0.  0.
         25    2    3    3    0    0 -0.10453474541E+02  0.75536265753E+02  0.46649201093E+03  0.48869038537E+03  0.12405036848E+03 0.  0.
         35    2    3    3    0    0  0.10453474541E+02 -0.75536265753E+02  0.93740953825E+03  0.12328918321E+04  0.79716411404E+03 0.  0.
         22    1    5    5    0    0 -0.71030255651E+02 -0.33000509710E+03  0.90232747616E+03  0.96340206330E+03  0.00000000000E+00 0. -1.
         22    1    5    5    0    0  0.81483730192E+02  0.25446883135E+03  0.35082062091E+02  0.26948976881E+03  0.00000000000E+00 0. -1.
          5    1    4    4  502    0 -0.59407100944E+02  0.16481751649E+02  0.28443709002E+03  0.29107971410E+03  0.47000000000E+01 0. -1.
         -5    1    4    4    0  502  0.48953626402E+02  0.59054514104E+02  0.18205492091E+03  0.19761067127E+03  0.47000000000E+01 0. -1.
<mgrwt>
<rscale>  0 0.99644657E+03</rscale>
<asrwt>0</asrwt>
<pdfrwt beam="1">  1        2 0.24042182E+00 0.99644657E+03</pdfrwt>
<pdfrwt beam="2">  1       -2 0.24436975E-01 0.99644657E+03</pdfrwt>
<totfact> 0.20853967E+02</totfact>
</mgrwt>
</event>
<event>
 9    1  0.4236486E-036  0.9997025E+03  0.7818608E-02  0.8681321E-01
          2   -1    0    0  501    0  0.00000000000E+00  0.00000000000E+00  0.13865992219E+04  0.13865992219E+04  0.00000000000E+00 0.  1.
         -2   -1    0    0    0  501 -0.00000000000E+00 -0.00000000000E+00 -0.18018998210E+03  0.18018998210E+03  0.00000000000E+00 0.  1.
         36    2    1    2    0    0  0.71054273576E-14  0.28421709430E-13  0.12064092398E+04  0.15667892040E+04  0.99970253368E+03 0.  0.
         25    2    3    3    0    0 -0.27742207027E+02 -0.13376684959E+03  0.28821033640E+03  0.34259082059E+03  0.12506027446E+03 0.  0.
         35    2    3    3    0    0  0.27742207027E+02  0.13376684959E+03  0.91819890337E+03  0.12241983834E+04  0.79806594689E+03 0.  0.
         22    1    5    5    0    0  0.10709308276E+03  0.42291869830E+03  0.27814144420E+03  0.51738942464E+03  0.00000000000E+00 0.  1.
         22    1    5    5    0    0 -0.79350875730E+02 -0.28915184871E+03  0.64005745917E+03  0.70680895873E+03  0.00000000000E+00 0.  1.
          5    1    4    4  502    0  0.22129515925E+01  0.23331177121E+02  0.25163500219E+02  0.34706378720E+02  0.47000000000E+01 0. -1.
         -5    1    4    4    0  502 -0.29955158619E+02 -0.15709802671E+03  0.26304683618E+03  0.30788444187E+03  0.47000000000E+01 0. -1.
<mgrwt>
<rscale>  0 0.99970253E+03</rscale>
<asrwt>0</asrwt>
<pdfrwt beam="1">  1        2 0.21332295E+00 0.99970253E+03</pdfrwt>
<pdfrwt beam="2">  1       -2 0.27721537E-01 0.99970253E+03</pdfrwt>
<totfact> 0.20963468E+02</totfact>
</mgrwt>
</event>
<event>
 9    1  0.4236486E-036  0.9996148E+03  0.7818608E-02  0.8681405E-01
          2   -1    0    0  501    0  0.00000000000E+00  0.00000000000E+00  0.11090113355E+04  0.11090113355E+04  0.00000000000E+00 0.  1.
         -2   -1    0    0    0  501 -0.00000000000E+00 -0.00000000000E+00 -0.22525236024E+03  0.22525236024E+03  0.00000000000E+00 0.  1.
         36    2    1    2    0    0 -0.28421709430E-13  0.71054273576E-14  0.88375897522E+03  0.13342636957E+04  0.99961476748E+03 0.  0.
         25    2    3    3    0    0  0.13048599948E+03  0.55636576664E+02  0.16494669326E+03  0.25086711305E+03  0.12491946234E+03 0.  0.
         35    2    3    3    0    0 -0.13048599948E+03 -0.55636576664E+02  0.71881228197E+03  0.10833965826E+04  0.79808209720E+03 0.  0.
         22    1    5    5    0    0 -0.13854044957E+02  0.35857662195E+03  0.20531008672E+03  0.41342636597E+03  0.00000000000E+00 0.  1.
         22    1    5    5    0    0 -0.11663195452E+03 -0.41421319861E+03  0.51350219525E+03  0.66997021668E+03  0.00000000000E+00 0.  1.
          5    1    4    4  502    0 -0.23065846838E+02  0.17357225216E+02  0.15267533485E+02  0.32992334508E+02  0.47000000000E+01 0.  1.
         -5    1    4    4    0  502  0.15355184631E+03  0.38279351447E+02  0.14967915977E+03  0.21787477854E+03  0.47000000000E+01 0.  1.
<mgrwt>
<rscale>  0 0.99961477E+03</rscale>
<asrwt>0</asrwt>
<pdfrwt beam="1">  1        2 0.17061713E+00 0.99961477E+03</pdfrwt>
<pdfrwt beam="2">  1       -2 0.34654210E-01 0.99961477E+03</pdfrwt>
<totfact> 0.20261919E+02</totfact>
</mgrwt>
</event>
<event>
 9    1  0.4236486E-036  0.9994958E+03  0.7818608E-02  0.8681518E-01
          2   -1    0    0  501    0  0.00000000000E+00  0.00000000000E+00  0.95167259557E+03  0.95167259557E+03  0.00000000000E+00 0. -1.
         -2   -1    0    0    0  501 -0.00000000000E+00 -0.00000000000E+00 -0.26243052776E+03  0.26243052776E+03  0.00000000000E+00 0. -1.
         36    2    1    2    0    0  0.00000000000E+00 -0.14210854715E-13  0.68924206782E+03  0.12141031233E+04  0.99949575589E+03 0.  0.
         25    2    3    3    0    0 -0.10000631129E+03  0.91449156781E+02  0.93591079634E+02  0.20727822357E+03  0.12586008583E+03 0.  0.
         35    2    3    3    0    0  0.10000631129E+03 -0.91449156781E+02  0.59565098818E+03  0.10068248998E+04  0.80033247372E+03 0.  0.
         22    1    5    5    0    0  0.36798179715E+03 -0.16635857254E+03  0.60617473154E+03  0.72837736294E+03  0.00000000000E+00 0. -1.
         22    1    5    5    0    0 -0.26797548586E+03  0.74909415763E+02 -0.10523743354E+02  0.27844753682E+03  0.00000000000E+00 0. -1.
          5    1    4    4  502    0 -0.10575712681E+03  0.17996295474E+02  0.34725662525E+02  0.11285565188E+03  0.47000000000E+01 0.  1.
         -5    1    4    4    0  502  0.57508155231E+01  0.73452861307E+02  0.58865417108E+02  0.94422571691E+02  0.47000000000E+01 0.  1.
<mgrwt>
<rscale>  0 0.99949576E+03</rscale>
<asrwt>0</asrwt>
<pdfrwt beam="1">  1        2 0.14641117E+00 0.99949576E+03</pdfrwt>
<pdfrwt beam="2">  1       -2 0.40373928E-01 0.99949576E+03</pdfrwt>
<totfact> 0.19016932E+02</totfact>
</mgrwt>
</event>
<event>
 9    1  0.4236486E-036  0.9995729E+03  0.7818608E-02  0.8681445E-01
         -1   -1    0    0    0  501 -0.00000000000E+00  0.00000000000E+00  0.28316548674E+03  0.28316548674E+03  0.00000000000E+00 0. -1.
          1   -1    0    0  501    0  0.00000000000E+00 -0.00000000000E+00 -0.88212188091E+03  0.88212188091E+03  0.00000000000E+00 0. -1.
         36    2    1    2    0    0  0.14210854715E-13  0.00000000000E+00 -0.59895639417E+03  0.11652873676E+04  0.99957285231E+03 0.  0.
         25    2    3    3    0    0  0.89505920355E+01  0.10892985144E+03 -0.24590056146E+02  0.17431080805E+03  0.13354310656E+03 0.  0.
         35    2    3    3    0    0 -0.89505920355E+01 -0.10892985144E+03 -0.57436633802E+03  0.99097655960E+03  0.80012000711E+03 0.  0.
         22    1    5    5    0    0 -0.19508994486E+03 -0.35365795408E+03 -0.55022775051E+03  0.68255740601E+03  0.00000000000E+00 0. -1.
         22    1    5    5    0    0  0.18613935283E+03  0.24472810264E+03 -0.24138587516E+02  0.30841915359E+03  0.00000000000E+00 0. -1.
          5    1    4    4  502    0 -0.54188906503E+02  0.13524754257E+02 -0.20678598322E+02  0.59741534917E+02  0.47000000000E+01 0.  1.
         -5    1    4    4    0  502  0.63139498538E+02  0.95405097181E+02 -0.39114578245E+01  0.11456927313E+03  0.47000000000E+01 0.  1.
<mgrwt>
<rscale>  0 0.99957285E+03</rscale>
<asrwt>0</asrwt>
<pdfrwt beam="1">  1        1 0.13571106E+00 0.99957285E+03</pdfrwt>
<pdfrwt beam="2">  1       -1 0.43563921E-01 0.99957285E+03</pdfrwt>
<totfact> 0.11070650E+02</totfact>
</mgrwt>
</event>
<event>
 9    1  0.4236486E-036  0.9996804E+03  0.7818608E-02  0.8681342E-01
         -2   -1    0    0    0  501 -0.00000000000E+00  0.00000000000E+00  0.14215941899E+03  0.14215941899E+03  0.00000000000E+00 0. -1.
          2   -1    0    0  501    0  0.00000000000E+00 -0.00000000000E+00 -0.17574652271E+04  0.17574652271E+04  0.00000000000E+00 0. -1.
         36    2    1    2    0    0  0.28421709430E-13 -0.28421709430E-13 -0.16153058081E+04  0.18996246461E+04  0.99968042010E+03 0.  0.
         25    2    3    3    0    0 -0.78470445200E+02  0.34329818655E+02 -0.50909997919E+03  0.53195309247E+03  0.12827765417E+03 0.  0.
         35    2    3    3    0    0  0.78470445200E+02 -0.34329818655E+02 -0.11062058289E+04  0.13676715536E+04  0.79968618560E+03 0.  0.
         22    1    5    5    0    0 -0.32769224088E+03  0.12980825666E+03 -0.62028686603E+03  0.71343407853E+03  0.00000000000E+00 0. -1.
         22    1    5    5    0    0  0.40616268608E+03 -0.16413807531E+03 -0.48591896288E+03  0.65423747509E+03  0.00000000000E+00 0. -1.
          5    1    4    4  502    0 -0.40314481403E+01 -0.39545382254E+02 -0.23600794669E+03  0.23937821691E+03  0.47000000000E+01 0.  1.
         -5    1    4    4    0  502 -0.74438997060E+02  0.73875200909E+02 -0.27309203251E+03  0.29257487556E+03  0.47000000000E+01 0.  1.
<mgrwt>
<rscale>  0 0.99968042E+03</rscale>
<asrwt>0</asrwt>
<pdfrwt beam="1">  1        2 0.27037928E+00 0.99968042E+03</pdfrwt>
<pdfrwt beam="2">  1       -2 0.21870678E-01 0.99968042E+03</pdfrwt>
<totfact> 0.19685771E+02</totfact>
</mgrwt>
</event>
<event>
 9    1  0.4236486E-036  0.1000485E+04  0.7818608E-02  0.8680576E-01
         -2   -1    0    0    0  501 -0.00000000000E+00  0.00000000000E+00  0.25495158191E+03  0.25495158191E+03  0.00000000000E+00 0. -1.
          2   -1    0    0  501    0  0.00000000000E+00 -0.00000000000E+00 -0.98153057510E+03  0.98153057510E+03  0.00000000000E+00 0. -1.
         36    2    1    2    0    0  0.00000000000E+00 -0.28421709430E-13 -0.72657899320E+03  0.12364821570E+04  0.10004854278E+04 0.  0.
         25    2    3    3    0    0 -0.88604717117E+02  0.89838445812E+02 -0.56461262817E+02  0.18247796586E+03  0.11911587460E+03 0.  0.
         35    2    3    3    0    0  0.88604717117E+02 -0.89838445812E+02 -0.67011773038E+03  0.10540041912E+04  0.80370723535E+03 0.  0.
         22    1    5    5    0    0  0.40668236881E+03  0.95978451039E+02 -0.21957538463E+03  0.47203364467E+03  0.00000000000E+00 0.  1.
         22    1    5    5    0    0 -0.31807765169E+03 -0.18581689685E+03 -0.45054234575E+03  0.58197054648E+03  0.00000000000E+00 0.  1.
          5    1    4    4  502    0 -0.93354618651E+02  0.16825750858E+02 -0.95895197507E+01  0.95458051543E+02  0.47000000000E+01 0.  1.
         -5    1    4    4    0  502  0.47499015341E+01  0.73012694954E+02 -0.46871743066E+02  0.87019914313E+02  0.47000000000E+01 0.  1.
<mgrwt>
<rscale>  0 0.10004854E+04</rscale>
<asrwt>0</asrwt>
<pdfrwt beam="1">  1        2 0.15100471E+00 0.10004854E+04</pdfrwt>
<pdfrwt beam="2">  1       -2 0.39223320E-01 0.10004854E+04</pdfrwt>
<totfact> 0.19236161E+02</totfact>
</mgrwt>
</event>
<event>
 9    1  0.4236486E-036  0.1007414E+04  0.7818608E-02  0.8674009E-01
          3   -1    0    0  501    0  0.00000000000E+00  0.00000000000E+00  0.79248464063E+03  0.79248464063E+03  0.00000000000E+00 0. -1.
         -3   -1    0    0    0  501 -0.00000000000E+00 -0.00000000000E+00 -0.32015871793E+03  0.32015871793E+03  0.00000000000E+00 0. -1.
         36    2    1    2    0    0  0.42632564146E-13 -0.71054273576E-14  0.47232592270E+03  0.11126433586E+04  0.10074142475E+04 0.  0.
         25    2    3    3    0    0 -0.10714469914E+03 -0.56948578709E+02  0.18546889460E+03  0.25437224168E+03  0.12483348630E+03 0.  0.
         35    2    3    3    0    0  0.10714469914E+03  0.56948578709E+02  0.28685702810E+03  0.85827111688E+03  0.79976198230E+03 0.  0.
         22    1    5    5    0    0 -0.30407870330E+03 -0.15819704944E+03  0.91839867390E+02  0.35485874019E+03  0.00000000000E+00 0.  1.
         22    1    5    5    0    0  0.41122340244E+03  0.21514562814E+03  0.19501716071E+03  0.50341237668E+03  0.00000000000E+00 0.  1.
          5    1    4    4  502    0 -0.44973152182E+02 -0.53518633759E+02  0.17823494809E+03  0.19151139730E+03  0.47000000000E+01 0.  1.
         -5    1    4    4    0  502 -0.62171546962E+02 -0.34299449501E+01  0.72339465107E+01  0.62860844379E+02  0.47000000000E+01 0.  1.
<mgrwt>
<rscale>  0 0.10074142E+04</rscale>
<asrwt>0</asrwt>
<pdfrwt beam="1">  1        3 0.12192071E+00 0.10074142E+04</pdfrwt>
<pdfrwt beam="2">  1       -3 0.49255188E-01 0.10074142E+04</pdfrwt>
<totfact> 0.93240906E+00</totfact>
</mgrwt>
</event>
<event>
 9    1  0.4236486E-036  0.9987799E+03  0.7818608E-02  0.8682201E-01
          2   -1    0    0  501    0  0.00000000000E+00  0.00000000000E+00  0.96124766592E+03  0.96124766592E+03  0.00000000000E+00 0. -1.
         -2   -1    0    0    0  501 -0.00000000000E+00 -0.00000000000E+00 -0.25944441378E+03  0.25944441378E+03  0.00000000000E+00 0. -1.
         36    2    1    2    0    0  0.21316282073E-13  0.00000000000E+00  0.70180325214E+03  0.12206920797E+04  0.99877993007E+03 0.  0.
         25    2    3    3    0    0  0.49093575375E+02  0.65222810357E+02  0.26632050438E+03  0.30541429172E+03  0.12524809141E+03 0.  0.
         35    2    3    3    0    0 -0.49093575375E+02 -0.65222810357E+02  0.43548274776E+03  0.91527778798E+03  0.80088951262E+03 0.  0.
         22    1    5    5    0    0  0.27027490589E+03 -0.25495756391E+03  0.39388759910E+03  0.54147883142E+03  0.00000000000E+00 0. -1.
         22    1    5    5    0    0 -0.31936848126E+03  0.18973475355E+03  0.41595148667E+02  0.37379895656E+03  0.00000000000E+00 0. -1.
          5    1    4    4  502    0  0.78402374984E+02  0.94488824476E+01  0.10006926427E+03  0.12756238252E+03  0.47000000000E+01 0.  1.
         -5    1    4    4    0  502 -0.29308799609E+02  0.55773927909E+02  0.16625124010E+03  0.17785190919E+03  0.47000000000E+01 0.  1.
<mgrwt>
<rscale>  0 0.99877993E+03</rscale>
<asrwt>0</asrwt>
<pdfrwt beam="1">  1        2 0.14788425E+00 0.99877993E+03</pdfrwt>
<pdfrwt beam="2">  1       -2 0.39914526E-01 0.99877993E+03</pdfrwt>
<totfact> 0.19166045E+02</totfact>
</mgrwt>
</event>
<event>
 9    1  0.4236486E-036  0.9998676E+03  0.7818608E-02  0.8681164E-01
         -1   -1    0    0    0  501 -0.00000000000E+00  0.00000000000E+00  0.37637531879E+03  0.37637531879E+03  0.00000000000E+00 0. -1.
          1   -1    0    0  501    0  0.00000000000E+00 -0.00000000000E+00 -0.66405474828E+03  0.66405474828E+03  0.00000000000E+00 0. -1.
         36    2    1    2    0    0  0.00000000000E+00  0.14210854715E-13 -0.28767942950E+03  0.10404300671E+04  0.99986762639E+03 0.  0.
         25    2    3    3    0    0 -0.39312570931E+02 -0.12580168715E+03 -0.98030105635E+02  0.20722111997E+03  0.12632952240E+03 0.  0.
         35    2    3    3    0    0  0.39312570931E+02  0.12580168715E+03 -0.18964932386E+03  0.83320894710E+03  0.80056151591E+03 0.  0.
         22    1    5    5    0    0  0.15798351352E+03  0.36410905925E+03 -0.34421278303E+03  0.52537285577E+03  0.00000000000E+00 0.  1.
         22    1    5    5    0    0 -0.11867094259E+03 -0.23830737210E+03  0.15456345917E+03  0.30783609133E+03  0.00000000000E+00 0.  1.
          5    1    4    4  502    0  0.30725657780E+01 -0.28176394998E+02 -0.96490468105E+02  0.10067696028E+03  0.47000000000E+01 0. -1.
         -5    1    4    4    0  502 -0.42385136709E+02 -0.97625292151E+02 -0.15396375303E+01  0.10654415969E+03  0.47000000000E+01 0. -1.
<mgrwt>
<rscale>  0 0.99986763E+03</rscale>
<asrwt>0</asrwt>
<pdfrwt beam="1">  1        1 0.10216227E+00 0.99986763E+03</pdfrwt>
<pdfrwt beam="2">  1       -1 0.57903895E-01 0.99986763E+03</pdfrwt>
<totfact> 0.10291062E+02</totfact>
</mgrwt>
</event>
<event>
 9    1  0.4236486E-036  0.9995827E+03  0.7818608E-02  0.8681435E-01
         -2   -1    0    0    0  501 -0.00000000000E+00  0.00000000000E+00  0.15936645053E+03  0.15936645053E+03  0.00000000000E+00 0.  1.
          2   -1    0    0  501    0  0.00000000000E+00 -0.00000000000E+00 -0.15674027461E+04  0.15674027461E+04  0.00000000000E+00 0.  1.
         36    2    1    2    0    0  0.28421709430E-13 -0.28421709430E-13 -0.14080362956E+04  0.17267691966E+04  0.99958273734E+03 0.  0.
         25    2    3    3    0    0 -0.51754030562E+02  0.99558789676E+02 -0.40578044199E+03  0.43933907919E+03  0.12558115749E+03 0.  0.
         35    2    3    3    0    0  0.51754030562E+02 -0.99558789676E+02 -0.10022558536E+04  0.12874301175E+04  0.80023064112E+03 0.  0.
         22    1    5    5    0    0 -0.14915688911E+03 -0.11652275983E+03  0.65893435991E+02  0.20041775379E+03  0.00000000000E+00 0. -1.
         22    1    5    5    0    0  0.20091091967E+03  0.16963970152E+02 -0.10681492896E+04  0.10870123637E+04  0.00000000000E+00 0. -1.
          5    1    4    4  502    0 -0.89574080859E+02  0.87052531073E+02 -0.34053567884E+03  0.36275101336E+03  0.47000000000E+01 0. -1.
         -5    1    4    4    0  502  0.37820050297E+02  0.12506258603E+02 -0.65244763150E+02  0.76588065828E+02  0.47000000000E+01 0. -1.
<mgrwt>
<rscale>  0 0.99958274E+03</rscale>
<asrwt>0</asrwt>
<pdfrwt beam="1">  1        2 0.24113887E+00 0.99958274E+03</pdfrwt>
<pdfrwt beam="2">  1       -2 0.24517917E-01 0.99958274E+03</pdfrwt>
<totfact> 0.20606904E+02</totfact>
</mgrwt>
</event>
<event>
 9    1  0.4236486E-036  0.1000564E+04  0.7818608E-02  0.8680501E-01
          2   -1    0    0  501    0  0.00000000000E+00  0.00000000000E+00  0.48840713010E+03  0.48840713010E+03  0.00000000000E+00 0. -1.
         -2   -1    0    0    0  501 -0.00000000000E+00 -0.00000000000E+00 -0.51244569801E+03  0.51244569801E+03  0.00000000000E+00 0. -1.
         36    2    1    2    0    0  0.00000000000E+00 -0.17763568394E-14 -0.24038567909E+02  0.10008528281E+04  0.10005641063E+04 0.  0.
         25    2    3    3    0    0 -0.12252774965E+03  0.99219880946E+01  0.64358153743E+02  0.18649438227E+03  0.12460612900E+03 0.  0.
         35    2    3    3    0    0  0.12252774965E+03 -0.99219880946E+01 -0.88396721652E+02  0.81435844584E+03  0.80015886087E+03 0.  0.
         22    1    5    5    0    0 -0.20428006178E+03  0.20572897288E+02  0.26290913543E+03  0.33357877815E+03  0.00000000000E+00 0.  1.
         22    1    5    5    0    0  0.32680781142E+03 -0.30494885383E+02 -0.35130585708E+03  0.48077966768E+03  0.00000000000E+00 0.  1.
          5    1    4    4  502    0 -0.11911919803E+02  0.18177122709E+02  0.71856974390E+02  0.75218457787E+02  0.47000000000E+01 0. -1.
         -5    1    4    4    0  502 -0.11061582984E+03 -0.82551346144E+01 -0.74988206463E+01  0.11127592449E+03  0.47000000000E+01 0. -1.
<mgrwt>
<rscale>  0 0.10005641E+04</rscale>
<asrwt>0</asrwt>
<pdfrwt beam="1">  1        2 0.75139559E-01 0.10005641E+04</pdfrwt>
<pdfrwt beam="2">  1       -2 0.78837800E-01 0.10005641E+04</pdfrwt>
<totfact> 0.10899668E+02</totfact>
</mgrwt>
</event>
<event>
 9    1  0.4236486E-036  0.1000401E+04  0.7818608E-02  0.8680657E-01
          2   -1    0    0  501    0  0.00000000000E+00  0.00000000000E+00  0.34542932379E+03  0.34542932379E+03  0.00000000000E+00 0. -1.
         -2   -1    0    0    0  501 -0.00000000000E+00 -0.00000000000E+00 -0.72431700534E+03  0.72431700534E+03  0.00000000000E+00 0. -1.
         36    2    1    2    0    0  0.00000000000E+00  0.28421709430E-13 -0.37888768155E+03  0.10697463291E+04  0.10004005865E+04 0.  0.
         25    2    3    3    0    0  0.11399249630E+03  0.52873944045E+02 -0.56753804932E+02  0.18616640713E+03  0.12508794346E+03 0.  0.
         35    2    3    3    0    0 -0.11399249630E+03 -0.52873944045E+02 -0.32213387662E+03  0.88357992200E+03  0.81311333831E+03 0.  0.
         22    1    5    5    0    0  0.58923372157E+02  0.36541330555E+03 -0.14737861524E+03  0.39839591349E+03  0.00000000000E+00 0. -1.
         22    1    5    5    0    0 -0.17291586846E+03 -0.41828724959E+03 -0.17475526137E+03  0.48518400851E+03  0.00000000000E+00 0. -1.
          5    1    4    4  502    0  0.11090106587E+02  0.65185635699E+02 -0.48419125943E+02  0.82089337448E+02  0.47000000000E+01 0.  1.
         -5    1    4    4    0  502  0.10290238971E+03 -0.12311691654E+02 -0.83346789897E+01  0.10407706969E+03  0.47000000000E+01 0.  1.
<mgrwt>
<rscale>  0 0.10004006E+04</rscale>
<asrwt>0</asrwt>
<pdfrwt beam="1">  1        2 0.53142973E-01 0.10004006E+04</pdfrwt>
<pdfrwt beam="2">  1       -2 0.11143338E+00 0.10004006E+04</pdfrwt>
<totfact> 0.70269418E+01</totfact>
</mgrwt>
</event>
<event>
 9    1  0.4236486E-036  0.1000205E+04  0.7818608E-02  0.8680843E-01
         -1   -1    0    0    0  501 -0.00000000000E+00  0.00000000000E+00  0.19723676669E+03  0.19723676669E+03  0.00000000000E+00 0. -1.
          1   -1    0    0  501    0  0.00000000000E+00 -0.00000000000E+00 -0.12680321927E+04  0.12680321927E+04  0.00000000000E+00 0. -1.
         36    2    1    2    0    0  0.71054273576E-14 -0.21316282073E-13 -0.10707954260E+04  0.14652689594E+04  0.10002051185E+04 0.  0.
         25    2    3    3    0    0 -0.47584773305E+01 -0.18125441484E+02 -0.40512869436E+03  0.42498814184E+03  0.12702160043E+03 0.  0.
         35    2    3    3    0    0  0.47584773305E+01  0.18125441484E+02 -0.66566673167E+03  0.10402808176E+04  0.79920010449E+03 0.  0.
         22    1    5    5    0    0  0.24979720707E+03 -0.27687467690E+03 -0.49697388340E+03  0.62132219673E+03  0.00000000000E+00 0.  1.
         22    1    5    5    0    0 -0.24503872974E+03  0.29500011839E+03 -0.16869284827E+03  0.41895862084E+03  0.00000000000E+00 0.  1.
          5    1    4    4  502    0  0.52520318627E+02  0.21680974116E+01 -0.92699372250E+02  0.10666934016E+03  0.47000000000E+01 0. -1.
         -5    1    4    4    0  502 -0.57278795958E+02 -0.20293538896E+02 -0.31242932211E+03  0.31831880168E+03  0.47000000000E+01 0. -1.
<mgrwt>
<rscale>  0 0.10002051E+04</rscale>
<asrwt>0</asrwt>
<pdfrwt beam="1">  1        1 0.19508188E+00 0.10002051E+04</pdfrwt>
<pdfrwt beam="2">  1       -1 0.30344118E-01 0.10002051E+04</pdfrwt>
<totfact> 0.10462784E+02</totfact>
</mgrwt>
</event>
<event>
 9    1  0.4236486E-036  0.9995146E+03  0.7818608E-02  0.8681500E-01
         -1   -1    0    0    0  501 -0.00000000000E+00  0.00000000000E+00  0.59672166429E+03  0.59672166429E+03  0.00000000000E+00 0.  1.
          1   -1    0    0  501    0  0.00000000000E+00 -0.00000000000E+00 -0.41854914872E+03  0.41854914872E+03  0.00000000000E+00 0.  1.
         36    2    1    2    0    0  0.00000000000E+00  0.00000000000E+00  0.17817251558E+03  0.10152708130E+04  0.99951457140E+03 0.  0.
         25    2    3    3    0    0 -0.69402283473E+02 -0.20394848557E+02  0.15295733916E+03  0.21008603881E+03  0.12452939132E+03 0.  0.
         35    2    3    3    0    0  0.69402283473E+02  0.20394848557E+02  0.25215176417E+02  0.80518477420E+03  0.80153233789E+03 0.  0.
         22    1    5    5    0    0  0.46633924326E+02  0.81075357143E+02  0.40716794932E+03  0.41777227695E+03  0.00000000000E+00 0. -1.
         22    1    5    5    0    0  0.22768359146E+02 -0.60680508585E+02 -0.38195277290E+03  0.38741249725E+03  0.00000000000E+00 0. -1.
          5    1    4    4  502    0 -0.10210095112E+03 -0.11179126672E+01  0.88838802007E+02  0.13542627770E+03  0.47000000000E+01 0.  1.
         -5    1    4    4    0  502  0.32698667648E+02 -0.19276935890E+02  0.64118537153E+02  0.74659761116E+02  0.47000000000E+01 0.  1.
<mgrwt>
<rscale>  0 0.99951457E+03</rscale>
<asrwt>0</asrwt>
<pdfrwt beam="1">  1        1 0.64392177E-01 0.99951457E+03</pdfrwt>
<pdfrwt beam="2">  1       -1 0.91803333E-01 0.99951457E+03</pdfrwt>
<totfact> 0.77791164E+01</totfact>
</mgrwt>
</event>
<event>
 9    1  0.4236486E-036  0.9990270E+03  0.7818608E-02  0.8681965E-01
         -2   -1    0    0    0  501 -0.00000000000E+00  0.00000000000E+00  0.81590039973E+02  0.81590039973E+02  0.00000000000E+00 0.  1.
          2   -1    0    0  501    0  0.00000000000E+00 -0.00000000000E+00 -0.30581396753E+04  0.30581396753E+04  0.00000000000E+00 0.  1.
         36    2    1    2    0    0  0.28421709430E-13  0.00000000000E+00 -0.29765496354E+04  0.31397297153E+04  0.99902700335E+03 0.  0.
         25    2    3    3    0    0 -0.13854984360E+03  0.14382943741E+02 -0.50638438020E+03  0.53990621894E+03  0.12518249282E+03 0.  0.
         35    2    3    3    0    0  0.13854984360E+03 -0.14382943741E+02 -0.24701652552E+04  0.25998234964E+04  0.79872579539E+03 0.  0.
         22    1    5    5    0    0  0.68081719177E+02  0.62698908348E+02 -0.24915081489E+04  0.24932266503E+04  0.00000000000E+00 0.  1.
         22    1    5    5    0    0  0.70468124426E+02 -0.77081852089E+02  0.21342893747E+02  0.10659684608E+03  0.00000000000E+00 0.  1.
          5    1    4    4  502    0 -0.52777025508E+02  0.67756644013E+02 -0.22265111164E+03  0.23868804902E+03  0.47000000000E+01 0. -1.
         -5    1    4    4    0  502 -0.85772818095E+02 -0.53373700272E+02 -0.28373326855E+03  0.30121816992E+03  0.47000000000E+01 0. -1.
<mgrwt>
<rscale>  0 0.99902700E+03</rscale>
<asrwt>0</asrwt>
<pdfrwt beam="1">  1        2 0.47048303E+00 0.99902700E+03</pdfrwt>
<pdfrwt beam="2">  1       -2 0.12552314E-01 0.99902700E+03</pdfrwt>
<totfact> 0.82266031E+01</totfact>
</mgrwt>
</event>
<event>
 9    1  0.4236486E-036  0.9986914E+03  0.7818608E-02  0.8682285E-01
         -2   -1    0    0    0  501 -0.00000000000E+00  0.00000000000E+00  0.17572060819E+03  0.17572060819E+03  0.00000000000E+00 0.  1.
          2   -1    0    0  501    0  0.00000000000E+00 -0.00000000000E+00 -0.14189918661E+04  0.14189918661E+04  0.00000000000E+00 0.  1.
         36    2    1    2    0    0  0.00000000000E+00  0.14210854715E-13 -0.12432712579E+04  0.15947124742E+04  0.99869137118E+03 0.  0.
         25    2    3    3    0    0 -0.33898851359E+02 -0.11857451319E+03 -0.12590987313E+03  0.21566962865E+03  0.12430223357E+03 0.  0.
         35    2    3    3    0    0  0.33898851359E+02  0.11857451319E+03 -0.11173613847E+04  0.13790428456E+04  0.79878261034E+03 0.  0.
         22    1    5    5    0    0  0.15982745359E+03 -0.83081266232E+02 -0.11268025299E+04  0.11411096586E+04  0.00000000000E+00 0.  1.
         22    1    5    5    0    0 -0.12592860223E+03  0.20165577942E+03  0.94411451314E+01  0.23793318695E+03  0.00000000000E+00 0.  1.
          5    1    4    4  502    0 -0.70137263570E+02 -0.37357536824E+02 -0.88607032781E+02  0.11911388482E+03  0.47000000000E+01 0. -1.
         -5    1    4    4    0  502  0.36238412211E+02 -0.81216976362E+02 -0.37302840347E+02  0.96555743831E+02  0.47000000000E+01 0. -1.
<mgrwt>
<rscale>  0 0.99869137E+03</rscale>
<asrwt>0</asrwt>
<pdfrwt beam="1">  1        2 0.21830644E+00 0.99869137E+03</pdfrwt>
<pdfrwt beam="2">  1       -2 0.27033940E-01 0.99869137E+03</pdfrwt>
<totfact> 0.21016806E+02</totfact>
</mgrwt>
</event>
<event>
 9    1  0.4236486E-036  0.1000030E+04  0.7818608E-02  0.8681010E-01
         -2   -1    0    0    0  501 -0.00000000000E+00  0.00000000000E+00  0.44357124455E+03  0.44357124455E+03  0.00000000000E+00 0.  1.
          2   -1    0    0  501    0  0.00000000000E+00 -0.00000000000E+00 -0.56364076898E+03  0.56364076898E+03  0.00000000000E+00 0.  1.
         36    2    1    2    0    0  0.00000000000E+00  0.00000000000E+00 -0.12006952443E+03  0.10072120135E+04  0.10000296743E+04 0.  0.
         25    2    3    3    0    0  0.11708386769E+03  0.50033870358E+02  0.38622666907E+02  0.18279010210E+03  0.12533351814E+03 0.  0.
         35    2    3    3    0    0 -0.11708386769E+03 -0.50033870358E+02 -0.15869219134E+03  0.82442191143E+03  0.79892193374E+03 0.  0.
         22    1    5    5    0    0 -0.12044341776E+03 -0.30906480508E+03 -0.36503589897E+03  0.49323308705E+03  0.00000000000E+00 0.  1.
         22    1    5    5    0    0  0.33595500643E+01  0.25903093472E+03  0.20634370763E+03  0.33118882439E+03  0.00000000000E+00 0.  1.
          5    1    4    4  502    0  0.10303145446E+03  0.28788275521E+02 -0.28528735673E+02  0.11081617289E+03  0.47000000000E+01 0.  1.
         -5    1    4    4    0  502  0.14052413239E+02  0.21245594837E+02  0.67151402580E+02  0.71973929213E+02  0.47000000000E+01 0.  1.
<mgrwt>
<rscale>  0 0.10000297E+04</rscale>
<asrwt>0</asrwt>
<pdfrwt beam="1">  1        2 0.86713964E-01 0.10000297E+04</pdfrwt>
<pdfrwt beam="2">  1       -2 0.68241730E-01 0.10000297E+04</pdfrwt>
<totfact> 0.12709891E+02</totfact>
</mgrwt>
</event>
<event>
 9    1  0.4236486E-036  0.9988457E+03  0.7818608E-02  0.8682138E-01
          1   -1    0    0  501    0  0.00000000000E+00  0.00000000000E+00  0.62396080656E+03  0.62396080656E+03  0.00000000000E+00 0.  1.
         -1   -1    0    0    0  501 -0.00000000000E+00 -0.00000000000E+00 -0.39974174955E+03  0.39974174955E+03  0.00000000000E+00 0.  1.
         36    2    1    2    0    0  0.00000000000E+00 -0.14210854715E-13  0.22421905701E+03  0.10237025561E+04  0.99884570273E+03 0.  0.
         25    2    3    3    0    0 -0.64894295950E+02  0.84051626996E+02 -0.51181861221E+02  0.17143273878E+03  0.12447351269E+03 0.  0.
         35    2    3    3    0    0  0.64894295950E+02 -0.84051626996E+02  0.27540091824E+03  0.85226981733E+03  0.79952625356E+03 0.  0.
         22    1    5    5    0    0  0.49835698496E+02  0.22035997918E+03 -0.19050784847E+03  0.29552556166E+03  0.00000000000E+00 0.  1.
         22    1    5    5    0    0  0.15058597455E+02 -0.30441160617E+03  0.46590876671E+03  0.55674425567E+03  0.00000000000E+00 0.  1.
          5    1    4    4  502    0 -0.24455649310E+02  0.10983924230E+03 -0.50001275145E+02  0.12322725124E+03  0.47000000000E+01 0.  1.
         -5    1    4    4    0  502 -0.40438646640E+02 -0.25787615307E+02 -0.11805860762E+01  0.48205487538E+02  0.47000000000E+01 0.  1.
<mgrwt>
<rscale>  0 0.99884570E+03</rscale>
<asrwt>0</asrwt>
<pdfrwt beam="1">  1        1 0.95993971E-01 0.99884570E+03</pdfrwt>
<pdfrwt beam="2">  1       -1 0.61498731E-01 0.99884570E+03</pdfrwt>
<totfact> 0.10063829E+02</totfact>
</mgrwt>
</event>
<event>
 9    1  0.4236486E-036  0.9996459E+03  0.7818608E-02  0.8681375E-01
         -2   -1    0    0    0  501 -0.00000000000E+00  0.00000000000E+00  0.11735253060E+03  0.11735253060E+03  0.00000000000E+00 0.  1.
          2   -1    0    0  501    0  0.00000000000E+00 -0.00000000000E+00 -0.21288247752E+04  0.21288247752E+04  0.00000000000E+00 0.  1.
         36    2    1    2    0    0 -0.21316282073E-13  0.00000000000E+00 -0.20114722446E+04  0.22461773058E+04  0.99964588647E+03 0.  0.
         25    2    3    3    0    0  0.55128030374E+02 -0.11008063295E+03 -0.52024027463E+03  0.54929776700E+03  0.12617942779E+03 0.  0.
         35    2    3    3    0    0 -0.55128030374E+02  0.11008063295E+03 -0.14912319700E+04  0.16968795388E+04  0.80029403065E+03 0.  0.
         22    1    5    5    0    0  0.32850170939E+03  0.67172870603E+02 -0.31930438768E+03  0.46301280718E+03  0.00000000000E+00 0.  1.
         22    1    5    5    0    0 -0.38362973976E+03  0.42907762349E+02 -0.11719275823E+04  0.12338667317E+04  0.00000000000E+00 0.  1.
          5    1    4    4  502    0  0.30378782656E+02 -0.20451022166E+01 -0.19600476817E+02  0.36514676093E+02  0.47000000000E+01 0. -1.
         -5    1    4    4    0  502  0.24749247718E+02 -0.10803553073E+03 -0.50063979781E+03  0.51278309090E+03  0.47000000000E+01 0. -1.
<mgrwt>
<rscale>  0 0.99964589E+03</rscale>
<asrwt>0</asrwt>
<pdfrwt beam="1">  1        2 0.32751152E+00 0.99964589E+03</pdfrwt>
<pdfrwt beam="2">  1       -2 0.18054235E-01 0.99964589E+03</pdfrwt>
<totfact> 0.16866589E+02</totfact>
</mgrwt>
</event>
<event>
 9    1  0.4236486E-036  0.1000206E+04  0.7818608E-02  0.8680842E-01
         -2   -1    0    0    0  501 -0.00000000000E+00  0.00000000000E+00  0.25845151660E+03  0.25845151660E+03  0.00000000000E+00 0. -1.
          2   -1    0    0  501    0  0.00000000000E+00 -0.00000000000E+00 -0.96769850605E+03  0.96769850605E+03  0.00000000000E+00 0. -1.
         36    2    1    2    0    0 -0.53290705182E-14  0.28421709430E-13 -0.70924698945E+03  0.12261500227E+04  0.10002062717E+04 0.  0.
         25    2    3    3    0    0  0.24353772746E+01 -0.92224709699E+02  0.40499173399E+01  0.15533515065E+03  0.12490508018E+03 0.  0.
         35    2    3    3    0    0 -0.24353772746E+01  0.92224709699E+02 -0.71329690679E+03  0.10708148720E+04  0.79330995501E+03 0.  0.
         22    1    5    5    0    0 -0.11393092125E+03  0.20281014687E+03  0.92146033594E+02  0.25020611903E+03  0.00000000000E+00 0. -1.
         22    1    5    5    0    0  0.11149554398E+03 -0.11058543717E+03 -0.80544294039E+03  0.82060875298E+03  0.00000000000E+00 0. -1.
          5    1    4    4  502    0  0.12067644409E+02 -0.29744252590E+02  0.61661205315E+02  0.69674549476E+02  0.47000000000E+01 0. -1.
         -5    1    4    4    0  502 -0.96322671345E+01 -0.62480457110E+02 -0.57611287975E+02  0.85660601171E+02  0.47000000000E+01 0. -1.
<mgrwt>
<rscale>  0 0.10002063E+04</rscale>
<asrwt>0</asrwt>
<pdfrwt beam="1">  1        2 0.14887670E+00 0.10002063E+04</pdfrwt>
<pdfrwt beam="2">  1       -2 0.39761770E-01 0.10002063E+04</pdfrwt>
<totfact> 0.19124762E+02</totfact>
</mgrwt>
</event>
<event>
 9    1  0.4236486E-036  0.9979410E+03  0.7818608E-02  0.8683001E-01
         -1   -1    0    0    0  501 -0.00000000000E+00  0.00000000000E+00  0.19238773142E+03  0.19238773142E+03  0.00000000000E+00 0. -1.
          1   -1    0    0  501    0  0.00000000000E+00 -0.00000000000E+00 -0.12941133712E+04  0.12941133712E+04  0.00000000000E+00 0. -1.
         36    2    1    2    0    0  0.00000000000E+00 -0.14210854715E-13 -0.11017256398E+04  0.14865011027E+04  0.99794095155E+03 0.  0.
         25    2    3    3    0    0  0.99361152082E+02  0.64872330861E+02 -0.30783628233E+03  0.35267936229E+03  0.12465351183E+03 0.  0.
         35    2    3    3    0    0 -0.99361152082E+02 -0.64872330861E+02 -0.79388935749E+03  0.11338217404E+04  0.80075612339E+03 0.  0.
         22    1    5    5    0    0  0.28230621277E+03 -0.23414479672E+03 -0.51293627767E+03  0.63057450674E+03  0.00000000000E+00 0.  1.
         22    1    5    5    0    0 -0.38166736486E+03  0.16927246586E+03 -0.28095307982E+03  0.50324723363E+03  0.00000000000E+00 0.  1.
          5    1    4    4  502    0  0.52278193173E+02  0.49458341920E+02 -0.44634390561E+02  0.84814243424E+02  0.47000000000E+01 0. -1.
         -5    1    4    4    0  502  0.47082958910E+02  0.15413988941E+02 -0.26320189177E+03  0.26786511887E+03  0.47000000000E+01 0. -1.
<mgrwt>
<rscale>  0 0.99794095E+03</rscale>
<asrwt>0</asrwt>
<pdfrwt beam="1">  1        1 0.19909437E+00 0.99794095E+03</pdfrwt>
<pdfrwt beam="2">  1       -1 0.29598112E-01 0.99794095E+03</pdfrwt>
<totfact> 0.10449603E+02</totfact>
</mgrwt>
</event>
<event>
 9    1  0.4236486E-036  0.1013177E+04  0.7818608E-02  0.8668590E-01
          2   -1    0    0  501    0  0.00000000000E+00  0.00000000000E+00  0.17136753825E+04  0.17136753825E+04  0.00000000000E+00 0.  1.
         -2   -1    0    0    0  501 -0.00000000000E+00 -0.00000000000E+00 -0.14975530796E+03  0.14975530796E+03  0.00000000000E+00 0.  1.
         36    2    1    2    0    0  0.14210854715E-13  0.00000000000E+00  0.15639200745E+04  0.18634306904E+04  0.10131771506E+04 0.  0.
         25    2    3    3    0    0 -0.65389783505E+02 -0.80055975038E+02  0.98311282254E+02  0.18953878801E+03  0.12480008419E+03 0.  0.
         35    2    3    3    0    0  0.65389783505E+02  0.80055975038E+02  0.14656087922E+04  0.16738919024E+04  0.80201009103E+03 0.  0.
         22    1    5    5    0    0 -0.26612628197E+03  0.73680355903E+02  0.12458869259E+04  0.12761215557E+04  0.00000000000E+00 0.  1.
         22    1    5    5    0    0  0.33151606547E+03  0.63756191355E+01  0.21972186640E+03  0.39777034676E+03  0.00000000000E+00 0.  1.
          5    1    4    4  502    0 -0.72989292963E+02 -0.28410621774E+02  0.38177547136E+00  0.78465508787E+02  0.47000000000E+01 0.  1.
         -5    1    4    4    0  502  0.75995094578E+01 -0.51645353264E+02  0.97929506782E+02  0.11107327922E+03  0.47000000000E+01 0.  1.
<mgrwt>
<rscale>  0 0.10131772E+04</rscale>
<asrwt>0</asrwt>
<pdfrwt beam="1">  1        2 0.26364235E+00 0.10131772E+04</pdfrwt>
<pdfrwt beam="2">  1       -2 0.23039279E-01 0.10131772E+04</pdfrwt>
<totfact> 0.19019621E+02</totfact>
</mgrwt>
</event>
<event>
 9    1  0.4236486E-036  0.9982849E+03  0.7818608E-02  0.8682673E-01
         -1   -1    0    0    0  501 -0.00000000000E+00  0.00000000000E+00  0.41868556157E+03  0.41868556157E+03  0.00000000000E+00 0.  1.
          1   -1    0    0  501    0  0.00000000000E+00 -0.00000000000E+00 -0.59506032199E+03  0.59506032199E+03  0.00000000000E+00 0.  1.
         36    2    1    2    0    0  0.14210854715E-13 -0.28421709430E-13 -0.17637476043E+03  0.10137458836E+04  0.99828485931E+03 0.  0.
         25    2    3    3    0    0 -0.47783573130E+02 -0.12845808476E+03 -0.33562830268E+02  0.18964559892E+03  0.12670532827E+03 0.  0.
         35    2    3    3    0    0  0.47783573130E+02  0.12845808476E+03 -0.14281193016E+03  0.82410028464E+03  0.79997580111E+03 0.  0.
         22    1    5    5    0    0 -0.92762579282E+02  0.33471981864E+03  0.19942582829E+03  0.40051581004E+03  0.00000000000E+00 0.  1.
         22    1    5    5    0    0  0.14054615241E+03 -0.20626173388E+03 -0.34223775845E+03  0.42358447461E+03  0.00000000000E+00 0.  1.
          5    1    4    4  502    0 -0.32376870883E+02 -0.12768828583E+03 -0.70398821985E+02  0.14943441452E+03  0.47000000000E+01 0.  1.
         -5    1    4    4    0  502 -0.15406702247E+02 -0.76979892226E+00  0.36835991716E+02  0.40211184392E+02  0.47000000000E+01 0.  1.
<mgrwt>
<rscale>  0 0.99828486E+03</rscale>
<asrwt>0</asrwt>
<pdfrwt beam="1">  1        1 0.91547741E-01 0.99828486E+03</pdfrwt>
<pdfrwt beam="2">  1       -1 0.64413164E-01 0.99828486E+03</pdfrwt>
<totfact> 0.98646433E+01</totfact>
</mgrwt>
</event>
<event>
 9    1  0.4236486E-036  0.9997748E+03  0.7818608E-02  0.8681252E-01
          2   -1    0    0  501    0  0.00000000000E+00  0.00000000000E+00  0.70079700152E+03  0.70079700152E+03  0.00000000000E+00 0. -1.
         -2   -1    0    0    0  501 -0.00000000000E+00 -0.00000000000E+00 -0.35657600462E+03  0.35657600462E+03  0.00000000000E+00 0. -1.
         36    2    1    2    0    0 -0.42632564146E-13  0.35527136788E-14  0.34422099690E+03  0.10573730061E+04  0.99977476434E+03 0.  0.
         25    2    3    3    0    0 -0.66635373283E+02  0.28332248352E+02  0.19188437624E+03  0.24019712257E+03  0.12502821512E+03 0.  0.
         35    2    3    3    0    0  0.66635373283E+02 -0.28332248352E+02  0.15233662066E+03  0.81717588357E+03  0.79957925775E+03 0.  0.
         22    1    5    5    0    0  0.33666595880E+03  0.15046636260E+03 -0.12646221004E+03  0.38984199960E+03  0.00000000000E+00 0.  1.
         22    1    5    5    0    0 -0.27003058551E+03 -0.17879861095E+03  0.27879883070E+03  0.42733388397E+03  0.00000000000E+00 0.  1.
          5    1    4    4  502    0 -0.54516904488E+02 -0.24246501675E+02  0.25209412827E+02  0.64942976629E+02  0.47000000000E+01 0.  1.
         -5    1    4    4    0  502 -0.12118468795E+02  0.52578750027E+02  0.16667496341E+03  0.17525414594E+03  0.47000000000E+01 0.  1.
<mgrwt>
<rscale>  0 0.99977476E+03</rscale>
<asrwt>0</asrwt>
<pdfrwt beam="1">  1        2 0.10781492E+00 0.99977476E+03</pdfrwt>
<pdfrwt beam="2">  1       -2 0.54857847E-01 0.99977476E+03</pdfrwt>
<totfact> 0.15477281E+02</totfact>
</mgrwt>
</event>
<event>
 9    1  0.4236486E-036  0.1000517E+04  0.7818608E-02  0.8680546E-01
          1   -1    0    0  501    0  0.00000000000E+00  0.00000000000E+00  0.44200422363E+03  0.44200422363E+03  0.00000000000E+00 0. -1.
         -1   -1    0    0    0  501 -0.00000000000E+00 -0.00000000000E+00 -0.56619064289E+03  0.56619064289E+03  0.00000000000E+00 0. -1.
         36    2    1    2    0    0 -0.28421709430E-13 -0.71054273576E-14 -0.12418641926E+03  0.10081948665E+04  0.10005171773E+04 0.  0.
         25    2    3    3    0    0 -0.12988733451E+03  0.11579331826E+01 -0.77084527655E+02  0.19627043235E+03  0.12533155124E+03 0.  0.
         35    2    3    3    0    0  0.12988733451E+03 -0.11579331826E+01 -0.47101891606E+02  0.81192443417E+03  0.80008164467E+03 0.  0.
         22    1    5    5    0    0  0.25878677361E+03  0.17136800065E+03  0.28151053219E+03  0.41902955215E+03  0.00000000000E+00 0. -1.
         22    1    5    5    0    0 -0.12889943910E+03 -0.17252593384E+03 -0.32861242380E+03  0.39289488202E+03  0.00000000000E+00 0. -1.
          5    1    4    4  502    0 -0.11978990307E+02 -0.49960618537E+02 -0.27324859404E+02  0.58380626536E+02  0.47000000000E+01 0. -1.
         -5    1    4    4    0  502 -0.11790834420E+03  0.51118551719E+02 -0.49759668251E+02  0.13788980581E+03  0.47000000000E+01 0. -1.
<mgrwt>
<rscale>  0 0.10005172E+04</rscale>
<asrwt>0</asrwt>
<pdfrwt beam="1">  1        1 0.68000650E-01 0.10005172E+04</pdfrwt>
<pdfrwt beam="2">  1       -1 0.87106253E-01 0.10005172E+04</pdfrwt>
<totfact> 0.80873692E+01</totfact>
</mgrwt>
</event>
<event>
 9    1  0.4236486E-036  0.9990889E+03  0.7818608E-02  0.8681906E-01
          2   -1    0    0  501    0  0.00000000000E+00  0.00000000000E+00  0.22098188378E+03  0.22098188378E+03  0.00000000000E+00 0.  1.
         -2   -1    0    0    0  501 -0.00000000000E+00 -0.00000000000E+00 -0.11292540058E+04  0.11292540058E+04  0.00000000000E+00 0.  1.
         36    2    1    2    0    0  0.00000000000E+00 -0.21316282073E-13 -0.90827212204E+03  0.13502358896E+04  0.99908893993E+03 0.  0.
         25    2    3    3    0    0 -0.12698303255E+03  0.54085108155E+02 -0.16951540998E+03  0.25180830343E+03  0.12498823135E+03 0.  0.
         35    2    3    3    0    0  0.12698303255E+03 -0.54085108155E+02 -0.73875671206E+03  0.10984275862E+04  0.80108163939E+03 0.  0.
         22    1    5    5    0    0 -0.17726287797E+03  0.22680335293E+03 -0.46229417170E+02  0.29154596176E+03  0.00000000000E+00 0. -1.
         22    1    5    5    0    0  0.30424591052E+03 -0.28088846109E+03 -0.69252729490E+03  0.80688162441E+03  0.00000000000E+00 0. -1.
          5    1    4    4  502    0 -0.19910323625E+02 -0.31558542524E+02 -0.55470435060E+01  0.38016079292E+02  0.47000000000E+01 0. -1.
         -5    1    4    4    0  502 -0.10707270893E+03  0.85643650679E+02 -0.16396836647E+03  0.21379222414E+03  0.47000000000E+01 0. -1.
<mgrwt>
<rscale>  0 0.99908894E+03</rscale>
<asrwt>0</asrwt>
<pdfrwt beam="1">  1        2 0.33997213E-01 0.99908894E+03</pdfrwt>
<pdfrwt beam="2">  1       -2 0.17373139E+00 0.99908894E+03</pdfrwt>
<totfact> 0.34388194E+01</totfact>
</mgrwt>
</event>
<event>
 9    1  0.4236486E-036  0.1000093E+04  0.7818608E-02  0.8680950E-01
         -2   -1    0    0    0  501 -0.00000000000E+00  0.00000000000E+00  0.35060127410E+03  0.35060127410E+03  0.00000000000E+00 0.  1.
          2   -1    0    0  501    0  0.00000000000E+00 -0.00000000000E+00 -0.71319269592E+03  0.71319269592E+03  0.00000000000E+00 0.  1.
         36    2    1    2    0    0  0.00000000000E+00  0.00000000000E+00 -0.36259142183E+03  0.10637939700E+04  0.10000925315E+04 0.  0.
         25    2    3    3    0    0 -0.10974881677E+03  0.75818149360E+02 -0.56936911591E+02  0.19710730803E+03  0.13347765515E+03 0.  0.
         35    2    3    3    0    0  0.10974881677E+03 -0.75818149360E+02 -0.30565451024E+03  0.86668666198E+03  0.79995493365E+03 0.  0.
         22    1    5    5    0    0  0.26627059768E+03 -0.38111744060E+03 -0.21249315636E+03  0.51117890822E+03  0.00000000000E+00 0. -1.
         22    1    5    5    0    0 -0.15652178090E+03  0.30529929124E+03 -0.93161353883E+02  0.35550775376E+03  0.00000000000E+00 0. -1.
          5    1    4    4  502    0 -0.29170092674E+02 -0.19845557314E+02 -0.62383270512E+02  0.71822718491E+02  0.47000000000E+01 0. -1.
         -5    1    4    4    0  502 -0.80578724097E+02  0.95663706673E+02  0.54463589211E+01  0.12528458954E+03  0.47000000000E+01 0. -1.
<mgrwt>
<rscale>  0 0.10000925E+04</rscale>
<asrwt>0</asrwt>
<pdfrwt beam="1">  1        2 0.10972195E+00 0.10000925E+04</pdfrwt>
<pdfrwt beam="2">  1       -2 0.53938657E-01 0.10000925E+04</pdfrwt>
<totfact> 0.15677455E+02</totfact>
</mgrwt>
</event>
<event>
 9    1  0.4236486E-036  0.1002422E+04  0.7818608E-02  0.8678735E-01
          1   -1    0    0  501    0  0.00000000000E+00  0.00000000000E+00  0.30748915318E+03  0.30748915318E+03  0.00000000000E+00 0. -1.
         -1   -1    0    0    0  501 -0.00000000000E+00 -0.00000000000E+00 -0.81697994579E+03  0.81697994579E+03  0.00000000000E+00 0. -1.
         36    2    1    2    0    0  0.14210854715E-13  0.00000000000E+00 -0.50949079261E+03  0.11244690990E+04  0.10024220103E+04 0.  0.
         25    2    3    3    0    0  0.93017851197E+02 -0.40313108924E+02 -0.20944038521E+03  0.26392946412E+03  0.12456331596E+03 0.  0.
         35    2    3    3    0    0 -0.93017851197E+02  0.40313108924E+02 -0.30005040740E+03  0.86053963485E+03  0.80013795609E+03 0.  0.
         22    1    5    5    0    0  0.27151501014E+03 -0.16889479435E+03 -0.30258599258E+03  0.44023191070E+03  0.00000000000E+00 0.  1.
         22    1    5    5    0    0 -0.36453286134E+03  0.20920790327E+03  0.25355851865E+01  0.42030772415E+03  0.00000000000E+00 0.  1.
          5    1    4    4  502    0 -0.17474450697E+02 -0.12358990123E+00  0.54785547988E+01  0.18907042717E+02  0.47000000000E+01 0. -1.
         -5    1    4    4    0  502  0.11049230189E+03 -0.40189519023E+02 -0.21491894001E+03  0.24502242141E+03  0.47000000000E+01 0. -1.
<mgrwt>
<rscale>  0 0.10024220E+04</rscale>
<asrwt>0</asrwt>
<pdfrwt beam="1">  1        1 0.47306024E-01 0.10024220E+04</pdfrwt>
<pdfrwt beam="2">  1       -1 0.12568922E+00 0.10024220E+04</pdfrwt>
<totfact> 0.56219150E+01</totfact>
</mgrwt>
</event>
<event>
 9    1  0.4236486E-036  0.1000512E+04  0.7818608E-02  0.8680550E-01
          2   -1    0    0  501    0  0.00000000000E+00  0.00000000000E+00  0.91727250350E+03  0.91727250350E+03  0.00000000000E+00 0.  1.
         -2   -1    0    0    0  501 -0.00000000000E+00 -0.00000000000E+00 -0.27282633319E+03  0.27282633319E+03  0.00000000000E+00 0.  1.
         36    2    1    2    0    0  0.71054273576E-14  0.00000000000E+00  0.64444617031E+03  0.11900988367E+04  0.10005120562E+04 0.  0.
         25    2    3    3    0    0 -0.50596739567E+02  0.12188246124E+03  0.17008025445E+03  0.25088211723E+03  0.12883780261E+03 0.  0.
         35    2    3    3    0    0  0.50596739567E+02 -0.12188246124E+03  0.47436591586E+03  0.93921671945E+03  0.79980601371E+03 0.  0.
         22    1    5    5    0    0  0.24846978392E+03  0.13140087069E+03  0.54219940108E+03  0.61072384338E+03  0.00000000000E+00 0.  1.
         22    1    5    5    0    0 -0.19787304436E+03 -0.25328333193E+03 -0.67833485222E+02  0.32849287608E+03  0.00000000000E+00 0.  1.
          5    1    4    4  502    0  0.18206935878E+02  0.52588313165E+01  0.92948105197E+02  0.94976776533E+02  0.47000000000E+01 0. -1.
         -5    1    4    4    0  502 -0.68803675445E+02  0.11662362992E+03  0.77132149256E+02  0.15590534070E+03  0.47000000000E+01 0. -1.
<mgrwt>
<rscale>  0 0.10005121E+04</rscale>
<asrwt>0</asrwt>
<pdfrwt beam="1">  1        2 0.14111885E+00 0.10005121E+04</pdfrwt>
<pdfrwt beam="2">  1       -2 0.41973282E-01 0.10005121E+04</pdfrwt>
<totfact> 0.18574870E+02</totfact>
</mgrwt>
</event>
<event>
 9    1  0.4236486E-036  0.1000356E+04  0.7818608E-02  0.8680699E-01
         -2   -1    0    0    0  501 -0.00000000000E+00  0.00000000000E+00  0.85466946259E+02  0.85466946259E+02  0.00000000000E+00 0.  1.
          2   -1    0    0  501    0  0.00000000000E+00 -0.00000000000E+00 -0.29271933281E+04  0.29271933281E+04  0.00000000000E+00 0.  1.
         36    2    1    2    0    0 -0.28421709430E-13  0.14210854715E-13 -0.28417263818E+04  0.30126602743E+04  0.10003564862E+04 0.  0.
         25    2    3    3    0    0 -0.85666184013E+02 -0.69008573446E+02 -0.78515110789E+03  0.80241499411E+03  0.12372017724E+03 0.  0.
         35    2    3    3    0    0  0.85666184013E+02  0.69008573446E+02 -0.20565752739E+04  0.22102452802E+04  0.80223529164E+03 0.  0.
         22    1    5    5    0    0 -0.27579744363E+03  0.11488401401E+03 -0.32795113279E+03  0.44363781633E+03  0.00000000000E+00 0. -1.
         22    1    5    5    0    0  0.36146362764E+03 -0.45875440561E+02 -0.17286241411E+04  0.17666074639E+04  0.00000000000E+00 0. -1.
          5    1    4    4  502    0 -0.25771467775E+02  0.20494447476E+02 -0.54448535763E+02  0.63803792798E+02  0.47000000000E+01 0.  1.
         -5    1    4    4    0  502 -0.59894716238E+02 -0.89503020922E+02 -0.73070257213E+03  0.73861120131E+03  0.47000000000E+01 0.  1.
<mgrwt>
<rscale>  0 0.10003565E+04</rscale>
<asrwt>0</asrwt>
<pdfrwt beam="1">  1        2 0.45033745E+00 0.10003565E+04</pdfrwt>
<pdfrwt beam="2">  1       -2 0.13148761E-01 0.10003565E+04</pdfrwt>
<totfact> 0.93143522E+01</totfact>
</mgrwt>
</event>
<event>
 9    1  0.4236486E-036  0.9994546E+03  0.7818608E-02  0.8681558E-01
         -2   -1    0    0    0  501 -0.00000000000E+00  0.00000000000E+00  0.28063818515E+03  0.28063818515E+03  0.00000000000E+00 0.  1.
          2   -1    0    0  501    0  0.00000000000E+00 -0.00000000000E+00 -0.88985530282E+03  0.88985530282E+03  0.00000000000E+00 0.  1.
         36    2    1    2    0    0  0.14210854715E-13  0.14210854715E-13 -0.60921711767E+03  0.11704934880E+04  0.99945460573E+03 0.  0.
         25    2    3    3    0    0 -0.10043587688E+03 -0.87946969625E+02 -0.11991850115E+03  0.22306039648E+03  0.13248946648E+03 0.  0.
         35    2    3    3    0    0  0.10043587688E+03  0.87946969625E+02 -0.48929861652E+03  0.94743309149E+03  0.80024639449E+03 0.  0.
         22    1    5    5    0    0 -0.30897899004E+02  0.38359019438E+03 -0.30483951065E+02  0.38603806634E+03  0.00000000000E+00 0.  1.
         22    1    5    5    0    0  0.13133377588E+03 -0.29564322476E+03 -0.45881466546E+03  0.56139502515E+03  0.00000000000E+00 0.  1.
          5    1    4    4  502    0 -0.12194098697E+02 -0.15778728887E+01 -0.96378226719E+02  0.97273009161E+02  0.47000000000E+01 0.  1.
         -5    1    4    4    0  502 -0.88241778181E+02 -0.86369096736E+02 -0.23540274433E+02  0.12578738732E+03  0.47000000000E+01 0.  1.
<mgrwt>
<rscale>  0 0.99945461E+03</rscale>
<asrwt>0</asrwt>
<pdfrwt beam="1">  1        2 0.13690081E+00 0.99945461E+03</pdfrwt>
<pdfrwt beam="2">  1       -2 0.43175106E-01 0.99945461E+03</pdfrwt>
<totfact> 0.18332028E+02</totfact>
</mgrwt>
</event>
<event>
 9    1  0.4236486E-036  0.1006702E+04  0.7818608E-02  0.8674682E-01
         -1   -1    0    0    0  501 -0.00000000000E+00  0.00000000000E+00  0.10124737854E+04  0.10124737854E+04  0.00000000000E+00 0.  1.
          1   -1    0    0  501    0  0.00000000000E+00 -0.00000000000E+00 -0.25024086415E+03  0.25024086415E+03  0.00000000000E+00 0.  1.
         36    2    1    2    0    0  0.00000000000E+00 -0.14210854715E-13  0.76223292127E+03  0.12627146496E+04  0.10067021704E+04 0.  0.
         25    2    3    3    0    0 -0.11845803585E+03 -0.85632178853E+02  0.17093723210E+03  0.25736964296E+03  0.12511762261E+03 0.  0.
         35    2    3    3    0    0  0.11845803585E+03  0.85632178853E+02  0.59129568916E+03  0.10053450066E+04  0.79982673997E+03 0.  0.
         22    1    5    5    0    0  0.45685947574E+03 -0.49655093201E+01  0.39387905108E+03  0.60322959455E+03  0.00000000000E+00 0. -1.
         22    1    5    5    0    0 -0.33840143989E+03  0.90597688173E+02  0.19741663808E+03  0.40211541206E+03  0.00000000000E+00 0. -1.
          5    1    4    4  502    0 -0.51947853294E+02 -0.10783959491E+03  0.12651505666E+03  0.17423004119E+03  0.47000000000E+01 0. -1.
         -5    1    4    4    0  502 -0.66510182560E+02  0.22207416055E+02  0.44422175449E+02  0.83139601777E+02  0.47000000000E+01 0. -1.
<mgrwt>
<rscale>  0 0.10067022E+04</rscale>
<asrwt>0</asrwt>
<pdfrwt beam="1">  1        1 0.38498595E-01 0.10067022E+04</pdfrwt>
<pdfrwt beam="2">  1       -1 0.15576520E+00 0.10067022E+04</pdfrwt>
<totfact> 0.40685237E+01</totfact>
</mgrwt>
</event>
<event>
 9    1  0.4236486E-036  0.9982630E+03  0.7818608E-02  0.8682694E-01
          1   -1    0    0  501    0  0.00000000000E+00  0.00000000000E+00  0.54375226450E+03  0.54375226450E+03  0.00000000000E+00 0. -1.
         -1   -1    0    0    0  501 -0.00000000000E+00 -0.00000000000E+00 -0.45817234949E+03  0.45817234949E+03  0.00000000000E+00 0. -1.
         36    2    1    2    0    0 -0.71054273576E-14  0.28421709430E-13  0.85579915013E+02  0.10019246140E+04  0.99826299654E+03 0.  0.
         25    2    3    3    0    0 -0.60986849212E+02  0.10668401216E+03 -0.48698488772E+02  0.18186747694E+03  0.12491341855E+03 0.  0.
         35    2    3    3    0    0  0.60986849212E+02 -0.10668401216E+03  0.13427840379E+03  0.82005713705E+03  0.79960124066E+03 0.  0.
         22    1    5    5    0    0  0.72413824929E+02 -0.45411581665E+03  0.10128412606E+03  0.47087515454E+03  0.00000000000E+00 0.  1.
         22    1    5    5    0    0 -0.11426975717E+02  0.34743180449E+03  0.32994277729E+02  0.34918198251E+03  0.00000000000E+00 0.  1.
          5    1    4    4  502    0  0.23486312554E+01  0.99831979326E+02 -0.60581017786E+02  0.11689349803E+03  0.47000000000E+01 0. -1.
         -5    1    4    4    0  502 -0.63335480468E+02  0.68520328312E+01  0.11882529014E+02  0.64973978913E+02  0.47000000000E+01 0. -1.
<mgrwt>
<rscale>  0 0.99826300E+03</rscale>
<asrwt>0</asrwt>
<pdfrwt beam="1">  1        1 0.83654195E-01 0.99826300E+03</pdfrwt>
<pdfrwt beam="2">  1       -1 0.70488053E-01 0.99826300E+03</pdfrwt>
<totfact> 0.94057619E+01</totfact>
</mgrwt>
</event>
<event>
 9    1  0.4236486E-036  0.1001444E+04  0.7818608E-02  0.8679664E-01
          1   -1    0    0  501    0  0.00000000000E+00  0.00000000000E+00  0.95402422941E+03  0.95402422941E+03  0.00000000000E+00 0.  1.
         -1   -1    0    0    0  501 -0.00000000000E+00 -0.00000000000E+00 -0.26280524015E+03  0.26280524015E+03  0.00000000000E+00 0.  1.
         36    2    1    2    0    0 -0.14210854715E-13  0.00000000000E+00  0.69121898926E+03  0.12168294696E+04  0.10014440907E+04 0.  0.
         25    2    3    3    0    0  0.11642161957E+03  0.73571787936E+02  0.94392609178E+02  0.20918006120E+03  0.12601401451E+03 0.  0.
         35    2    3    3    0    0 -0.11642161957E+03 -0.73571787936E+02  0.59682638009E+03  0.10076494084E+04  0.80011799175E+03 0.  0.
         22    1    5    5    0    0 -0.19589256585E+03 -0.39112899983E+03  0.50406302506E+03  0.66740941340E+03  0.00000000000E+00 0.  1.
         22    1    5    5    0    0  0.79470946281E+02  0.31755721190E+03  0.92763355021E+02  0.34023999495E+03  0.00000000000E+00 0.  1.
          5    1    4    4  502    0  0.11221805812E+03  0.21333607894E+02  0.10531701542E+03  0.15544059679E+03  0.47000000000E+01 0. -1.
         -5    1    4    4    0  502  0.42035614458E+01  0.52238180042E+02 -0.10924406241E+02  0.53739464406E+02  0.47000000000E+01 0. -1.
<mgrwt>
<rscale>  0 0.10014441E+04</rscale>
<asrwt>0</asrwt>
<pdfrwt beam="1">  1        1 0.14677296E+00 0.10014441E+04</pdfrwt>
<pdfrwt beam="2">  1       -1 0.40431576E-01 0.10014441E+04</pdfrwt>
<totfact> 0.11038614E+02</totfact>
</mgrwt>
</event>
<event>
 9    1  0.4236486E-036  0.9997279E+03  0.7818608E-02  0.8681297E-01
         -1   -1    0    0    0  501 -0.00000000000E+00  0.00000000000E+00  0.64681037743E+03  0.64681037743E+03  0.00000000000E+00 0.  1.
          1   -1    0    0  501    0  0.00000000000E+00 -0.00000000000E+00 -0.38630172937E+03  0.38630172937E+03  0.00000000000E+00 0.  1.
         36    2    1    2    0    0  0.71054273576E-14 -0.42632564146E-13  0.26050864806E+03  0.10331121068E+04  0.99972789772E+03 0.  0.
         25    2    3    3    0    0  0.59443986976E+02  0.12727223870E+03  0.40671710777E+02  0.19230541695E+03  0.12488144377E+03 0.  0.
         35    2    3    3    0    0 -0.59443986976E+02 -0.12727223870E+03  0.21983693728E+03  0.84080668985E+03  0.79930957730E+03 0.  0.
         22    1    5    5    0    0  0.62261237502E+01 -0.46534835082E+03  0.98802112278E+02  0.47576224064E+03  0.00000000000E+00 0. -1.
         22    1    5    5    0    0 -0.65670110726E+02  0.33807611212E+03  0.12103482500E+03  0.36504444920E+03  0.00000000000E+00 0. -1.
          5    1    4    4  502    0 -0.26019203206E+02  0.39475627533E+02 -0.24489148259E+02  0.53452151379E+02  0.47000000000E+01 0. -1.
         -5    1    4    4    0  502  0.85463190182E+02  0.87796611170E+02  0.65160859035E+02  0.13885326557E+03  0.47000000000E+01 0. -1.
<mgrwt>
<rscale>  0 0.99972790E+03</rscale>
<asrwt>0</asrwt>
<pdfrwt beam="1">  1        1 0.59431036E-01 0.99972790E+03</pdfrwt>
<pdfrwt beam="2">  1       -1 0.99509288E-01 0.99972790E+03</pdfrwt>
<totfact> 0.72561626E+01</totfact>
</mgrwt>
</event>
<event>
 9    1  0.4236486E-036  0.1001521E+04  0.7818608E-02  0.8679591E-01
         -1   -1    0    0    0  501 -0.00000000000E+00  0.00000000000E+00  0.14547016386E+04  0.14547016386E+04  0.00000000000E+00 0. -1.
          1   -1    0    0  501    0  0.00000000000E+00 -0.00000000000E+00 -0.17237958104E+03  0.17237958104E+03  0.00000000000E+00 0. -1.
         36    2    1    2    0    0 -0.14210854715E-13  0.00000000000E+00  0.12823220576E+04  0.16270812197E+04  0.10015205620E+04 0.  0.
         25    2    3    3    0    0  0.87063938861E+02  0.33260014261E+01  0.55931961901E+02  0.16054097545E+03  0.12269404509E+03 0.  0.
         35    2    3    3    0    0 -0.87063938861E+02 -0.33260014261E+01  0.12263900957E+04  0.14665402442E+04  0.79944757765E+03 0.  0.
         22    1    5    5    0    0  0.80634038829E+02  0.69909464025E+02 -0.88706499527E+02  0.13877328430E+03  0.00000000000E+00 0.  1.
         22    1    5    5    0    0 -0.16769797769E+03 -0.73235465451E+02  0.13150965952E+04  0.13277669599E+04  0.00000000000E+00 0.  1.
          5    1    4    4  502    0  0.63387093472E+02 -0.57063979364E+02  0.30204127105E+02  0.90601328103E+02  0.47000000000E+01 0.  1.
         -5    1    4    4    0  502  0.23676845389E+02  0.60389980790E+02  0.25727834796E+02  0.69939647345E+02  0.47000000000E+01 0.  1.
<mgrwt>
<rscale>  0 0.10015206E+04</rscale>
<asrwt>0</asrwt>
<pdfrwt beam="1">  1        1 0.26519937E-01 0.10015206E+04</pdfrwt>
<pdfrwt beam="2">  1       -1 0.22380024E+00 0.10015206E+04</pdfrwt>
<totfact> 0.17534504E+01</totfact>
</mgrwt>
</event>
<event>
 9    1  0.4236486E-036  0.1001973E+04  0.7818608E-02  0.8679161E-01
         -2   -1    0    0    0  501 -0.00000000000E+00  0.00000000000E+00  0.12295684530E+03  0.12295684530E+03  0.00000000000E+00 0.  1.
          2   -1    0    0  501    0  0.00000000000E+00 -0.00000000000E+00 -0.20412642084E+04  0.20412642084E+04  0.00000000000E+00 0.  1.
         36    2    1    2    0    0 -0.71054273576E-13  0.71054273576E-14 -0.19183073631E+04  0.21642210538E+04  0.10019728689E+04 0.  0.
         25    2    3    3    0    0 -0.12030954083E+03  0.21238517100E+02 -0.51326663321E+03  0.54262080606E+03  0.12676451467E+03 0.  0.
         35    2    3    3    0    0  0.12030954083E+03 -0.21238517100E+02 -0.14050407299E+04  0.16216002477E+04  0.80032646483E+03 0.  0.
         22    1    5    5    0    0 -0.27827746445E+03 -0.22838810492E+03 -0.59995192149E+03  0.69967262473E+03  0.00000000000E+00 0.  1.
         22    1    5    5    0    0  0.39858700528E+03  0.20714958782E+03 -0.80508880844E+03  0.92192762296E+03  0.00000000000E+00 0.  1.
          5    1    4    4  502    0 -0.30259256811E+02 -0.51205223652E+02 -0.19858875054E+03  0.20735761234E+03  0.47000000000E+01 0. -1.
         -5    1    4    4    0  502 -0.90050284019E+02  0.72443740752E+02 -0.31467788267E+03  0.33526319373E+03  0.47000000000E+01 0. -1.
<mgrwt>
<rscale>  0 0.10019729E+04</rscale>
<asrwt>0</asrwt>
<pdfrwt beam="1">  1        2 0.31404065E+00 0.10019729E+04</pdfrwt>
<pdfrwt beam="2">  1       -2 0.18916437E-01 0.10019729E+04</pdfrwt>
<totfact> 0.17479116E+02</totfact>
</mgrwt>
</event>
<event>
 9    1  0.4236486E-036  0.1000813E+04  0.7818608E-02  0.8680264E-01
         -1   -1    0    0    0  501 -0.00000000000E+00  0.00000000000E+00  0.16329658677E+04  0.16329658677E+04  0.00000000000E+00 0. -1.
          1   -1    0    0  501    0  0.00000000000E+00 -0.00000000000E+00 -0.15334466787E+03  0.15334466787E+03  0.00000000000E+00 0. -1.
         36    2    1    2    0    0  0.35527136788E-14 -0.42632564146E-13  0.14796211998E+04  0.17863105355E+04  0.10008128869E+04 0.  0.
         25    2    3    3    0    0 -0.15892199255E+02  0.10475431782E+03  0.11307198573E+03  0.19912012025E+03  0.12505006690E+03 0.  0.
         35    2    3    3    0    0  0.15892199255E+02 -0.10475431782E+03  0.13665492141E+04  0.15871904153E+04  0.80030658552E+03 0.  0.
         22    1    5    5    0    0  0.51151467252E+02  0.30652106290E+03  0.95503681627E+03  0.10043241285E+04  0.00000000000E+00 0. -1.
         22    1    5    5    0    0 -0.35259267997E+02 -0.41127538072E+03  0.41151239780E+03  0.58286628682E+03  0.00000000000E+00 0. -1.
          5    1    4    4  502    0 -0.31199160060E+02  0.99707132584E+02  0.22458405950E+02  0.10696433926E+03  0.47000000000E+01 0.  1.
         -5    1    4    4    0  502  0.15306960805E+02  0.50471852314E+01  0.90613579784E+02  0.92155780986E+02  0.47000000000E+01 0.  1.
<mgrwt>
<rscale>  0 0.10008129E+04</rscale>
<asrwt>0</asrwt>
<pdfrwt beam="1">  1        1 0.23591488E-01 0.10008129E+04</pdfrwt>
<pdfrwt beam="2">  1       -1 0.25122551E+00 0.10008129E+04</pdfrwt>
<totfact> 0.11513094E+01</totfact>
</mgrwt>
</event>
<event>
 9    1  0.4236486E-036  0.1000785E+04  0.7818608E-02  0.8680291E-01
          2   -1    0    0  501    0  0.00000000000E+00  0.00000000000E+00  0.25596289598E+03  0.25596289598E+03  0.00000000000E+00 0. -1.
         -2   -1    0    0    0  501 -0.00000000000E+00 -0.00000000000E+00 -0.97823753319E+03  0.97823753319E+03  0.00000000000E+00 0. -1.
         36    2    1    2    0    0  0.00000000000E+00 -0.71054273576E-14 -0.72227463721E+03  0.12342004292E+04  0.10007847160E+04 0.  0.
         25    2    3    3    0    0  0.10677283152E+03  0.30905284323E+02 -0.24315106654E+03  0.29538918040E+03  0.12560554361E+03 0.  0.
         35    2    3    3    0    0 -0.10677283152E+03 -0.30905284323E+02 -0.47912357067E+03  0.93881124877E+03  0.79965717072E+03 0.  0.
         22    1    5    5    0    0  0.39034022450E+02 -0.23526893873E+03  0.13592467032E+03  0.27450071847E+03  0.00000000000E+00 0.  1.
         22    1    5    5    0    0 -0.14580685397E+03  0.20436365441E+03 -0.61504824099E+03  0.66431053029E+03  0.00000000000E+00 0.  1.
          5    1    4    4  502    0  0.47600367882E+01  0.52201227390E+01 -0.16257449215E+03  0.16279577123E+03  0.47000000000E+01 0.  1.
         -5    1    4    4    0  502  0.10201279473E+03  0.25685161584E+02 -0.80576574385E+02  0.13259340917E+03  0.47000000000E+01 0.  1.
<mgrwt>
<rscale>  0 0.10007847E+04</rscale>
<asrwt>0</asrwt>
<pdfrwt beam="1">  1        2 0.39378906E-01 0.10007847E+04</pdfrwt>
<pdfrwt beam="2">  1       -2 0.15049808E+00 0.10007847E+04</pdfrwt>
<totfact> 0.44062618E+01</totfact>
</mgrwt>
</event>
<event>
 9    1  0.4236486E-036  0.9981772E+03  0.7818608E-02  0.8682776E-01
         -1   -1    0    0    0  501 -0.00000000000E+00  0.00000000000E+00  0.41598414975E+03  0.41598414975E+03  0.00000000000E+00 0. -1.
          1   -1    0    0  501    0  0.00000000000E+00 -0.00000000000E+00 -0.59879542654E+03  0.59879542654E+03  0.00000000000E+00 0. -1.
         36    2    1    2    0    0  0.00000000000E+00  0.00000000000E+00 -0.18281127679E+03  0.10147795763E+04  0.99817715139E+03 0.  0.
         25    2    3    3    0    0 -0.34104335935E+02  0.12035666511E+03  0.28700971087E+02  0.17866245137E+03  0.12428874938E+03 0.  0.
         35    2    3    3    0    0  0.34104335935E+02 -0.12035666511E+03 -0.21151224787E+03  0.83611712493E+03  0.79919057992E+03 0.  0.
         22    1    5    5    0    0  0.23288338868E+03  0.27340320541E+02  0.23091591610E+03  0.32909622629E+03  0.00000000000E+00 0.  1.
         22    1    5    5    0    0 -0.19877905275E+03 -0.14769698565E+03 -0.44242816397E+03  0.50702089864E+03  0.00000000000E+00 0.  1.
          5    1    4    4  502    0 -0.78934764926E+02  0.61600148878E+02  0.29888169025E+02  0.10459764865E+03  0.47000000000E+01 0.  1.
         -5    1    4    4    0  502  0.44830428991E+02  0.58756516230E+02 -0.11871979383E+01  0.74064802720E+02  0.47000000000E+01 0.  1.
<mgrwt>
<rscale>  0 0.99817715E+03</rscale>
<asrwt>0</asrwt>
<pdfrwt beam="1">  1        1 0.92122374E-01 0.99817715E+03</pdfrwt>
<pdfrwt beam="2">  1       -1 0.63997561E-01 0.99817715E+03</pdfrwt>
<totfact> 0.98989225E+01</totfact>
</mgrwt>
</event>
<event>
 9    1  0.4236486E-036  0.1000673E+04  0.7818608E-02  0.8680397E-01
         -2   -1    0    0    0  501 -0.00000000000E+00  0.00000000000E+00  0.36748405233E+03  0.36748405233E+03  0.00000000000E+00 0. -1.
          2   -1    0    0  501    0  0.00000000000E+00 -0.00000000000E+00 -0.68121786399E+03  0.68121786399E+03  0.00000000000E+00 0. -1.
         36    2    1    2    0    0  0.14210854715E-13 -0.71054273576E-14 -0.31373381166E+03  0.10487019163E+04  0.10006731758E+04 0.  0.
         25    2    3    3    0    0 -0.12365762286E+03  0.19843782886E+02 -0.12552617308E+03  0.21783964016E+03  0.12653973798E+03 0.  0.
         35    2    3    3    0    0  0.12365762286E+03 -0.19843782886E+02 -0.18820763857E+03  0.83086227616E+03  0.79951549285E+03 0.  0.
         22    1    5    5    0    0  0.17672811627E+03 -0.39299033037E+03 -0.75448556328E+02  0.43745481080E+03  0.00000000000E+00 0. -1.
         22    1    5    5    0    0 -0.53070493415E+02  0.37314654748E+03 -0.11275908225E+03  0.39340746535E+03  0.00000000000E+00 0. -1.
          5    1    4    4  502    0 -0.10566419705E+02  0.28774264428E+02  0.17198834944E+02  0.35461210388E+02  0.47000000000E+01 0.  1.
         -5    1    4    4    0  502 -0.11309120315E+03 -0.89304815424E+01 -0.14272500803E+03  0.18237842977E+03  0.47000000000E+01 0.  1.
<mgrwt>
<rscale>  0 0.10006732E+04</rscale>
<asrwt>0</asrwt>
<pdfrwt beam="1">  1        2 0.10480275E+00 0.10006732E+04</pdfrwt>
<pdfrwt beam="2">  1       -2 0.56536008E-01 0.10006732E+04</pdfrwt>
<totfact> 0.15062665E+02</totfact>
</mgrwt>
</event>
<event>
 9    1  0.4236486E-036  0.9992427E+03  0.7818608E-02  0.8681759E-01
          2   -1    0    0  501    0  0.00000000000E+00  0.00000000000E+00  0.31219982343E+03  0.31219982343E+03  0.00000000000E+00 0. -1.
         -2   -1    0    0    0  501 -0.00000000000E+00 -0.00000000000E+00 -0.79955675856E+03  0.79955675856E+03  0.00000000000E+00 0. -1.
         36    2    1    2    0    0  0.00000000000E+00  0.00000000000E+00 -0.48735693513E+03  0.11117565820E+04  0.99924267091E+03 0.  0.
         25    2    3    3    0    0  0.36293582207E+02  0.13280657077E+03 -0.10768438755E+03  0.21522241762E+03  0.12557847098E+03 0.  0.
         35    2    3    3    0    0 -0.36293582207E+02 -0.13280657077E+03 -0.37967254758E+03  0.89653416437E+03  0.80041705075E+03 0.  0.
         22    1    5    5    0    0 -0.21139103508E+02 -0.32933765463E+03  0.12642713379E+03  0.35340341341E+03  0.00000000000E+00 0.  1.
         22    1    5    5    0    0 -0.15154478699E+02  0.19653108386E+03 -0.50609968137E+03  0.54313075095E+03  0.00000000000E+00 0.  1.
          5    1    4    4  502    0  0.44614720141E+02  0.15543202485E+03 -0.94169654129E+02  0.18718867851E+03  0.47000000000E+01 0.  1.
         -5    1    4    4    0  502 -0.83211379343E+01 -0.22625454083E+02 -0.13514733421E+02  0.28033739109E+02  0.47000000000E+01 0.  1.
<mgrwt>
<rscale>  0 0.99924267E+03</rscale>
<asrwt>0</asrwt>
<pdfrwt beam="1">  1        2 0.48030742E-01 0.99924267E+03</pdfrwt>
<pdfrwt beam="2">  1       -2 0.12300873E+00 0.99924267E+03</pdfrwt>
<totfact> 0.60946262E+01</totfact>
</mgrwt>
</event>
<event>
 9    1  0.4236486E-036  0.1000026E+04  0.7818608E-02  0.8681013E-01
          2   -1    0    0  501    0  0.00000000000E+00  0.00000000000E+00  0.32830811721E+04  0.32830811721E+04  0.00000000000E+00 0. -1.
         -2   -1    0    0    0  501 -0.00000000000E+00 -0.00000000000E+00 -0.76151912876E+02  0.76151912876E+02  0.00000000000E+00 0. -1.
         36    2    1    2    0    0  0.28421709430E-13  0.35527136788E-14  0.32069292592E+04  0.33592330850E+04  0.10000258224E+04 0.  0.
         25    2    3    3    0    0 -0.86384142412E+02  0.24601659406E+02  0.24092161865E+03  0.28598577150E+03  0.12520851992E+03 0.  0.
         35    2    3    3    0    0  0.86384142412E+02 -0.24601659406E+02  0.29660076406E+04  0.30732473135E+04  0.79973762208E+03 0.  0.
         22    1    5    5    0    0  0.21123455633E+03 -0.26036623602E+02  0.16459320555E+03  0.26905179217E+03  0.00000000000E+00 0. -1.
         22    1    5    5    0    0 -0.12485041392E+03  0.14349641963E+01  0.28014144350E+04  0.28041955213E+04  0.00000000000E+00 0. -1.
          5    1    4    4  502    0 -0.28508889239E+02  0.72334980767E+02  0.13910810367E+03  0.15943105317E+03  0.47000000000E+01 0. -1.
         -5    1    4    4    0  502 -0.57875253173E+02 -0.47733321362E+02  0.10181351498E+03  0.12655471833E+03  0.47000000000E+01 0. -1.
<mgrwt>
<rscale>  0 0.10000258E+04</rscale>
<asrwt>0</asrwt>
<pdfrwt beam="1">  1        2 0.50508930E+00 0.10000258E+04</pdfrwt>
<pdfrwt beam="2">  1       -2 0.11715681E-01 0.10000258E+04</pdfrwt>
<totfact> 0.64313092E+01</totfact>
</mgrwt>
</event>
<event>
 9    1  0.4236486E-036  0.1000506E+04  0.7818608E-02  0.8680557E-01
         -4   -1    0    0    0  501 -0.00000000000E+00  0.00000000000E+00  0.73534667160E+03  0.73534667160E+03  0.00000000000E+00 0. -1.
          4   -1    0    0  501    0  0.00000000000E+00 -0.00000000000E+00 -0.34031950553E+03  0.34031950553E+03  0.00000000000E+00 0. -1.
         36    2    1    2    0    0  0.00000000000E+00 -0.28421709430E-13  0.39502716606E+03  0.10756661771E+04  0.10005055036E+04 0.  0.
         25    2    3    3    0    0 -0.99810355284E+02 -0.86852043312E+02  0.24136493774E+02  0.18348248067E+03  0.12481132133E+03 0.  0.
         35    2    3    3    0    0  0.99810355284E+02  0.86852043312E+02  0.37089067229E+03  0.89218369646E+03  0.80057883621E+03 0.  0.
         22    1    5    5    0    0 -0.15152375072E+03  0.38782436636E+03  0.15297908494E+03  0.44358740582E+03  0.00000000000E+00 0.  1.
         22    1    5    5    0    0  0.25133410600E+03 -0.30097232304E+03  0.21791158734E+03  0.44859629064E+03  0.00000000000E+00 0.  1.
          5    1    4    4  502    0 -0.29644037138E+02 -0.63142143735E+02  0.67790412433E+02  0.97382386863E+02  0.47000000000E+01 0.  1.
         -5    1    4    4    0  502 -0.70166318145E+02 -0.23709899577E+02 -0.43653918659E+02  0.86100093811E+02  0.47000000000E+01 0.  1.
<mgrwt>
<rscale>  0 0.10005055E+04</rscale>
<asrwt>0</asrwt>
<pdfrwt beam="1">  1        4 0.52356847E-01 0.10005055E+04</pdfrwt>
<pdfrwt beam="2">  1       -4 0.11313026E+00 0.10005055E+04</pdfrwt>
<totfact> 0.47034415E+00</totfact>
</mgrwt>
</event>
<event>
 9    1  0.4236486E-036  0.9990692E+03  0.7818608E-02  0.8681925E-01
          2   -1    0    0  501    0  0.00000000000E+00  0.00000000000E+00  0.73886907190E+03  0.73886907190E+03  0.00000000000E+00 0.  1.
         -2   -1    0    0    0  501 -0.00000000000E+00 -0.00000000000E+00 -0.33772534677E+03  0.33772534677E+03  0.00000000000E+00 0.  1.
         36    2    1    2    0    0 -0.14210854715E-13  0.14210854715E-13  0.40114372514E+03  0.10765944187E+04  0.99906919385E+03 0.  0.
         25    2    3    3    0    0 -0.12630637974E+03 -0.29310145833E+02  0.12565908943E+03  0.21880092265E+03  0.12357690231E+03 0.  0.
         35    2    3    3    0    0  0.12630637974E+03  0.29310145833E+02  0.27548463571E+03  0.85779349602E+03  0.80193859558E+03 0.  0.
         22    1    5    5    0    0 -0.17564909086E+03  0.19453777272E+03 -0.15663570895E+03  0.30533963624E+03  0.00000000000E+00 0.  1.
         22    1    5    5    0    0  0.30195547060E+03 -0.16522762689E+03  0.43212034466E+03  0.55245385978E+03  0.00000000000E+00 0.  1.
          5    1    4    4  502    0  0.23879582769E+02 -0.89703168307E+01  0.29357195790E+02  0.39174430460E+02  0.47000000000E+01 0.  1.
         -5    1    4    4    0  502 -0.15018596251E+03 -0.20339829002E+02  0.96301893639E+02  0.17962649219E+03  0.47000000000E+01 0.  1.
<mgrwt>
<rscale>  0 0.99906919E+03</rscale>
<asrwt>0</asrwt>
<pdfrwt beam="1">  1        2 0.11367216E+00 0.99906919E+03</pdfrwt>
<pdfrwt beam="2">  1       -2 0.51957746E-01 0.99906919E+03</pdfrwt>
<totfact> 0.16185461E+02</totfact>
</mgrwt>
</event>
<event>
 9    1  0.4236486E-036  0.9993603E+03  0.7818608E-02  0.8681647E-01
          2   -1    0    0  501    0  0.00000000000E+00  0.00000000000E+00  0.10804752908E+04  0.10804752908E+04  0.00000000000E+00 0.  1.
         -2   -1    0    0    0  501 -0.00000000000E+00 -0.00000000000E+00 -0.23108373992E+03  0.23108373992E+03  0.00000000000E+00 0.  1.
         36    2    1    2    0    0  0.14210854715E-13 -0.28421709430E-13  0.84939155090E+03  0.13115590307E+04  0.99936033759E+03 0.  0.
         25    2    3    3    0    0 -0.34585979362E+02  0.13620929656E+03  0.16958560410E+03  0.25286523007E+03  0.12422715091E+03 0.  0.
         35    2    3    3    0    0  0.34585979362E+02 -0.13620929656E+03  0.67980594680E+03  0.10586938007E+04  0.79934177660E+03 0.  0.
         22    1    5    5    0    0 -0.11199837897E+03 -0.45072497953E+03  0.37827986760E+03  0.59899273977E+03  0.00000000000E+00 0.  1.
         22    1    5    5    0    0  0.14658435834E+03  0.31451568298E+03  0.30152607920E+03  0.45970106089E+03  0.00000000000E+00 0.  1.
          5    1    4    4  502    0 -0.21393165146E+02  0.15824715202E+03  0.15657866431E+03  0.22369353311E+03  0.47000000000E+01 0.  1.
         -5    1    4    4    0  502 -0.13192814216E+02 -0.22037855469E+02  0.13006939796E+02  0.29171696959E+02  0.47000000000E+01 0.  1.
<mgrwt>
<rscale>  0 0.99936034E+03</rscale>
<asrwt>0</asrwt>
<pdfrwt beam="1">  1        2 0.16622696E+00 0.99936034E+03</pdfrwt>
<pdfrwt beam="2">  1       -2 0.35551345E-01 0.99936034E+03</pdfrwt>
<totfact> 0.20104446E+02</totfact>
</mgrwt>
</event>
<event>
 9    1  0.4236486E-036  0.1001506E+04  0.7818608E-02  0.8679605E-01
         -2   -1    0    0    0  501 -0.00000000000E+00  0.00000000000E+00  0.13327581389E+03  0.13327581389E+03  0.00000000000E+00 0. -1.
          2   -1    0    0  501    0  0.00000000000E+00 -0.00000000000E+00 -0.18814632765E+04  0.18814632765E+04  0.00000000000E+00 0. -1.
         36    2    1    2    0    0  0.28421709430E-13  0.28421709430E-13 -0.17481874626E+04  0.20147390904E+04  0.10015059650E+04 0.  0.
         25    2    3    3    0    0 -0.10462065004E+03  0.68501320177E+02 -0.46636597758E+03  0.49881793136E+03  0.12523654547E+03 0.  0.
         35    2    3    3    0    0  0.10462065004E+03 -0.68501320177E+02 -0.12818214851E+04  0.15159211591E+04  0.79957034065E+03 0.  0.
         22    1    5    5    0    0 -0.24390943698E+03 -0.26028250934E+03 -0.88431532534E+03  0.95354726823E+03  0.00000000000E+00 0. -1.
         22    1    5    5    0    0  0.34853008701E+03  0.19178118916E+03 -0.39750615971E+03  0.56237389082E+03  0.00000000000E+00 0. -1.
          5    1    4    4  502    0 -0.62222668265E+02  0.10264940757E+03 -0.35489487257E+03  0.37467455464E+03  0.47000000000E+01 0. -1.
         -5    1    4    4    0  502 -0.42397981773E+02 -0.34148087390E+02 -0.11147110501E+03  0.12414337672E+03  0.47000000000E+01 0. -1.
<mgrwt>
<rscale>  0 0.10015060E+04</rscale>
<asrwt>0</asrwt>
<pdfrwt beam="1">  1        2 0.28945587E+00 0.10015060E+04</pdfrwt>
<pdfrwt beam="2">  1       -2 0.20503973E-01 0.10015060E+04</pdfrwt>
<totfact> 0.18746792E+02</totfact>
</mgrwt>
</event>
<event>
 9    1  0.4236486E-036  0.1000395E+04  0.7818608E-02  0.8680662E-01
          2   -1    0    0  501    0  0.00000000000E+00  0.00000000000E+00  0.56152880894E+03  0.56152880894E+03  0.00000000000E+00 0. -1.
         -2   -1    0    0    0  501 -0.00000000000E+00 -0.00000000000E+00 -0.44556473514E+03  0.44556473514E+03  0.00000000000E+00 0. -1.
         36    2    1    2    0    0 -0.14210854715E-13  0.28421709430E-13  0.11596407380E+03  0.10070935441E+04  0.10003947921E+04 0.  0.
         25    2    3    3    0    0  0.59547658468E+02  0.10081127222E+03 -0.56959506796E+02  0.18089054930E+03  0.12557137084E+03 0.  0.
         35    2    3    3    0    0 -0.59547658468E+02 -0.10081127222E+03  0.17292358060E+03  0.82620299478E+03  0.79937474793E+03 0.  0.
         22    1    5    5    0    0 -0.17565356541E+03  0.58667559632E+01 -0.28892544018E+03  0.33818117016E+03  0.00000000000E+00 0. -1.
         22    1    5    5    0    0  0.11610590694E+03 -0.10667802819E+03  0.46184902077E+03  0.48802182463E+03  0.00000000000E+00 0. -1.
          5    1    4    4  502    0  0.46605037576E+02 -0.55750079045E+01  0.17493745279E+02  0.50311344292E+02  0.47000000000E+01 0.  1.
         -5    1    4    4    0  502  0.12942620892E+02  0.10638628013E+03 -0.74453252074E+02  0.13057920500E+03  0.47000000000E+01 0.  1.
<mgrwt>
<rscale>  0 0.10003948E+04</rscale>
<asrwt>0</asrwt>
<pdfrwt beam="1">  1        2 0.86389048E-01 0.10003948E+04</pdfrwt>
<pdfrwt beam="2">  1       -2 0.68548421E-01 0.10003948E+04</pdfrwt>
<totfact> 0.12642750E+02</totfact>
</mgrwt>
</event>
<event>
 9    1  0.4236486E-036  0.1000312E+04  0.7818608E-02  0.8680741E-01
         -2   -1    0    0    0  501 -0.00000000000E+00  0.00000000000E+00  0.20137640146E+03  0.20137640146E+03  0.00000000000E+00 0. -1.
          2   -1    0    0  501    0  0.00000000000E+00 -0.00000000000E+00 -0.12422313635E+04  0.12422313635E+04  0.00000000000E+00 0. -1.
         36    2    1    2    0    0  0.71054273576E-14  0.28421709430E-13 -0.10408549620E+04  0.14436077649E+04  0.10003121148E+04 0.  0.
         25    2    3    3    0    0 -0.52106893283E+01  0.13792206637E+03 -0.16007602244E+03  0.24609579142E+03  0.12605220315E+03 0.  0.
         35    2    3    3    0    0  0.52106893283E+01 -0.13792206637E+03 -0.88077893955E+03  0.11975119735E+04  0.79950843562E+03 0.  0.
         22    1    5    5    0    0  0.22070893032E+03  0.82408152706E+02  0.28605261673E+02  0.23732213667E+03  0.00000000000E+00 0. -1.
         22    1    5    5    0    0 -0.21549824100E+03 -0.22033021908E+03 -0.90938420122E+03  0.96018983682E+03  0.00000000000E+00 0. -1.
          5    1    4    4  502    0  0.44198309816E+02  0.74522990351E+01 -0.56511094555E+02  0.72281540930E+02  0.47000000000E+01 0. -1.
         -5    1    4    4    0  502 -0.49408999144E+02  0.13046976734E+03 -0.10356492789E+03  0.17381425049E+03  0.47000000000E+01 0. -1.
<mgrwt>
<rscale>  0 0.10003121E+04</rscale>
<asrwt>0</asrwt>
<pdfrwt beam="1">  1        2 0.19111252E+00 0.10003121E+04</pdfrwt>
<pdfrwt beam="2">  1       -2 0.30980985E-01 0.10003121E+04</pdfrwt>
<totfact> 0.20764133E+02</totfact>
</mgrwt>
</event>
<event>
 9    1  0.4236486E-036  0.1001699E+04  0.7818608E-02  0.8679422E-01
         -2   -1    0    0    0  501 -0.00000000000E+00  0.00000000000E+00  0.20652924378E+03  0.20652924378E+03  0.00000000000E+00 0.  1.
          2   -1    0    0  501    0  0.00000000000E+00 -0.00000000000E+00 -0.12145980784E+04  0.12145980784E+04  0.00000000000E+00 0.  1.
         36    2    1    2    0    0 -0.28421709430E-13  0.14210854715E-13 -0.10080688346E+04  0.14211273222E+04  0.10016986026E+04 0.  0.
         25    2    3    3    0    0  0.39402500074E+02 -0.99671838285E+02 -0.32019568740E+03  0.36021665740E+03  0.12547401995E+03 0.  0.
         35    2    3    3    0    0 -0.39402500074E+02  0.99671838285E+02 -0.68787314723E+03  0.10609106648E+04  0.80054665049E+03 0.  0.
         22    1    5    5    0    0  0.21025672994E+03  0.89326189789E+02 -0.76581612845E+03  0.79916293912E+03  0.00000000000E+00 0.  1.
         22    1    5    5    0    0 -0.24965923001E+03  0.10345648497E+02  0.77942981218E+02  0.26174772567E+03  0.00000000000E+00 0.  1.
          5    1    4    4  502    0  0.66572478337E+02 -0.96985129397E+02 -0.30839799441E+03  0.33010516984E+03  0.47000000000E+01 0. -1.
         -5    1    4    4    0  502 -0.27169978263E+02 -0.26867088887E+01 -0.11797692985E+02  0.30111487563E+02  0.47000000000E+01 0. -1.
<mgrwt>
<rscale>  0 0.10016986E+04</rscale>
<asrwt>0</asrwt>
<pdfrwt beam="1">  1        2 0.18686124E+00 0.10016986E+04</pdfrwt>
<pdfrwt beam="2">  1       -2 0.31773730E-01 0.10016986E+04</pdfrwt>
<totfact> 0.20578430E+02</totfact>
</mgrwt>
</event>
<event>
 9    1  0.4236486E-036  0.1000275E+04  0.7818608E-02  0.8680777E-01
          1   -1    0    0  501    0  0.00000000000E+00  0.00000000000E+00  0.15455419628E+04  0.15455419628E+04  0.00000000000E+00 0.  1.
         -1   -1    0    0    0  501 -0.00000000000E+00 -0.00000000000E+00 -0.16184438798E+03  0.16184438798E+03  0.00000000000E+00 0.  1.
         36    2    1    2    0    0  0.17763568394E-13 -0.56843418861E-13  0.13836975749E+04  0.17073863508E+04  0.10002745485E+04 0.  0.
         25    2    3    3    0    0 -0.95808781959E+01  0.12998890941E+03  0.35059723021E+03  0.39420961153E+03  0.12447445601E+03 0.  0.
         35    2    3    3    0    0  0.95808781959E+01 -0.12998890941E+03  0.10331003447E+04  0.13131767393E+04  0.80009244259E+03 0.  0.
         22    1    5    5    0    0 -0.21768265331E+03 -0.37620042701E+03  0.37234996294E+03  0.57232595061E+03  0.00000000000E+00 0.  1.
         22    1    5    5    0    0  0.22726353151E+03  0.24621151760E+03  0.66075038172E+03  0.74085078869E+03  0.00000000000E+00 0.  1.
          5    1    4    4  502    0  0.20197886326E+02  0.74049998909E+02  0.62231358982E+02  0.98925168643E+02  0.47000000000E+01 0. -1.
         -5    1    4    4    0  502 -0.29778764522E+02  0.55938910500E+02  0.28836587123E+03  0.29528444289E+03  0.47000000000E+01 0. -1.
<mgrwt>
<rscale>  0 0.10002745E+04</rscale>
<asrwt>0</asrwt>
<pdfrwt beam="1">  1        1 0.23777568E+00 0.10002745E+04</pdfrwt>
<pdfrwt beam="2">  1       -1 0.24899138E-01 0.10002745E+04</pdfrwt>
<totfact> 0.92351275E+01</totfact>
</mgrwt>
</event>
<event>
 9    1  0.4236486E-036  0.1001897E+04  0.7818608E-02  0.8679233E-01
          1   -1    0    0  501    0  0.00000000000E+00  0.00000000000E+00  0.38921685645E+03  0.38921685645E+03  0.00000000000E+00 0. -1.
         -1   -1    0    0    0  501 -0.00000000000E+00 -0.00000000000E+00 -0.64475531533E+03  0.64475531533E+03  0.00000000000E+00 0. -1.
         36    2    1    2    0    0  0.00000000000E+00  0.00000000000E+00 -0.25553845888E+03  0.10339721718E+04  0.10018974738E+04 0.  0.
         25    2    3    3    0    0 -0.91499274694E+02  0.66361313175E+02 -0.13711927637E+03  0.21729033567E+03  0.12504980155E+03 0.  0.
         35    2    3    3    0    0  0.91499274694E+02 -0.66361313175E+02 -0.11841918251E+03  0.81668183610E+03  0.80010635385E+03 0.  0.
         22    1    5    5    0    0 -0.23822517012E+03 -0.10179889650E+03  0.22219268191E+03  0.34129728229E+03  0.00000000000E+00 0.  1.
         22    1    5    5    0    0  0.32972444481E+03  0.35437583321E+02 -0.34061186442E+03  0.47538455381E+03  0.00000000000E+00 0.  1.
          5    1    4    4  502    0 -0.60525371467E+02  0.10147436639E+03 -0.11622345216E+03  0.16580213647E+03  0.47000000000E+01 0.  1.
         -5    1    4    4    0  502 -0.30973903227E+02 -0.35113053218E+02 -0.20895824209E+02  0.51488199199E+02  0.47000000000E+01 0.  1.
<mgrwt>
<rscale>  0 0.10018975E+04</rscale>
<asrwt>0</asrwt>
<pdfrwt beam="1">  1        1 0.59879517E-01 0.10018975E+04</pdfrwt>
<pdfrwt beam="2">  1       -1 0.99193124E-01 0.10018975E+04</pdfrwt>
<totfact> 0.72332824E+01</totfact>
</mgrwt>
</event>
<event>
 9    1  0.4236486E-036  0.1000108E+04  0.7818608E-02  0.8680935E-01
         -2   -1    0    0    0  501 -0.00000000000E+00  0.00000000000E+00  0.17857948796E+03  0.17857948796E+03  0.00000000000E+00 0.  1.
          2   -1    0    0  501    0  0.00000000000E+00 -0.00000000000E+00 -0.14002397816E+04  0.14002397816E+04  0.00000000000E+00 0.  1.
         36    2    1    2    0    0  0.00000000000E+00  0.00000000000E+00 -0.12216602937E+04  0.15788192696E+04  0.10001082006E+04 0.  0.
         25    2    3    3    0    0 -0.57050604231E+02  0.91508114583E+02 -0.37559871515E+03  0.40966018347E+03  0.12295757242E+03 0.  0.
         35    2    3    3    0    0  0.57050604231E+02 -0.91508114583E+02 -0.84606157850E+03  0.11691590861E+04  0.79967760226E+03 0.  0.
         22    1    5    5    0    0 -0.16798140955E+03 -0.98384451045E+01 -0.90671874143E+03  0.92220031719E+03  0.00000000000E+00 0. -1.
         22    1    5    5    0    0  0.22503201378E+03 -0.81669669479E+02  0.60657162929E+02  0.24695876893E+03  0.00000000000E+00 0. -1.
          5    1    4    4  502    0  0.35828538718E+02  0.48761033626E+02 -0.12459703205E+03  0.13859232657E+03  0.47000000000E+01 0.  1.
         -5    1    4    4    0  502 -0.92879142948E+02  0.42747080958E+02 -0.25100168310E+03  0.27106785690E+03  0.47000000000E+01 0.  1.
<mgrwt>
<rscale>  0 0.10001082E+04</rscale>
<asrwt>0</asrwt>
<pdfrwt beam="1">  1        2 0.21542150E+00 0.10001082E+04</pdfrwt>
<pdfrwt beam="2">  1       -2 0.27473768E-01 0.10001082E+04</pdfrwt>
<totfact> 0.20925644E+02</totfact>
</mgrwt>
</event>
<event>
 9    1  0.4236486E-036  0.1000648E+04  0.7818608E-02  0.8680421E-01
          1   -1    0    0  501    0  0.00000000000E+00  0.00000000000E+00  0.11940355157E+04  0.11940355157E+04  0.00000000000E+00 0. -1.
         -1   -1    0    0    0  501 -0.00000000000E+00 -0.00000000000E+00 -0.20964534318E+03  0.20964534318E+03  0.00000000000E+00 0. -1.
         36    2    1    2    0    0  0.35527136788E-14  0.00000000000E+00  0.98439017254E+03  0.14036808589E+04  0.10006477611E+04 0.  0.
         25    2    3    3    0    0 -0.30234613391E+02  0.13788838219E+03  0.16075291930E+03  0.24712294741E+03  0.12369685641E+03 0.  0.
         35    2    3    3    0    0  0.30234613391E+02 -0.13788838219E+03  0.82363725324E+03  0.11565579115E+04  0.79957522468E+03 0.  0.
         22    1    5    5    0    0  0.30841516735E+03 -0.50724210099E+02  0.80603012026E+03  0.86450992806E+03  0.00000000000E+00 0. -1.
         22    1    5    5    0    0 -0.27818055396E+03 -0.87164172088E+02  0.17607132981E+02  0.29204798343E+03  0.00000000000E+00 0. -1.
          5    1    4    4  502    0 -0.57568279025E+02  0.18635016848E+02  0.29001983734E+02  0.67264966092E+02  0.47000000000E+01 0.  1.
         -5    1    4    4    0  502  0.27333665635E+02  0.11925336534E+03  0.13175093557E+03  0.17985798132E+03  0.47000000000E+01 0.  1.
<mgrwt>
<rscale>  0 0.10006478E+04</rscale>
<asrwt>0</asrwt>
<pdfrwt beam="1">  1        1 0.18369777E+00 0.10006478E+04</pdfrwt>
<pdfrwt beam="2">  1       -1 0.32253130E-01 0.10006478E+04</pdfrwt>
<totfact> 0.10688340E+02</totfact>
</mgrwt>
</event>
<event>
 9    1  0.4236486E-036  0.9997816E+03  0.7818608E-02  0.8681246E-01
         -2   -1    0    0    0  501 -0.00000000000E+00  0.00000000000E+00  0.18994247582E+03  0.18994247582E+03  0.00000000000E+00 0. -1.
          2   -1    0    0  501    0  0.00000000000E+00 -0.00000000000E+00 -0.13156129977E+04  0.13156129977E+04  0.00000000000E+00 0. -1.
         36    2    1    2    0    0  0.14210854715E-13 -0.28421709430E-13 -0.11256705218E+04  0.15055554735E+04  0.99978155612E+03 0.  0.
         25    2    3    3    0    0  0.14841451771E+02  0.13944152838E+03 -0.22039682772E+03  0.28972049966E+03  0.12529564129E+03 0.  0.
         35    2    3    3    0    0 -0.14841451771E+02 -0.13944152838E+03 -0.90527369413E+03  0.12158349738E+04  0.79941854729E+03 0.  0.
         22    1    5    5    0    0 -0.11047959397E+03 -0.41648465483E+03 -0.25038746908E+03  0.49835639162E+03  0.00000000000E+00 0.  1.
         22    1    5    5    0    0  0.95638142199E+02  0.27704312645E+03 -0.65488622505E+03  0.71747858220E+03  0.00000000000E+00 0.  1.
          5    1    4    4  502    0  0.26709328300E+02  0.15790936309E+02 -0.13574808039E+03  0.13932829295E+03  0.47000000000E+01 0.  1.
         -5    1    4    4    0  502 -0.11867876530E+02  0.12365059207E+03 -0.84648747329E+02  0.15039220671E+03  0.47000000000E+01 0.  1.
<mgrwt>
<rscale>  0 0.99978156E+03</rscale>
<asrwt>0</asrwt>
<pdfrwt beam="1">  1        2 0.20240200E+00 0.99978156E+03</pdfrwt>
<pdfrwt beam="2">  1       -2 0.29221919E-01 0.99978156E+03</pdfrwt>
<totfact> 0.20935860E+02</totfact>
</mgrwt>
</event>
<event>
 9    1  0.4236486E-036  0.1000037E+04  0.7818608E-02  0.8681002E-01
          2   -1    0    0  501    0  0.00000000000E+00  0.00000000000E+00  0.11032031777E+04  0.11032031777E+04  0.00000000000E+00 0.  1.
         -2   -1    0    0    0  501 -0.00000000000E+00 -0.00000000000E+00 -0.22662971562E+03  0.22662971562E+03  0.00000000000E+00 0.  1.
         36    2    1    2    0    0  0.28421709430E-13  0.28421709430E-13  0.87657346210E+03  0.13298328933E+04  0.10000372442E+04 0.  0.
         25    2    3    3    0    0  0.94880714582E+02  0.93350471521E+02  0.22577009769E+03  0.29041475604E+03  0.12510768554E+03 0.  0.
         35    2    3    3    0    0 -0.94880714582E+02 -0.93350471521E+02  0.65080336440E+03  0.10394181373E+04  0.79945505471E+03 0.  0.
         22    1    5    5    0    0 -0.25215271461E+03  0.29690456193E+03  0.30202373653E+03  0.49290125564E+03  0.00000000000E+00 0.  1.
         22    1    5    5    0    0  0.15727200003E+03 -0.39025503345E+03  0.34877962787E+03  0.54651688167E+03  0.00000000000E+00 0.  1.
          5    1    4    4  502    0 -0.68510420882E+01 -0.23451519208E+02  0.51602210585E+02  0.57286897875E+02  0.47000000000E+01 0.  1.
         -5    1    4    4    0  502  0.10173175667E+03  0.11680199073E+03  0.17416788711E+03  0.23312785817E+03  0.47000000000E+01 0.  1.
<mgrwt>
<rscale>  0 0.10000372E+04</rscale>
<asrwt>0</asrwt>
<pdfrwt beam="1">  1        2 0.16972356E+00 0.10000372E+04</pdfrwt>
<pdfrwt beam="2">  1       -2 0.34866111E-01 0.10000372E+04</pdfrwt>
<totfact> 0.20195735E+02</totfact>
</mgrwt>
</event>
<event>
 9    1  0.4236486E-036  0.9970619E+03  0.7818608E-02  0.8683841E-01
          1   -1    0    0  501    0  0.00000000000E+00  0.00000000000E+00  0.86408307045E+03  0.86408307045E+03  0.00000000000E+00 0. -1.
         -1   -1    0    0    0  501 -0.00000000000E+00 -0.00000000000E+00 -0.28762641487E+03  0.28762641487E+03  0.00000000000E+00 0. -1.
         36    2    1    2    0    0  0.00000000000E+00  0.28421709430E-13  0.57645665557E+03  0.11517094853E+04  0.99706191524E+03 0.  0.
         25    2    3    3    0    0  0.64922634890E+02  0.11119174777E+03  0.18426612604E+03  0.25742726352E+03  0.12544416091E+03 0.  0.
         35    2    3    3    0    0 -0.64922634890E+02 -0.11119174777E+03  0.39219052954E+03  0.89428222180E+03  0.79331502411E+03 0.  0.
         22    1    5    5    0    0 -0.35463800163E+03  0.66207131329E+02 -0.18571694443E+02  0.36124286052E+03  0.00000000000E+00 0. -1.
         22    1    5    5    0    0  0.28971536674E+03 -0.17739887910E+03  0.41076222398E+03  0.53303936128E+03  0.00000000000E+00 0. -1.
          5    1    4    4  502    0  0.84111337187E+02  0.94092505665E+02  0.19232456244E+03  0.23008464526E+03  0.47000000000E+01 0.  1.
         -5    1    4    4    0  502 -0.19188702297E+02  0.17099242101E+02 -0.80584364026E+01  0.27342618264E+02  0.47000000000E+01 0.  1.
<mgrwt>
<rscale>  0 0.99706192E+03</rscale>
<asrwt>0</asrwt>
<pdfrwt beam="1">  1        1 0.13293586E+00 0.99706192E+03</pdfrwt>
<pdfrwt beam="2">  1       -1 0.44250218E-01 0.99706192E+03</pdfrwt>
<totfact> 0.11148891E+02</totfact>
</mgrwt>
</event>
<event>
 9    1  0.4236486E-036  0.9992068E+03  0.7818608E-02  0.8681794E-01
          2   -1    0    0  501    0  0.00000000000E+00  0.00000000000E+00  0.23366894816E+04  0.23366894816E+04  0.00000000000E+00 0.  1.
         -2   -1    0    0    0  501 -0.00000000000E+00 -0.00000000000E+00 -0.10681930169E+03  0.10681930169E+03  0.00000000000E+00 0.  1.
         36    2    1    2    0    0  0.00000000000E+00 -0.16875389974E-13  0.22298701799E+04  0.24435087833E+04  0.99920676277E+03 0.  0.
         25    2    3    3    0    0 -0.12631103720E+03 -0.33045968334E+01  0.27150381921E+03  0.32433246598E+03  0.12454648192E+03 0.  0.
         35    2    3    3    0    0  0.12631103720E+03  0.33045968334E+01  0.19583663607E+04  0.21191763173E+04  0.79984002318E+03 0.  0.
         22    1    5    5    0    0  0.85149677053E+02  0.39865327579E+03  0.87828868123E+03  0.96827987141E+03  0.00000000000E+00 0.  1.
         22    1    5    5    0    0  0.41161360149E+02 -0.39534867895E+03  0.10800776795E+04  0.11508964459E+04  0.00000000000E+00 0.  1.
          5    1    4    4  502    0 -0.11374758599E+03 -0.87497104888E+01  0.98709757392E+02  0.15093302143E+03  0.47000000000E+01 0.  1.
         -5    1    4    4    0  502 -0.12563451210E+02  0.54451136554E+01  0.17279406182E+03  0.17339944455E+03  0.47000000000E+01 0.  1.
<mgrwt>
<rscale>  0 0.99920676E+03</rscale>
<asrwt>0</asrwt>
<pdfrwt beam="1">  1        2 0.35949065E+00 0.99920676E+03</pdfrwt>
<pdfrwt beam="2">  1       -2 0.16433741E-01 0.99920676E+03</pdfrwt>
<totfact> 0.14965189E+02</totfact>
</mgrwt>
</event>
<event>
 9    1  0.4236486E-036  0.1002468E+04  0.7818608E-02  0.8678691E-01
         -2   -1    0    0    0  501 -0.00000000000E+00  0.00000000000E+00  0.18093691640E+04  0.18093691640E+04  0.00000000000E+00 0. -1.
          2   -1    0    0  501    0  0.00000000000E+00 -0.00000000000E+00 -0.13885252125E+03  0.13885252125E+03  0.00000000000E+00 0. -1.
         36    2    1    2    0    0 -0.14210854715E-13  0.28421709430E-13  0.16705166428E+04  0.19482216853E+04  0.10024678953E+04 0.  0.
         25    2    3    3    0    0  0.39148629112E+02 -0.13068272230E+03  0.23506805525E+03  0.29895953626E+03  0.12453603756E+03 0.  0.
         35    2    3    3    0    0 -0.39148629112E+02  0.13068272230E+03  0.14354485875E+04  0.16492621490E+04  0.80058878313E+03 0.  0.
         22    1    5    5    0    0  0.17530800566E+03  0.14987346801E+02  0.13903636330E+04  0.14014523001E+04  0.00000000000E+00 0.  1.
         22    1    5    5    0    0 -0.21445663477E+03  0.11569537549E+03  0.45084954532E+02  0.24780984895E+03  0.00000000000E+00 0.  1.
          5    1    4    4  502    0 -0.33183771979E+02 -0.83747886652E+02  0.75956483590E+02  0.11792518239E+03  0.47000000000E+01 0. -1.
         -5    1    4    4    0  502  0.72332401092E+02 -0.46934835644E+02  0.15911157166E+03  0.18103435387E+03  0.47000000000E+01 0. -1.
<mgrwt>
<rscale>  0 0.10024679E+04</rscale>
<asrwt>0</asrwt>
<pdfrwt beam="1">  1        2 0.21361928E-01 0.10024679E+04</pdfrwt>
<pdfrwt beam="2">  1       -2 0.27836447E+00 0.10024679E+04</pdfrwt>
<totfact> 0.12207029E+01</totfact>
</mgrwt>
</event>
<event>
 9    1  0.4236486E-036  0.1002571E+04  0.7818608E-02  0.8678593E-01
          2   -1    0    0  501    0  0.00000000000E+00  0.00000000000E+00  0.10741519016E+04  0.10741519016E+04  0.00000000000E+00 0.  1.
         -2   -1    0    0    0  501 -0.00000000000E+00 -0.00000000000E+00 -0.23394016474E+03  0.23394016474E+03  0.00000000000E+00 0.  1.
         36    2    1    2    0    0  0.00000000000E+00  0.42632564146E-13  0.84021173682E+03  0.13080920663E+04  0.10025712400E+04 0.  0.
         25    2    3    3    0    0 -0.13015761925E+03  0.64388819597E+02  0.17578216186E+03  0.25883467295E+03  0.12251160579E+03 0.  0.
         35    2    3    3    0    0  0.13015761925E+03 -0.64388819597E+02  0.66442957495E+03  0.10492573933E+04  0.79899154656E+03 0.  0.
         22    1    5    5    0    0  0.84524420496E+02  0.28439095941E+03  0.62933051958E+03  0.69575821830E+03  0.00000000000E+00 0. -1.
         22    1    5    5    0    0  0.45633198751E+02 -0.34877977901E+03  0.35099055376E+02  0.35349917505E+03  0.00000000000E+00 0. -1.
          5    1    4    4  502    0 -0.96571961261E+02  0.85908215092E+01  0.16671269452E+03  0.19291230762E+03  0.47000000000E+01 0. -1.
         -5    1    4    4    0  502 -0.33585657986E+02  0.55797998088E+02  0.90694673417E+01  0.65922365331E+02  0.47000000000E+01 0. -1.
<mgrwt>
<rscale>  0 0.10025712E+04</rscale>
<asrwt>0</asrwt>
<pdfrwt beam="1">  1        2 0.16525414E+00 0.10025712E+04</pdfrwt>
<pdfrwt beam="2">  1       -2 0.35990795E-01 0.10025712E+04</pdfrwt>
<totfact> 0.19822071E+02</totfact>
</mgrwt>
</event>
<event>
 9    1  0.4236486E-036  0.9995756E+03  0.7818608E-02  0.8681442E-01
         -2   -1    0    0    0  501 -0.00000000000E+00  0.00000000000E+00  0.48633535536E+03  0.48633535536E+03  0.00000000000E+00 0.  1.
          2   -1    0    0  501    0  0.00000000000E+00 -0.00000000000E+00 -0.51361239328E+03  0.51361239328E+03  0.00000000000E+00 0.  1.
         36    2    1    2    0    0 -0.14210854715E-13  0.71054273576E-14 -0.27277037919E+02  0.99994774863E+03  0.99957564156E+03 0.  0.
         25    2    3    3    0    0  0.24397974006E+02  0.55518359620E+02  0.12146691357E+03  0.18447220826E+03  0.12489289467E+03 0.  0.
         35    2    3    3    0    0 -0.24397974006E+02 -0.55518359620E+02 -0.14874395149E+03  0.81547554037E+03  0.79949862067E+03 0.  0.
         22    1    5    5    0    0 -0.14882095876E+03 -0.39235466076E+03 -0.17668065613E+03  0.45530858968E+03  0.00000000000E+00 0.  1.
         22    1    5    5    0    0  0.12442298475E+03  0.33683630114E+03  0.27936704644E+02  0.36016695069E+03  0.00000000000E+00 0.  1.
          5    1    4    4  502    0 -0.69172328860E+01  0.88291498539E+02  0.10130206602E+03  0.13463816474E+03  0.47000000000E+01 0.  1.
         -5    1    4    4    0  502  0.31315206892E+02 -0.32773138919E+02  0.20164847549E+02  0.49834043524E+02  0.47000000000E+01 0.  1.
<mgrwt>
<rscale>  0 0.99957564E+03</rscale>
<asrwt>0</asrwt>
<pdfrwt beam="1">  1        2 0.79017291E-01 0.99957564E+03</pdfrwt>
<pdfrwt beam="2">  1       -2 0.74820824E-01 0.99957564E+03</pdfrwt>
<totfact> 0.11574198E+02</totfact>
</mgrwt>
</event>
<event>
 9    1  0.4236486E-036  0.9990701E+03  0.7818608E-02  0.8681924E-01
          2   -1    0    0  501    0  0.00000000000E+00  0.00000000000E+00  0.13685046856E+04  0.13685046856E+04  0.00000000000E+00 0. -1.
         -2   -1    0    0    0  501 -0.00000000000E+00 -0.00000000000E+00 -0.18234155507E+03  0.18234155507E+03  0.00000000000E+00 0. -1.
         36    2    1    2    0    0  0.00000000000E+00 -0.28421709430E-13  0.11861631305E+04  0.15508462407E+04  0.99907011265E+03 0.  0.
         25    2    3    3    0    0 -0.79900154851E+02  0.84003658225E+02  0.11684479768E+03  0.21050866056E+03  0.13122705547E+03 0.  0.
         35    2    3    3    0    0  0.79900154851E+02 -0.84003658225E+02  0.10693183329E+04  0.13403375801E+04  0.79976401667E+03 0.  0.
         22    1    5    5    0    0  0.29817043726E+03  0.25923698863E+03  0.44380515590E+03  0.59419899220E+03  0.00000000000E+00 0. -1.
         22    1    5    5    0    0 -0.21827028240E+03 -0.34324064686E+03  0.62551317696E+03  0.74613858792E+03  0.00000000000E+00 0. -1.
          5    1    4    4  502    0 -0.10152049230E+03  0.22144764957E+02  0.96105425455E+02  0.14161618472E+03  0.47000000000E+01 0.  1.
         -5    1    4    4    0  502  0.21620337451E+02  0.61858893267E+02  0.20739372228E+02  0.68892475846E+02  0.47000000000E+01 0.  1.
<mgrwt>
<rscale>  0 0.99907011E+03</rscale>
<asrwt>0</asrwt>
<pdfrwt beam="1">  1        2 0.21053918E+00 0.99907011E+03</pdfrwt>
<pdfrwt beam="2">  1       -2 0.28052548E-01 0.99907011E+03</pdfrwt>
<totfact> 0.21015244E+02</totfact>
</mgrwt>
</event>
<event>
 9    1  0.4236486E-036  0.9996561E+03  0.7818608E-02  0.8681365E-01
         -2   -1    0    0    0  501 -0.00000000000E+00  0.00000000000E+00  0.15377179748E+03  0.15377179748E+03  0.00000000000E+00 0. -1.
          2   -1    0    0  501    0  0.00000000000E+00 -0.00000000000E+00 -0.16246678799E+04  0.16246678799E+04  0.00000000000E+00 0. -1.
         36    2    1    2    0    0  0.56843418861E-13  0.00000000000E+00 -0.14708960824E+04  0.17784396774E+04  0.99965614127E+03 0.  0.
         25    2    3    3    0    0  0.13923889317E+03  0.32928099602E+01 -0.27313458238E+03  0.33081738735E+03  0.12425510739E+03 0.  0.
         35    2    3    3    0    0 -0.13923889317E+03 -0.32928099602E+01 -0.11977615000E+04  0.14476222900E+04  0.80098649904E+03 0.  0.
         22    1    5    5    0    0 -0.42796135929E+03  0.22223363849E+02 -0.10230813168E+04  0.11092070067E+04  0.00000000000E+00 0.  1.
         22    1    5    5    0    0  0.28872246612E+03 -0.25516173809E+02 -0.17468018323E+03  0.33841528332E+03  0.00000000000E+00 0.  1.
          5    1    4    4  502    0  0.15063500546E+03  0.27157812010E+02 -0.25789686955E+03  0.29993555465E+03  0.47000000000E+01 0. -1.
         -5    1    4    4    0  502 -0.11396112293E+02 -0.23865002050E+02 -0.15237712835E+02  0.30881832696E+02  0.47000000000E+01 0. -1.
<mgrwt>
<rscale>  0 0.99965614E+03</rscale>
<asrwt>0</asrwt>
<pdfrwt beam="1">  1        2 0.24994890E+00 0.99965614E+03</pdfrwt>
<pdfrwt beam="2">  1       -2 0.23657200E-01 0.99965614E+03</pdfrwt>
<totfact> 0.20376982E+02</totfact>
</mgrwt>
</event>
<event>
 9    1  0.4236486E-036  0.9952310E+03  0.7818608E-02  0.8685593E-01
         -1   -1    0    0    0  501 -0.00000000000E+00  0.00000000000E+00  0.55497512532E+03  0.55497512532E+03  0.00000000000E+00 0.  1.
          1   -1    0    0  501    0  0.00000000000E+00 -0.00000000000E+00 -0.44618430334E+03  0.44618430334E+03  0.00000000000E+00 0.  1.
         36    2    1    2    0    0 -0.71054273576E-14  0.14210854715E-13  0.10879082199E+03  0.10011594287E+04  0.99523100768E+03 0.  0.
         25    2    3    3    0    0  0.27026196050E+02 -0.57498696197E+02 -0.10026363170E+03  0.17246525065E+03  0.12511974865E+03 0.  0.
         35    2    3    3    0    0 -0.27026196050E+02  0.57498696197E+02  0.20905445369E+03  0.82869417801E+03  0.79937085307E+03 0.  0.
         22    1    5    5    0    0  0.11811366274E+03  0.40530969287E+03  0.75604724930E+02  0.42888560117E+03  0.00000000000E+00 0. -1.
         22    1    5    5    0    0 -0.14513985879E+03 -0.34781099667E+03  0.13344972876E+03  0.39980857685E+03  0.00000000000E+00 0. -1.
          5    1    4    4  502    0  0.74117494623E+02 -0.13103055535E+02 -0.52323060082E+02  0.91787176065E+02  0.47000000000E+01 0.  1.
         -5    1    4    4    0  502 -0.47091298573E+02 -0.44395640663E+02 -0.47940571618E+02  0.80678074582E+02  0.47000000000E+01 0.  1.
<mgrwt>
<rscale>  0 0.99523101E+03</rscale>
<asrwt>0</asrwt>
<pdfrwt beam="1">  1        1 0.68643739E-01 0.99523101E+03</pdfrwt>
<pdfrwt beam="2">  1       -1 0.85380788E-01 0.99523101E+03</pdfrwt>
<totfact> 0.83368580E+01</totfact>
</mgrwt>
</event>
<event>
 9    1  0.4236486E-036  0.1000061E+04  0.7818608E-02  0.8680980E-01
          4   -1    0    0  501    0  0.00000000000E+00  0.00000000000E+00  0.44971738538E+03  0.44971738538E+03  0.00000000000E+00 0. -1.
         -4   -1    0    0    0  501 -0.00000000000E+00 -0.00000000000E+00 -0.55597196016E+03  0.55597196016E+03  0.00000000000E+00 0. -1.
         36    2    1    2    0    0  0.00000000000E+00  0.71054273576E-14 -0.10625457478E+03  0.10056893455E+04  0.10000605107E+04 0.  0.
         25    2    3    3    0    0  0.19721299164E+02 -0.36176279063E+02 -0.15375698246E+03  0.20262334822E+03  0.12536889080E+03 0.  0.
         35    2    3    3    0    0 -0.19721299164E+02  0.36176279063E+02  0.47502407681E+02  0.80306599732E+03  0.80060031508E+03 0.  0.
         22    1    5    5    0    0 -0.39059790802E+03 -0.73535979137E+02 -0.59221538587E+02  0.40184755395E+03  0.00000000000E+00 0.  1.
         22    1    5    5    0    0  0.37087660886E+03  0.10971225820E+03  0.10672394627E+03  0.40121844338E+03  0.00000000000E+00 0.  1.
          5    1    4    4  502    0 -0.31879385385E+02  0.32487599736E+02 -0.48315281013E+02  0.66544689709E+02  0.47000000000E+01 0.  1.
         -5    1    4    4    0  502  0.51600684549E+02 -0.68663878799E+02 -0.10544170145E+03  0.13607865851E+03  0.47000000000E+01 0.  1.
<mgrwt>
<rscale>  0 0.10000605E+04</rscale>
<asrwt>0</asrwt>
<pdfrwt beam="1">  1        4 0.69187290E-01 0.10000605E+04</pdfrwt>
<pdfrwt beam="2">  1       -4 0.85534147E-01 0.10000605E+04</pdfrwt>
<totfact> 0.52341136E+00</totfact>
</mgrwt>
</event>
<event>
 9    1  0.4236486E-036  0.1000222E+04  0.7818608E-02  0.8680826E-01
          2   -1    0    0  501    0  0.00000000000E+00  0.00000000000E+00  0.13654052252E+04  0.13654052252E+04  0.00000000000E+00 0. -1.
         -2   -1    0    0    0  501 -0.00000000000E+00 -0.00000000000E+00 -0.18317718211E+03  0.18317718211E+03  0.00000000000E+00 0. -1.
         36    2    1    2    0    0 -0.28421709430E-13  0.28421709430E-13  0.11822280431E+04  0.15485824073E+04  0.10002221385E+04 0.  0.
         25    2    3    3    0    0 -0.13929899336E+03  0.14514216427E+02  0.24492562516E+03  0.30844221036E+03  0.12463211162E+03 0.  0.
         35    2    3    3    0    0  0.13929899336E+03 -0.14514216427E+02  0.93730241798E+03  0.12401401970E+04  0.79987312332E+03 0.  0.
         22    1    5    5    0    0  0.78132772703E+01 -0.30321456502E+03  0.62626314486E+02  0.30971305270E+03  0.00000000000E+00 0. -1.
         22    1    5    5    0    0  0.13148571609E+03  0.28870034860E+03  0.87467610349E+03  0.93042714429E+03  0.00000000000E+00 0. -1.
          5    1    4    4  502    0 -0.77223240602E+02  0.69652798986E+02  0.14348040207E+03  0.17726719119E+03  0.47000000000E+01 0.  1.
         -5    1    4    4    0  502 -0.62075752757E+02 -0.55138582559E+02  0.10144522309E+03  0.13117501917E+03  0.47000000000E+01 0.  1.
<mgrwt>
<rscale>  0 0.10002221E+04</rscale>
<asrwt>0</asrwt>
<pdfrwt beam="1">  1        2 0.21006234E+00 0.10002221E+04</pdfrwt>
<pdfrwt beam="2">  1       -2 0.28181106E-01 0.10002221E+04</pdfrwt>
<totfact> 0.20927862E+02</totfact>
</mgrwt>
</event>
<event>
 9    1  0.4236486E-036  0.1000999E+04  0.7818608E-02  0.8680087E-01
         -1   -1    0    0    0  501 -0.00000000000E+00  0.00000000000E+00  0.78168653621E+03  0.78168653621E+03  0.00000000000E+00 0.  1.
          1   -1    0    0  501    0  0.00000000000E+00 -0.00000000000E+00 -0.32046087634E+03  0.32046087634E+03  0.00000000000E+00 0.  1.
         36    2    1    2    0    0  0.14210854715E-13 -0.14210854715E-13  0.46122565987E+03  0.11021474126E+04  0.10009994054E+04 0.  0.
         25    2    3    3    0    0 -0.10099064819E+03  0.64852893510E+02  0.16285568964E+03  0.23698030275E+03  0.12342074147E+03 0.  0.
         35    2    3    3    0    0  0.10099064819E+03 -0.64852893510E+02  0.29836997023E+03  0.86516710980E+03  0.80317151339E+03 0.  0.
         22    1    5    5    0    0  0.42592415210E+03  0.98073859346E+02  0.23483821524E+03  0.49616413874E+03  0.00000000000E+00 0. -1.
         22    1    5    5    0    0 -0.32493350391E+03 -0.16292675286E+03  0.63531754992E+02  0.36900297106E+03  0.00000000000E+00 0. -1.
          5    1    4    4  502    0 -0.11629284793E+03  0.12905933980E+02  0.12090633753E+03  0.16831821668E+03  0.47000000000E+01 0. -1.
         -5    1    4    4    0  502  0.15302199739E+02  0.51946959530E+02  0.41949352105E+02  0.68662086068E+02  0.47000000000E+01 0.  1.
<mgrwt>
<rscale>  0 0.10009994E+04</rscale>
<asrwt>0</asrwt>
<pdfrwt beam="1">  1        1 0.49301673E-01 0.10009994E+04</pdfrwt>
<pdfrwt beam="2">  1       -1 0.12025947E+00 0.10009994E+04</pdfrwt>
<totfact> 0.59517276E+01</totfact>
</mgrwt>
</event>
<event>
 9    1  0.4236486E-036  0.9992161E+03  0.7818608E-02  0.8681785E-01
         -2   -1    0    0    0  501 -0.00000000000E+00  0.00000000000E+00  0.35617412988E+03  0.35617412988E+03  0.00000000000E+00 0. -1.
          2   -1    0    0  501    0  0.00000000000E+00 -0.00000000000E+00 -0.70080390477E+03  0.70080390477E+03  0.00000000000E+00 0. -1.
         36    2    1    2    0    0 -0.28421709430E-13 -0.71054273576E-14 -0.34462977489E+03  0.10569780346E+04  0.99921613477E+03 0.  0.
         25    2    3    3    0    0  0.39083933816E+02  0.54284363428E+02  0.69015087034E+02  0.15410221251E+03  0.12045772564E+03 0.  0.
         35    2    3    3    0    0 -0.39083933816E+02 -0.54284363428E+02 -0.41364486192E+03  0.90287582214E+03  0.79975517029E+03 0.  0.
         22    1    5    5    0    0  0.36997004920E+03 -0.11809663857E+03 -0.20989635416E+03  0.44145343224E+03  0.00000000000E+00 0. -1.
         22    1    5    5    0    0 -0.40905398302E+03  0.63812275138E+02 -0.20374850777E+03  0.46142238990E+03  0.00000000000E+00 0. -1.
          5    1    4    4  502    0  0.73155973658E+02  0.13559321876E+01  0.47736403786E+02  0.87489938166E+02  0.47000000000E+01 0.  1.
         -5    1    4    4    0  502 -0.34072039842E+02  0.52928431241E+02  0.21278683248E+02  0.66612274344E+02  0.47000000000E+01 0.  1.
<mgrwt>
<rscale>  0 0.99921613E+03</rscale>
<asrwt>0</asrwt>
<pdfrwt beam="1">  1        2 0.10781598E+00 0.99921613E+03</pdfrwt>
<pdfrwt beam="2">  1       -2 0.54796020E-01 0.99921613E+03</pdfrwt>
<totfact> 0.15513050E+02</totfact>
</mgrwt>
</event>
<event>
 9    1  0.4236486E-036  0.1000209E+04  0.7818608E-02  0.8680839E-01
          1   -1    0    0  501    0  0.00000000000E+00  0.00000000000E+00  0.47306936701E+03  0.47306936701E+03  0.00000000000E+00 0. -1.
         -1   -1    0    0    0  501 -0.00000000000E+00 -0.00000000000E+00 -0.52868464738E+03  0.52868464738E+03  0.00000000000E+00 0. -1.
         36    2    1    2    0    0 -0.71054273576E-14  0.14210854715E-13 -0.55615280368E+02  0.10017540144E+04  0.10002090011E+04 0.  0.
         25    2    3    3    0    0  0.25380419685E+02 -0.78773642495E+02  0.10288708369E+03  0.18206729971E+03  0.12535269115E+03 0.  0.
         35    2    3    3    0    0 -0.25380419685E+02  0.78773642495E+02 -0.15850236405E+03  0.81968671468E+03  0.79994615966E+03 0.  0.
         22    1    5    5    0    0 -0.12779962724E+03 -0.31607926711E+02  0.30507415350E+03  0.33226803170E+03  0.00000000000E+00 0. -1.
         22    1    5    5    0    0  0.10241920756E+03  0.11038156921E+03 -0.46357651755E+03  0.48741868299E+03  0.00000000000E+00 0. -1.
          5    1    4    4  502    0  0.57557240271E+02 -0.23732265287E+01  0.74553392458E+02  0.94333273233E+02  0.47000000000E+01 0.  1.
         -5    1    4    4    0  502 -0.32176820586E+02 -0.76400415966E+02  0.28333691228E+02  0.87734026474E+02  0.47000000000E+01 0.  1.
<mgrwt>
<rscale>  0 0.10002090E+04</rscale>
<asrwt>0</asrwt>
<pdfrwt beam="1">  1        1 0.72779902E-01 0.10002090E+04</pdfrwt>
<pdfrwt beam="2">  1       -1 0.81336100E-01 0.10002090E+04</pdfrwt>
<totfact> 0.85260325E+01</totfact>
</mgrwt>
</event>
<event>
 9    1  0.4236486E-036  0.1000067E+04  0.7818608E-02  0.8680974E-01
         -2   -1    0    0    0  501 -0.00000000000E+00  0.00000000000E+00  0.65276571571E+03  0.65276571571E+03  0.00000000000E+00 0. -1.
          2   -1    0    0  501    0  0.00000000000E+00 -0.00000000000E+00 -0.38303704985E+03  0.38303704985E+03  0.00000000000E+00 0. -1.
         36    2    1    2    0    0  0.14210854715E-13  0.28421709430E-13  0.26972866586E+03  0.10358027656E+04  0.10000669057E+04 0.  0.
         25    2    3    3    0    0  0.76656622337E+02  0.89842102069E+02 -0.27387281793E+02  0.17417707181E+03  0.12505897845E+03 0.  0.
         35    2    3    3    0    0 -0.76656622337E+02 -0.89842102069E+02  0.29711594765E+03  0.86162569374E+03  0.80010818563E+03 0.  0.
         22    1    5    5    0    0 -0.31374964719E+03 -0.13824353635E+03  0.45720712977E+03  0.57147919994E+03  0.00000000000E+00 0. -1.
         22    1    5    5    0    0  0.23709302485E+03  0.48401434282E+02 -0.16009118212E+03  0.29014649380E+03  0.00000000000E+00 0. -1.
          5    1    4    4  502    0 -0.23920043868E+02 -0.10640798380E+02  0.76509076954E+01  0.27677093008E+02  0.47000000000E+01 0. -1.
         -5    1    4    4    0  502  0.10057666621E+03  0.10048290045E+03 -0.35038189488E+02  0.14649997881E+03  0.47000000000E+01 0. -1.
<mgrwt>
<rscale>  0 0.10000669E+04</rscale>
<asrwt>0</asrwt>
<pdfrwt beam="1">  1        2 0.58928777E-01 0.10000669E+04</pdfrwt>
<pdfrwt beam="2">  1       -2 0.10042549E+00 0.10000669E+04</pdfrwt>
<totfact> 0.81086869E+01</totfact>
</mgrwt>
</event>
<event>
 9    1  0.4236486E-036  0.1000031E+04  0.7818608E-02  0.8681009E-01
          2   -1    0    0  501    0  0.00000000000E+00  0.00000000000E+00  0.10328012535E+04  0.10328012535E+04  0.00000000000E+00 0.  1.
         -2   -1    0    0    0  501 -0.00000000000E+00 -0.00000000000E+00 -0.24207504194E+03  0.24207504194E+03  0.00000000000E+00 0.  1.
         36    2    1    2    0    0 -0.28421709430E-13 -0.14210854715E-13  0.79072621156E+03  0.12748762954E+04  0.10000308130E+04 0.  0.
         25    2    3    3    0    0 -0.12143694934E+03  0.69010503275E+02  0.15791482367E+03  0.24508313077E+03  0.12497706680E+03 0.  0.
         35    2    3    3    0    0  0.12143694934E+03 -0.69010503275E+02  0.63281138789E+03  0.10297931647E+04  0.80032138990E+03 0.  0.
         22    1    5    5    0    0 -0.29802761529E+03  0.84556519344E+02  0.81692008760E+02  0.32038078709E+03  0.00000000000E+00 0.  1.
         22    1    5    5    0    0  0.41946456463E+03 -0.15356702262E+03  0.55111937913E+03  0.70941237758E+03  0.00000000000E+00 0.  1.
          5    1    4    4  502    0 -0.12772832810E+02 -0.61267365526E+01 -0.19045592241E+02  0.24197246591E+02  0.47000000000E+01 0. -1.
         -5    1    4    4    0  502 -0.10866411653E+03  0.75137239827E+02  0.17696041591E+03  0.22088588418E+03  0.47000000000E+01 0. -1.
<mgrwt>
<rscale>  0 0.10000308E+04</rscale>
<asrwt>0</asrwt>
<pdfrwt beam="1">  1        2 0.15889250E+00 0.10000308E+04</pdfrwt>
<pdfrwt beam="2">  1       -2 0.37242315E-01 0.10000308E+04</pdfrwt>
<totfact> 0.19710680E+02</totfact>
</mgrwt>
</event>
<event>
 9    1  0.4236486E-036  0.9990597E+03  0.7818608E-02  0.8681934E-01
          1   -1    0    0  501    0  0.00000000000E+00  0.00000000000E+00  0.13327902775E+04  0.13327902775E+04  0.00000000000E+00 0. -1.
         -1   -1    0    0    0  501 -0.00000000000E+00 -0.00000000000E+00 -0.18722382028E+03  0.18722382028E+03  0.00000000000E+00 0. -1.
         36    2    1    2    0    0 -0.10658141036E-13 -0.28421709430E-13  0.11455664572E+04  0.15200140978E+04  0.99905973273E+03 0.  0.
         25    2    3    3    0    0 -0.53583058288E+01 -0.66427285659E+02  0.40513770914E+03  0.42910306554E+03  0.12470598130E+03 0.  0.
         35    2    3    3    0    0  0.53583058288E+01  0.66427285659E+02  0.74042874809E+03  0.10909110322E+04  0.79838014351E+03 0.  0.
         22    1    5    5    0    0  0.21228684836E+03  0.15739144546E+03 -0.49860659429E+02  0.26893095480E+03  0.00000000000E+00 0. -1.
         22    1    5    5    0    0 -0.20692854253E+03 -0.90964159804E+02  0.79028940752E+03  0.82198007745E+03  0.00000000000E+00 0. -1.
          5    1    4    4  502    0  0.26474989380E+02  0.27600001274E+02  0.16026009045E+03  0.16482739980E+03  0.47000000000E+01 0.  1.
         -5    1    4    4    0  502 -0.31833295209E+02 -0.94027286933E+02  0.24487761869E+03  0.26427566574E+03  0.47000000000E+01 0.  1.
<mgrwt>
<rscale>  0 0.99905973E+03</rscale>
<asrwt>0</asrwt>
<pdfrwt beam="1">  1        1 0.20504465E+00 0.99905973E+03</pdfrwt>
<pdfrwt beam="2">  1       -1 0.28803666E-01 0.99905973E+03</pdfrwt>
<totfact> 0.10256819E+02</totfact>
</mgrwt>
</event>
<event>
 9    1  0.4236486E-036  0.1000086E+04  0.7818608E-02  0.8680956E-01
          2   -1    0    0  501    0  0.00000000000E+00  0.00000000000E+00  0.27510810841E+03  0.27510810841E+03  0.00000000000E+00 0.  1.
         -2   -1    0    0    0  501 -0.00000000000E+00 -0.00000000000E+00 -0.90889041375E+03  0.90889041375E+03  0.00000000000E+00 0.  1.
         36    2    1    2    0    0  0.28421709430E-13  0.00000000000E+00 -0.63378230535E+03  0.11839985222E+04  0.10000862412E+04 0.  0.
         25    2    3    3    0    0 -0.12465055859E+03  0.58207893819E+02 -0.15518947128E+03  0.24235302008E+03  0.12540053303E+03 0.  0.
         35    2    3    3    0    0  0.12465055859E+03 -0.58207893819E+02 -0.47859283406E+03  0.94164550208E+03  0.79919911794E+03 0.  0.
         22    1    5    5    0    0 -0.26553445283E+03 -0.64782008010E+02 -0.47889687057E+03  0.55140499349E+03  0.00000000000E+00 0.  1.
         22    1    5    5    0    0  0.39018501142E+03  0.65741141915E+01  0.30403650519E+00  0.39024050860E+03  0.00000000000E+00 0.  1.
          5    1    4    4  502    0 -0.48961865215E+02  0.40341421325E+02 -0.15154704869E+03  0.16435721002E+03  0.47000000000E+01 0. -1.
         -5    1    4    4    0  502 -0.75688693372E+02  0.17866472493E+02 -0.36424225933E+01  0.77995810055E+02  0.47000000000E+01 0. -1.
<mgrwt>
<rscale>  0 0.10000862E+04</rscale>
<asrwt>0</asrwt>
<pdfrwt beam="1">  1        2 0.42324324E-01 0.10000862E+04</pdfrwt>
<pdfrwt beam="2">  1       -2 0.13982930E+00 0.10000862E+04</pdfrwt>
<totfact> 0.49799961E+01</totfact>
</mgrwt>
</event>
<event>
 9    1  0.4236486E-036  0.9994202E+03  0.7818608E-02  0.8681590E-01
         -1   -1    0    0    0  501 -0.00000000000E+00  0.00000000000E+00  0.85741329276E+03  0.85741329276E+03  0.00000000000E+00 0. -1.
          1   -1    0    0  501    0  0.00000000000E+00 -0.00000000000E+00 -0.29123663275E+03  0.29123663275E+03  0.00000000000E+00 0. -1.
         36    2    1    2    0    0  0.35527136788E-14  0.28421709430E-13  0.56617666002E+03  0.11486499255E+04  0.99942015240E+03 0.  0.
         25    2    3    3    0    0 -0.28901491126E+02 -0.55086065004E+02 -0.37810898160E+02  0.14429360291E+03  0.12458414456E+03 0.  0.
         35    2    3    3    0    0  0.28901491126E+02  0.55086065004E+02  0.60398755818E+03  0.10043563226E+04  0.80003805007E+03 0.  0.
         22    1    5    5    0    0 -0.16854470421E+03  0.16563457969E+03  0.71447205730E+03  0.75253734257E+03  0.00000000000E+00 0.  1.
         22    1    5    5    0    0  0.19744619534E+03 -0.11054851468E+03 -0.11048449912E+03  0.25181898002E+03  0.00000000000E+00 0.  1.
          5    1    4    4  502    0  0.20986983173E+02 -0.22305212845E+02  0.37135240462E+02  0.48364160976E+02  0.47000000000E+01 0. -1.
         -5    1    4    4    0  502 -0.49888474299E+02 -0.32780852159E+02 -0.74946138622E+02  0.95929441938E+02  0.47000000000E+01 0. -1.
<mgrwt>
<rscale>  0 0.99942015E+03</rscale>
<asrwt>0</asrwt>
<pdfrwt beam="1">  1        1 0.44805636E-01 0.99942015E+03</pdfrwt>
<pdfrwt beam="2">  1       -1 0.13190974E+00 0.99942015E+03</pdfrwt>
<totfact> 0.53278925E+01</totfact>
</mgrwt>
</event>
<event>
 9    1  0.4236486E-036  0.1000229E+04  0.7818608E-02  0.8680820E-01
          2   -1    0    0  501    0  0.00000000000E+00  0.00000000000E+00  0.58703102248E+03  0.58703102248E+03  0.00000000000E+00 0.  1.
         -2   -1    0    0    0  501 -0.00000000000E+00 -0.00000000000E+00 -0.42606661602E+03  0.42606661602E+03  0.00000000000E+00 0.  1.
         36    2    1    2    0    0  0.14210854715E-13  0.14210854715E-13  0.16096440646E+03  0.10130976385E+04  0.10002286164E+04 0.  0.
         25    2    3    3    0    0  0.65955317166E+02 -0.61509133866E+02  0.13971986476E+03  0.20781128363E+03  0.12462107199E+03 0.  0.
         35    2    3    3    0    0 -0.65955317166E+02  0.61509133866E+02  0.21244541705E+02  0.80528635488E+03  0.79993831349E+03 0.  0.
         22    1    5    5    0    0 -0.28815913728E+03 -0.22257072269E+03 -0.16457324610E+03  0.39957198141E+03  0.00000000000E+00 0.  1.
         22    1    5    5    0    0  0.22220382011E+03  0.28407985655E+03  0.18581778781E+03  0.40571437347E+03  0.00000000000E+00 0.  1.
          5    1    4    4  502    0  0.93678580962E+02 -0.73908183053E+02  0.90702513581E+02  0.14995710061E+03  0.47000000000E+01 0.  1.
         -5    1    4    4    0  502 -0.27723263796E+02  0.12399049187E+02  0.49017351175E+02  0.57854183016E+02  0.47000000000E+01 0.  1.
<mgrwt>
<rscale>  0 0.10002286E+04</rscale>
<asrwt>0</asrwt>
<pdfrwt beam="1">  1        2 0.90312465E-01 0.10002286E+04</pdfrwt>
<pdfrwt beam="2">  1       -2 0.65548710E-01 0.10002286E+04</pdfrwt>
<totfact> 0.13209600E+02</totfact>
</mgrwt>
</event>
<event>
 9    1  0.4236486E-036  0.9994633E+03  0.7818608E-02  0.8681549E-01
         -1   -1    0    0    0  501 -0.00000000000E+00  0.00000000000E+00  0.46273509452E+03  0.46273509452E+03  0.00000000000E+00 0. -1.
          1   -1    0    0  501    0  0.00000000000E+00 -0.00000000000E+00 -0.53968619708E+03  0.53968619708E+03  0.00000000000E+00 0. -1.
         36    2    1    2    0    0  0.14210854715E-13  0.71054273576E-14 -0.76951102559E+02  0.10024212916E+04  0.99946334284E+03 0.  0.
         25    2    3    3    0    0 -0.93457993005E+02  0.15862352625E+02  0.86626523174E+02  0.18018753925E+03  0.12640167759E+03 0.  0.
         35    2    3    3    0    0  0.93457993005E+02 -0.15862352625E+02 -0.16357762573E+03  0.82223375235E+03  0.80020290751E+03 0.  0.
         22    1    5    5    0    0 -0.34973692549E+03 -0.39641687458E+02 -0.13669401082E+03  0.37758791430E+03  0.00000000000E+00 0. -1.
         22    1    5    5    0    0  0.44319491849E+03  0.23779334833E+02 -0.26883614914E+02  0.44464583805E+03  0.00000000000E+00 0. -1.
          5    1    4    4  502    0 -0.53780480918E+02 -0.53988773902E+02  0.31215297694E+02  0.82484014484E+02  0.47000000000E+01 0.  1.
         -5    1    4    4    0  502 -0.39677512087E+02  0.69851126527E+02  0.55411225480E+02  0.97703524766E+02  0.47000000000E+01 0.  1.
<mgrwt>
<rscale>  0 0.99946334E+03</rscale>
<asrwt>0</asrwt>
<pdfrwt beam="1">  1        1 0.83028645E-01 0.99946334E+03</pdfrwt>
<pdfrwt beam="2">  1       -1 0.71190015E-01 0.99946334E+03</pdfrwt>
<totfact> 0.93193943E+01</totfact>
</mgrwt>
</event>
<event>
 9    1  0.4236486E-036  0.9999365E+03  0.7818608E-02  0.8681098E-01
          1   -1    0    0  501    0  0.00000000000E+00  0.00000000000E+00  0.10664343371E+04  0.10664343371E+04  0.00000000000E+00 0. -1.
         -1   -1    0    0    0  501 -0.00000000000E+00 -0.00000000000E+00 -0.23439627570E+03  0.23439627570E+03  0.00000000000E+00 0. -1.
         36    2    1    2    0    0  0.00000000000E+00  0.14210854715E-13  0.83203806143E+03  0.13008306128E+04  0.99993647178E+03 0.  0.
         25    2    3    3    0    0 -0.94883732757E+02  0.43851994890E+02  0.37562920538E+02  0.16714808795E+03  0.12490632533E+03 0.  0.
         35    2    3    3    0    0  0.94883732757E+02 -0.43851994890E+02  0.79447514089E+03  0.11336825249E+04  0.80194725358E+03 0.  0.
         22    1    5    5    0    0  0.13350098929E+02 -0.35074275946E+03  0.72952498423E+03  0.80957112786E+03  0.00000000000E+00 0.  1.
         22    1    5    5    0    0  0.81533633827E+02  0.30689076457E+03  0.64950156664E+02  0.32411139702E+03  0.00000000000E+00 0.  1.
          5    1    4    4  502    0 -0.22453169225E+02 -0.32263837737E+02  0.47116112943E+02  0.61539565587E+02  0.47000000000E+01 0.  1.
         -5    1    4    4    0  502 -0.72430563532E+02  0.76115832627E+02 -0.95531924053E+01  0.10560852236E+03  0.47000000000E+01 0.  1.
<mgrwt>
<rscale>  0 0.99993647E+03</rscale>
<asrwt>0</asrwt>
<pdfrwt beam="1">  1        1 0.16406682E+00 0.99993647E+03</pdfrwt>
<pdfrwt beam="2">  1       -1 0.36060966E-01 0.99993647E+03</pdfrwt>
<totfact> 0.11009502E+02</totfact>
</mgrwt>
</event>
<event>
 9    1  0.4236486E-036  0.1000069E+04  0.7818608E-02  0.8680973E-01
          2   -1    0    0  501    0  0.00000000000E+00  0.00000000000E+00  0.63317758523E+03  0.63317758523E+03  0.00000000000E+00 0. -1.
         -2   -1    0    0    0  501 -0.00000000000E+00 -0.00000000000E+00 -0.39488804044E+03  0.39488804044E+03  0.00000000000E+00 0. -1.
         36    2    1    2    0    0  0.00000000000E+00 -0.14210854715E-13  0.23828954479E+03  0.10280656257E+04  0.10000685094E+04 0.  0.
         25    2    3    3    0    0 -0.96802637803E+02  0.33031553842E+02  0.14459633789E+03  0.21656841385E+03  0.12462721497E+03 0.  0.
         35    2    3    3    0    0  0.96802637803E+02 -0.33031553842E+02  0.93693206899E+02  0.81149721183E+03  0.79955454695E+03 0.  0.
         22    1    5    5    0    0 -0.31771256148E+03 -0.18086787448E+03  0.55138830850E+02  0.36972253165E+03  0.00000000000E+00 0. -1.
         22    1    5    5    0    0  0.41451519928E+03  0.14783632063E+03  0.38554376049E+02  0.44177468018E+03  0.00000000000E+00 0. -1.
          5    1    4    4  502    0 -0.89935001493E+02  0.36980267436E+02  0.30384939986E+02  0.10198617186E+03  0.47000000000E+01 0.  1.
         -5    1    4    4    0  502 -0.68676363101E+01 -0.39487135938E+01  0.11421139791E+03  0.11458224199E+03  0.47000000000E+01 0.  1.
<mgrwt>
<rscale>  0 0.10000685E+04</rscale>
<asrwt>0</asrwt>
<pdfrwt beam="1">  1        2 0.97411936E-01 0.10000685E+04</pdfrwt>
<pdfrwt beam="2">  1       -2 0.60752006E-01 0.10000685E+04</pdfrwt>
<totfact> 0.14174227E+02</totfact>
</mgrwt>
</event>
<event>
 9    1  0.4236486E-036  0.1000050E+04  0.7818608E-02  0.8680991E-01
         -1   -1    0    0    0  501 -0.00000000000E+00  0.00000000000E+00  0.14931944888E+04  0.14931944888E+04  0.00000000000E+00 0. -1.
          1   -1    0    0  501    0  0.00000000000E+00 -0.00000000000E+00 -0.16744285728E+03  0.16744285728E+03  0.00000000000E+00 0. -1.
         36    2    1    2    0    0 -0.28421709430E-13 -0.71054273576E-14  0.13257516315E+04  0.16606373460E+04  0.10000495021E+04 0.  0.
         25    2    3    3    0    0 -0.13121513578E+03 -0.19299003232E+02  0.32679841133E+03  0.37411240450E+03  0.12479193151E+03 0.  0.
         35    2    3    3    0    0  0.13121513578E+03  0.19299003232E+02  0.99895322015E+03  0.12865249415E+04  0.79978061104E+03 0.  0.
         22    1    5    5    0    0  0.46871748667E+03 -0.28931440508E+02  0.59143938169E+03  0.75520437815E+03  0.00000000000E+00 0. -1.
         22    1    5    5    0    0 -0.33750235089E+03  0.48230443740E+02  0.40751383846E+03  0.53132056340E+03  0.00000000000E+00 0. -1.
          5    1    4    4  502    0 -0.53733944642E+02  0.52970426628E+02  0.14908354777E+03  0.16715620575E+03  0.47000000000E+01 0.  1.
         -5    1    4    4    0  502 -0.77481191139E+02 -0.72269429860E+02  0.17771486355E+03  0.20695619875E+03  0.47000000000E+01 0.  1.
<mgrwt>
<rscale>  0 0.10000495E+04</rscale>
<asrwt>0</asrwt>
<pdfrwt beam="1">  1        1 0.25760441E-01 0.10000495E+04</pdfrwt>
<pdfrwt beam="2">  1       -1 0.22972222E+00 0.10000495E+04</pdfrwt>
<totfact> 0.16147348E+01</totfact>
</mgrwt>
</event>
<event>
 9    1  0.4236486E-036  0.9995272E+03  0.7818608E-02  0.8681488E-01
          2   -1    0    0  501    0  0.00000000000E+00  0.00000000000E+00  0.30949390730E+03  0.30949390730E+03  0.00000000000E+00 0.  1.
         -2   -1    0    0    0  501 -0.00000000000E+00 -0.00000000000E+00 -0.80700675645E+03  0.80700675645E+03  0.00000000000E+00 0.  1.
         36    2    1    2    0    0 -0.14210854715E-13  0.28421709430E-13 -0.49751284915E+03  0.11165006638E+04  0.99952723679E+03 0.  0.
         25    2    3    3    0    0 -0.40578827716E+02 -0.11605707478E+03 -0.16516984285E+03  0.24014632647E+03  0.12358517414E+03 0.  0.
         35    2    3    3    0    0  0.40578827716E+02  0.11605707478E+03 -0.33234300630E+03  0.87635433728E+03  0.80151679007E+03 0.  0.
         22    1    5    5    0    0 -0.15022817377E+03 -0.99575911442E+02  0.20117255622E+03  0.27010046966E+03  0.00000000000E+00 0.  1.
         22    1    5    5    0    0  0.19080700149E+03  0.21563298622E+03 -0.53351556252E+03  0.60625386763E+03  0.00000000000E+00 0.  1.
          5    1    4    4  502    0 -0.63906100994E+02 -0.74777762420E+02 -0.40137252841E+02  0.10634280682E+03  0.47000000000E+01 0. -1.
         -5    1    4    4    0  502  0.23327273278E+02 -0.41279312357E+02 -0.12503259000E+03  0.13380351965E+03  0.47000000000E+01 0. -1.
<mgrwt>
<rscale>  0 0.99952724E+03</rscale>
<asrwt>0</asrwt>
<pdfrwt beam="1">  1        2 0.47614449E-01 0.99952724E+03</pdfrwt>
<pdfrwt beam="2">  1       -2 0.12415488E+00 0.99952724E+03</pdfrwt>
<totfact> 0.60060529E+01</totfact>
</mgrwt>
</event>
<event>
 9    1  0.4236486E-036  0.1000651E+04  0.7818608E-02  0.8680418E-01
         -1   -1    0    0    0  501 -0.00000000000E+00  0.00000000000E+00  0.68714288232E+03  0.68714288232E+03  0.00000000000E+00 0.  1.
          1   -1    0    0  501    0  0.00000000000E+00 -0.00000000000E+00 -0.36429929405E+03  0.36429929405E+03  0.00000000000E+00 0.  1.
         36    2    1    2    0    0  0.14210854715E-13  0.35527136788E-14  0.32284358827E+03  0.10514421764E+04  0.10006511219E+04 0.  0.
         25    2    3    3    0    0  0.83955677153E+02  0.28188643128E+02 -0.53288325697E+02  0.16266735003E+03  0.12560997486E+03 0.  0.
         35    2    3    3    0    0 -0.83955677153E+02 -0.28188643128E+02  0.37613191396E+03  0.88877482634E+03  0.80037636141E+03 0.  0.
         22    1    5    5    0    0  0.12256985646E+03  0.63587492159E+02 -0.21522059852E+03  0.25570812443E+03  0.00000000000E+00 0. -1.
         22    1    5    5    0    0 -0.20652553361E+03 -0.91776135287E+02  0.59135251248E+03  0.63306670191E+03  0.00000000000E+00 0. -1.
          5    1    4    4  502    0  0.10866643911E+03 -0.31261912347E+01 -0.56061056539E+02  0.12240547422E+03  0.47000000000E+01 0. -1.
         -5    1    4    4    0  502 -0.24710761952E+02  0.31314834362E+02  0.27727308421E+01  0.40261875810E+02  0.47000000000E+01 0. -1.
<mgrwt>
<rscale>  0 0.10006511E+04</rscale>
<asrwt>0</asrwt>
<pdfrwt beam="1">  1        1 0.56046045E-01 0.10006511E+04</pdfrwt>
<pdfrwt beam="2">  1       -1 0.10571429E+00 0.10006511E+04</pdfrwt>
<totfact> 0.68372107E+01</totfact>
</mgrwt>
</event>
<event>
 9    1  0.4236486E-036  0.9994422E+03  0.7818608E-02  0.8681569E-01
          1   -1    0    0  501    0  0.00000000000E+00  0.00000000000E+00  0.13657758150E+04  0.13657758150E+04  0.00000000000E+00 0. -1.
         -1   -1    0    0    0  501 -0.00000000000E+00 -0.00000000000E+00 -0.18284198003E+03  0.18284198003E+03  0.00000000000E+00 0. -1.
         36    2    1    2    0    0 -0.35527136788E-14  0.28421709430E-13  0.11829338350E+04  0.15486177951E+04  0.99944215301E+03 0.  0.
         25    2    3    3    0    0 -0.30979334077E+02  0.79988181624E+01  0.10535061634E+02  0.12911382885E+03  0.12464226027E+03 0.  0.
         35    2    3    3    0    0  0.30979334077E+02 -0.79988181624E+01  0.11723987734E+04  0.14195039662E+04  0.79965550462E+03 0.  0.
         22    1    5    5    0    0  0.21301406821E+03  0.32431084353E+03  0.79543335483E+03  0.88502358074E+03  0.00000000000E+00 0. -1.
         22    1    5    5    0    0 -0.18203473414E+03 -0.33230966169E+03  0.37696541854E+03  0.53448038548E+03  0.00000000000E+00 0. -1.
          5    1    4    4  502    0 -0.58167935095E+01  0.58120668518E+02  0.34436005543E+02  0.67968931678E+02  0.47000000000E+01 0. -1.
         -5    1    4    4    0  502 -0.25162540567E+02 -0.50121850356E+02 -0.23900943909E+02  0.61144897176E+02  0.47000000000E+01 0. -1.
<mgrwt>
<rscale>  0 0.99944215E+03</rscale>
<asrwt>0</asrwt>
<pdfrwt beam="1">  1        1 0.21011935E+00 0.99944215E+03</pdfrwt>
<pdfrwt beam="2">  1       -1 0.28129536E-01 0.99944215E+03</pdfrwt>
<totfact> 0.10106611E+02</totfact>
</mgrwt>
</event>
<event>
 9    1  0.4236486E-036  0.1000136E+04  0.7818608E-02  0.8680908E-01
          1   -1    0    0  501    0  0.00000000000E+00  0.00000000000E+00  0.27454880663E+03  0.27454880663E+03  0.00000000000E+00 0.  1.
         -1   -1    0    0    0  501 -0.00000000000E+00 -0.00000000000E+00 -0.91083341841E+03  0.91083341841E+03  0.00000000000E+00 0.  1.
         36    2    1    2    0    0  0.00000000000E+00  0.56843418861E-13 -0.63628461178E+03  0.11853822250E+04  0.10001364468E+04 0.  0.
         25    2    3    3    0    0 -0.44988608851E+02 -0.10600898125E+03 -0.30951875514E+02  0.17297410809E+03  0.12530021723E+03 0.  0.
         35    2    3    3    0    0  0.44988608851E+02  0.10600898125E+03 -0.60533273627E+03  0.10124081169E+04  0.80329359180E+03 0.  0.
         22    1    5    5    0    0  0.22183867044E+03 -0.29180270676E+03 -0.35467395570E+03  0.51005375229E+03  0.00000000000E+00 0. -1.
         22    1    5    5    0    0 -0.17685006159E+03  0.39781168802E+03 -0.25065878057E+03  0.50235436465E+03  0.00000000000E+00 0. -1.
          5    1    4    4  502    0  0.27251405526E+02 -0.70606974546E+02 -0.49142989008E+02  0.90360983429E+02  0.47000000000E+01 0.  1.
         -5    1    4    4    0  502 -0.72240014377E+02 -0.35402006709E+02  0.18191113495E+02  0.82613124662E+02  0.47000000000E+01 0.  1.
<mgrwt>
<rscale>  0 0.10001364E+04</rscale>
<asrwt>0</asrwt>
<pdfrwt beam="1">  1        1 0.42238277E-01 0.10001364E+04</pdfrwt>
<pdfrwt beam="2">  1       -1 0.14012822E+00 0.10001364E+04</pdfrwt>
<totfact> 0.48898836E+01</totfact>
</mgrwt>
</event>
<event>
 9    1  0.4236486E-036  0.9995538E+03  0.7818608E-02  0.8681463E-01
         -3   -1    0    0    0  501 -0.00000000000E+00  0.00000000000E+00  0.10672887871E+04  0.10672887871E+04  0.00000000000E+00 0. -1.
          3   -1    0    0  501    0  0.00000000000E+00 -0.00000000000E+00 -0.23402941835E+03  0.23402941835E+03  0.00000000000E+00 0. -1.
         36    2    1    2    0    0  0.14210854715E-13  0.00000000000E+00  0.83325936877E+03  0.13013182055E+04  0.99955384860E+03 0.  0.
         25    2    3    3    0    0  0.61291013387E+02  0.56094578415E+01 -0.92277918641E+01  0.13791203090E+03  0.12307120616E+03 0.  0.
         35    2    3    3    0    0 -0.61291013387E+02 -0.56094578415E+01  0.84248716064E+03  0.11634061746E+04  0.79996328470E+03 0.  0.
         22    1    5    5    0    0 -0.36716003250E+03  0.52346504302E+02  0.14248696531E+03  0.39730238013E+03  0.00000000000E+00 0. -1.
         22    1    5    5    0    0  0.30586901911E+03 -0.57955962143E+02  0.70000019533E+03  0.76610379444E+03  0.00000000000E+00 0. -1.
          5    1    4    4  502    0 -0.30588879371E+02 -0.25242273316E+02 -0.87096872817E+01  0.40875427287E+02  0.47000000000E+01 0.  1.
         -5    1    4    4    0  502  0.91879892757E+02  0.30851731158E+02 -0.51810458239E+00  0.97036603614E+02  0.47000000000E+01 0.  1.
<mgrwt>
<rscale>  0 0.99955385E+03</rscale>
<asrwt>0</asrwt>
<pdfrwt beam="1">  1        3 0.36004527E-01 0.99955385E+03</pdfrwt>
<pdfrwt beam="2">  1       -3 0.16419827E+00 0.99955385E+03</pdfrwt>
<totfact> 0.59728886E+00</totfact>
</mgrwt>
</event>
<event>
 9    1  0.4236486E-036  0.1000517E+04  0.7818608E-02  0.8680546E-01
          2   -1    0    0  501    0  0.00000000000E+00  0.00000000000E+00  0.13447775281E+04  0.13447775281E+04  0.00000000000E+00 0. -1.
         -2   -1    0    0    0  501 -0.00000000000E+00 -0.00000000000E+00 -0.18609658819E+03  0.18609658819E+03  0.00000000000E+00 0. -1.
         36    2    1    2    0    0 -0.14210854715E-13  0.00000000000E+00  0.11586809399E+04  0.15308741163E+04  0.10005168861E+04 0.  0.
         25    2    3    3    0    0 -0.18630742628E+02  0.13192930553E+03  0.14713694727E+03  0.23458506504E+03  0.12501370028E+03 0.  0.
         35    2    3    3    0    0  0.18630742628E+02 -0.13192930553E+03  0.10115439927E+04  0.12962890513E+04  0.79961966530E+03 0.  0.
         22    1    5    5    0    0  0.91498451986E+02 -0.11771724983E+03 -0.10176057230E+03  0.18051186027E+03  0.00000000000E+00 0.  1.
         22    1    5    5    0    0 -0.72867709358E+02 -0.14212055697E+02  0.11133045650E+04  0.11157771910E+04  0.00000000000E+00 0.  1.
          5    1    4    4  502    0 -0.49815971669E+02  0.52614514055E+02  0.12792537290E+03  0.14709489846E+03  0.47000000000E+01 0.  1.
         -5    1    4    4    0  502  0.31185229041E+02  0.79314791476E+02  0.19211574375E+02  0.87490166574E+02  0.47000000000E+01 0.  1.
<mgrwt>
<rscale>  0 0.10005169E+04</rscale>
<asrwt>0</asrwt>
<pdfrwt beam="1">  1        2 0.20688884E+00 0.10005169E+04</pdfrwt>
<pdfrwt beam="2">  1       -2 0.28630245E-01 0.10005169E+04</pdfrwt>
<totfact> 0.20900709E+02</totfact>
</mgrwt>
</event>
<event>
 9    1  0.4236486E-036  0.1000145E+04  0.7818608E-02  0.8680900E-01
          2   -1    0    0  501    0  0.00000000000E+00  0.00000000000E+00  0.22671216436E+04  0.22671216436E+04  0.00000000000E+00 0.  1.
         -2   -1    0    0    0  501 -0.00000000000E+00 -0.00000000000E+00 -0.11030398555E+03  0.11030398555E+03  0.00000000000E+00 0.  1.
         36    2    1    2    0    0 -0.71054273576E-14  0.56843418861E-13  0.21568176581E+04  0.23774256292E+04  0.10001450955E+04 0.  0.
         25    2    3    3    0    0  0.30962543050E+02  0.60171688032E+02  0.11536205508E+03  0.18163502100E+03  0.12289656621E+03 0.  0.
         35    2    3    3    0    0 -0.30962543050E+02 -0.60171688032E+02  0.20414556030E+04  0.21957906082E+04  0.80583875859E+03 0.  0.
         22    1    5    5    0    0  0.80649254013E+02 -0.42183626157E+03  0.11307171186E+04  0.12095335200E+04  0.00000000000E+00 0. -1.
         22    1    5    5    0    0 -0.11161179706E+03  0.36166457353E+03  0.91073848445E+03  0.98625708822E+03  0.00000000000E+00 0. -1.
          5    1    4    4  502    0 -0.11186787252E+02  0.82839385247E+02  0.10152865184E+03  0.13159659989E+03  0.47000000000E+01 0. -1.
         -5    1    4    4    0  502  0.42149330302E+02 -0.22667697215E+02  0.13833403245E+02  0.50038421111E+02  0.47000000000E+01 0. -1.
<mgrwt>
<rscale>  0 0.10001451E+04</rscale>
<asrwt>0</asrwt>
<pdfrwt beam="1">  1        2 0.34878791E+00 0.10001451E+04</pdfrwt>
<pdfrwt beam="2">  1       -2 0.16969846E-01 0.10001451E+04</pdfrwt>
<totfact> 0.15575828E+02</totfact>
</mgrwt>
</event>
<event>
 9    1  0.4236486E-036  0.9992991E+03  0.7818608E-02  0.8681706E-01
         -2   -1    0    0    0  501 -0.00000000000E+00  0.00000000000E+00  0.16267691475E+03  0.16267691475E+03  0.00000000000E+00 0.  1.
          2   -1    0    0  501    0  0.00000000000E+00 -0.00000000000E+00 -0.15346347875E+04  0.15346347875E+04  0.00000000000E+00 0.  1.
         36    2    1    2    0    0  0.71054273576E-14  0.28421709430E-13 -0.13719578728E+04  0.16973117023E+04  0.99929905933E+03 0.  0.
         25    2    3    3    0    0  0.62601728021E+02  0.12442157116E+03 -0.25569966798E+03  0.31728471583E+03  0.12604589234E+03 0.  0.
         35    2    3    3    0    0 -0.62601728021E+02 -0.12442157116E+03 -0.11162582048E+04  0.13800269864E+04  0.79940127582E+03 0.  0.
         22    1    5    5    0    0  0.11547412675E+03 -0.38305338080E+03 -0.93608960253E+03  0.10180019207E+04  0.00000000000E+00 0. -1.
         22    1    5    5    0    0 -0.17807585477E+03  0.25863180963E+03 -0.18016860226E+03  0.36202506577E+03  0.00000000000E+00 0. -1.
          5    1    4    4  502    0  0.70748917547E+02  0.12236482485E+03 -0.26718043278E+03  0.30230122949E+03  0.47000000000E+01 0. -1.
         -5    1    4    4    0  502 -0.81471895262E+01  0.20567463146E+01  0.11480764798E+02  0.14983486341E+02  0.47000000000E+01 0. -1.
<mgrwt>
<rscale>  0 0.99929906E+03</rscale>
<asrwt>0</asrwt>
<pdfrwt beam="1">  1        2 0.23609765E+00 0.99929906E+03</pdfrwt>
<pdfrwt beam="2">  1       -2 0.25027219E-01 0.99929906E+03</pdfrwt>
<totfact> 0.20735159E+02</totfact>
</mgrwt>
</event>
<event>
 9    1  0.4236486E-036  0.1000151E+04  0.7818608E-02  0.8680894E-01
          2   -1    0    0  501    0  0.00000000000E+00  0.00000000000E+00  0.18583616544E+04  0.18583616544E+04  0.00000000000E+00 0. -1.
         -2   -1    0    0    0  501 -0.00000000000E+00 -0.00000000000E+00 -0.13456779781E+03  0.13456779781E+03  0.00000000000E+00 0. -1.
         36    2    1    2    0    0  0.35527136788E-14 -0.62172489379E-14  0.17237938565E+04  0.19929294522E+04  0.10001512593E+04 0.  0.
         25    2    3    3    0    0 -0.14280951100E+02 -0.63375988136E+01  0.60290914390E+03  0.61584288518E+03  0.12457492810E+03 0.  0.
         35    2    3    3    0    0  0.14280951100E+02  0.63375988136E+01  0.11208847126E+04  0.13770865670E+04  0.79983796059E+03 0.  0.
         22    1    5    5    0    0  0.76937385383E+02  0.28447476866E+03  0.90938465677E+02  0.30840729533E+03  0.00000000000E+00 0.  1.
         22    1    5    5    0    0 -0.62656434283E+02 -0.27813716985E+03  0.10299462470E+04  0.10686792716E+04  0.00000000000E+00 0.  1.
          5    1    4    4  502    0 -0.14765714728E+02  0.70576658908E+01  0.49737517371E+01  0.17738804514E+02  0.47000000000E+01 0.  1.
         -5    1    4    4    0  502  0.48476362838E+00 -0.13395264704E+02  0.59793539216E+03  0.59810408067E+03  0.47000000000E+01 0.  1.
<mgrwt>
<rscale>  0 0.10001513E+04</rscale>
<asrwt>0</asrwt>
<pdfrwt beam="1">  1        2 0.28590177E+00 0.10001513E+04</pdfrwt>
<pdfrwt beam="2">  1       -2 0.20702739E-01 0.10001513E+04</pdfrwt>
<totfact> 0.18998662E+02</totfact>
</mgrwt>
</event>
<event>
 9    1  0.4236486E-036  0.1002168E+04  0.7818608E-02  0.8678976E-01
          2   -1    0    0  501    0  0.00000000000E+00  0.00000000000E+00  0.17188056002E+04  0.17188056002E+04  0.00000000000E+00 0. -1.
         -2   -1    0    0    0  501 -0.00000000000E+00 -0.00000000000E+00 -0.14608119615E+03  0.14608119615E+03  0.00000000000E+00 0. -1.
         36    2    1    2    0    0 -0.56843418861E-13  0.35527136788E-14  0.15727244041E+04  0.18648867964E+04  0.10021680059E+04 0.  0.
         25    2    3    3    0    0  0.14033664688E+03 -0.81412750292E+01  0.33464067786E+03  0.38406651278E+03  0.12554699576E+03 0.  0.
         35    2    3    3    0    0 -0.14033664688E+03  0.81412750292E+01  0.12380837262E+04  0.14808202836E+04  0.80013545376E+03 0.  0.
         22    1    5    5    0    0  0.25760119764E+03 -0.12400184665E+02  0.96221104406E+03  0.99617379755E+03  0.00000000000E+00 0. -1.
         22    1    5    5    0    0 -0.39793784453E+03  0.20541459695E+02  0.27587268213E+03  0.48464648603E+03  0.00000000000E+00 0. -1.
          5    1    4    4  502    0  0.28899039401E+02 -0.58286256157E+02  0.98494261379E+02  0.11813404107E+03  0.47000000000E+01 0.  1.
         -5    1    4    4    0  502  0.11143760748E+03  0.50144981128E+02  0.23614641648E+03  0.26593247171E+03  0.47000000000E+01 0.  1.
<mgrwt>
<rscale>  0 0.10021680E+04</rscale>
<asrwt>0</asrwt>
<pdfrwt beam="1">  1        2 0.26443162E+00 0.10021680E+04</pdfrwt>
<pdfrwt beam="2">  1       -2 0.22474031E-01 0.10021680E+04</pdfrwt>
<totfact> 0.19735542E+02</totfact>
</mgrwt>
</event>
<event>
 9    1  0.4236486E-036  0.1000378E+04  0.7818608E-02  0.8680678E-01
          2   -1    0    0  501    0  0.00000000000E+00  0.00000000000E+00  0.15713952015E+04  0.15713952015E+04  0.00000000000E+00 0.  1.
         -2   -1    0    0    0  501 -0.00000000000E+00 -0.00000000000E+00 -0.15921464529E+03  0.15921464529E+03  0.00000000000E+00 0.  1.
         36    2    1    2    0    0 -0.71054273576E-14  0.71054273576E-14  0.14121805562E+04  0.17306098468E+04  0.10003781877E+04 0.  0.
         25    2    3    3    0    0 -0.62452387274E+02  0.38903424347E+02  0.47599223095E+03  0.49772679296E+03  0.12549732829E+03 0.  0.
         35    2    3    3    0    0  0.62452387274E+02 -0.38903424347E+02  0.93618832524E+03  0.12328830538E+04  0.79883556939E+03 0.  0.
         22    1    5    5    0    0  0.53427007804E+02 -0.81471460773E+02  0.10791021949E+04  0.10834913895E+04  0.00000000000E+00 0. -1.
         22    1    5    5    0    0  0.90253794699E+01  0.42568036426E+02 -0.14291386969E+03  0.14939166426E+03  0.00000000000E+00 0. -1.
          5    1    4    4  502    0  0.10609242011E+02  0.58180800356E+02  0.30511338491E+03  0.31082765192E+03  0.47000000000E+01 0.  1.
         -5    1    4    4    0  502 -0.73061629285E+02 -0.19277376009E+02  0.17087884604E+03  0.18689914104E+03  0.47000000000E+01 0.  1.
<mgrwt>
<rscale>  0 0.10003782E+04</rscale>
<asrwt>0</asrwt>
<pdfrwt beam="1">  1        2 0.24175310E+00 0.10003782E+04</pdfrwt>
<pdfrwt beam="2">  1       -2 0.24494562E-01 0.10003782E+04</pdfrwt>
<totfact> 0.20534798E+02</totfact>
</mgrwt>
</event>
<event>
 9    1  0.4236486E-036  0.9998149E+03  0.7818608E-02  0.8681214E-01
         -2   -1    0    0    0  501 -0.00000000000E+00  0.00000000000E+00  0.48462467111E+03  0.48462467111E+03  0.00000000000E+00 0.  1.
          2   -1    0    0  501    0  0.00000000000E+00 -0.00000000000E+00 -0.51567221779E+03  0.51567221779E+03  0.00000000000E+00 0.  1.
         36    2    1    2    0    0  0.28421709430E-13 -0.28421709430E-13 -0.31047546680E+02  0.10002968889E+04  0.99981494077E+03 0.  0.
         25    2    3    3    0    0 -0.10091085768E+03  0.72981343639E+02  0.60516447181E+02  0.18579917117E+03  0.12389436593E+03 0.  0.
         35    2    3    3    0    0  0.10091085768E+03 -0.72981343639E+02 -0.91563993861E+02  0.81449771774E+03  0.79969574809E+03 0.  0.
         22    1    5    5    0    0  0.31687409460E+03  0.23809686329E+03 -0.16398364377E+03  0.42894048953E+03  0.00000000000E+00 0. -1.
         22    1    5    5    0    0 -0.21596323692E+03 -0.31107820693E+03  0.72419649913E+02  0.38555722820E+03  0.00000000000E+00 0. -1.
          5    1    4    4  502    0 -0.61246792630E+01  0.73222250030E+02  0.52759796861E+02  0.90579775670E+02  0.47000000000E+01 0. -1.
         -5    1    4    4    0  502 -0.94786178418E+02 -0.24090639110E+00  0.77566503202E+01  0.95219395499E+02  0.47000000000E+01 0. -1.
<mgrwt>
<rscale>  0 0.99981494E+03</rscale>
<asrwt>0</asrwt>
<pdfrwt beam="1">  1        2 0.79334187E-01 0.99981494E+03</pdfrwt>
<pdfrwt beam="2">  1       -2 0.74557642E-01 0.99981494E+03</pdfrwt>
<totfact> 0.11611526E+02</totfact>
</mgrwt>
</event>
<event>
 9    1  0.4236486E-036  0.1000017E+04  0.7818608E-02  0.8681022E-01
          2   -1    0    0  501    0  0.00000000000E+00  0.00000000000E+00  0.65756282536E+03  0.65756282536E+03  0.00000000000E+00 0.  1.
         -2   -1    0    0    0  501 -0.00000000000E+00 -0.00000000000E+00 -0.38020469181E+03  0.38020469181E+03  0.00000000000E+00 0.  1.
         36    2    1    2    0    0  0.00000000000E+00 -0.28421709430E-13  0.27735813354E+03  0.10377675172E+04  0.10000169426E+04 0.  0.
         25    2    3    3    0    0  0.66847591841E+02 -0.10951493701E+03 -0.62410057539E+01  0.17948588574E+03  0.12535593748E+03 0.  0.
         35    2    3    3    0    0 -0.66847591841E+02  0.10951493701E+03  0.28359913930E+03  0.85828163144E+03  0.79984796373E+03 0.  0.
         22    1    5    5    0    0  0.69428031569E+02 -0.21478479740E+03 -0.17120843661E+03  0.28331094142E+03  0.00000000000E+00 0. -1.
         22    1    5    5    0    0 -0.13627562341E+03  0.32429973441E+03  0.45480757591E+03  0.57497069002E+03  0.00000000000E+00 0. -1.
          5    1    4    4  502    0 -0.10757316757E+02 -0.21961506350E+02 -0.48892606281E+02  0.54868976425E+02  0.47000000000E+01 0. -1.
         -5    1    4    4    0  502  0.77604908598E+02 -0.87553430665E+02  0.42651600527E+02  0.12461690931E+03  0.47000000000E+01 0. -1.
<mgrwt>
<rscale>  0 0.10000169E+04</rscale>
<asrwt>0</asrwt>
<pdfrwt beam="1">  1        2 0.10116351E+00 0.10000169E+04</pdfrwt>
<pdfrwt beam="2">  1       -2 0.58493030E-01 0.10000169E+04</pdfrwt>
<totfact> 0.14655506E+02</totfact>
</mgrwt>
</event>
<event>
 9    1  0.4236486E-036  0.1001441E+04  0.7818608E-02  0.8679666E-01
         -2   -1    0    0    0  501 -0.00000000000E+00  0.00000000000E+00  0.19531366241E+03  0.19531366241E+03  0.00000000000E+00 0.  1.
          2   -1    0    0  501    0  0.00000000000E+00 -0.00000000000E+00 -0.12836851865E+04  0.12836851865E+04  0.00000000000E+00 0.  1.
         36    2    1    2    0    0 -0.28421709430E-13  0.28421709430E-13 -0.10883715241E+04  0.14789988489E+04  0.10014414714E+04 0.  0.
         25    2    3    3    0    0  0.64899150766E+02  0.65055936583E+02 -0.55095461223E+02  0.16805828981E+03  0.12947549679E+03 0.  0.
         35    2    3    3    0    0 -0.64899150766E+02 -0.65055936583E+02 -0.10332760629E+04  0.13109405591E+04  0.80153699400E+03 0.  0.
         22    1    5    5    0    0 -0.29654283351E+03  0.26819381370E+03 -0.54708893866E+03  0.67762222559E+03  0.00000000000E+00 0. -1.
         22    1    5    5    0    0  0.23164368274E+03 -0.33324975028E+03 -0.48618712420E+03  0.63331833350E+03  0.00000000000E+00 0. -1.
          5    1    4    4  502    0  0.77096480192E+02  0.71044558599E+02 -0.84887338782E+02  0.13497831993E+03  0.47000000000E+01 0. -1.
         -5    1    4    4    0  502 -0.12197329425E+02 -0.59886220164E+01  0.29791877558E+02  0.33079969879E+02  0.47000000000E+01 0. -1.
<mgrwt>
<rscale>  0 0.10014415E+04</rscale>
<asrwt>0</asrwt>
<pdfrwt beam="1">  1        2 0.19749004E+00 0.10014415E+04</pdfrwt>
<pdfrwt beam="2">  1       -2 0.30048254E-01 0.10014415E+04</pdfrwt>
<totfact> 0.20767359E+02</totfact>
</mgrwt>
</event>
<event>
 9    1  0.4236486E-036  0.9971818E+03  0.7818608E-02  0.8683726E-01
          2   -1    0    0  501    0  0.00000000000E+00  0.00000000000E+00  0.33364908351E+03  0.33364908351E+03  0.00000000000E+00 0. -1.
         -2   -1    0    0    0  501 -0.00000000000E+00 -0.00000000000E+00 -0.74507283852E+03  0.74507283852E+03  0.00000000000E+00 0. -1.
         36    2    1    2    0    0  0.00000000000E+00  0.00000000000E+00 -0.41142375501E+03  0.10787219220E+04  0.99718176823E+03 0.  0.
         25    2    3    3    0    0  0.10380564175E+03  0.30922237541E+02 -0.16961567421E+03  0.23532097707E+03  0.12196183533E+03 0.  0.
         35    2    3    3    0    0 -0.10380564175E+03 -0.30922237541E+02 -0.24180808080E+03  0.84340094497E+03  0.80070107406E+03 0.  0.
         22    1    5    5    0    0  0.25433418332E+03  0.53831060543E+01 -0.38043757840E+03  0.45765446102E+03  0.00000000000E+00 0.  1.
         22    1    5    5    0    0 -0.35813982507E+03 -0.36305343596E+02  0.13862949760E+03  0.38574648395E+03  0.00000000000E+00 0.  1.
          5    1    4    4  502    0  0.10332080732E+03  0.10358483463E+02 -0.52746297637E+02  0.11656221223E+03  0.47000000000E+01 0.  1.
         -5    1    4    4    0  502  0.48483442658E+00  0.20563754078E+02 -0.11686937657E+03  0.11875876484E+03  0.47000000000E+01 0.  1.
<mgrwt>
<rscale>  0 0.99718177E+03</rscale>
<asrwt>0</asrwt>
<pdfrwt beam="1">  1        2 0.51330629E-01 0.99718177E+03</pdfrwt>
<pdfrwt beam="2">  1       -2 0.11462659E+00 0.99718177E+03</pdfrwt>
<totfact> 0.67983699E+01</totfact>
</mgrwt>
</event>
<event>
 9    1  0.4236486E-036  0.1000566E+04  0.7818608E-02  0.8680499E-01
         -1   -1    0    0    0  501 -0.00000000000E+00  0.00000000000E+00  0.18521003071E+03  0.18521003071E+03  0.00000000000E+00 0. -1.
          1   -1    0    0  501    0  0.00000000000E+00 -0.00000000000E+00 -0.13513484429E+04  0.13513484429E+04  0.00000000000E+00 0. -1.
         36    2    1    2    0    0  0.00000000000E+00  0.28421709430E-13 -0.11661384122E+04  0.15365584736E+04  0.10005664128E+04 0.  0.
         25    2    3    3    0    0  0.12039751140E+03  0.69677563386E+02 -0.18089255693E+03  0.25969562335E+03  0.12397248099E+03 0.  0.
         35    2    3    3    0    0 -0.12039751140E+03 -0.69677563386E+02 -0.98524585529E+03  0.12768628503E+04  0.80019923738E+03 0.  0.
         22    1    5    5    0    0 -0.91007981542E+02 -0.40064313414E+03 -0.27978054903E+03  0.49706592043E+03  0.00000000000E+00 0. -1.
         22    1    5    5    0    0 -0.29389529862E+02  0.33096557075E+03 -0.70546530626E+03  0.77979692986E+03  0.00000000000E+00 0. -1.
          5    1    4    4  502    0 -0.20154446138E+02  0.63699978224E+01  0.42844153661E+00  0.21657611446E+02  0.47000000000E+01 0.  1.
         -5    1    4    4    0  502  0.14055195754E+03  0.63307565564E+02 -0.18132099847E+03  0.23803801191E+03  0.47000000000E+01 0.  1.
<mgrwt>
<rscale>  0 0.10005664E+04</rscale>
<asrwt>0</asrwt>
<pdfrwt beam="1">  1        1 0.20789977E+00 0.10005664E+04</pdfrwt>
<pdfrwt beam="2">  1       -1 0.28493850E-01 0.10005664E+04</pdfrwt>
<totfact> 0.10127248E+02</totfact>
</mgrwt>
</event>
<event>
 9    1  0.4236486E-036  0.9991023E+03  0.7818608E-02  0.8681893E-01
          2   -1    0    0  501    0  0.00000000000E+00  0.00000000000E+00  0.38075255963E+03  0.38075255963E+03  0.00000000000E+00 0. -1.
         -2   -1    0    0    0  501 -0.00000000000E+00 -0.00000000000E+00 -0.65541610482E+03  0.65541610482E+03  0.00000000000E+00 0. -1.
         36    2    1    2    0    0  0.00000000000E+00  0.14210854715E-13 -0.27466354519E+03  0.10361686644E+04  0.99910231614E+03 0.  0.
         25    2    3    3    0    0 -0.78613386589E+02  0.91758590515E+02 -0.11524557049E+03  0.21004281993E+03  0.12742347195E+03 0.  0.
         35    2    3    3    0    0  0.78613386589E+02 -0.91758590515E+02 -0.15941797470E+03  0.82612584451E+03  0.80154233627E+03 0.  0.
         22    1    5    5    0    0 -0.12148194817E+03 -0.31674989587E+03 -0.33566276135E+03  0.47723982401E+03  0.00000000000E+00 0.  1.
         22    1    5    5    0    0  0.20009533475E+03  0.22499130536E+03  0.17624478666E+03  0.34888602050E+03  0.00000000000E+00 0.  1.
          5    1    4    4  502    0 -0.56905902165E+02  0.92557541421E+02 -0.13967214071E+03  0.17701857830E+03  0.47000000000E+01 0.  1.
         -5    1    4    4    0  502 -0.21707484424E+02 -0.79895090650E+00  0.24426570215E+02  0.33024241628E+02  0.47000000000E+01 0.  1.
<mgrwt>
<rscale>  0 0.99910232E+03</rscale>
<asrwt>0</asrwt>
<pdfrwt beam="1">  1        2 0.58577317E-01 0.99910232E+03</pdfrwt>
<pdfrwt beam="2">  1       -2 0.10083325E+00 0.99910232E+03</pdfrwt>
<totfact> 0.80832096E+01</totfact>
</mgrwt>
</event>
<event>
 9    1  0.4236486E-036  0.1000303E+04  0.7818608E-02  0.8680749E-01
         -2   -1    0    0    0  501 -0.00000000000E+00  0.00000000000E+00  0.24539521128E+03  0.24539521128E+03  0.00000000000E+00 0. -1.
          2   -1    0    0  501    0  0.00000000000E+00 -0.00000000000E+00 -0.10193832433E+04  0.10193832433E+04  0.00000000000E+00 0. -1.
         36    2    1    2    0    0  0.00000000000E+00 -0.71054273576E-14 -0.77398803198E+03  0.12647784545E+04  0.10003034867E+04 0.  0.
         25    2    3    3    0    0  0.12836042326E+03 -0.56650385501E+02 -0.13373797152E+03  0.23093102453E+03  0.12552939347E+03 0.  0.
         35    2    3    3    0    0 -0.12836042326E+03  0.56650385501E+02 -0.64025006046E+03  0.10338474300E+04  0.79952154706E+03 0.  0.
         22    1    5    5    0    0 -0.22239181099E+03 -0.36799057807E+01  0.12859953783E+03  0.25692314110E+03  0.00000000000E+00 0. -1.
         22    1    5    5    0    0  0.94031387733E+02  0.60330291282E+02 -0.76884959829E+03  0.77692428892E+03  0.00000000000E+00 0. -1.
          5    1    4    4  502    0  0.51189391175E+02 -0.14394711800E+02  0.17263446678E+02  0.56104171751E+02  0.47000000000E+01 0. -1.
         -5    1    4    4    0  502  0.77171032082E+02 -0.42255673701E+02 -0.15100141820E+03  0.17482685278E+03  0.47000000000E+01 0. -1.
<mgrwt>
<rscale>  0 0.10003035E+04</rscale>
<asrwt>0</asrwt>
<pdfrwt beam="1">  1        2 0.15682820E+00 0.10003035E+04</pdfrwt>
<pdfrwt beam="2">  1       -2 0.37753109E-01 0.10003035E+04</pdfrwt>
<totfact> 0.19582344E+02</totfact>
</mgrwt>
</event>
<event>
 9    1  0.4236486E-036  0.9998977E+03  0.7818608E-02  0.8681135E-01
          1   -1    0    0  501    0  0.00000000000E+00  0.00000000000E+00  0.41454229352E+03  0.41454229352E+03  0.00000000000E+00 0.  1.
         -1   -1    0    0    0  501 -0.00000000000E+00 -0.00000000000E+00 -0.60295137281E+03  0.60295137281E+03  0.00000000000E+00 0.  1.
         36    2    1    2    0    0  0.00000000000E+00 -0.14210854715E-13 -0.18840907929E+03  0.10174936663E+04  0.99989768470E+03 0.  0.
         25    2    3    3    0    0  0.86070423853E+02  0.28269792830E+02 -0.15183911809E+03  0.21506140380E+03  0.12242953308E+03 0.  0.
         35    2    3    3    0    0 -0.86070423853E+02 -0.28269792830E+02 -0.36569961196E+02  0.80243226253E+03  0.79646272659E+03 0.  0.
         22    1    5    5    0    0 -0.89207055140E+02 -0.36069706931E+03  0.17256229756E+03  0.40968038888E+03  0.00000000000E+00 0.  1.
         22    1    5    5    0    0  0.31366312866E+01  0.33242727648E+03 -0.20913225876E+03  0.39275187365E+03  0.00000000000E+00 0.  1.
          5    1    4    4  502    0  0.11069968832E+03  0.46151182919E+02 -0.10784842561E+03  0.16136209464E+03  0.47000000000E+01 0. -1.
         -5    1    4    4    0  502 -0.24629264462E+02 -0.17881390089E+02 -0.43990692478E+02  0.53699309159E+02  0.47000000000E+01 0. -1.
<mgrwt>
<rscale>  0 0.99989768E+03</rscale>
<asrwt>0</asrwt>
<pdfrwt beam="1">  1        1 0.63775737E-01 0.99989768E+03</pdfrwt>
<pdfrwt beam="2">  1       -1 0.92761750E-01 0.99989768E+03</pdfrwt>
<totfact> 0.77050403E+01</totfact>
</mgrwt>
</event>
<event>
 9    1  0.4236486E-036  0.9990514E+03  0.7818608E-02  0.8681942E-01
          2   -1    0    0  501    0  0.00000000000E+00  0.00000000000E+00  0.83264349750E+03  0.83264349750E+03  0.00000000000E+00 0.  1.
         -2   -1    0    0    0  501 -0.00000000000E+00 -0.00000000000E+00 -0.29967915625E+03  0.29967915625E+03  0.00000000000E+00 0.  1.
         36    2    1    2    0    0 -0.35527136788E-14  0.14210854715E-13  0.53296434126E+03  0.11323226538E+04  0.99905135161E+03 0.  0.
         25    2    3    3    0    0  0.24802230367E+02 -0.77264127945E+02  0.22835056864E+03  0.27257609889E+03  0.12477520341E+03 0.  0.
         35    2    3    3    0    0 -0.24802230367E+02  0.77264127945E+02  0.30461377261E+03  0.85974655486E+03  0.79986854672E+03 0.  0.
         22    1    5    5    0    0  0.40244660068E+02 -0.15145010736E+03 -0.22788706556E+03  0.27656695814E+03  0.00000000000E+00 0.  1.
         22    1    5    5    0    0 -0.65046890435E+02  0.22871423531E+03  0.53250083817E+03  0.58317959673E+03  0.00000000000E+00 0.  1.
          5    1    4    4  502    0 -0.28718784212E+02 -0.45669714764E+02  0.24551086829E+02  0.59458702288E+02  0.47000000000E+01 0.  1.
         -5    1    4    4    0  502  0.53521014579E+02 -0.31594413181E+02  0.20379948182E+03  0.21311739660E+03  0.47000000000E+01 0.  1.
<mgrwt>
<rscale>  0 0.99905135E+03</rscale>
<asrwt>0</asrwt>
<pdfrwt beam="1">  1        2 0.12809900E+00 0.99905135E+03</pdfrwt>
<pdfrwt beam="2">  1       -2 0.46104486E-01 0.99905135E+03</pdfrwt>
<totfact> 0.17620506E+02</totfact>
</mgrwt>
</event>
<event>
 9    1  0.4236486E-036  0.9991109E+03  0.7818608E-02  0.8681885E-01
          1   -1    0    0  501    0  0.00000000000E+00  0.00000000000E+00  0.12674560272E+04  0.12674560272E+04  0.00000000000E+00 0.  1.
         -1   -1    0    0    0  501 -0.00000000000E+00 -0.00000000000E+00 -0.19689489962E+03  0.19689489962E+03  0.00000000000E+00 0.  1.
         36    2    1    2    0    0  0.14210854715E-13  0.00000000000E+00  0.10705611276E+04  0.14643509268E+04  0.99911085920E+03 0.  0.
         25    2    3    3    0    0 -0.11337737930E+03 -0.80305684077E+02  0.22801285444E+03  0.29496118956E+03  0.12533478578E+03 0.  0.
         35    2    3    3    0    0  0.11337737930E+03  0.80305684077E+02  0.84254827314E+03  0.11693897372E+04  0.79892511037E+03 0.  0.
         22    1    5    5    0    0  0.18101667232E+03  0.36084200630E+03  0.17092348837E+03  0.43839346259E+03  0.00000000000E+00 0. -1.
         22    1    5    5    0    0 -0.67639293023E+02 -0.28053632222E+03  0.67162478477E+03  0.73099627466E+03  0.00000000000E+00 0. -1.
          5    1    4    4  502    0  0.23944984237E+02 -0.37690369983E+01  0.59672887467E+02  0.64579496814E+02  0.47000000000E+01 0.  1.
         -5    1    4    4    0  502 -0.13732236354E+03 -0.76536647078E+02  0.16833996697E+03  0.23038169275E+03  0.47000000000E+01 0.  1.
<mgrwt>
<rscale>  0 0.99911086E+03</rscale>
<asrwt>0</asrwt>
<pdfrwt beam="1">  1        1 0.19499323E+00 0.99911086E+03</pdfrwt>
<pdfrwt beam="2">  1       -1 0.30291524E-01 0.99911086E+03</pdfrwt>
<totfact> 0.10505167E+02</totfact>
</mgrwt>
</event>
<event>
 9    1  0.4236486E-036  0.9998496E+03  0.7818608E-02  0.8681181E-01
         -1   -1    0    0    0  501 -0.00000000000E+00  0.00000000000E+00  0.13537439350E+03  0.13537439350E+03  0.00000000000E+00 0. -1.
          1   -1    0    0  501    0  0.00000000000E+00 -0.00000000000E+00 -0.18461747625E+04  0.18461747625E+04  0.00000000000E+00 0. -1.
         36    2    1    2    0    0 -0.14210854715E-13  0.14210854715E-13 -0.17108003690E+04  0.19815491560E+04  0.99984956620E+03 0.  0.
         25    2    3    3    0    0  0.72786137651E+02 -0.10881620106E+03 -0.22246228545E+03  0.28669939715E+03  0.12477294751E+03 0.  0.
         35    2    3    3    0    0 -0.72786137651E+02  0.10881620106E+03 -0.14883380835E+04  0.16948497588E+04  0.80014165411E+03 0.  0.
         22    1    5    5    0    0 -0.40989138813E+03  0.17356489968E+03 -0.63887116260E+03  0.77864760121E+03  0.00000000000E+00 0. -1.
         22    1    5    5    0    0  0.33710525047E+03 -0.64748698617E+02 -0.84946692093E+03  0.91620215761E+03  0.00000000000E+00 0. -1.
          5    1    4    4  502    0  0.45330322641E+02  0.10352442237E+02 -0.11386489805E+03  0.12308255855E+03  0.47000000000E+01 0.  1.
         -5    1    4    4    0  502  0.27455815010E+02 -0.11916864330E+03 -0.10859738740E+03  0.16361683860E+03  0.47000000000E+01 0.  1.
<mgrwt>
<rscale>  0 0.99984957E+03</rscale>
<asrwt>0</asrwt>
<pdfrwt beam="1">  1        1 0.28402687E+00 0.99984957E+03</pdfrwt>
<pdfrwt beam="2">  1       -1 0.20826831E-01 0.99984957E+03</pdfrwt>
<totfact> 0.76355966E+01</totfact>
</mgrwt>
</event>
<event>
 9    1  0.4236486E-036  0.1005010E+04  0.7818608E-02  0.8676282E-01
          2   -1    0    0  501    0  0.00000000000E+00  0.00000000000E+00  0.12558765950E+04  0.12558765950E+04  0.00000000000E+00 0. -1.
         -2   -1    0    0    0  501 -0.00000000000E+00 -0.00000000000E+00 -0.20106376878E+03  0.20106376878E+03  0.00000000000E+00 0. -1.
         36    2    1    2    0    0  0.71054273576E-14 -0.14210854715E-13  0.10548128262E+04  0.14569403637E+04  0.10050100125E+04 0.  0.
         25    2    3    3    0    0  0.36821008419E+02 -0.59963047095E+02  0.15436877883E+02  0.14383073959E+03  0.12448948057E+03 0.  0.
         35    2    3    3    0    0 -0.36821008419E+02  0.59963047095E+02  0.10393759483E+04  0.13131096242E+04  0.79937673812E+03 0.  0.
         22    1    5    5    0    0 -0.92598196369E+00  0.23568342287E+03 -0.21979143817E+02  0.23670787064E+03  0.00000000000E+00 0.  1.
         22    1    5    5    0    0 -0.35895026455E+02 -0.17572037578E+03  0.10613550921E+04  0.10764017535E+04  0.00000000000E+00 0.  1.
          5    1    4    4  502    0  0.92978441350E+01  0.37980194121E+02 -0.57619695306E+01  0.39802453993E+02  0.47000000000E+01 0.  1.
         -5    1    4    4    0  502  0.27523164284E+02 -0.97943241216E+02  0.21198847413E+02  0.10402828559E+03  0.47000000000E+01 0.  1.
<mgrwt>
<rscale>  0 0.10050100E+04</rscale>
<asrwt>0</asrwt>
<pdfrwt beam="1">  1        2 0.19321178E+00 0.10050100E+04</pdfrwt>
<pdfrwt beam="2">  1       -2 0.30932888E-01 0.10050100E+04</pdfrwt>
<totfact> 0.20443963E+02</totfact>
</mgrwt>
</event>
<event>
 9    1  0.4236486E-036  0.9993275E+03  0.7818608E-02  0.8681679E-01
         -2   -1    0    0    0  501 -0.00000000000E+00  0.00000000000E+00  0.22561154452E+04  0.22561154452E+04  0.00000000000E+00 0.  1.
          2   -1    0    0  501    0  0.00000000000E+00 -0.00000000000E+00 -0.11066093886E+03  0.11066093886E+03  0.00000000000E+00 0.  1.
         36    2    1    2    0    0  0.00000000000E+00  0.28421709430E-13  0.21454545063E+04  0.23667763840E+04  0.99932748056E+03 0.  0.
         25    2    3    3    0    0  0.10996459877E+03 -0.47619158802E+02  0.58897245431E+03  0.61397170158E+03  0.12535111145E+03 0.  0.
         35    2    3    3    0    0 -0.10996459877E+03  0.47619158802E+02  0.15564820520E+04  0.17528046824E+04  0.79707470125E+03 0.  0.
         22    1    5    5    0    0  0.89480684033E+02  0.35510394419E+03  0.41275665450E+03  0.55179131909E+03  0.00000000000E+00 0. -1.
         22    1    5    5    0    0 -0.19944528280E+03 -0.30748478539E+03  0.11437253975E+04  0.12010133634E+04  0.00000000000E+00 0. -1.
          5    1    4    4  502    0  0.13694512585E+03 -0.45626648841E+02  0.52142384907E+03  0.54105515334E+03  0.47000000000E+01 0.  1.
         -5    1    4    4    0  502 -0.26980527081E+02 -0.19925099610E+01  0.67548605240E+02  0.72916548240E+02  0.47000000000E+01 0.  1.
<mgrwt>
<rscale>  0 0.99932748E+03</rscale>
<asrwt>0</asrwt>
<pdfrwt beam="1">  1        2 0.17024762E-01 0.99932748E+03</pdfrwt>
<pdfrwt beam="2">  1       -2 0.34709465E+00 0.99932748E+03</pdfrwt>
<totfact> 0.68039048E+00</totfact>
</mgrwt>
</event>
<event>
 9    1  0.4236486E-036  0.9998489E+03  0.7818608E-02  0.8681182E-01
         -2   -1    0    0    0  501 -0.00000000000E+00  0.00000000000E+00  0.10609584867E+03  0.10609584867E+03  0.00000000000E+00 0. -1.
          2   -1    0    0  501    0  0.00000000000E+00 -0.00000000000E+00 -0.23556476615E+04  0.23556476615E+04  0.00000000000E+00 0. -1.
         36    2    1    2    0    0  0.28421709430E-13 -0.14210854715E-13 -0.22495518129E+04  0.24617435102E+04  0.99984886419E+03 0.  0.
         25    2    3    3    0    0  0.59005348122E+02  0.52787515232E+02 -0.70715651480E+03  0.72261494226E+03  0.12583268844E+03 0.  0.
         35    2    3    3    0    0 -0.59005348122E+02 -0.52787515232E+02 -0.15423952981E+04  0.17391285679E+04  0.79957286563E+03 0.  0.
         22    1    5    5    0    0 -0.40401431000E+03  0.79207083947E+02 -0.10142017792E+04  0.10945805470E+04  0.00000000000E+00 0. -1.
         22    1    5    5    0    0  0.34500896188E+03 -0.13199459918E+03 -0.52819351886E+03  0.64454802098E+03  0.00000000000E+00 0. -1.
          5    1    4    4  502    0  0.78826658306E+02  0.73584369572E+02 -0.40767458122E+03  0.42172141952E+03  0.47000000000E+01 0. -1.
         -5    1    4    4    0  502 -0.19821310184E+02 -0.20796854341E+02 -0.29948193358E+03  0.30089352274E+03  0.47000000000E+01 0. -1.
<mgrwt>
<rscale>  0 0.99984886E+03</rscale>
<asrwt>0</asrwt>
<pdfrwt beam="1">  1        2 0.36240730E+00 0.99984886E+03</pdfrwt>
<pdfrwt beam="2">  1       -2 0.16322440E-01 0.99984886E+03</pdfrwt>
<totfact> 0.14750982E+02</totfact>
</mgrwt>
</event>
<event>
 9    1  0.4236486E-036  0.9983580E+03  0.7818608E-02  0.8682603E-01
         -2   -1    0    0    0  501 -0.00000000000E+00  0.00000000000E+00  0.69374619875E+02  0.69374619875E+02  0.00000000000E+00 0. -1.
          2   -1    0    0  501    0  0.00000000000E+00 -0.00000000000E+00 -0.35917985400E+04  0.35917985400E+04  0.00000000000E+00 0. -1.
         36    2    1    2    0    0 -0.14210854715E-13  0.71054273576E-14 -0.35224239202E+04  0.36611731599E+04  0.99835796863E+03 0.  0.
         25    2    3    3    0    0 -0.12384200732E+03  0.11362291294E+02 -0.43027556718E+03  0.46489070272E+03  0.12458072613E+03 0.  0.
         35    2    3    3    0    0  0.12384200732E+03 -0.11362291294E+02 -0.30921483530E+04  0.31962824572E+04  0.79960875737E+03 0.  0.
         22    1    5    5    0    0  0.29364496557E+03 -0.21810792412E+03 -0.70552005882E+03  0.79470559691E+03  0.00000000000E+00 0. -1.
         22    1    5    5    0    0 -0.16980295825E+03  0.20674563283E+03 -0.23866282942E+04  0.24015768603E+04  0.00000000000E+00 0. -1.
          5    1    4    4  502    0 -0.54884588810E+02 -0.45887579729E+02 -0.28705965042E+03  0.29587720588E+03  0.47000000000E+01 0. -1.
         -5    1    4    4    0  502 -0.68957418512E+02  0.57249871023E+02 -0.14321591676E+03  0.16901349684E+03  0.47000000000E+01 0. -1.
<mgrwt>
<rscale>  0 0.99835797E+03</rscale>
<asrwt>0</asrwt>
<pdfrwt beam="1">  1        2 0.55258457E+00 0.99835797E+03</pdfrwt>
<pdfrwt beam="2">  1       -2 0.10673015E-01 0.99835797E+03</pdfrwt>
<totfact> 0.44152805E+01</totfact>
</mgrwt>
</event>
<event>
 9    1  0.4236486E-036  0.9996386E+03  0.7818608E-02  0.8681382E-01
          2   -1    0    0  501    0  0.00000000000E+00  0.00000000000E+00  0.34203766608E+04  0.34203766608E+04  0.00000000000E+00 0.  1.
         -2   -1    0    0    0  501 -0.00000000000E+00 -0.00000000000E+00 -0.73038544257E+02  0.73038544257E+02  0.00000000000E+00 0.  1.
         36    2    1    2    0    0  0.14210854715E-13  0.21316282073E-13  0.33473381165E+04  0.34934152051E+04  0.99963859892E+03 0.  0.
         25    2    3    3    0    0 -0.11748461269E+03  0.60552105894E+02  0.75507632370E+03  0.77727477492E+03  0.12863370234E+03 0.  0.
         35    2    3    3    0    0  0.11748461269E+03 -0.60552105894E+02  0.25922617928E+04  0.27161404301E+04  0.80008027211E+03 0.  0.
         22    1    5    5    0    0 -0.37553671965E+02  0.20792088037E+03  0.22271989790E+04  0.22371983959E+04  0.00000000000E+00 0.  1.
         22    1    5    5    0    0  0.15503828465E+03 -0.26847298626E+03  0.36506281386E+03  0.47894203420E+03  0.00000000000E+00 0.  1.
          5    1    4    4  502    0 -0.10024688580E+03  0.62534026310E+00  0.26753089917E+03  0.28573536913E+03  0.47000000000E+01 0.  1.
         -5    1    4    4    0  502 -0.17237726890E+02  0.59926765631E+02  0.48754542452E+03  0.49153940579E+03  0.47000000000E+01 0.  1.
<mgrwt>
<rscale>  0 0.99963860E+03</rscale>
<asrwt>0</asrwt>
<pdfrwt beam="1">  1        2 0.52621167E+00 0.99963860E+03</pdfrwt>
<pdfrwt beam="2">  1       -2 0.11236702E-01 0.99963860E+03</pdfrwt>
<totfact> 0.54735382E+01</totfact>
</mgrwt>
</event>
<event>
 9    1  0.4236486E-036  0.9987502E+03  0.7818608E-02  0.8682229E-01
          2   -1    0    0  501    0  0.00000000000E+00  0.00000000000E+00  0.13719675372E+04  0.13719675372E+04  0.00000000000E+00 0. -1.
         -2   -1    0    0    0  501 -0.00000000000E+00 -0.00000000000E+00 -0.18176487158E+03  0.18176487158E+03  0.00000000000E+00 0. -1.
         36    2    1    2    0    0 -0.28421709430E-13  0.00000000000E+00  0.11902026656E+04  0.15537324088E+04  0.99875022546E+03 0.  0.
         25    2    3    3    0    0 -0.35649416573E+02  0.74568737677E+02  0.49052253692E+02  0.15736181781E+03  0.12460032332E+03 0.  0.
         35    2    3    3    0    0  0.35649416573E+02 -0.74568737677E+02  0.11411504119E+04  0.13963705910E+04  0.80049683769E+03 0.  0.
         22    1    5    5    0    0 -0.33893311338E+03 -0.20058349291E+03  0.43237417815E+03  0.58485624122E+03  0.00000000000E+00 0.  1.
         22    1    5    5    0    0  0.37458252995E+03  0.12601475523E+03  0.70877623378E+03  0.81151434975E+03  0.00000000000E+00 0.  1.
          5    1    4    4  502    0 -0.70574617095E+02  0.22493007764E+02  0.57539662285E+02  0.93912803772E+02  0.47000000000E+01 0.  1.
         -5    1    4    4    0  502  0.34925200522E+02  0.52075729913E+02 -0.84874085924E+01  0.63449014036E+02  0.47000000000E+01 0.  1.
<mgrwt>
<rscale>  0 0.99875023E+03</rscale>
<asrwt>0</asrwt>
<pdfrwt beam="1">  1        2 0.21107192E+00 0.99875023E+03</pdfrwt>
<pdfrwt beam="2">  1       -2 0.27963827E-01 0.99875023E+03</pdfrwt>
<totfact> 0.21039348E+02</totfact>
</mgrwt>
</event>
<event>
 9    1  0.4236486E-036  0.1000364E+04  0.7818608E-02  0.8680692E-01
         -2   -1    0    0    0  501 -0.00000000000E+00  0.00000000000E+00  0.11736323410E+03  0.11736323410E+03  0.00000000000E+00 0. -1.
          2   -1    0    0  501    0  0.00000000000E+00 -0.00000000000E+00 -0.21316883991E+04  0.21316883991E+04  0.00000000000E+00 0. -1.
         36    2    1    2    0    0 -0.71054273576E-14  0.14210854715E-13 -0.20143251650E+04  0.22490516332E+04  0.10003636231E+04 0.  0.
         25    2    3    3    0    0  0.43462678845E+01  0.12062481559E+03 -0.53041631749E+03  0.55792426201E+03  0.12397086798E+03 0.  0.
         35    2    3    3    0    0 -0.43462678845E+01 -0.12062481559E+03 -0.14839088475E+04  0.16911273712E+04  0.80209543178E+03 0.  0.
         22    1    5    5    0    0 -0.17786950582E+03 -0.37291697466E+03 -0.12159683527E+04  0.12842443949E+04  0.00000000000E+00 0. -1.
         22    1    5    5    0    0  0.17352323794E+03  0.25229215907E+03 -0.26794049485E+03  0.40688297631E+03  0.00000000000E+00 0. -1.
          5    1    4    4  502    0  0.32021498181E+02  0.14727769032E+02 -0.30742359784E+03  0.30947316852E+03  0.47000000000E+01 0. -1.
         -5    1    4    4    0  502 -0.27675230297E+02  0.10589704656E+03 -0.22299271965E+03  0.24845109349E+03  0.47000000000E+01 0. -1.
<mgrwt>
<rscale>  0 0.10003636E+04</rscale>
<asrwt>0</asrwt>
<pdfrwt beam="1">  1        2 0.32795206E+00 0.10003636E+04</pdfrwt>
<pdfrwt beam="2">  1       -2 0.18055883E-01 0.10003636E+04</pdfrwt>
<totfact> 0.16799808E+02</totfact>
</mgrwt>
</event>
<event>
 9    1  0.4236486E-036  0.9998820E+03  0.7818608E-02  0.8681150E-01
          2   -1    0    0  501    0  0.00000000000E+00  0.00000000000E+00  0.82109472215E+03  0.82109472215E+03  0.00000000000E+00 0. -1.
         -2   -1    0    0    0  501 -0.00000000000E+00 -0.00000000000E+00 -0.30439972082E+03  0.30439972082E+03  0.00000000000E+00 0. -1.
         36    2    1    2    0    0  0.00000000000E+00 -0.14210854715E-13  0.51669500133E+03  0.11254944430E+04  0.99988200141E+03 0.  0.
         25    2    3    3    0    0  0.51226782454E+02 -0.34141283016E+02 -0.44219708945E+02  0.14621917331E+03  0.12503940793E+03 0.  0.
         35    2    3    3    0    0 -0.51226782454E+02  0.34141283016E+02  0.56091471027E+03  0.97927526966E+03  0.80035300407E+03 0.  0.
         22    1    5    5    0    0  0.35905940086E+02 -0.37064946055E+03  0.36414132403E+03  0.52083506315E+03  0.00000000000E+00 0. -1.
         22    1    5    5    0    0 -0.87132722540E+02  0.40479074356E+03  0.19677338624E+03  0.45844020651E+03  0.00000000000E+00 0. -1.
          5    1    4    4  502    0  0.21080435762E+02  0.40243151414E+02  0.13059710810E+02  0.47503074154E+02  0.47000000000E+01 0. -1.
         -5    1    4    4    0  502  0.30146346692E+02 -0.74384434429E+02 -0.57279419755E+02  0.98716099152E+02  0.47000000000E+01 0. -1.
<mgrwt>
<rscale>  0 0.99988200E+03</rscale>
<asrwt>0</asrwt>
<pdfrwt beam="1">  1        2 0.12632226E+00 0.99988200E+03</pdfrwt>
<pdfrwt beam="2">  1       -2 0.46830727E-01 0.99988200E+03</pdfrwt>
<totfact> 0.17401355E+02</totfact>
</mgrwt>
</event>
<event>
 9    1  0.4236486E-036  0.9997206E+03  0.7818608E-02  0.8681304E-01
         -2   -1    0    0    0  501 -0.00000000000E+00  0.00000000000E+00  0.24323210166E+03  0.24323210166E+03  0.00000000000E+00 0. -1.
          2   -1    0    0  501    0  0.00000000000E+00 -0.00000000000E+00 -0.10272506719E+04  0.10272506719E+04  0.00000000000E+00 0. -1.
         36    2    1    2    0    0  0.21316282073E-13  0.00000000000E+00 -0.78401857026E+03  0.12704827736E+04  0.99972064071E+03 0.  0.
         25    2    3    3    0    0 -0.42420038823E+02  0.12068843623E+03 -0.22074481006E+03  0.28387310074E+03  0.12446086865E+03 0.  0.
         35    2    3    3    0    0  0.42420038823E+02 -0.12068843623E+03 -0.56327376020E+03  0.98660967283E+03  0.79984758502E+03 0.  0.
         22    1    5    5    0    0  0.38992274886E+03 -0.17407915083E+03 -0.44231017083E+03  0.61480207226E+03  0.00000000000E+00 0.  1.
         22    1    5    5    0    0 -0.34750271004E+03  0.53390714600E+02 -0.12096358937E+03  0.37180760057E+03  0.00000000000E+00 0.  1.
          5    1    4    4  502    0 -0.84329442444E+02  0.10178340100E+03 -0.16433243644E+03  0.21094680668E+03  0.47000000000E+01 0. -1.
         -5    1    4    4    0  502  0.41909403621E+02  0.18905035234E+02 -0.56412373613E+02  0.72926294062E+02  0.47000000000E+01 0. -1.
<mgrwt>
<rscale>  0 0.99972064E+03</rscale>
<asrwt>0</asrwt>
<pdfrwt beam="1">  1        2 0.15803857E+00 0.99972064E+03</pdfrwt>
<pdfrwt beam="2">  1       -2 0.37420323E-01 0.99972064E+03</pdfrwt>
<totfact> 0.19689724E+02</totfact>
</mgrwt>
</event>
<event>
 9    1  0.4236486E-036  0.9990195E+03  0.7818608E-02  0.8681972E-01
         -2   -1    0    0    0  501 -0.00000000000E+00  0.00000000000E+00  0.83018783361E+03  0.83018783361E+03  0.00000000000E+00 0. -1.
          2   -1    0    0  501    0  0.00000000000E+00 -0.00000000000E+00 -0.30054645299E+03  0.30054645299E+03  0.00000000000E+00 0. -1.
         36    2    1    2    0    0  0.28421709430E-13  0.21316282073E-13  0.52964138062E+03  0.11307342866E+04  0.99901953675E+03 0.  0.
         25    2    3    3    0    0 -0.12390575745E+03  0.14251607854E+02  0.29853201162E+02  0.17898504186E+03  0.12485466164E+03 0.  0.
         35    2    3    3    0    0  0.12390575745E+03 -0.14251607854E+02  0.49978817946E+03  0.95174924473E+03  0.80030160282E+03 0.  0.
         22    1    5    5    0    0  0.67539740321E+02 -0.30098873765E+03 -0.65540877466E+02  0.31535922903E+03  0.00000000000E+00 0.  1.
         22    1    5    5    0    0  0.56366017132E+02  0.28673712979E+03  0.56532905693E+03  0.63639001571E+03  0.00000000000E+00 0.  1.
          5    1    4    4  502    0 -0.13332902160E+03  0.46632280119E+02  0.31868955523E+02  0.14487552546E+03  0.47000000000E+01 0.  1.
         -5    1    4    4    0  502  0.94232641481E+01 -0.32380672265E+02 -0.20157543608E+01  0.34109516402E+02  0.47000000000E+01 0.  1.
<mgrwt>
<rscale>  0 0.99901954E+03</rscale>
<asrwt>0</asrwt>
<pdfrwt beam="1">  1        2 0.46237916E-01 0.99901954E+03</pdfrwt>
<pdfrwt beam="2">  1       -2 0.12772120E+00 0.99901954E+03</pdfrwt>
<totfact> 0.57595352E+01</totfact>
</mgrwt>
</event>
<event>
 9    1  0.4236486E-036  0.1002964E+04  0.7818608E-02  0.8678220E-01
          1   -1    0    0  501    0  0.00000000000E+00  0.00000000000E+00  0.14897059407E+04  0.14897059407E+04  0.00000000000E+00 0.  1.
         -1   -1    0    0    0  501 -0.00000000000E+00 -0.00000000000E+00 -0.16881474574E+03  0.16881474574E+03  0.00000000000E+00 0.  1.
         36    2    1    2    0    0 -0.28421709430E-13  0.00000000000E+00  0.13208911950E+04  0.16585206865E+04  0.10029642658E+04 0.  0.
         25    2    3    3    0    0 -0.10604928447E+03  0.96597513180E+02  0.26200819936E+03  0.32366781740E+03  0.12463959724E+03 0.  0.
         35    2    3    3    0    0  0.10604928447E+03 -0.96597513180E+02  0.10588829956E+04  0.13348528691E+04  0.80001340824E+03 0.  0.
         22    1    5    5    0    0  0.39013187562E+03  0.14623368823E+03  0.71205479027E+03  0.82499042194E+03  0.00000000000E+00 0. -1.
         22    1    5    5    0    0 -0.28408259115E+03 -0.24283120140E+03  0.34682820538E+03  0.50986244715E+03  0.00000000000E+00 0. -1.
          5    1    4    4  502    0  0.86481394310E+01  0.12711920306E+02 -0.84154311031E+01  0.18146424280E+02  0.47000000000E+01 0. -1.
         -5    1    4    4    0  502 -0.11469742390E+03  0.83885592874E+02  0.27042363046E+03  0.30552139312E+03  0.47000000000E+01 0. -1.
<mgrwt>
<rscale>  0 0.10029643E+04</rscale>
<asrwt>0</asrwt>
<pdfrwt beam="1">  1        1 0.22918552E+00 0.10029643E+04</pdfrwt>
<pdfrwt beam="2">  1       -1 0.25971500E-01 0.10029643E+04</pdfrwt>
<totfact> 0.94246241E+01</totfact>
</mgrwt>
</event>
<event>
 9    1  0.4236486E-036  0.1000914E+04  0.7818608E-02  0.8680168E-01
          1   -1    0    0  501    0  0.00000000000E+00  0.00000000000E+00  0.87235675131E+03  0.87235675131E+03  0.00000000000E+00 0.  1.
         -1   -1    0    0    0  501 -0.00000000000E+00 -0.00000000000E+00 -0.28710419575E+03  0.28710419575E+03  0.00000000000E+00 0.  1.
         36    2    1    2    0    0 -0.14210854715E-13 -0.14210854715E-13  0.58525255556E+03  0.11594609471E+04  0.10009141491E+04 0.  0.
         25    2    3    3    0    0 -0.12526193004E+03  0.65150561561E+02  0.92266977191E+02  0.20986454761E+03  0.12487908743E+03 0.  0.
         35    2    3    3    0    0  0.12526193004E+03 -0.65150561561E+02  0.49298557837E+03  0.94959639945E+03  0.79922674791E+03 0.  0.
         22    1    5    5    0    0  0.25867632114E+03 -0.10479242595E+03 -0.13240143949E+03  0.30890942496E+03  0.00000000000E+00 0. -1.
         22    1    5    5    0    0 -0.13341439110E+03  0.39641864390E+02  0.62538701786E+03  0.64068697449E+03  0.00000000000E+00 0. -1.
          5    1    4    4  502    0 -0.10925358444E+03 -0.89708082221E+01  0.71985774333E+02  0.13122828513E+03  0.47000000000E+01 0.  1.
         -5    1    4    4    0  502 -0.16008345600E+02  0.74121369783E+02  0.20281202858E+02  0.78636262480E+02  0.47000000000E+01 0.  1.
<mgrwt>
<rscale>  0 0.10009141E+04</rscale>
<asrwt>0</asrwt>
<pdfrwt beam="1">  1        1 0.13420873E+00 0.10009141E+04</pdfrwt>
<pdfrwt beam="2">  1       -1 0.44169877E-01 0.10009141E+04</pdfrwt>
<totfact> 0.11002886E+02</totfact>
</mgrwt>
</event>
<event>
 9    1  0.4236486E-036  0.1000586E+04  0.7818608E-02  0.8680480E-01
         -1   -1    0    0    0  501 -0.00000000000E+00  0.00000000000E+00  0.31929128118E+03  0.31929128118E+03  0.00000000000E+00 0.  1.
          1   -1    0    0  501    0  0.00000000000E+00 -0.00000000000E+00 -0.78390256282E+03  0.78390256282E+03  0.00000000000E+00 0.  1.
         36    2    1    2    0    0  0.00000000000E+00  0.14210854715E-13 -0.46461128164E+03  0.11031938440E+04  0.10005863353E+04 0.  0.
         25    2    3    3    0    0 -0.84072831912E+02  0.66960533612E+02 -0.19671152535E+03  0.25467921267E+03  0.12088888715E+03 0.  0.
         35    2    3    3    0    0  0.84072831912E+02 -0.66960533612E+02 -0.26789975629E+03  0.84851463132E+03  0.79790653965E+03 0.  0.
         22    1    5    5    0    0 -0.15216488692E+02 -0.41825028794E+03 -0.45357532537E+02  0.42097761300E+03  0.00000000000E+00 0.  1.
         22    1    5    5    0    0  0.99289320604E+02  0.35128975433E+03 -0.22254222375E+03  0.42753701832E+03  0.00000000000E+00 0.  1.
          5    1    4    4  502    0 -0.42019682928E+02 -0.20969017120E+02 -0.16963754392E+02  0.50151893238E+02  0.47000000000E+01 0. -1.
         -5    1    4    4    0  502 -0.42053148984E+02  0.87929550731E+02 -0.17974777096E+03  0.20452731943E+03  0.47000000000E+01 0. -1.
<mgrwt>
<rscale>  0 0.10005863E+04</rscale>
<asrwt>0</asrwt>
<pdfrwt beam="1">  1        1 0.12060039E+00 0.10005863E+04</pdfrwt>
<pdfrwt beam="2">  1       -1 0.49121736E-01 0.10005863E+04</pdfrwt>
<totfact> 0.10816099E+02</totfact>
</mgrwt>
</event>
<event>
 9    1  0.4236486E-036  0.1000121E+04  0.7818608E-02  0.8680923E-01
         -1   -1    0    0    0  501 -0.00000000000E+00  0.00000000000E+00  0.26620557555E+03  0.26620557555E+03  0.00000000000E+00 0.  1.
          1   -1    0    0  501    0  0.00000000000E+00 -0.00000000000E+00 -0.93935026682E+03  0.93935026682E+03  0.00000000000E+00 0.  1.
         36    2    1    2    0    0  0.00000000000E+00  0.28421709430E-13 -0.67314469127E+03  0.12055558424E+04  0.10001205496E+04 0.  0.
         25    2    3    3    0    0 -0.11927620010E+03  0.75718227022E+02 -0.14973200131E+03  0.24063417750E+03  0.12459965229E+03 0.  0.
         35    2    3    3    0    0  0.11927620010E+03 -0.75718227022E+02 -0.52341268996E+03  0.96492166487E+03  0.79821858755E+03 0.  0.
         22    1    5    5    0    0 -0.24043658898E+03  0.23358389742E+03 -0.24043735050E+03  0.41253037461E+03  0.00000000000E+00 0.  1.
         22    1    5    5    0    0  0.35971278908E+03 -0.30930212445E+03 -0.28297533946E+03  0.55239129027E+03  0.00000000000E+00 0.  1.
          5    1    4    4  502    0 -0.14946196318E+02  0.52332502200E+02 -0.11633473522E+03  0.12852213891E+03  0.47000000000E+01 0.  1.
         -5    1    4    4    0  502 -0.10433000378E+03  0.23385724822E+02 -0.33397266086E+02  0.11211203859E+03  0.47000000000E+01 0.  1.
<mgrwt>
<rscale>  0 0.10001205E+04</rscale>
<asrwt>0</asrwt>
<pdfrwt beam="1">  1        1 0.14451543E+00 0.10001205E+04</pdfrwt>
<pdfrwt beam="2">  1       -1 0.40954704E-01 0.10001205E+04</pdfrwt>
<totfact> 0.11090255E+02</totfact>
</mgrwt>
</event>
<event>
 9    1  0.4236486E-036  0.1000063E+04  0.7818608E-02  0.8680978E-01
          2   -1    0    0  501    0  0.00000000000E+00  0.00000000000E+00  0.48613366620E+03  0.48613366620E+03  0.00000000000E+00 0.  1.
         -2   -1    0    0    0  501 -0.00000000000E+00 -0.00000000000E+00 -0.51432697737E+03  0.51432697737E+03  0.00000000000E+00 0.  1.
         36    2    1    2    0    0 -0.28421709430E-13  0.28421709430E-13 -0.28193311174E+02  0.10004606436E+04  0.10000633163E+04 0.  0.
         25    2    3    3    0    0  0.86356326206E+02 -0.10718246916E+03  0.98525251485E+01  0.18597204709E+03  0.12467170198E+03 0.  0.
         35    2    3    3    0    0 -0.86356326206E+02  0.10718246916E+03 -0.38045836323E+02  0.81448859648E+03  0.80187199189E+03 0.  0.
         22    1    5    5    0    0  0.16372511887E+03  0.37229431553E+03 -0.14959999233E+03  0.43334643143E+03  0.00000000000E+00 0. -1.
         22    1    5    5    0    0 -0.25008144507E+03 -0.26511184638E+03  0.11155415601E+03  0.38114216505E+03  0.00000000000E+00 0. -1.
          5    1    4    4  502    0  0.75512665901E+02  0.21972890617E+01  0.45998840779E+01  0.75830335119E+02  0.47000000000E+01 0. -1.
         -5    1    4    4    0  502  0.10843660305E+02 -0.10937975822E+03  0.52526410706E+01  0.11014171197E+03  0.47000000000E+01 0. -1.
<mgrwt>
<rscale>  0 0.10000633E+04</rscale>
<asrwt>0</asrwt>
<pdfrwt beam="1">  1        2 0.74789795E-01 0.10000633E+04</pdfrwt>
<pdfrwt beam="2">  1       -2 0.79127227E-01 0.10000633E+04</pdfrwt>
<totfact> 0.10866997E+02</totfact>
</mgrwt>
</event>
<event>
 9    1  0.4236486E-036  0.1001039E+04  0.7818608E-02  0.8680049E-01
         -2   -1    0    0    0  501 -0.00000000000E+00  0.00000000000E+00  0.24107027530E+03  0.24107027530E+03  0.00000000000E+00 0.  1.
          2   -1    0    0  501    0  0.00000000000E+00 -0.00000000000E+00 -0.10391987375E+04  0.10391987375E+04  0.00000000000E+00 0.  1.
         36    2    1    2    0    0  0.00000000000E+00  0.00000000000E+00 -0.79812846223E+03  0.12802690128E+04  0.10010393114E+04 0.  0.
         25    2    3    3    0    0  0.78793406343E+02 -0.11671944333E+03 -0.16910086917E+03  0.25273054391E+03  0.12428111094E+03 0.  0.
         35    2    3    3    0    0 -0.78793406343E+02  0.11671944333E+03 -0.62902759306E+03  0.10275384689E+04  0.80020482561E+03 0.  0.
         22    1    5    5    0    0  0.58221311103E+02 -0.23995607885E+03 -0.59468756485E+03  0.64391143850E+03  0.00000000000E+00 0. -1.
         22    1    5    5    0    0 -0.13701471745E+03  0.35667552219E+03 -0.34340028204E+02  0.38362703041E+03  0.00000000000E+00 0. -1.
          5    1    4    4  502    0 -0.19546451642E+02  0.78660518915E+01 -0.11789091217E+01  0.21619860566E+02  0.47000000000E+01 0.  1.
         -5    1    4    4    0  502  0.98339857985E+02 -0.12458549522E+03 -0.16792196005E+03  0.23111068334E+03  0.47000000000E+01 0.  1.
<mgrwt>
<rscale>  0 0.10010393E+04</rscale>
<asrwt>0</asrwt>
<pdfrwt beam="1">  1        2 0.15987673E+00 0.10010393E+04</pdfrwt>
<pdfrwt beam="2">  1       -2 0.37087735E-01 0.10010393E+04</pdfrwt>
<totfact> 0.19685247E+02</totfact>
</mgrwt>
</event>
<event>
 9    1  0.4236486E-036  0.9978297E+03  0.7818608E-02  0.8683107E-01
         -2   -1    0    0    0  501 -0.00000000000E+00  0.00000000000E+00  0.95929776294E+02  0.95929776294E+02  0.00000000000E+00 0. -1.
          2   -1    0    0  501    0  0.00000000000E+00 -0.00000000000E+00 -0.25947734972E+04  0.25947734972E+04  0.00000000000E+00 0. -1.
         36    2    1    2    0    0  0.00000000000E+00  0.00000000000E+00 -0.24988437209E+04  0.26907032735E+04  0.99782972720E+03 0.  0.
         25    2    3    3    0    0  0.38003243699E+02 -0.11949826991E+03 -0.62126485161E+03  0.64598427788E+03  0.12490631841E+03 0.  0.
         35    2    3    3    0    0 -0.38003243699E+02  0.11949826991E+03 -0.18775788693E+04  0.20447189956E+04  0.79990579292E+03 0.  0.
         22    1    5    5    0    0  0.22955343380E+03  0.28475685597E+03 -0.15421278300E+04  0.15849099312E+04  0.00000000000E+00 0. -1.
         22    1    5    5    0    0 -0.26755667750E+03 -0.16525858606E+03 -0.33545103930E+03  0.45980906441E+03  0.00000000000E+00 0. -1.
          5    1    4    4  502    0  0.69890671325E+02 -0.59652426851E+02 -0.48564237665E+03  0.49428101922E+03  0.47000000000E+01 0. -1.
         -5    1    4    4    0  502 -0.31887427627E+02 -0.59845843061E+02 -0.13562247496E+03  0.15170325865E+03  0.47000000000E+01 0. -1.
<mgrwt>
<rscale>  0 0.99782973E+03</rscale>
<asrwt>0</asrwt>
<pdfrwt beam="1">  1        2 0.39919584E+00 0.99782973E+03</pdfrwt>
<pdfrwt beam="2">  1       -2 0.14758430E-01 0.99782973E+03</pdfrwt>
<totfact> 0.12517588E+02</totfact>
</mgrwt>
</event>
<event>
 9    1  0.4236486E-036  0.9999060E+03  0.7818608E-02  0.8681127E-01
         -2   -1    0    0    0  501 -0.00000000000E+00  0.00000000000E+00  0.23251904198E+03  0.23251904198E+03  0.00000000000E+00 0. -1.
          2   -1    0    0  501    0  0.00000000000E+00 -0.00000000000E+00 -0.10749787168E+04  0.10749787168E+04  0.00000000000E+00 0. -1.
         36    2    1    2    0    0  0.28421709430E-13  0.28421709430E-13 -0.84245967486E+03  0.13074977588E+04  0.99990603836E+03 0.  0.
         25    2    3    3    0    0 -0.15482291001E+02  0.13900595808E+03 -0.13951716381E+03  0.23374710467E+03  0.12494123511E+03 0.  0.
         35    2    3    3    0    0  0.15482291001E+02 -0.13900595808E+03 -0.70294251105E+03  0.10737506541E+04  0.79953107239E+03 0.  0.
         22    1    5    5    0    0 -0.13664359781E+03 -0.33747578736E+03 -0.73636786262E+03  0.82146150791E+03  0.00000000000E+00 0.  1.
         22    1    5    5    0    0  0.15212588881E+03  0.19846982928E+03  0.33425351569E+02  0.25228914623E+03  0.00000000000E+00 0.  1.
          5    1    4    4  502    0 -0.44123960103E+02  0.13851241082E+03 -0.76438303690E+02  0.16430920874E+03  0.47000000000E+01 0.  1.
         -5    1    4    4    0  502  0.28641669102E+02  0.49354726272E+00 -0.63078860118E+02  0.69437895933E+02  0.47000000000E+01 0.  1.
<mgrwt>
<rscale>  0 0.99990604E+03</rscale>
<asrwt>0</asrwt>
<pdfrwt beam="1">  1        2 0.16538134E+00 0.99990604E+03</pdfrwt>
<pdfrwt beam="2">  1       -2 0.35772160E-01 0.99990604E+03</pdfrwt>
<totfact> 0.20026880E+02</totfact>
</mgrwt>
</event>
<event>
 9    1  0.4236486E-036  0.9996835E+03  0.7818608E-02  0.8681339E-01
          1   -1    0    0  501    0  0.00000000000E+00  0.00000000000E+00  0.20312829463E+03  0.20312829463E+03  0.00000000000E+00 0.  1.
         -1   -1    0    0    0  501 -0.00000000000E+00 -0.00000000000E+00 -0.12299703079E+04  0.12299703079E+04  0.00000000000E+00 0.  1.
         36    2    1    2    0    0  0.00000000000E+00  0.00000000000E+00 -0.10268420133E+04  0.14330986025E+04  0.99968349210E+03 0.  0.
         25    2    3    3    0    0 -0.12653698838E+03 -0.95712757913E+01 -0.26109210882E+03  0.31699185769E+03  0.12732450591E+03 0.  0.
         35    2    3    3    0    0  0.12653698838E+03  0.95712757913E+01 -0.76574990447E+03  0.11161067449E+04  0.80200880979E+03 0.  0.
         22    1    5    5    0    0  0.26082148742E+03  0.75467978922E+02 -0.88442525286E+03  0.92516554845E+03  0.00000000000E+00 0.  1.
         22    1    5    5    0    0 -0.13428449904E+03 -0.65896703130E+02  0.11867534840E+03  0.19094119640E+03  0.00000000000E+00 0.  1.
          5    1    4    4  502    0 -0.12470507472E+03 -0.47441102248E+02 -0.23642589476E+03  0.27151668007E+03  0.47000000000E+01 0. -1.
         -5    1    4    4    0  502 -0.18319136676E+01  0.37869826457E+02 -0.24666214057E+02  0.45475177619E+02  0.47000000000E+01 0. -1.
<mgrwt>
<rscale>  0 0.99968349E+03</rscale>
<asrwt>0</asrwt>
<pdfrwt beam="1">  1        1 0.31250507E-01 0.99968349E+03</pdfrwt>
<pdfrwt beam="2">  1       -1 0.18922620E+00 0.99968349E+03</pdfrwt>
<totfact> 0.28002280E+01</totfact>
</mgrwt>
</event>
<event>
 9    1  0.4236486E-036  0.1000322E+04  0.7818608E-02  0.8680731E-01
         -2   -1    0    0    0  501 -0.00000000000E+00  0.00000000000E+00  0.37339245576E+03  0.37339245576E+03  0.00000000000E+00 0.  1.
          2   -1    0    0  501    0  0.00000000000E+00 -0.00000000000E+00 -0.66996821145E+03  0.66996821145E+03  0.00000000000E+00 0.  1.
         36    2    1    2    0    0  0.00000000000E+00 -0.28421709430E-13 -0.29657575570E+03  0.10433606672E+04  0.10003220996E+04 0.  0.
         25    2    3    3    0    0 -0.46946169640E+02  0.12800420002E+03 -0.92816800330E+02  0.20687400872E+03  0.12487144987E+03 0.  0.
         35    2    3    3    0    0  0.46946169640E+02 -0.12800420002E+03 -0.20375895537E+03  0.83648665849E+03  0.79975196147E+03 0.  0.
         22    1    5    5    0    0 -0.13967197993E+03 -0.15635280630E+03  0.26104789186E+03  0.33481407357E+03  0.00000000000E+00 0. -1.
         22    1    5    5    0    0  0.18661814957E+03  0.28348606281E+02 -0.46480684723E+03  0.50167258492E+03  0.00000000000E+00 0. -1.
          5    1    4    4  502    0 -0.31234326501E+02  0.52340043881E+01  0.21302345012E+02  0.38455920960E+02  0.47000000000E+01 0.  1.
         -5    1    4    4    0  502 -0.15711843139E+02  0.12277019564E+03 -0.11411914534E+03  0.16841808776E+03  0.47000000000E+01 0.  1.
<mgrwt>
<rscale>  0 0.10003221E+04</rscale>
<asrwt>0</asrwt>
<pdfrwt beam="1">  1        2 0.10307203E+00 0.10003221E+04</pdfrwt>
<pdfrwt beam="2">  1       -2 0.57444994E-01 0.10003221E+04</pdfrwt>
<totfact> 0.14873577E+02</totfact>
</mgrwt>
</event>
<event>
 9    1  0.4236486E-036  0.9984770E+03  0.7818608E-02  0.8682490E-01
          2   -1    0    0  501    0  0.00000000000E+00  0.00000000000E+00  0.74509694680E+03  0.74509694680E+03  0.00000000000E+00 0.  1.
         -2   -1    0    0    0  501 -0.00000000000E+00 -0.00000000000E+00 -0.33450556071E+03  0.33450556071E+03  0.00000000000E+00 0.  1.
         36    2    1    2    0    0 -0.21316282073E-13  0.00000000000E+00  0.41059138609E+03  0.10796025075E+04  0.99847698415E+03 0.  0.
         25    2    3    3    0    0 -0.23998761953E+02  0.72388418549E+02 -0.50527558275E+02  0.15367828657E+03  0.12348262187E+03 0.  0.
         35    2    3    3    0    0  0.23998761953E+02 -0.72388418549E+02  0.46111894436E+03  0.92592422093E+03  0.79930529733E+03 0.  0.
         22    1    5    5    0    0 -0.19845247894E+03 -0.17523130669E+03 -0.12341253336E+03  0.29209596134E+03  0.00000000000E+00 0. -1.
         22    1    5    5    0    0  0.22245124089E+03  0.10284288814E+03  0.58453147772E+03  0.63382825960E+03  0.00000000000E+00 0. -1.
          5    1    4    4  502    0  0.45177061009E+02  0.61041770582E+01 -0.12663975355E+01  0.45846718330E+02  0.47000000000E+01 0. -1.
         -5    1    4    4    0  502 -0.69175822961E+02  0.66284241490E+02 -0.49261160739E+02  0.10783156824E+03  0.47000000000E+01 0. -1.
<mgrwt>
<rscale>  0 0.99847698E+03</rscale>
<asrwt>0</asrwt>
<pdfrwt beam="1">  1        2 0.11463030E+00 0.99847698E+03</pdfrwt>
<pdfrwt beam="2">  1       -2 0.51462394E-01 0.99847698E+03</pdfrwt>
<totfact> 0.16328649E+02</totfact>
</mgrwt>
</event>
<event>
 9    1  0.4236486E-036  0.9999239E+03  0.7818608E-02  0.8681110E-01
         -2   -1    0    0    0  501 -0.00000000000E+00  0.00000000000E+00  0.48874527071E+03  0.48874527071E+03  0.00000000000E+00 0.  1.
          2   -1    0    0  501    0  0.00000000000E+00 -0.00000000000E+00 -0.51143609250E+03  0.51143609250E+03  0.00000000000E+00 0.  1.
         36    2    1    2    0    0  0.00000000000E+00  0.00000000000E+00 -0.22690821792E+02  0.10001813632E+04  0.99992394007E+03 0.  0.
         25    2    3    3    0    0  0.12798231816E+03 -0.37309920425E+02 -0.47884718911E+02  0.18890544099E+03  0.12498326051E+03 0.  0.
         35    2    3    3    0    0 -0.12798231816E+03  0.37309920425E+02  0.25193897118E+02  0.81127592222E+03  0.79985147721E+03 0.  0.
         22    1    5    5    0    0 -0.36870993795E+03  0.27984956969E+03  0.64266842929E+02  0.46732539745E+03  0.00000000000E+00 0. -1.
         22    1    5    5    0    0  0.24072761979E+03 -0.24253964927E+03 -0.39072945811E+02  0.34395052477E+03  0.00000000000E+00 0. -1.
          5    1    4    4  502    0  0.87487138657E+02  0.38949294199E+02 -0.19070581618E+02  0.97759009980E+02  0.47000000000E+01 0.  1.
         -5    1    4    4    0  502  0.40495179499E+02 -0.76259214624E+02 -0.28814137293E+02  0.91146431009E+02  0.47000000000E+01 0.  1.
<mgrwt>
<rscale>  0 0.99992394E+03</rscale>
<asrwt>0</asrwt>
<pdfrwt beam="1">  1        2 0.78682476E-01 0.99992394E+03</pdfrwt>
<pdfrwt beam="2">  1       -2 0.75191580E-01 0.99992394E+03</pdfrwt>
<totfact> 0.11503345E+02</totfact>
</mgrwt>
</event>
<event>
 9    1  0.4236486E-036  0.9999855E+03  0.7818608E-02  0.8681052E-01
          2   -1    0    0  501    0  0.00000000000E+00  0.00000000000E+00  0.19603894314E+04  0.19603894314E+04  0.00000000000E+00 0.  1.
         -2   -1    0    0    0  501 -0.00000000000E+00 -0.00000000000E+00 -0.12752197539E+03  0.12752197539E+03  0.00000000000E+00 0.  1.
         36    2    1    2    0    0  0.28421709430E-13 -0.14210854715E-13  0.18328674560E+04  0.20879114067E+04  0.99998546555E+03 0.  0.
         25    2    3    3    0    0  0.13387673198E+03 -0.24516275504E+02  0.25456359191E+03  0.31313569298E+03  0.12135614019E+03 0.  0.
         35    2    3    3    0    0 -0.13387673198E+03  0.24516275504E+02  0.15783038640E+04  0.17747757138E+04  0.80016355814E+03 0.  0.
         22    1    5    5    0    0 -0.24259144092E+03  0.35714109601E+03  0.11034627996E+04  0.11849179380E+04  0.00000000000E+00 0. -1.
         22    1    5    5    0    0  0.10871470894E+03 -0.33262482051E+03  0.47484106443E+03  0.58985777576E+03  0.00000000000E+00 0. -1.
          5    1    4    4  502    0  0.10795634250E+03  0.36753690840E+02  0.14065484772E+03  0.18113884692E+03  0.47000000000E+01 0.  1.
         -5    1    4    4    0  502  0.25920389480E+02 -0.61269966344E+02  0.11390874419E+03  0.13199684606E+03  0.47000000000E+01 0.  1.
<mgrwt>
<rscale>  0 0.99998547E+03</rscale>
<asrwt>0</asrwt>
<pdfrwt beam="1">  1        2 0.30159835E+00 0.99998547E+03</pdfrwt>
<pdfrwt beam="2">  1       -2 0.19618767E-01 0.99998547E+03</pdfrwt>
<totfact> 0.18253010E+02</totfact>
</mgrwt>
</event>
<event>
 9    1  0.4236486E-036  0.1000571E+04  0.7818608E-02  0.8680495E-01
          1   -1    0    0  501    0  0.00000000000E+00  0.00000000000E+00  0.64793314091E+03  0.64793314091E+03  0.00000000000E+00 0. -1.
         -1   -1    0    0    0  501 -0.00000000000E+00 -0.00000000000E+00 -0.38628289300E+03  0.38628289300E+03  0.00000000000E+00 0. -1.
         36    2    1    2    0    0  0.00000000000E+00  0.35527136788E-13  0.26165024791E+03  0.10342160339E+04  0.10005708134E+04 0.  0.
         25    2    3    3    0    0  0.12443960083E+03  0.62966929149E+02  0.31876920553E+02  0.19012867114E+03  0.12523068755E+03 0.  0.
         35    2    3    3    0    0 -0.12443960083E+03 -0.62966929149E+02  0.22977332736E+03  0.84408736278E+03  0.80014851473E+03 0.  0.
         22    1    5    5    0    0  0.94089067809E+02 -0.39095107260E+03  0.19929966837E+03  0.44879377409E+03  0.00000000000E+00 0.  1.
         22    1    5    5    0    0 -0.21852866864E+03  0.32798414345E+03  0.30473658984E+02  0.39529358869E+03  0.00000000000E+00 0.  1.
          5    1    4    4  502    0  0.52876600286E+01  0.55730869390E+02 -0.20345993153E+02  0.59748963078E+02  0.47000000000E+01 0. -1.
         -5    1    4    4    0  502  0.11915194080E+03  0.72360597590E+01  0.52222913707E+02  0.13037970806E+03  0.47000000000E+01 0. -1.
<mgrwt>
<rscale>  0 0.10005708E+04</rscale>
<asrwt>0</asrwt>
<pdfrwt beam="1">  1        1 0.99682021E-01 0.10005708E+04</pdfrwt>
<pdfrwt beam="2">  1       -1 0.59428138E-01 0.10005708E+04</pdfrwt>
<totfact> 0.10160442E+02</totfact>
</mgrwt>
</event>
<event>
 9    1  0.4236486E-036  0.9989801E+03  0.7818608E-02  0.8682010E-01
         -2   -1    0    0    0  501 -0.00000000000E+00  0.00000000000E+00  0.22013651472E+03  0.22013651472E+03  0.00000000000E+00 0.  1.
          2   -1    0    0  501    0  0.00000000000E+00 -0.00000000000E+00 -0.11333436526E+04  0.11333436526E+04  0.00000000000E+00 0.  1.
         36    2    1    2    0    0 -0.14210854715E-13  0.00000000000E+00 -0.91320713787E+03  0.13534801673E+04  0.99898012324E+03 0.  0.
         25    2    3    3    0    0  0.66686292829E+02  0.32398496045E+02 -0.11895667227E+02  0.14593159526E+03  0.12513112882E+03 0.  0.
         35    2    3    3    0    0 -0.66686292829E+02 -0.32398496045E+02 -0.90131147065E+03  0.12075485720E+04  0.80019651495E+03 0.  0.
         22    1    5    5    0    0 -0.20223324178E+03 -0.51022212529E+02  0.75038835747E+02  0.22165824398E+03  0.00000000000E+00 0.  1.
         22    1    5    5    0    0  0.13554694895E+03  0.18623716483E+02 -0.97635030639E+03  0.98589032807E+03  0.00000000000E+00 0.  1.
          5    1    4    4  502    0  0.44825987479E+02 -0.41523112489E+02 -0.27452365001E+02  0.67151026563E+02  0.47000000000E+01 0. -1.
         -5    1    4    4    0  502  0.21860305349E+02  0.73921608535E+02  0.15556697775E+02  0.78780568695E+02  0.47000000000E+01 0. -1.
<mgrwt>
<rscale>  0 0.99898012E+03</rscale>
<asrwt>0</asrwt>
<pdfrwt beam="1">  1        2 0.17436056E+00 0.99898012E+03</pdfrwt>
<pdfrwt beam="2">  1       -2 0.33867157E-01 0.99898012E+03</pdfrwt>
<totfact> 0.20444536E+02</totfact>
</mgrwt>
</event>
<event>
 9    1  0.4236486E-036  0.9960187E+03  0.7818608E-02  0.8684839E-01
          2   -1    0    0  501    0  0.00000000000E+00  0.00000000000E+00  0.47037214595E+03  0.47037214595E+03  0.00000000000E+00 0.  1.
         -2   -1    0    0    0  501 -0.00000000000E+00 -0.00000000000E+00 -0.52727041376E+03  0.52727041376E+03  0.00000000000E+00 0.  1.
         36    2    1    2    0    0  0.14210854715E-13  0.71054273576E-14 -0.56898267815E+02  0.99764255971E+03  0.99601870668E+03 0.  0.
         25    2    3    3    0    0 -0.99241922014E+02 -0.54394468856E+02  0.65650755491E+02  0.18067763938E+03  0.12460606064E+03 0.  0.
         35    2    3    3    0    0  0.99241922014E+02  0.54394468856E+02 -0.12254902331E+03  0.81696492033E+03  0.79975352491E+03 0.  0.
         22    1    5    5    0    0 -0.44997339115E+02 -0.10220160207E+02  0.33227420963E+03  0.33546290791E+03  0.00000000000E+00 0.  1.
         22    1    5    5    0    0  0.14423926113E+03  0.64614629063E+02 -0.45482323293E+03  0.48150201241E+03  0.00000000000E+00 0.  1.
          5    1    4    4  502    0  0.20360192628E+02 -0.36167227153E+02 -0.23104978747E+01  0.41833409665E+02  0.47000000000E+01 0.  1.
         -5    1    4    4    0  502 -0.11960211464E+03 -0.18227241703E+02  0.67961253366E+02  0.13884422972E+03  0.47000000000E+01 0.  1.
<mgrwt>
<rscale>  0 0.99601871E+03</rscale>
<asrwt>0</asrwt>
<pdfrwt beam="1">  1        2 0.72364946E-01 0.99601871E+03</pdfrwt>
<pdfrwt beam="2">  1       -2 0.81118525E-01 0.99601871E+03</pdfrwt>
<totfact> 0.10659189E+02</totfact>
</mgrwt>
</event>
<event>
 9    1  0.4236486E-036  0.9997099E+03  0.7818608E-02  0.8681314E-01
         -2   -1    0    0    0  501 -0.00000000000E+00  0.00000000000E+00  0.29201526904E+03  0.29201526904E+03  0.00000000000E+00 0.  1.
          2   -1    0    0  501    0  0.00000000000E+00 -0.00000000000E+00 -0.85562292141E+03  0.85562292141E+03  0.00000000000E+00 0.  1.
         36    2    1    2    0    0  0.28421709430E-13 -0.71054273576E-14 -0.56360765237E+03  0.11476381905E+04  0.99970987310E+03 0.  0.
         25    2    3    3    0    0 -0.82292742901E+02  0.44281140551E+02 -0.22526859913E+03  0.27415465054E+03  0.12522745592E+03 0.  0.
         35    2    3    3    0    0  0.82292742901E+02 -0.44281140551E+02 -0.33833905324E+03  0.87348353991E+03  0.79985452715E+03 0.  0.
         22    1    5    5    0    0  0.11760165651E+03  0.36517527769E+03 -0.92669940779E+02  0.39467816125E+03  0.00000000000E+00 0.  1.
         22    1    5    5    0    0 -0.35308913604E+02 -0.40945641824E+03 -0.24566911246E+03  0.47880537866E+03  0.00000000000E+00 0.  1.
          5    1    4    4  502    0 -0.11317734138E+03  0.35123906054E+02 -0.14362952284E+03  0.18626413828E+03  0.47000000000E+01 0. -1.
         -5    1    4    4    0  502  0.30884598482E+02  0.91572344979E+01 -0.81639076294E+02  0.87890512259E+02  0.47000000000E+01 0. -1.
<mgrwt>
<rscale>  0 0.99970987E+03</rscale>
<asrwt>0</asrwt>
<pdfrwt beam="1">  1        2 0.13163429E+00 0.99970987E+03</pdfrwt>
<pdfrwt beam="2">  1       -2 0.44925427E-01 0.99970987E+03</pdfrwt>
<totfact> 0.17883596E+02</totfact>
</mgrwt>
</event>
<event>
 9    1  0.4236486E-036  0.9952713E+03  0.7818608E-02  0.8685554E-01
          2   -1    0    0  501    0  0.00000000000E+00  0.00000000000E+00  0.34370111487E+03  0.34370111487E+03  0.00000000000E+00 0. -1.
         -2   -1    0    0    0  501 -0.00000000000E+00 -0.00000000000E+00 -0.72051334400E+03  0.72051334400E+03  0.00000000000E+00 0. -1.
         36    2    1    2    0    0  0.28421709430E-13 -0.71054273576E-14 -0.37681222913E+03  0.10642144589E+04  0.99527129891E+03 0.  0.
         25    2    3    3    0    0  0.13503867160E+03 -0.43934294613E+01 -0.73911633541E+02  0.19828413464E+03  0.12489565016E+03 0.  0.
         35    2    3    3    0    0 -0.13503867160E+03  0.43934294613E+01 -0.30290059559E+03  0.86593032422E+03  0.79989487469E+03 0.  0.
         22    1    5    5    0    0 -0.43034045430E+03 -0.11801391483E+03 -0.31471499995E+03  0.54604553097E+03  0.00000000000E+00 0.  1.
         22    1    5    5    0    0  0.29530178270E+03  0.12240734429E+03  0.11814404368E+02  0.31988479325E+03  0.00000000000E+00 0.  1.
          5    1    4    4  502    0 -0.66429192619E+00 -0.24837753539E+02  0.19734643645E+02  0.32076493643E+02  0.47000000000E+01 0. -1.
         -5    1    4    4    0  502  0.13570296352E+03  0.20444324078E+02 -0.93646277186E+02  0.16620764100E+03  0.47000000000E+01 0. -1.
<mgrwt>
<rscale>  0 0.99527130E+03</rscale>
<asrwt>0</asrwt>
<pdfrwt beam="1">  1        2 0.52877095E-01 0.99527130E+03</pdfrwt>
<pdfrwt beam="2">  1       -2 0.11084821E+00 0.99527130E+03</pdfrwt>
<totfact> 0.71638926E+01</totfact>
</mgrwt>
</event>
<event>
 9    1  0.4236486E-036  0.1000439E+04  0.7818608E-02  0.8680620E-01
         -2   -1    0    0    0  501 -0.00000000000E+00  0.00000000000E+00  0.18142292067E+03  0.18142292067E+03  0.00000000000E+00 0.  1.
          2   -1    0    0  501    0  0.00000000000E+00 -0.00000000000E+00 -0.13792046565E+04  0.13792046565E+04  0.00000000000E+00 0.  1.
         36    2    1    2    0    0  0.00000000000E+00 -0.28421709430E-13 -0.11977817359E+04  0.15606275772E+04  0.10004385778E+04 0.  0.
         25    2    3    3    0    0 -0.84640382166E+02 -0.65647745533E+02 -0.87068666744E+02  0.18600736545E+03  0.12467624668E+03 0.  0.
         35    2    3    3    0    0  0.84640382166E+02  0.65647745533E+02 -0.11107130691E+04  0.13746202118E+04  0.80275997898E+03 0.  0.
         22    1    5    5    0    0 -0.17224836495E+03 -0.29046466767E+03 -0.29576628522E+03  0.44890635757E+03  0.00000000000E+00 0. -1.
         22    1    5    5    0    0  0.25688874712E+03  0.35611241321E+03 -0.81494678390E+03  0.92571385418E+03  0.00000000000E+00 0. -1.
          5    1    4    4  502    0 -0.31734979088E+02 -0.72766750053E+02  0.47802804519E+01  0.79668374479E+02  0.47000000000E+01 0.  1.
         -5    1    4    4    0  502 -0.52905403078E+02  0.71190045193E+01 -0.91848947195E+02  0.10633899097E+03  0.47000000000E+01 0.  1.
<mgrwt>
<rscale>  0 0.10004386E+04</rscale>
<asrwt>0</asrwt>
<pdfrwt beam="1">  1        2 0.21218533E+00 0.10004386E+04</pdfrwt>
<pdfrwt beam="2">  1       -2 0.27911219E-01 0.10004386E+04</pdfrwt>
<totfact> 0.20910191E+02</totfact>
</mgrwt>
</event>
<event>
 9    1  0.4236486E-036  0.9985641E+03  0.7818608E-02  0.8682407E-01
          2   -1    0    0  501    0  0.00000000000E+00  0.00000000000E+00  0.79362624514E+03  0.79362624514E+03  0.00000000000E+00 0. -1.
         -2   -1    0    0    0  501 -0.00000000000E+00 -0.00000000000E+00 -0.31410575913E+03  0.31410575913E+03  0.00000000000E+00 0. -1.
         36    2    1    2    0    0  0.00000000000E+00  0.71054273576E-14  0.47952048600E+03  0.11077320043E+04  0.99856411751E+03 0.  0.
         25    2    3    3    0    0 -0.12062347120E+03  0.20410369281E+02  0.19100805007E+03  0.25900691954E+03  0.12503561173E+03 0.  0.
         35    2    3    3    0    0  0.12062347120E+03 -0.20410369281E+02  0.28851243594E+03  0.84872508473E+03  0.78875106262E+03 0.  0.
         22    1    5    5    0    0  0.15129998680E+03  0.23132875509E+03  0.46416351415E+03  0.54023369648E+03  0.00000000000E+00 0. -1.
         22    1    5    5    0    0 -0.30676515600E+02 -0.25173912437E+03 -0.17565107822E+03  0.30849138825E+03  0.00000000000E+00 0. -1.
          5    1    4    4  502    0 -0.78636650921E+02  0.17296965187E+02  0.20004344800E+03  0.21569047026E+03  0.47000000000E+01 0.  1.
         -5    1    4    4    0  502 -0.41986820281E+02  0.31134040948E+01 -0.90353979355E+01  0.43316449280E+02  0.47000000000E+01 0.  1.
<mgrwt>
<rscale>  0 0.99856412E+03</rscale>
<asrwt>0</asrwt>
<pdfrwt beam="1">  1        2 0.12209634E+00 0.99856412E+03</pdfrwt>
<pdfrwt beam="2">  1       -2 0.48323963E-01 0.99856412E+03</pdfrwt>
<totfact> 0.17090857E+02</totfact>
</mgrwt>
</event>
<event>
 9    1  0.4236486E-036  0.9999770E+03  0.7818608E-02  0.8681060E-01
         -2   -1    0    0    0  501 -0.00000000000E+00  0.00000000000E+00  0.32476970441E+03  0.32476970441E+03  0.00000000000E+00 0. -1.
          2   -1    0    0  501    0  0.00000000000E+00 -0.00000000000E+00 -0.76974076124E+03  0.76974076124E+03  0.00000000000E+00 0. -1.
         36    2    1    2    0    0  0.14210854715E-13 -0.35527136788E-13 -0.44497105683E+03  0.10945104656E+04  0.99997695874E+03 0.  0.
         25    2    3    3    0    0  0.11051954356E+03  0.18729592214E+02 -0.16089765810E+03  0.23846291059E+03  0.13568764207E+03 0.  0.
         35    2    3    3    0    0 -0.11051954356E+03 -0.18729592214E+02 -0.28407339873E+03  0.85604755506E+03  0.79972142245E+03 0.  0.
         22    1    5    5    0    0  0.71129372674E+02  0.31923346988E+03  0.69417363649E+02  0.33434737374E+03  0.00000000000E+00 0. -1.
         22    1    5    5    0    0 -0.18164891623E+03 -0.33796306209E+03 -0.35349076238E+03  0.52170018133E+03  0.00000000000E+00 0. -1.
          5    1    4    4  502    0  0.24818592255E+02 -0.54767059680E+02 -0.76556330357E+02  0.97459504746E+02  0.47000000000E+01 0.  1.
         -5    1    4    4    0  502  0.85700951300E+02  0.73496651894E+02 -0.84341327740E+02  0.14100340584E+03  0.47000000000E+01 0.  1.
<mgrwt>
<rscale>  0 0.99997696E+03</rscale>
<asrwt>0</asrwt>
<pdfrwt beam="1">  1        2 0.11842166E+00 0.99997696E+03</pdfrwt>
<pdfrwt beam="2">  1       -2 0.49964570E-01 0.99997696E+03</pdfrwt>
<totfact> 0.16627487E+02</totfact>
</mgrwt>
</event>
<event>
 9    1  0.4236486E-036  0.9988499E+03  0.7818608E-02  0.8682134E-01
         -2   -1    0    0    0  501 -0.00000000000E+00  0.00000000000E+00  0.24924072975E+03  0.24924072975E+03  0.00000000000E+00 0. -1.
          2   -1    0    0  501    0  0.00000000000E+00 -0.00000000000E+00 -0.10007404433E+04  0.10007404433E+04  0.00000000000E+00 0. -1.
         36    2    1    2    0    0  0.71054273576E-14 -0.14210854715E-13 -0.75149971351E+03  0.12499811730E+04  0.99884989537E+03 0.  0.
         25    2    3    3    0    0  0.62595687320E+02  0.39514753400E+02  0.85596669564E+01  0.14483438422E+03  0.12419378062E+03 0.  0.
         35    2    3    3    0    0 -0.62595687320E+02 -0.39514753400E+02 -0.76005938047E+03  0.11051467888E+04  0.79886139420E+03 0.  0.
         22    1    5    5    0    0 -0.91800529874E+02  0.18520138068E+03  0.89966033770E+02  0.22543463781E+03  0.00000000000E+00 0.  1.
         22    1    5    5    0    0  0.29204842554E+02 -0.22471613408E+03 -0.85002541424E+03  0.87971215099E+03  0.00000000000E+00 0.  1.
          5    1    4    4  502    0  0.44862746818E+02  0.57276026885E+01  0.63301837033E+02  0.77940259535E+02  0.47000000000E+01 0.  1.
         -5    1    4    4    0  502  0.17732940502E+02  0.33787150712E+02 -0.54742170077E+02  0.66894124681E+02  0.47000000000E+01 0.  1.
<mgrwt>
<rscale>  0 0.99884990E+03</rscale>
<asrwt>0</asrwt>
<pdfrwt beam="1">  1        2 0.15396007E+00 0.99884990E+03</pdfrwt>
<pdfrwt beam="2">  1       -2 0.38344727E-01 0.99884990E+03</pdfrwt>
<totfact> 0.19531408E+02</totfact>
</mgrwt>
</event>
<event>
 9    1  0.4236486E-036  0.9998592E+03  0.7818608E-02  0.8681172E-01
         -1   -1    0    0    0  501 -0.00000000000E+00  0.00000000000E+00  0.51411280944E+03  0.51411280944E+03  0.00000000000E+00 0. -1.
          1   -1    0    0  501    0  0.00000000000E+00 -0.00000000000E+00 -0.48613768629E+03  0.48613768629E+03  0.00000000000E+00 0. -1.
         36    2    1    2    0    0 -0.71054273576E-14  0.28421709430E-13  0.27975123148E+02  0.10002504957E+04  0.99985921344E+03 0.  0.
         25    2    3    3    0    0 -0.54880738710E+02 -0.11766663186E+03 -0.42111869943E+02  0.18519514913E+03  0.12516589766E+03 0.  0.
         35    2    3    3    0    0  0.54880738710E+02  0.11766663186E+03  0.70086993091E+02  0.81505534661E+03  0.80158948328E+03 0.  0.
         22    1    5    5    0    0 -0.32075374554E+03 -0.11358395147E+01 -0.16038670842E+03  0.35861978703E+03  0.00000000000E+00 0. -1.
         22    1    5    5    0    0  0.37563448425E+03  0.11880247137E+03  0.23047370151E+03  0.45643555958E+03  0.00000000000E+00 0. -1.
          5    1    4    4  502    0 -0.66540301387E+02 -0.98534258047E+01  0.33555355579E+01  0.67513341850E+02  0.47000000000E+01 0.  1.
         -5    1    4    4    0  502  0.11659562678E+02 -0.10781320605E+03 -0.45467405501E+02  0.11768180728E+03  0.47000000000E+01 0.  1.
<mgrwt>
<rscale>  0 0.99985921E+03</rscale>
<asrwt>0</asrwt>
<pdfrwt beam="1">  1        1 0.74790413E-01 0.99985921E+03</pdfrwt>
<pdfrwt beam="2">  1       -1 0.79094279E-01 0.99985921E+03</pdfrwt>
<totfact> 0.87059403E+01</totfact>
</mgrwt>
</event>
<event>
 9    1  0.4236486E-036  0.9993351E+03  0.7818608E-02  0.8681671E-01
          1   -1    0    0  501    0  0.00000000000E+00  0.00000000000E+00  0.88488306669E+03  0.88488306669E+03  0.00000000000E+00 0. -1.
         -1   -1    0    0    0  501 -0.00000000000E+00 -0.00000000000E+00 -0.28214765544E+03  0.28214765544E+03  0.00000000000E+00 0. -1.
         36    2    1    2    0    0 -0.28421709430E-13  0.14210854715E-13  0.60273541124E+03  0.11670307221E+04  0.99933514420E+03 0.  0.
         25    2    3    3    0    0  0.11479529445E+03 -0.76895197730E+02  0.13148062818E+03  0.22819991967E+03  0.12528853376E+03 0.  0.
         35    2    3    3    0    0 -0.11479529445E+03  0.76895197730E+02  0.47125478306E+03  0.93883080246E+03  0.80014459570E+03 0.  0.
         22    1    5    5    0    0 -0.40530482788E+03  0.10078503285E+01  0.49248901241E+03  0.63782320952E+03  0.00000000000E+00 0.  1.
         22    1    5    5    0    0  0.29050953343E+03  0.75887347401E+02 -0.21234229344E+02  0.30100759294E+03  0.00000000000E+00 0.  1.
          5    1    4    4  502    0  0.73064593561E+02  0.83049443918E+01  0.10733215522E+03  0.13019096926E+03  0.47000000000E+01 0. -1.
         -5    1    4    4    0  502  0.41730700887E+02 -0.85200142122E+02  0.24148472959E+02  0.98008950409E+02  0.47000000000E+01 0. -1.
<mgrwt>
<rscale>  0 0.99933514E+03</rscale>
<asrwt>0</asrwt>
<pdfrwt beam="1">  1        1 0.13613586E+00 0.99933514E+03</pdfrwt>
<pdfrwt beam="2">  1       -1 0.43407332E-01 0.99933514E+03</pdfrwt>
<totfact> 0.11083754E+02</totfact>
</mgrwt>
</event>
<event>
 9    1  0.4236486E-036  0.9997504E+03  0.7818608E-02  0.8681276E-01
          1   -1    0    0  501    0  0.00000000000E+00  0.00000000000E+00  0.10089858323E+04  0.10089858323E+04  0.00000000000E+00 0.  1.
         -1   -1    0    0    0  501 -0.00000000000E+00 -0.00000000000E+00 -0.24764985247E+03  0.24764985247E+03  0.00000000000E+00 0.  1.
         36    2    1    2    0    0  0.00000000000E+00 -0.14210854715E-13  0.76133597986E+03  0.12566356848E+04  0.99975035387E+03 0.  0.
         25    2    3    3    0    0 -0.63255926745E+02  0.11261526377E+03  0.74118397192E+02  0.19428609621E+03  0.12477996824E+03 0.  0.
         35    2    3    3    0    0  0.63255926745E+02 -0.11261526377E+03  0.68721758267E+03  0.10623495886E+04  0.79977192533E+03 0.  0.
         22    1    5    5    0    0 -0.50324545555E+02  0.30551350983E+03  0.86145584490E+02  0.32139092442E+03  0.00000000000E+00 0.  1.
         22    1    5    5    0    0  0.11358047230E+03 -0.41812877360E+03  0.60107199818E+03  0.74095866416E+03  0.00000000000E+00 0.  1.
          5    1    4    4  502    0 -0.13546500433E+02 -0.65138315319E+01  0.62660154644E+02  0.64608998253E+02  0.47000000000E+01 0. -1.
         -5    1    4    4    0  502 -0.49709426312E+02  0.11912909530E+03  0.11458242547E+02  0.12967709796E+03  0.47000000000E+01 0. -1.
<mgrwt>
<rscale>  0 0.99975035E+03</rscale>
<asrwt>0</asrwt>
<pdfrwt beam="1">  1        1 0.15522859E+00 0.99975035E+03</pdfrwt>
<pdfrwt beam="2">  1       -1 0.38099978E-01 0.99975035E+03</pdfrwt>
<totfact> 0.11085707E+02</totfact>
</mgrwt>
</event>
<event>
 9    1  0.4236486E-036  0.1000288E+04  0.7818608E-02  0.8680764E-01
          2   -1    0    0  501    0  0.00000000000E+00  0.00000000000E+00  0.10270824053E+04  0.10270824053E+04  0.00000000000E+00 0.  1.
         -2   -1    0    0    0  501 -0.00000000000E+00 -0.00000000000E+00 -0.24354826481E+03  0.24354826481E+03  0.00000000000E+00 0.  1.
         36    2    1    2    0    0  0.14210854715E-13  0.21316282073E-13  0.78353414045E+03  0.12706306701E+04  0.10002882337E+04 0.  0.
         25    2    3    3    0    0 -0.81228212559E+02 -0.34892086586E+02  0.66482344221E+01  0.15195562636E+03  0.12341326160E+03 0.  0.
         35    2    3    3    0    0  0.81228212559E+02  0.34892086586E+02  0.77688590603E+03  0.11186750437E+04  0.80004166281E+03 0.  0.
         22    1    5    5    0    0 -0.25476783182E+03  0.15275599465E+03  0.39302889733E+02  0.29964271921E+03  0.00000000000E+00 0.  1.
         22    1    5    5    0    0  0.33599604438E+03 -0.11786390806E+03  0.73758301630E+03  0.81903232451E+03  0.00000000000E+00 0.  1.
          5    1    4    4  502    0  0.23428680918E+02 -0.26014300688E+02  0.27505006526E+02  0.44768988305E+02  0.47000000000E+01 0. -1.
         -5    1    4    4    0  502 -0.10465689348E+03 -0.88777858975E+01 -0.20856772104E+02  0.10718663805E+03  0.47000000000E+01 0. -1.
<mgrwt>
<rscale>  0 0.10002882E+04</rscale>
<asrwt>0</asrwt>
<pdfrwt beam="1">  1        2 0.15801268E+00 0.10002882E+04</pdfrwt>
<pdfrwt beam="2">  1       -2 0.37468964E-01 0.10002882E+04</pdfrwt>
<totfact> 0.19646090E+02</totfact>
</mgrwt>
</event>
<event>
 9    1  0.4236486E-036  0.9998069E+03  0.7818608E-02  0.8681222E-01
         -1   -1    0    0    0  501 -0.00000000000E+00  0.00000000000E+00  0.65007744908E+03  0.65007744908E+03  0.00000000000E+00 0. -1.
          1   -1    0    0  501    0  0.00000000000E+00 -0.00000000000E+00 -0.38442103082E+03  0.38442103082E+03  0.00000000000E+00 0. -1.
         36    2    1    2    0    0  0.14210854715E-13  0.00000000000E+00  0.26565641826E+03  0.10344984799E+04  0.99980686753E+03 0.  0.
         25    2    3    3    0    0 -0.53466548169E+01  0.13992837484E+03  0.47854174445E+02  0.19384432670E+03  0.12520808352E+03 0.  0.
         35    2    3    3    0    0  0.53466548169E+01 -0.13992837484E+03  0.21780224381E+03  0.84065415320E+03  0.79978312753E+03 0.  0.
         22    1    5    5    0    0  0.36440527730E+03 -0.22144509143E+03  0.30363494128E+02  0.42749394899E+03  0.00000000000E+00 0.  1.
         22    1    5    5    0    0 -0.35905862248E+03  0.81516716587E+02  0.18743874968E+03  0.41316020422E+03  0.00000000000E+00 0.  1.
          5    1    4    4  502    0  0.39907667608E+02  0.11188726457E+03  0.67729108351E+02  0.13682362378E+03  0.47000000000E+01 0. -1.
         -5    1    4    4    0  502 -0.45254322425E+02  0.28041110274E+02 -0.19874933906E+02  0.57020702918E+02  0.47000000000E+01 0. -1.
<mgrwt>
<rscale>  0 0.99980687E+03</rscale>
<asrwt>0</asrwt>
<pdfrwt beam="1">  1        1 0.59141697E-01 0.99980687E+03</pdfrwt>
<pdfrwt beam="2">  1       -1 0.10001192E+00 0.99980687E+03</pdfrwt>
<totfact> 0.72213355E+01</totfact>
</mgrwt>
</event>
<event>
 9    1  0.4236486E-036  0.1000008E+04  0.7818608E-02  0.8681031E-01
         -1   -1    0    0    0  501 -0.00000000000E+00  0.00000000000E+00  0.18634868622E+03  0.18634868622E+03  0.00000000000E+00 0. -1.
          1   -1    0    0  501    0  0.00000000000E+00 -0.00000000000E+00 -0.13415916481E+04  0.13415916481E+04  0.00000000000E+00 0. -1.
         36    2    1    2    0    0  0.00000000000E+00  0.14210854715E-13 -0.11552429619E+04  0.15279403343E+04  0.10000076821E+04 0.  0.
         25    2    3    3    0    0  0.93544621323E+02  0.58629402702E+02 -0.83892613037E+02  0.18628341856E+03  0.12440071731E+03 0.  0.
         35    2    3    3    0    0 -0.93544621323E+02 -0.58629402702E+02 -0.10713503489E+04  0.13416569158E+04  0.80003981564E+03 0.  0.
         22    1    5    5    0    0 -0.41358378250E+03  0.11678906848E+03 -0.45891937359E+03  0.62872746331E+03  0.00000000000E+00 0. -1.
         22    1    5    5    0    0  0.32003916118E+03 -0.17541847118E+03 -0.61243097529E+03  0.71292945248E+03  0.00000000000E+00 0. -1.
          5    1    4    4  502    0 -0.30407948043E+02  0.53955157818E+01 -0.13237497308E+02  0.33927514346E+02  0.47000000000E+01 0.  1.
         -5    1    4    4    0  502  0.12395256937E+03  0.53233886920E+02 -0.70655115729E+02  0.15235590421E+03  0.47000000000E+01 0.  1.
<mgrwt>
<rscale>  0 0.10000077E+04</rscale>
<asrwt>0</asrwt>
<pdfrwt beam="1">  1        1 0.20639871E+00 0.10000077E+04</pdfrwt>
<pdfrwt beam="2">  1       -1 0.28669030E-01 0.10000077E+04</pdfrwt>
<totfact> 0.10187148E+02</totfact>
</mgrwt>
</event>
<event>
 9    1  0.4236486E-036  0.9991371E+03  0.7818608E-02  0.8681860E-01
         -3   -1    0    0    0  501 -0.00000000000E+00  0.00000000000E+00  0.98779242448E+03  0.98779242448E+03  0.00000000000E+00 0.  1.
          3   -1    0    0  501    0  0.00000000000E+00 -0.00000000000E+00 -0.25265302144E+03  0.25265302144E+03  0.00000000000E+00 0.  1.
         36    2    1    2    0    0 -0.71054273576E-14  0.00000000000E+00  0.73513940304E+03  0.12404454459E+04  0.99913710891E+03 0.  0.
         25    2    3    3    0    0 -0.15629867628E+01  0.12591541524E+03  0.58938570449E+02  0.18692000767E+03  0.12493277976E+03 0.  0.
         35    2    3    3    0    0  0.15629867628E+01 -0.12591541524E+03  0.67620083259E+03  0.10535254382E+04  0.79800447889E+03 0.  0.
         22    1    5    5    0    0  0.25349804191E+03 -0.37285487389E+03  0.43240835617E+03  0.62470713196E+03  0.00000000000E+00 0.  1.
         22    1    5    5    0    0 -0.25193505514E+03  0.24693945866E+03  0.24379247642E+03  0.42881830629E+03  0.00000000000E+00 0.  1.
          5    1    4    4  502    0  0.57115063282E+02  0.58042416423E+02  0.41162041280E+01  0.81670592592E+02  0.47000000000E+01 0. -1.
         -5    1    4    4    0  502 -0.58678050045E+02  0.67872998815E+02  0.54822366321E+02  0.10524941508E+03  0.47000000000E+01 0. -1.
<mgrwt>
<rscale>  0 0.99913711E+03</rscale>
<asrwt>0</asrwt>
<pdfrwt beam="1">  1        3 0.38869696E-01 0.99913711E+03</pdfrwt>
<pdfrwt beam="2">  1       -3 0.15196806E+00 0.99913711E+03</pdfrwt>
<totfact> 0.65409448E+00</totfact>
</mgrwt>
</event>
<event>
 9    1  0.4236486E-036  0.1000395E+04  0.7818608E-02  0.8680662E-01
         -1   -1    0    0    0  501 -0.00000000000E+00  0.00000000000E+00  0.51884775591E+03  0.51884775591E+03  0.00000000000E+00 0. -1.
          1   -1    0    0  501    0  0.00000000000E+00 -0.00000000000E+00 -0.48221756398E+03  0.48221756398E+03  0.00000000000E+00 0. -1.
         36    2    1    2    0    0  0.71054273576E-14 -0.14210854715E-13  0.36630191930E+02  0.10010653199E+04  0.10003949239E+04 0.  0.
         25    2    3    3    0    0 -0.37731863858E+02 -0.71390303960E+02 -0.10986021691E+03  0.18488551472E+03  0.12487240385E+03 0.  0.
         35    2    3    3    0    0  0.37731863858E+02  0.71390303960E+02  0.14649040884E+03  0.81617980518E+03  0.79885528442E+03 0.  0.
         22    1    5    5    0    0  0.35812411340E+03 -0.16198671751E+03  0.14744313537E+03  0.41980001836E+03  0.00000000000E+00 0. -1.
         22    1    5    5    0    0 -0.32039224954E+03  0.23337702147E+03 -0.95272653272E+00  0.39637978682E+03  0.00000000000E+00 0. -1.
          5    1    4    4  502    0 -0.79886566309E+02 -0.68086999270E+02 -0.87998081524E+02  0.13705274641E+03  0.47000000000E+01 0.  1.
         -5    1    4    4    0  502  0.42154702450E+02 -0.33033046903E+01 -0.21862135386E+02  0.47832768310E+02  0.47000000000E+01 0.  1.
<mgrwt>
<rscale>  0 0.10003949E+04</rscale>
<asrwt>0</asrwt>
<pdfrwt beam="1">  1        1 0.74187317E-01 0.10003949E+04</pdfrwt>
<pdfrwt beam="2">  1       -1 0.79822732E-01 0.10003949E+04</pdfrwt>
<totfact> 0.86370284E+01</totfact>
</mgrwt>
</event>
<event>
 9    1  0.4236486E-036  0.9997614E+03  0.7818608E-02  0.8681265E-01
         -2   -1    0    0    0  501 -0.00000000000E+00  0.00000000000E+00  0.16531724233E+03  0.16531724233E+03  0.00000000000E+00 0.  1.
          2   -1    0    0  501    0  0.00000000000E+00 -0.00000000000E+00 -0.15115223778E+04  0.15115223778E+04  0.00000000000E+00 0.  1.
         36    2    1    2    0    0 -0.28421709430E-13  0.00000000000E+00 -0.13462051355E+04  0.16768396202E+04  0.99976139397E+03 0.  0.
         25    2    3    3    0    0 -0.46306720279E+02  0.79397700681E+02 -0.72256536365E+02  0.16989844479E+03  0.12327273534E+03 0.  0.
         35    2    3    3    0    0  0.46306720279E+02 -0.79397700681E+02 -0.12739485991E+04  0.15069411754E+04  0.79967391202E+03 0.  0.
         22    1    5    5    0    0 -0.37728089678E+03 -0.33210570657E+02 -0.61141167906E+03  0.71921349985E+03  0.00000000000E+00 0.  1.
         22    1    5    5    0    0  0.42358761706E+03 -0.46187130024E+02 -0.66253692007E+03  0.78772767551E+03  0.00000000000E+00 0.  1.
          5    1    4    4  502    0  0.26345709075E+02  0.14447794422E+02 -0.65360780318E+02  0.72089921307E+02  0.47000000000E+01 0.  1.
         -5    1    4    4    0  502 -0.72652429353E+02  0.64949906259E+02 -0.68957560467E+01  0.97808523480E+02  0.47000000000E+01 0.  1.
<mgrwt>
<rscale>  0 0.99976139E+03</rscale>
<asrwt>0</asrwt>
<pdfrwt beam="1">  1        2 0.23254190E+00 0.99976139E+03</pdfrwt>
<pdfrwt beam="2">  1       -2 0.25433422E-01 0.99976139E+03</pdfrwt>
<totfact> 0.20766460E+02</totfact>
</mgrwt>
</event>
<event>
 9    1  0.4236486E-036  0.9997589E+03  0.7818608E-02  0.8681268E-01
         -2   -1    0    0    0  501 -0.00000000000E+00  0.00000000000E+00  0.21444853613E+03  0.21444853613E+03  0.00000000000E+00 0.  1.
          2   -1    0    0  501    0  0.00000000000E+00 -0.00000000000E+00 -0.11652187675E+04  0.11652187675E+04  0.00000000000E+00 0.  1.
         36    2    1    2    0    0 -0.21316282073E-13 -0.14210854715E-13 -0.95077023136E+03  0.13796673036E+04  0.99975888884E+03 0.  0.
         25    2    3    3    0    0 -0.52250182641E+02  0.12732564402E+03 -0.20180023736E+03  0.27446165425E+03  0.12515575355E+03 0.  0.
         35    2    3    3    0    0  0.52250182641E+02 -0.12732564402E+03 -0.74896999400E+03  0.11052056494E+04  0.80098787397E+03 0.  0.
         22    1    5    5    0    0 -0.32625221812E+03 -0.23825755674E+03 -0.27556844707E+03  0.48902468465E+03  0.00000000000E+00 0. -1.
         22    1    5    5    0    0  0.37850240076E+03  0.11093191272E+03 -0.47340154693E+03  0.61618096471E+03  0.00000000000E+00 0. -1.
          5    1    4    4  502    0 -0.87222228848E+02  0.11877000171E+03 -0.14323190672E+03  0.20555169572E+03  0.47000000000E+01 0.  1.
         -5    1    4    4    0  502  0.34972046207E+02  0.85556423099E+01 -0.58568330635E+02  0.68909958530E+02  0.47000000000E+01 0.  1.
<mgrwt>
<rscale>  0 0.99975889E+03</rscale>
<asrwt>0</asrwt>
<pdfrwt beam="1">  1        2 0.17926443E+00 0.99975889E+03</pdfrwt>
<pdfrwt beam="2">  1       -2 0.32992082E-01 0.99975889E+03</pdfrwt>
<totfact> 0.20538256E+02</totfact>
</mgrwt>
</event>
<event>
 9    1  0.4236486E-036  0.1000709E+04  0.7818608E-02  0.8680363E-01
          2   -1    0    0  501    0  0.00000000000E+00  0.00000000000E+00  0.20811969201E+04  0.20811969201E+04  0.00000000000E+00 0.  1.
         -2   -1    0    0    0  501 -0.00000000000E+00 -0.00000000000E+00 -0.12029362515E+03  0.12029362515E+03  0.00000000000E+00 0.  1.
         36    2    1    2    0    0 -0.14210854715E-13  0.00000000000E+00  0.19609032950E+04  0.22014905453E+04  0.10007091929E+04 0.  0.
         25    2    3    3    0    0 -0.12254145329E+02 -0.54826979021E+02  0.65729451647E+03  0.67148126220E+03  0.12527905809E+03 0.  0.
         35    2    3    3    0    0  0.12254145329E+02  0.54826979021E+02  0.13036087785E+04  0.15300092831E+04  0.79898460384E+03 0.  0.
         22    1    5    5    0    0 -0.20130516258E+03  0.50519315282E+02  0.12999099534E+04  0.13163745123E+04  0.00000000000E+00 0. -1.
         22    1    5    5    0    0  0.21355930791E+03  0.43076637391E+01  0.36988250761E+01  0.21363477074E+03  0.00000000000E+00 0. -1.
          5    1    4    4  502    0  0.80902604367E+01 -0.45716080009E+02  0.72348925155E+02  0.86092213681E+02  0.47000000000E+01 0. -1.
         -5    1    4    4    0  502 -0.20344405765E+02 -0.91108990114E+01  0.58494559132E+03  0.58538904852E+03  0.47000000000E+01 0. -1.
<mgrwt>
<rscale>  0 0.10007092E+04</rscale>
<asrwt>0</asrwt>
<pdfrwt beam="1">  1        2 0.32018412E+00 0.10007092E+04</pdfrwt>
<pdfrwt beam="2">  1       -2 0.18506713E-01 0.10007092E+04</pdfrwt>
<totfact> 0.17218605E+02</totfact>
</mgrwt>
</event>
<event>
 9    1  0.4236486E-036  0.1000241E+04  0.7818608E-02  0.8680808E-01
          1   -1    0    0  501    0  0.00000000000E+00  0.00000000000E+00  0.11539042800E+04  0.11539042800E+04  0.00000000000E+00 0.  1.
         -1   -1    0    0    0  501 -0.00000000000E+00 -0.00000000000E+00 -0.21676020822E+03  0.21676020822E+03  0.00000000000E+00 0.  1.
         36    2    1    2    0    0  0.71054273576E-14 -0.14210854715E-13  0.93714407178E+03  0.13706644882E+04  0.10002410349E+04 0.  0.
         25    2    3    3    0    0  0.46272815287E+02  0.12066959247E+03  0.10317971687E+03  0.20780987203E+03  0.12584341444E+03 0.  0.
         35    2    3    3    0    0 -0.46272815287E+02 -0.12066959247E+03  0.83396435491E+03  0.11628546162E+04  0.80001999296E+03 0.  0.
         22    1    5    5    0    0 -0.19771385048E+03 -0.92888515278E+02  0.94698751500E+03  0.97185616041E+03  0.00000000000E+00 0. -1.
         22    1    5    5    0    0  0.15144103520E+03 -0.27781077189E+02 -0.11302316010E+03  0.19099845578E+03  0.00000000000E+00 0. -1.
          5    1    4    4  502    0  0.51159452775E+01  0.73989472085E+02  0.12180005551E+03  0.14268131762E+03  0.47000000000E+01 0.  1.
         -5    1    4    4    0  502  0.41156870010E+02  0.46680120382E+02 -0.18620338640E+02  0.65128554406E+02  0.47000000000E+01 0.  1.
<mgrwt>
<rscale>  0 0.10002410E+04</rscale>
<asrwt>0</asrwt>
<pdfrwt beam="1">  1        1 0.17752373E+00 0.10002410E+04</pdfrwt>
<pdfrwt beam="2">  1       -1 0.33347725E-01 0.10002410E+04</pdfrwt>
<totfact> 0.10815206E+02</totfact>
</mgrwt>
</event>
<event>
 9    1  0.4236486E-036  0.1004496E+04  0.7818608E-02  0.8676768E-01
         -2   -1    0    0    0  501 -0.00000000000E+00  0.00000000000E+00  0.99734707909E+02  0.99734707909E+02  0.00000000000E+00 0.  1.
          2   -1    0    0  501    0  0.00000000000E+00 -0.00000000000E+00 -0.25292391493E+04  0.25292391493E+04  0.00000000000E+00 0.  1.
         36    2    1    2    0    0  0.00000000000E+00 -0.14210854715E-13 -0.24295044414E+04  0.26289738572E+04  0.10044957497E+04 0.  0.
         25    2    3    3    0    0 -0.41936736918E+02  0.12268135781E+03 -0.29339848992E+03  0.34424237730E+03  0.12494292691E+03 0.  0.
         35    2    3    3    0    0  0.41936736918E+02 -0.12268135781E+03 -0.21361059515E+04  0.22847314799E+04  0.80014991965E+03 0.  0.
         22    1    5    5    0    0 -0.34890999654E+02 -0.87087017950E+02 -0.21849617305E+04  0.21869749186E+04  0.00000000000E+00 0. -1.
         22    1    5    5    0    0  0.76827736572E+02 -0.35594339857E+02  0.48855779065E+02  0.97756561338E+02  0.00000000000E+00 0. -1.
          5    1    4    4  502    0 -0.14615876661E+01  0.51744715271E+02 -0.24224595203E+03  0.24775964779E+03  0.47000000000E+01 0.  1.
         -5    1    4    4    0  502 -0.40475149252E+02  0.70936642536E+02 -0.51152537885E+02  0.96482729508E+02  0.47000000000E+01 0.  1.
<mgrwt>
<rscale>  0 0.10044957E+04</rscale>
<asrwt>0</asrwt>
<pdfrwt beam="1">  1        2 0.38911368E+00 0.10044957E+04</pdfrwt>
<pdfrwt beam="2">  1       -2 0.15343803E-01 0.10044957E+04</pdfrwt>
<totfact> 0.12865060E+02</totfact>
</mgrwt>
</event>
<event>
 9    1  0.4236486E-036  0.1000796E+04  0.7818608E-02  0.8680280E-01
          2   -1    0    0  501    0  0.00000000000E+00  0.00000000000E+00  0.36241963250E+03  0.36241963250E+03  0.00000000000E+00 0. -1.
         -2   -1    0    0    0  501 -0.00000000000E+00 -0.00000000000E+00 -0.69090665026E+03  0.69090665026E+03  0.00000000000E+00 0. -1.
         36    2    1    2    0    0  0.21316282073E-13  0.00000000000E+00 -0.32848701775E+03  0.10533262828E+04  0.10007959518E+04 0.  0.
         25    2    3    3    0    0  0.55896909526E+02  0.41089159247E+02 -0.19158308487E+03  0.23899197537E+03  0.12490117044E+03 0.  0.
         35    2    3    3    0    0 -0.55896909526E+02 -0.41089159247E+02 -0.13690393288E+03  0.81433430740E+03  0.79974051658E+03 0.  0.
         22    1    5    5    0    0 -0.15681060285E+03  0.71863848698E+02  0.30323454723E+03  0.34886267864E+03  0.00000000000E+00 0. -1.
         22    1    5    5    0    0  0.10091369332E+03 -0.11295300795E+03 -0.44013848011E+03  0.46547162875E+03  0.00000000000E+00 0. -1.
          5    1    4    4  502    0  0.79873000004E+02  0.48655449951E+02 -0.75972508907E+02  0.12058590734E+03  0.47000000000E+01 0. -1.
         -5    1    4    4    0  502 -0.23976090477E+02 -0.75662907042E+01 -0.11561057597E+03  0.11840606803E+03  0.47000000000E+01 0. -1.
<mgrwt>
<rscale>  0 0.10007960E+04</rscale>
<asrwt>0</asrwt>
<pdfrwt beam="1">  1        2 0.55756867E-01 0.10007960E+04</pdfrwt>
<pdfrwt beam="2">  1       -2 0.10629333E+00 0.10007960E+04</pdfrwt>
<totfact> 0.74986356E+01</totfact>
</mgrwt>
</event>
<event>
 9    1  0.4236486E-036  0.9994038E+03  0.7818608E-02  0.8681606E-01
         -3   -1    0    0    0  501 -0.00000000000E+00  0.00000000000E+00  0.12949794697E+04  0.12949794697E+04  0.00000000000E+00 0. -1.
          3   -1    0    0  501    0  0.00000000000E+00 -0.00000000000E+00 -0.19282313229E+03  0.19282313229E+03  0.00000000000E+00 0. -1.
         36    2    1    2    0    0 -0.28421709430E-13  0.00000000000E+00  0.11021563374E+04  0.14878026020E+04  0.99940381749E+03 0.  0.
         25    2    3    3    0    0 -0.21181327356E+01  0.53002048697E+02  0.14846366572E+02  0.13654859702E+03  0.12494559254E+03 0.  0.
         35    2    3    3    0    0  0.21181327356E+01 -0.53002048697E+02  0.10873099709E+04  0.13512540050E+04  0.80051902515E+03 0.  0.
         22    1    5    5    0    0 -0.32023926582E+03 -0.25054259744E+03  0.70323142540E+03  0.81231719062E+03  0.00000000000E+00 0.  1.
         22    1    5    5    0    0  0.32235739856E+03  0.19754054874E+03  0.38407854545E+03  0.53893681437E+03  0.00000000000E+00 0.  1.
          5    1    4    4  502    0  0.31560158801E+02  0.82677975657E+02 -0.12525277553E+01  0.88630412997E+02  0.47000000000E+01 0.  1.
         -5    1    4    4    0  502 -0.33678291537E+02 -0.29675926960E+02  0.16098894327E+02  0.47918184026E+02  0.47000000000E+01 0.  1.
<mgrwt>
<rscale>  0 0.99940382E+03</rscale>
<asrwt>0</asrwt>
<pdfrwt beam="1">  1        3 0.29665098E-01 0.99940382E+03</pdfrwt>
<pdfrwt beam="2">  1       -3 0.19922760E+00 0.99940382E+03</pdfrwt>
<totfact> 0.45388752E+00</totfact>
</mgrwt>
</event>
<event>
 9    1  0.4236486E-036  0.9998875E+03  0.7818608E-02  0.8681145E-01
         -2   -1    0    0    0  501 -0.00000000000E+00  0.00000000000E+00  0.32158575857E+03  0.32158575857E+03  0.00000000000E+00 0.  1.
          2   -1    0    0  501    0  0.00000000000E+00 -0.00000000000E+00 -0.77722269602E+03  0.77722269602E+03  0.00000000000E+00 0.  1.
         36    2    1    2    0    0  0.14210854715E-13  0.00000000000E+00 -0.45563693746E+03  0.10988084546E+04  0.99988749422E+03 0.  0.
         25    2    3    3    0    0 -0.88131509012E+02  0.89601260263E+02 -0.34182000827E+02  0.18587855370E+03  0.13261553011E+03 0.  0.
         35    2    3    3    0    0  0.88131509012E+02 -0.89601260263E+02 -0.42145493663E+03  0.91292990089E+03  0.80001324464E+03 0.  0.
         22    1    5    5    0    0 -0.18636193274E+03 -0.32475179714E+03 -0.40434507417E+03  0.55108024709E+03  0.00000000000E+00 0.  1.
         22    1    5    5    0    0  0.27449344175E+03  0.23515053688E+03 -0.17109862458E+02  0.36184965380E+03  0.00000000000E+00 0.  1.
          5    1    4    4  502    0 -0.14590544366E+02 -0.32447868820E+02 -0.23525713285E+02  0.42910340961E+02  0.47000000000E+01 0. -1.
         -5    1    4    4    0  502 -0.73540964647E+02  0.12204912908E+03 -0.10656287542E+02  0.14296821274E+03  0.47000000000E+01 0. -1.
<mgrwt>
<rscale>  0 0.99988749E+03</rscale>
<asrwt>0</asrwt>
<pdfrwt beam="1">  1        2 0.11957272E+00 0.99988749E+03</pdfrwt>
<pdfrwt beam="2">  1       -2 0.49474732E-01 0.99988749E+03</pdfrwt>
<totfact> 0.16750401E+02</totfact>
</mgrwt>
</event>
<event>
 9    1  0.4236486E-036  0.9997619E+03  0.7818608E-02  0.8681265E-01
          1   -1    0    0  501    0  0.00000000000E+00  0.00000000000E+00  0.66106429531E+03  0.66106429531E+03  0.00000000000E+00 0.  1.
         -1   -1    0    0    0  501 -0.00000000000E+00 -0.00000000000E+00 -0.37799794711E+03  0.37799794711E+03  0.00000000000E+00 0.  1.
         36    2    1    2    0    0 -0.14210854715E-13 -0.71054273576E-14  0.28306634820E+03  0.10390622424E+04  0.99976186472E+03 0.  0.
         25    2    3    3    0    0  0.29753809121E+02 -0.73896338500E+01  0.19511547568E+03  0.23337045407E+03  0.12430536648E+03 0.  0.
         35    2    3    3    0    0 -0.29753809121E+02  0.73896338500E+01  0.87950872521E+02  0.80569178835E+03  0.80028995120E+03 0.  0.
         22    1    5    5    0    0 -0.33266328440E+03 -0.23955923636E+03  0.51901139563E+02  0.41321570251E+03  0.00000000000E+00 0. -1.
         22    1    5    5    0    0  0.30290947527E+03  0.24694887021E+03  0.36049732958E+02  0.39247608584E+03  0.00000000000E+00 0. -1.
          5    1    4    4  502    0 -0.31528138725E+02  0.37565962181E+02  0.54557596295E+02  0.73510858786E+02  0.47000000000E+01 0. -1.
         -5    1    4    4    0  502  0.61281947846E+02 -0.44955596031E+02  0.14055787939E+03  0.15985959528E+03  0.47000000000E+01 0. -1.
<mgrwt>
<rscale>  0 0.99976186E+03</rscale>
<asrwt>0</asrwt>
<pdfrwt beam="1">  1        1 0.10170220E+00 0.99976186E+03</pdfrwt>
<pdfrwt beam="2">  1       -1 0.58153530E-01 0.99976186E+03</pdfrwt>
<totfact> 0.10276768E+02</totfact>
</mgrwt>
</event>
<event>
 9    1  0.4236486E-036  0.9998397E+03  0.7818608E-02  0.8681191E-01
          2   -1    0    0  501    0  0.00000000000E+00  0.00000000000E+00  0.28610196059E+04  0.28610196059E+04  0.00000000000E+00 0.  1.
         -2   -1    0    0    0  501 -0.00000000000E+00 -0.00000000000E+00 -0.87353418701E+02  0.87353418701E+02  0.00000000000E+00 0.  1.
         36    2    1    2    0    0 -0.21316282073E-13  0.00000000000E+00  0.27736661872E+04  0.29483730246E+04  0.99983967424E+03 0.  0.
         25    2    3    3    0    0  0.25644157322E+02  0.11199493129E+03  0.73867102549E+03  0.75788428570E+03  0.12471254621E+03 0.  0.
         35    2    3    3    0    0 -0.25644157322E+02 -0.11199493129E+03  0.20349951617E+04  0.21904887389E+04  0.80239336961E+03 0.  0.
         22    1    5    5    0    0  0.17137710533E+03  0.15150310316E+03  0.17195184233E+04  0.17346662246E+04  0.00000000000E+00 0.  1.
         22    1    5    5    0    0 -0.19702126265E+03 -0.26349803446E+03  0.31547673836E+03  0.45582251430E+03  0.00000000000E+00 0.  1.
          5    1    4    4  502    0  0.32785629737E+02  0.60657897676E+02  0.13211653937E+03  0.14910113361E+03  0.47000000000E+01 0.  1.
         -5    1    4    4    0  502 -0.71414724145E+01  0.51337033617E+02  0.60655448611E+03  0.60878315209E+03  0.47000000000E+01 0.  1.
<mgrwt>
<rscale>  0 0.99983967E+03</rscale>
<asrwt>0</asrwt>
<pdfrwt beam="1">  1        2 0.44015679E+00 0.99983967E+03</pdfrwt>
<pdfrwt beam="2">  1       -2 0.13438990E-01 0.99983967E+03</pdfrwt>
<totfact> 0.99234771E+01</totfact>
</mgrwt>
</event>
<event>
 9    1  0.4236486E-036  0.9993996E+03  0.7818608E-02  0.8681610E-01
          2   -1    0    0  501    0  0.00000000000E+00  0.00000000000E+00  0.96076831796E+03  0.96076831796E+03  0.00000000000E+00 0. -1.
         -2   -1    0    0    0  501 -0.00000000000E+00 -0.00000000000E+00 -0.25989603243E+03  0.25989603243E+03  0.00000000000E+00 0. -1.
         36    2    1    2    0    0  0.00000000000E+00  0.14210854715E-13  0.70087228553E+03  0.12206643504E+04  0.99939956759E+03 0.  0.
         25    2    3    3    0    0 -0.44115049618E+02  0.29546869602E+02  0.28987835236E+03  0.32014279507E+03  0.12507115961E+03 0.  0.
         35    2    3    3    0    0  0.44115049618E+02 -0.29546869602E+02  0.41099393317E+03  0.90052155532E+03  0.79950228479E+03 0.  0.
         22    1    5    5    0    0 -0.13377406853E+03 -0.29947374677E+03 -0.55810867664E+02  0.33270839991E+03  0.00000000000E+00 0. -1.
         22    1    5    5    0    0  0.17788911815E+03  0.26992687717E+03  0.46680480083E+03  0.56781315541E+03  0.00000000000E+00 0. -1.
          5    1    4    4  502    0 -0.38737882250E+02 -0.30619889113E+02  0.22878284781E+03  0.23409801918E+03  0.47000000000E+01 0.  1.
         -5    1    4    4    0  502 -0.53771673678E+01  0.60166758714E+02  0.61095504543E+02  0.86044775893E+02  0.47000000000E+01 0.  1.
<mgrwt>
<rscale>  0 0.99939957E+03</rscale>
<asrwt>0</asrwt>
<pdfrwt beam="1">  1        2 0.14781051E+00 0.99939957E+03</pdfrwt>
<pdfrwt beam="2">  1       -2 0.39984006E-01 0.99939957E+03</pdfrwt>
<totfact> 0.19115715E+02</totfact>
</mgrwt>
</event>
<event>
 9    1  0.4236486E-036  0.9999288E+03  0.7818608E-02  0.8681106E-01
          1   -1    0    0  501    0  0.00000000000E+00  0.00000000000E+00  0.49987548956E+03  0.49987548956E+03  0.00000000000E+00 0. -1.
         -1   -1    0    0    0  501 -0.00000000000E+00 -0.00000000000E+00 -0.50005331483E+03  0.50005331483E+03  0.00000000000E+00 0. -1.
         36    2    1    2    0    0  0.00000000000E+00  0.71054273576E-14 -0.17782527367E+00  0.99992880439E+03  0.99992878858E+03 0.  0.
         25    2    3    3    0    0 -0.12397674919E+03  0.61265550872E+02  0.22650246380E+01  0.18694536688E+03  0.12577653914E+03 0.  0.
         35    2    3    3    0    0  0.12397674919E+03 -0.61265550872E+02 -0.24428499116E+01  0.81298343751E+03  0.80113194924E+03 0.  0.
         22    1    5    5    0    0  0.38028489544E+03  0.18281611085E+03 -0.12228745401E+03  0.43930917756E+03  0.00000000000E+00 0. -1.
         22    1    5    5    0    0 -0.25630814625E+03 -0.24408166172E+03  0.11984460409E+03  0.37367425995E+03  0.00000000000E+00 0. -1.
          5    1    4    4  502    0 -0.52771083173E+02  0.83053139746E+02  0.36233118739E+02  0.10496447082E+03  0.47000000000E+01 0. -1.
         -5    1    4    4    0  502 -0.71205666014E+02 -0.21787588874E+02 -0.33968094101E+02  0.81980896057E+02  0.47000000000E+01 0. -1.
<mgrwt>
<rscale>  0 0.99992879E+03</rscale>
<asrwt>0</asrwt>
<pdfrwt beam="1">  1        1 0.76903922E-01 0.99992879E+03</pdfrwt>
<pdfrwt beam="2">  1       -1 0.76931279E-01 0.99992879E+03</pdfrwt>
<totfact> 0.88694691E+01</totfact>
</mgrwt>
</event>
<event>
 9    1  0.4236486E-036  0.9996890E+03  0.7818608E-02  0.8681334E-01
         -1   -1    0    0    0  501 -0.00000000000E+00  0.00000000000E+00  0.13597756552E+03  0.13597756552E+03  0.00000000000E+00 0.  1.
          1   -1    0    0  501    0  0.00000000000E+00 -0.00000000000E+00 -0.18373952165E+04  0.18373952165E+04  0.00000000000E+00 0.  1.
         36    2    1    2    0    0  0.14210854715E-13  0.14210854715E-13 -0.17014176510E+04  0.19733727820E+04  0.99968900852E+03 0.  0.
         25    2    3    3    0    0  0.11924773989E+03  0.35358695960E+02 -0.19381738349E+03  0.26223027028E+03  0.12541640904E+03 0.  0.
         35    2    3    3    0    0 -0.11924773989E+03 -0.35358695960E+02 -0.15076002675E+04  0.17111425117E+04  0.79979989255E+03 0.  0.
         22    1    5    5    0    0  0.29112459336E+03  0.11428084186E+03 -0.96589868576E+03  0.10152703634E+04  0.00000000000E+00 0. -1.
         22    1    5    5    0    0 -0.41037233325E+03 -0.14963953782E+03 -0.54170158169E+03  0.69587214830E+03  0.00000000000E+00 0. -1.
          5    1    4    4  502    0 -0.20046948237E+02  0.27389922345E+02 -0.58575649572E+02  0.67862247992E+02  0.47000000000E+01 0. -1.
         -5    1    4    4    0  502  0.13929468812E+03  0.79687736142E+01 -0.13524173392E+03  0.19436802228E+03  0.47000000000E+01 0. -1.
<mgrwt>
<rscale>  0 0.99968901E+03</rscale>
<asrwt>0</asrwt>
<pdfrwt beam="1">  1        1 0.28267618E+00 0.99968901E+03</pdfrwt>
<pdfrwt beam="2">  1       -1 0.20919626E-01 0.99968901E+03</pdfrwt>
<totfact> 0.76878296E+01</totfact>
</mgrwt>
</event>
<event>
 9    1  0.4236486E-036  0.1002155E+04  0.7818608E-02  0.8678988E-01
          2   -1    0    0  501    0  0.00000000000E+00  0.00000000000E+00  0.25565848025E+04  0.25565848025E+04  0.00000000000E+00 0. -1.
         -2   -1    0    0    0  501 -0.00000000000E+00 -0.00000000000E+00 -0.98208675789E+02  0.98208675789E+02  0.00000000000E+00 0. -1.
         36    2    1    2    0    0  0.14210854715E-13 -0.14210854715E-13  0.24583761267E+04  0.26547934783E+04  0.10021552933E+04 0.  0.
         25    2    3    3    0    0 -0.11723671262E+03 -0.62652891322E+02  0.60683072927E+03  0.63360159899E+03  0.12464999269E+03 0.  0.
         35    2    3    3    0    0  0.11723671262E+03  0.62652891322E+02  0.18515453974E+04  0.20211918793E+04  0.79957890328E+03 0.  0.
         22    1    5    5    0    0  0.36618918950E+03  0.26314127965E+03  0.75899714517E+03  0.88284456273E+03  0.00000000000E+00 0. -1.
         22    1    5    5    0    0 -0.24895247688E+03 -0.20048838833E+03  0.10925482522E+04  0.11383473165E+04  0.00000000000E+00 0. -1.
          5    1    4    4  502    0 -0.68666626688E+02  0.31011597813E+02  0.28822907028E+03  0.29795119026E+03  0.47000000000E+01 0.  1.
         -5    1    4    4    0  502 -0.48570085932E+02 -0.93664489135E+02  0.31860165899E+03  0.33565040873E+03  0.47000000000E+01 0.  1.
<mgrwt>
<rscale>  0 0.10021553E+04</rscale>
<asrwt>0</asrwt>
<pdfrwt beam="1">  1        2 0.39332069E+00 0.10021553E+04</pdfrwt>
<pdfrwt beam="2">  1       -2 0.15109029E-01 0.10021553E+04</pdfrwt>
<totfact> 0.12703420E+02</totfact>
</mgrwt>
</event>
<event>
 9    1  0.4236486E-036  0.1000320E+04  0.7818608E-02  0.8680733E-01
          2   -1    0    0  501    0  0.00000000000E+00  0.00000000000E+00  0.25200809773E+04  0.25200809773E+04  0.00000000000E+00 0. -1.
         -2   -1    0    0    0  501 -0.00000000000E+00 -0.00000000000E+00 -0.99266702893E+02  0.99266702893E+02  0.00000000000E+00 0. -1.
         36    2    1    2    0    0  0.00000000000E+00  0.10658141036E-13  0.24208142744E+04  0.26193476802E+04  0.10003202080E+04 0.  0.
         25    2    3    3    0    0  0.13259314922E+03  0.28984983008E+02  0.42828233627E+03  0.46587638243E+03  0.12326382959E+03 0.  0.
         35    2    3    3    0    0 -0.13259314922E+03 -0.28984983008E+02  0.19925319382E+04  0.21534712978E+04  0.80550234844E+03 0.  0.
         22    1    5    5    0    0 -0.13382802660E+03 -0.34601702942E+03  0.47257947607E+03  0.60080702938E+03  0.00000000000E+00 0.  1.
         22    1    5    5    0    0  0.12348773854E+01  0.31703204641E+03  0.15199524621E+04  0.15526642684E+04  0.00000000000E+00 0.  1.
          5    1    4    4  502    0 -0.55963729163E+01 -0.29158499964E+02  0.10977958775E+03  0.11382084782E+03  0.47000000000E+01 0.  1.
         -5    1    4    4    0  502  0.13818952213E+03  0.58143482972E+02  0.31850274852E+03  0.35205553461E+03  0.47000000000E+01 0.  1.
<mgrwt>
<rscale>  0 0.10003202E+04</rscale>
<asrwt>0</asrwt>
<pdfrwt beam="1">  1        2 0.38770472E+00 0.10003202E+04</pdfrwt>
<pdfrwt beam="2">  1       -2 0.15271802E-01 0.10003202E+04</pdfrwt>
<totfact> 0.13136484E+02</totfact>
</mgrwt>
</event>
<event>
 9    1  0.4236486E-036  0.9948768E+03  0.7818608E-02  0.8685932E-01
          2   -1    0    0  501    0  0.00000000000E+00  0.00000000000E+00  0.18091793129E+04  0.18091793129E+04  0.00000000000E+00 0. -1.
         -2   -1    0    0    0  501 -0.00000000000E+00 -0.00000000000E+00 -0.13677194391E+03  0.13677194391E+03  0.00000000000E+00 0. -1.
         36    2    1    2    0    0  0.28421709430E-13  0.00000000000E+00  0.16724073690E+04  0.19459512568E+04  0.99487681952E+03 0.  0.
         25    2    3    3    0    0  0.10316288363E+03 -0.16275020151E+02  0.47682179011E+03  0.50403775925E+03  0.12564866249E+03 0.  0.
         35    2    3    3    0    0 -0.10316288363E+03  0.16275020151E+02  0.11955855789E+04  0.14419134976E+04  0.79923851333E+03 0.  0.
         22    1    5    5    0    0 -0.38733813032E+03  0.22470845001E+03  0.58219717613E+03  0.73449184243E+03  0.00000000000E+00 0.  1.
         22    1    5    5    0    0  0.28417524670E+03 -0.20843342986E+03  0.61338840279E+03  0.70742165517E+03  0.00000000000E+00 0.  1.
          5    1    4    4  502    0 -0.19229810685E+01  0.40996734656E+02  0.88537330417E+02  0.97700455404E+02  0.47000000000E+01 0. -1.
         -5    1    4    4    0  502  0.10508586469E+03 -0.57271754807E+02  0.38828445969E+03  0.40633730384E+03  0.47000000000E+01 0. -1.
<mgrwt>
<rscale>  0 0.99487682E+03</rscale>
<asrwt>0</asrwt>
<pdfrwt beam="1">  1        2 0.27833526E+00 0.99487682E+03</pdfrwt>
<pdfrwt beam="2">  1       -2 0.21041839E-01 0.99487682E+03</pdfrwt>
<totfact> 0.19689036E+02</totfact>
</mgrwt>
</event>
<event>
 9    1  0.4236486E-036  0.9999567E+03  0.7818608E-02  0.8681079E-01
          2   -1    0    0  501    0  0.00000000000E+00  0.00000000000E+00  0.21304506062E+04  0.21304506062E+04  0.00000000000E+00 0. -1.
         -2   -1    0    0    0  501 -0.00000000000E+00 -0.00000000000E+00 -0.11733591695E+03  0.11733591695E+03  0.00000000000E+00 0. -1.
         36    2    1    2    0    0  0.00000000000E+00  0.00000000000E+00  0.20131146893E+04  0.22477865232E+04  0.99995674986E+03 0.  0.
         25    2    3    3    0    0  0.83566279964E+02  0.11878117359E+03  0.40807284645E+03  0.45090633143E+03  0.12530275881E+03 0.  0.
         35    2    3    3    0    0 -0.83566279964E+02 -0.11878117359E+03  0.16050418428E+04  0.17968801917E+04  0.79468661491E+03 0.  0.
         22    1    5    5    0    0  0.26203351506E+03  0.18029642642E+03  0.42066198180E+03  0.52737545195E+03  0.00000000000E+00 0. -1.
         22    1    5    5    0    0 -0.34559979502E+03 -0.29907760001E+03  0.11843798610E+04  0.12695047398E+04  0.00000000000E+00 0. -1.
          5    1    4    4  502    0  0.11207140358E+03  0.89127565025E+02  0.36001737579E+03  0.38747686798E+03  0.47000000000E+01 0.  1.
         -5    1    4    4    0  502 -0.28505123614E+02  0.29653608568E+02  0.48055470665E+02  0.63429463455E+02  0.47000000000E+01 0.  1.
<mgrwt>
<rscale>  0 0.99995675E+03</rscale>
<asrwt>0</asrwt>
<pdfrwt beam="1">  1        2 0.32776160E+00 0.99995675E+03</pdfrwt>
<pdfrwt beam="2">  1       -2 0.18051681E-01 0.99995675E+03</pdfrwt>
<totfact> 0.16834228E+02</totfact>
</mgrwt>
</event>
<event>
 9    1  0.4236486E-036  0.1000244E+04  0.7818608E-02  0.8680806E-01
          1   -1    0    0  501    0  0.00000000000E+00  0.00000000000E+00  0.20083677081E+04  0.20083677081E+04  0.00000000000E+00 0.  1.
         -1   -1    0    0    0  501 -0.00000000000E+00 -0.00000000000E+00 -0.12453990946E+03  0.12453990946E+03  0.00000000000E+00 0.  1.
         36    2    1    2    0    0  0.00000000000E+00  0.00000000000E+00  0.18838277987E+04  0.21329076176E+04  0.10002438353E+04 0.  0.
         25    2    3    3    0    0  0.98149640537E+02  0.96619983527E+02  0.39550157159E+03  0.43744400113E+03  0.12636054700E+03 0.  0.
         35    2    3    3    0    0 -0.98149640537E+02 -0.96619983527E+02  0.14883262271E+04  0.16954636165E+04  0.80032065034E+03 0.  0.
         22    1    5    5    0    0 -0.16930462017E+02 -0.25339978247E+03  0.66244469649E+02  0.26246222597E+03  0.00000000000E+00 0.  1.
         22    1    5    5    0    0 -0.81219178521E+02  0.15677979895E+03  0.14220817574E+04  0.14330013905E+04  0.00000000000E+00 0.  1.
          5    1    4    4  502    0 -0.38880954620E+01  0.77834234761E+02  0.22086501217E+03  0.23425782589E+03  0.47000000000E+01 0.  1.
         -5    1    4    4    0  502  0.10203773600E+03  0.18785748766E+02  0.17463655942E+03  0.20318617524E+03  0.47000000000E+01 0.  1.
<mgrwt>
<rscale>  0 0.10002438E+04</rscale>
<asrwt>0</asrwt>
<pdfrwt beam="1">  1        1 0.30897962E+00 0.10002438E+04</pdfrwt>
<pdfrwt beam="2">  1       -1 0.19159988E-01 0.10002438E+04</pdfrwt>
<totfact> 0.67449336E+01</totfact>
</mgrwt>
</event>
<event>
 9    1  0.4236486E-036  0.1000251E+04  0.7818608E-02  0.8680799E-01
         -2   -1    0    0    0  501 -0.00000000000E+00  0.00000000000E+00  0.89648449176E+02  0.89648449176E+02  0.00000000000E+00 0.  1.
          2   -1    0    0  501    0  0.00000000000E+00 -0.00000000000E+00 -0.27900719839E+04  0.27900719839E+04  0.00000000000E+00 0.  1.
         36    2    1    2    0    0  0.14210854715E-13  0.00000000000E+00 -0.27004235347E+04  0.28797204331E+04  0.10002512213E+04 0.  0.
         25    2    3    3    0    0 -0.85580333538E+02  0.10429231387E+03 -0.40944737369E+03  0.44912555493E+03  0.12595924756E+03 0.  0.
         35    2    3    3    0    0  0.85580333538E+02 -0.10429231387E+03 -0.22909761610E+04  0.24305948782E+04  0.80063650369E+03 0.  0.
         22    1    5    5    0    0  0.27774749316E+02 -0.15184628773E+03 -0.16900876555E+02  0.15528802731E+03  0.00000000000E+00 0. -1.
         22    1    5    5    0    0  0.57805584222E+02  0.47553973866E+02 -0.22740752845E+04  0.22753068509E+04  0.00000000000E+00 0. -1.
          5    1    4    4  502    0 -0.62653437923E+02 -0.20780643046E+01 -0.77635115726E+02  0.99895309342E+02  0.47000000000E+01 0. -1.
         -5    1    4    4    0  502 -0.22926895615E+02  0.10637037817E+03 -0.33181225797E+03  0.34923024559E+03  0.47000000000E+01 0. -1.
<mgrwt>
<rscale>  0 0.10002512E+04</rscale>
<asrwt>0</asrwt>
<pdfrwt beam="1">  1        2 0.42924177E+00 0.10002512E+04</pdfrwt>
<pdfrwt beam="2">  1       -2 0.13792072E-01 0.10002512E+04</pdfrwt>
<totfact> 0.10560170E+02</totfact>
</mgrwt>
</event>
<event>
 9    1  0.4236486E-036  0.1000545E+04  0.7818608E-02  0.8680519E-01
         -1   -1    0    0    0  501 -0.00000000000E+00  0.00000000000E+00  0.62090258015E+03  0.62090258015E+03  0.00000000000E+00 0. -1.
          1   -1    0    0  501    0  0.00000000000E+00 -0.00000000000E+00 -0.40307836192E+03  0.40307836192E+03  0.00000000000E+00 0. -1.
         36    2    1    2    0    0 -0.71054273576E-14 -0.42632564146E-13  0.21782421823E+03  0.10239809421E+04  0.10005446415E+04 0.  0.
         25    2    3    3    0    0  0.82585223426E+01  0.11296607818E+03 -0.46298767437E+02  0.17469244702E+03  0.12467693119E+03 0.  0.
         35    2    3    3    0    0 -0.82585223426E+01 -0.11296607818E+03  0.26412298566E+03  0.84928849505E+03  0.79918737368E+03 0.  0.
         22    1    5    5    0    0 -0.13302323749E+03 -0.33346037746E+03  0.41945332089E+03  0.55211601449E+03  0.00000000000E+00 0.  1.
         22    1    5    5    0    0  0.12476471514E+03  0.22049429928E+03 -0.15533033523E+03  0.29717248056E+03  0.00000000000E+00 0.  1.
          5    1    4    4  502    0  0.60383083250E+02  0.76850954601E+02 -0.32477104320E+01  0.97902112280E+02  0.47000000000E+01 0.  1.
         -5    1    4    4    0  502 -0.52124560908E+02  0.36115123579E+02 -0.43051057005E+02  0.76790334745E+02  0.47000000000E+01 0.  1.
<mgrwt>
<rscale>  0 0.10005446E+04</rscale>
<asrwt>0</asrwt>
<pdfrwt beam="1">  1        1 0.62012056E-01 0.10005446E+04</pdfrwt>
<pdfrwt beam="2">  1       -1 0.95523474E-01 0.10005446E+04</pdfrwt>
<totfact> 0.75045109E+01</totfact>
</mgrwt>
</event>
<event>
 9    1  0.4236486E-036  0.1001100E+04  0.7818608E-02  0.8679991E-01
         -2   -1    0    0    0  501 -0.00000000000E+00  0.00000000000E+00  0.28535508159E+03  0.28535508159E+03  0.00000000000E+00 0. -1.
          2   -1    0    0  501    0  0.00000000000E+00 -0.00000000000E+00 -0.87802941337E+03  0.87802941337E+03  0.00000000000E+00 0. -1.
         36    2    1    2    0    0 -0.28421709430E-13  0.71054273576E-14 -0.59267433178E+03  0.11633844950E+04  0.10010997051E+04 0.  0.
         25    2    3    3    0    0 -0.11729465202E+03 -0.55659589776E+02 -0.17840271967E+03  0.25121610791E+03  0.12010818940E+03 0.  0.
         35    2    3    3    0    0  0.11729465202E+03  0.55659589776E+02 -0.41427161211E+03  0.91216838705E+03  0.80223074761E+03 0.  0.
         22    1    5    5    0    0 -0.22718833630E+03 -0.22971181456E+03 -0.32055870600E+03  0.45512629224E+03  0.00000000000E+00 0.  1.
         22    1    5    5    0    0  0.34448298832E+03  0.28537140434E+03 -0.93712906110E+02  0.45704209481E+03  0.00000000000E+00 0.  1.
          5    1    4    4  502    0 -0.15840236759E+02 -0.58525375406E+02 -0.21923185610E+02  0.64644015456E+02  0.47000000000E+01 0.  1.
         -5    1    4    4    0  502 -0.10145441526E+03  0.28657856297E+01 -0.15647953406E+03  0.18657209246E+03  0.47000000000E+01 0.  1.
<mgrwt>
<rscale>  0 0.10010997E+04</rscale>
<asrwt>0</asrwt>
<pdfrwt beam="1">  1        2 0.13508145E+00 0.10010997E+04</pdfrwt>
<pdfrwt beam="2">  1       -2 0.43900782E-01 0.10010997E+04</pdfrwt>
<totfact> 0.18070763E+02</totfact>
</mgrwt>
</event>
<event>
 9    1  0.4236486E-036  0.9996987E+03  0.7818608E-02  0.8681325E-01
         -2   -1    0    0    0  501 -0.00000000000E+00  0.00000000000E+00  0.46282922272E+03  0.46282922272E+03  0.00000000000E+00 0.  1.
          2   -1    0    0  501    0  0.00000000000E+00 -0.00000000000E+00 -0.53983064347E+03  0.53983064347E+03  0.00000000000E+00 0.  1.
         36    2    1    2    0    0 -0.71054273576E-14  0.00000000000E+00 -0.77001420753E+02  0.10026598662E+04  0.99969874886E+03 0.  0.
         25    2    3    3    0    0  0.36515203379E+02 -0.12264854930E+03 -0.73679356716E+02  0.19361936982E+03  0.12523492341E+03 0.  0.
         35    2    3    3    0    0 -0.36515203379E+02  0.12264854930E+03 -0.33220640373E+01  0.80904049637E+03  0.79884883547E+03 0.  0.
         22    1    5    5    0    0  0.24784013820E+03 -0.23328545611E+03  0.70327089349E+02  0.34755249622E+03  0.00000000000E+00 0.  1.
         22    1    5    5    0    0 -0.28435534158E+03  0.35593400541E+03 -0.73649153386E+02  0.46148800015E+03  0.00000000000E+00 0.  1.
          5    1    4    4  502    0  0.74439296986E+02 -0.11606475089E+03 -0.69889856172E+02  0.15465741926E+03  0.47000000000E+01 0. -1.
         -5    1    4    4    0  502 -0.37924093608E+02 -0.65837984072E+01 -0.37895005442E+01  0.38961950565E+02  0.47000000000E+01 0. -1.
<mgrwt>
<rscale>  0 0.99969875E+03</rscale>
<asrwt>0</asrwt>
<pdfrwt beam="1">  1        2 0.83050868E-01 0.99969875E+03</pdfrwt>
<pdfrwt beam="2">  1       -2 0.71204496E-01 0.99969875E+03</pdfrwt>
<totfact> 0.12187979E+02</totfact>
</mgrwt>
</event>
<event>
 9    1  0.4236486E-036  0.1002050E+04  0.7818608E-02  0.8679088E-01
          1   -1    0    0  501    0  0.00000000000E+00  0.00000000000E+00  0.49126434956E+03  0.49126434956E+03  0.00000000000E+00 0. -1.
         -1   -1    0    0    0  501 -0.00000000000E+00 -0.00000000000E+00 -0.51097934967E+03  0.51097934967E+03  0.00000000000E+00 0. -1.
         36    2    1    2    0    0 -0.14210854715E-13  0.21316282073E-13 -0.19715000101E+02  0.10022436992E+04  0.10020497749E+04 0.  0.
         25    2    3    3    0    0  0.32894199059E+02  0.30108612241E+02  0.12739185532E+03  0.18430324014E+03  0.12550076758E+03 0.  0.
         35    2    3    3    0    0 -0.32894199059E+02 -0.30108612241E+02 -0.14710685542E+03  0.81794045909E+03  0.80336642377E+03 0.  0.
         22    1    5    5    0    0  0.16712874982E+03 -0.14992972023E+03 -0.40944176837E+03  0.46696199172E+03  0.00000000000E+00 0. -1.
         22    1    5    5    0    0 -0.20002294888E+03  0.11982110799E+03  0.26233491295E+03  0.35097846736E+03  0.00000000000E+00 0. -1.
          5    1    4    4  502    0  0.20723328965E+02 -0.36604661175E+02  0.28547002484E+01  0.42421655987E+02  0.47000000000E+01 0. -1.
         -5    1    4    4    0  502  0.12170870094E+02  0.66713273417E+02  0.12453715507E+03  0.14188158416E+03  0.47000000000E+01 0. -1.
<mgrwt>
<rscale>  0 0.10020498E+04</rscale>
<asrwt>0</asrwt>
<pdfrwt beam="1">  1        1 0.75579131E-01 0.10020498E+04</pdfrwt>
<pdfrwt beam="2">  1       -1 0.78612207E-01 0.10020498E+04</pdfrwt>
<totfact> 0.86881707E+01</totfact>
</mgrwt>
</event>
<event>
 9    1  0.4236486E-036  0.1002956E+04  0.7818608E-02  0.8678228E-01
         -1   -1    0    0    0  501 -0.00000000000E+00  0.00000000000E+00  0.63527706300E+03  0.63527706300E+03  0.00000000000E+00 0. -1.
          1   -1    0    0  501    0  0.00000000000E+00 -0.00000000000E+00 -0.39585939294E+03  0.39585939294E+03  0.00000000000E+00 0. -1.
         36    2    1    2    0    0 -0.35527136788E-14 -0.14210854715E-13  0.23941767006E+03  0.10311364559E+04  0.10029564148E+04 0.  0.
         25    2    3    3    0    0  0.48763052464E+01 -0.82706396087E+02  0.16387822983E+03  0.22380976456E+03  0.12794768538E+03 0.  0.
         35    2    3    3    0    0 -0.48763052464E+01  0.82706396087E+02  0.75539440229E+02  0.80732669139E+03  0.79950362932E+03 0.  0.
         22    1    5    5    0    0 -0.32909201381E+02 -0.35759684471E+03 -0.34083595132E+01  0.35912412311E+03  0.00000000000E+00 0.  1.
         22    1    5    5    0    0  0.28032896134E+02  0.44030324080E+03  0.78947799743E+02  0.44820256828E+03  0.00000000000E+00 0.  1.
          5    1    4    4  502    0 -0.52507327080E+02 -0.74017849440E+02  0.12182596091E+03  0.15198459193E+03  0.47000000000E+01 0. -1.
         -5    1    4    4    0  502  0.57383632326E+02 -0.86885466468E+01  0.42052268917E+02  0.71825172627E+02  0.47000000000E+01 0. -1.
<mgrwt>
<rscale>  0 0.10029564E+04</rscale>
<asrwt>0</asrwt>
<pdfrwt beam="1">  1        1 0.60901445E-01 0.10029564E+04</pdfrwt>
<pdfrwt beam="2">  1       -1 0.97734933E-01 0.10029564E+04</pdfrwt>
<totfact> 0.73078667E+01</totfact>
</mgrwt>
</event>
<event>
 9    1  0.4236486E-036  0.1000461E+04  0.7818608E-02  0.8680599E-01
         -2   -1    0    0    0  501 -0.00000000000E+00  0.00000000000E+00  0.30105744318E+03  0.30105744318E+03  0.00000000000E+00 0.  1.
          2   -1    0    0  501    0  0.00000000000E+00 -0.00000000000E+00 -0.83117266181E+03  0.83117266181E+03  0.00000000000E+00 0.  1.
         36    2    1    2    0    0  0.00000000000E+00 -0.14210854715E-13 -0.53011521863E+03  0.11322301050E+04  0.10004613264E+04 0.  0.
         25    2    3    3    0    0  0.27653855996E+02 -0.86957537152E+02 -0.21825876894E+03  0.26739665418E+03  0.12465043694E+03 0.  0.
         35    2    3    3    0    0 -0.27653855996E+02  0.86957537152E+02 -0.31185644968E+03  0.86483345081E+03  0.80147121184E+03 0.  0.
         22    1    5    5    0    0 -0.14278123528E+03  0.11237365890E+03 -0.56073637621E+03  0.58944007665E+03  0.00000000000E+00 0.  1.
         22    1    5    5    0    0  0.11512737928E+03 -0.25416121744E+02  0.24887992652E+03  0.27539337416E+03  0.00000000000E+00 0.  1.
          5    1    4    4  502    0  0.61727623266E+02 -0.86965546510E+02 -0.10781924005E+03  0.15172469898E+03  0.47000000000E+01 0.  1.
         -5    1    4    4    0  502 -0.34073767269E+02  0.80093585251E-02 -0.11043952889E+03  0.11567195521E+03  0.47000000000E+01 0.  1.
<mgrwt>
<rscale>  0 0.10004613E+04</rscale>
<asrwt>0</asrwt>
<pdfrwt beam="1">  1        2 0.12787272E+00 0.10004613E+04</pdfrwt>
<pdfrwt beam="2">  1       -2 0.46316529E-01 0.10004613E+04</pdfrwt>
<totfact> 0.17502216E+02</totfact>
</mgrwt>
</event>
<event>
 9    1  0.4236486E-036  0.1000300E+04  0.7818608E-02  0.8680752E-01
          1   -1    0    0  501    0  0.00000000000E+00  0.00000000000E+00  0.31420878730E+03  0.31420878730E+03  0.00000000000E+00 0. -1.
         -1   -1    0    0    0  501 -0.00000000000E+00 -0.00000000000E+00 -0.79612704314E+03  0.79612704314E+03  0.00000000000E+00 0. -1.
         36    2    1    2    0    0  0.14210854715E-13  0.71054273576E-14 -0.48191825584E+03  0.11103358304E+04  0.10003001805E+04 0.  0.
         25    2    3    3    0    0  0.12464563108E+03 -0.18070610936E+02 -0.15579234553E+03  0.23639765984E+03  0.12549708493E+03 0.  0.
         35    2    3    3    0    0 -0.12464563108E+03  0.18070610936E+02 -0.32612591031E+03  0.87393817060E+03  0.80096612683E+03 0.  0.
         22    1    5    5    0    0  0.62757466674E+02 -0.32770133171E+03 -0.34531858759E+03  0.48017870565E+03  0.00000000000E+00 0. -1.
         22    1    5    5    0    0 -0.18740309775E+03  0.34577194265E+03  0.19192677276E+02  0.39375946494E+03  0.00000000000E+00 0. -1.
          5    1    4    4  502    0  0.27406207769E+02  0.26937446915E+02 -0.11551631501E+03  0.12183117542E+03  0.47000000000E+01 0.  1.
         -5    1    4    4    0  502  0.97239423311E+02 -0.45008057852E+02 -0.40276030514E+02  0.11456648442E+03  0.47000000000E+01 0.  1.
<mgrwt>
<rscale>  0 0.10003002E+04</rscale>
<asrwt>0</asrwt>
<pdfrwt beam="1">  1        1 0.48339814E-01 0.10003002E+04</pdfrwt>
<pdfrwt beam="2">  1       -1 0.12248108E+00 0.10003002E+04</pdfrwt>
<totfact> 0.58353735E+01</totfact>
</mgrwt>
</event>
<event>
 9    1  0.4236486E-036  0.9981089E+03  0.7818608E-02  0.8682841E-01
          1   -1    0    0  501    0  0.00000000000E+00  0.00000000000E+00  0.37739947944E+03  0.37739947944E+03  0.00000000000E+00 0. -1.
         -1   -1    0    0    0  501 -0.00000000000E+00 -0.00000000000E+00 -0.65992503195E+03  0.65992503195E+03  0.00000000000E+00 0. -1.
         36    2    1    2    0    0  0.00000000000E+00  0.00000000000E+00 -0.28252555251E+03  0.10373245114E+04  0.99810893900E+03 0.  0.
         25    2    3    3    0    0  0.68667373977E+02 -0.33325510217E+02  0.66559734749E+02  0.15993927851E+03  0.12379247409E+03 0.  0.
         35    2    3    3    0    0 -0.68667373977E+02  0.33325510217E+02 -0.34908528725E+03  0.87738523288E+03  0.80132297560E+03 0.  0.
         22    1    5    5    0    0  0.24842013699E+03 -0.68323791161E+02 -0.45930743418E+03  0.52663462097E+03  0.00000000000E+00 0.  1.
         22    1    5    5    0    0 -0.31708751097E+03  0.10164930138E+03  0.11022214693E+03  0.35075061192E+03  0.00000000000E+00 0.  1.
          5    1    4    4  502    0  0.24866805332E+02 -0.51940675910E+02  0.89789099578E+02  0.10677248814E+03  0.47000000000E+01 0.  1.
         -5    1    4    4    0  502  0.43800568645E+02  0.18615165693E+02 -0.23229364829E+02  0.53166790366E+02  0.47000000000E+01 0.  1.
<mgrwt>
<rscale>  0 0.99810894E+03</rscale>
<asrwt>0</asrwt>
<pdfrwt beam="1">  1        1 0.58061459E-01 0.99810894E+03</pdfrwt>
<pdfrwt beam="2">  1       -1 0.10152693E+00 0.99810894E+03</pdfrwt>
<totfact> 0.71556383E+01</totfact>
</mgrwt>
</event>
<event>
 9    1  0.4236486E-036  0.1002002E+04  0.7818608E-02  0.8679133E-01
         -2   -1    0    0    0  501 -0.00000000000E+00  0.00000000000E+00  0.61168703573E+03  0.61168703573E+03  0.00000000000E+00 0. -1.
          2   -1    0    0  501    0  0.00000000000E+00 -0.00000000000E+00 -0.41034418209E+03  0.41034418209E+03  0.00000000000E+00 0. -1.
         36    2    1    2    0    0  0.00000000000E+00  0.00000000000E+00  0.20134285364E+03  0.10220312178E+04  0.10020024279E+04 0.  0.
         25    2    3    3    0    0 -0.56687467258E+02  0.72735234881E+02 -0.84330064309E+02  0.16945098477E+03  0.11444733792E+03 0.  0.
         35    2    3    3    0    0  0.56687467258E+02 -0.72735234881E+02  0.28567291795E+03  0.85258023305E+03  0.79798505901E+03 0.  0.
         22    1    5    5    0    0  0.71626344987E+02 -0.37564716524E+03 -0.66137577872E+02  0.38809187734E+03  0.00000000000E+00 0. -1.
         22    1    5    5    0    0 -0.14938877729E+02  0.30291193036E+03  0.35181049582E+03  0.46448835571E+03  0.00000000000E+00 0. -1.
          5    1    4    4  502    0  0.30364888364E+02  0.40786460397E+02 -0.13932543089E+02  0.52931725402E+02  0.47000000000E+01 0. -1.
         -5    1    4    4    0  502 -0.87052355621E+02  0.31948774483E+02 -0.70397521220E+02  0.11651925937E+03  0.47000000000E+01 0. -1.
<mgrwt>
<rscale>  0 0.10020024E+04</rscale>
<asrwt>0</asrwt>
<pdfrwt beam="1">  1        2 0.63129874E-01 0.10020024E+04</pdfrwt>
<pdfrwt beam="2">  1       -2 0.94105698E-01 0.10020024E+04</pdfrwt>
<totfact> 0.87771629E+01</totfact>
</mgrwt>
</event>
<event>
 9    1  0.4236486E-036  0.9992147E+03  0.7818608E-02  0.8681786E-01
         -2   -1    0    0    0  501 -0.00000000000E+00  0.00000000000E+00  0.90170128826E+02  0.90170128826E+02  0.00000000000E+00 0. -1.
          2   -1    0    0  501    0  0.00000000000E+00 -0.00000000000E+00 -0.27681841847E+04  0.27681841847E+04  0.00000000000E+00 0. -1.
         36    2    1    2    0    0  0.00000000000E+00 -0.21316282073E-13 -0.26780140559E+04  0.28583543135E+04  0.99921474078E+03 0.  0.
         25    2    3    3    0    0 -0.86098065834E+02 -0.46558925859E+02 -0.21711286346E+03  0.26881334505E+03  0.12466759193E+03 0.  0.
         35    2    3    3    0    0  0.86098065834E+02  0.46558925859E+02 -0.24609011924E+04  0.25895409685E+04  0.80006695851E+03 0.  0.
         22    1    5    5    0    0 -0.32162694811E+02 -0.27104881196E+03 -0.31398377583E+03  0.41603810990E+03  0.00000000000E+00 0.  1.
         22    1    5    5    0    0  0.11826076064E+03  0.31760773782E+03 -0.21469174166E+04  0.21735028586E+04  0.00000000000E+00 0.  1.
          5    1    4    4  502    0 -0.36111096554E+02 -0.26215730483E+02 -0.20932977109E+03  0.21408484038E+03  0.47000000000E+01 0.  1.
         -5    1    4    4    0  502 -0.49986969280E+02 -0.20343195376E+02 -0.77830923764E+01  0.54728504665E+02  0.47000000000E+01 0.  1.
<mgrwt>
<rscale>  0 0.99921474E+03</rscale>
<asrwt>0</asrwt>
<pdfrwt beam="1">  1        2 0.42587455E+00 0.99921474E+03</pdfrwt>
<pdfrwt beam="2">  1       -2 0.13872326E-01 0.99921474E+03</pdfrwt>
<totfact> 0.10801356E+02</totfact>
</mgrwt>
</event>
<event>
 9    1  0.4236486E-036  0.1001579E+04  0.7818608E-02  0.8679536E-01
          2   -1    0    0  501    0  0.00000000000E+00  0.00000000000E+00  0.23038747908E+04  0.23038747908E+04  0.00000000000E+00 0. -1.
         -2   -1    0    0    0  501 -0.00000000000E+00 -0.00000000000E+00 -0.10885576671E+03  0.10885576671E+03  0.00000000000E+00 0. -1.
         36    2    1    2    0    0  0.00000000000E+00 -0.28421709430E-13  0.21950190241E+04  0.24127305575E+04  0.10015788671E+04 0.  0.
         25    2    3    3    0    0  0.30399982258E+02  0.13141835733E+03  0.32062130604E+03  0.36951658105E+03  0.12469778754E+03 0.  0.
         35    2    3    3    0    0 -0.30399982258E+02 -0.13141835733E+03  0.18743977180E+04  0.20432139764E+04  0.80197356851E+03 0.  0.
         22    1    5    5    0    0 -0.29531269331E+03 -0.12938466056E+03  0.16898947847E+04  0.17203762265E+04  0.00000000000E+00 0. -1.
         22    1    5    5    0    0  0.26491271105E+03 -0.20336967661E+01  0.18450293332E+03  0.32283774997E+03  0.00000000000E+00 0. -1.
          5    1    4    4  502    0 -0.20607543800E+02 -0.15827200247E+02  0.64246766040E+02  0.69461558259E+02  0.47000000000E+01 0.  1.
         -5    1    4    4    0  502  0.51007526058E+02  0.14724555757E+03  0.25637454000E+03  0.30005502279E+03  0.47000000000E+01 0.  1.
<mgrwt>
<rscale>  0 0.10015789E+04</rscale>
<asrwt>0</asrwt>
<pdfrwt beam="1">  1        2 0.35444224E+00 0.10015789E+04</pdfrwt>
<pdfrwt beam="2">  1       -2 0.16747043E-01 0.10015789E+04</pdfrwt>
<totfact> 0.15155173E+02</totfact>
</mgrwt>
</event>
<event>
 9    1  0.4236486E-036  0.9997814E+03  0.7818608E-02  0.8681246E-01
          2   -1    0    0  501    0  0.00000000000E+00  0.00000000000E+00  0.10533415632E+04  0.10533415632E+04  0.00000000000E+00 0.  1.
         -2   -1    0    0    0  501 -0.00000000000E+00 -0.00000000000E+00 -0.23723616062E+03  0.23723616062E+03  0.00000000000E+00 0.  1.
         36    2    1    2    0    0 -0.35527136788E-14 -0.35527136788E-14  0.81610540258E+03  0.12905777238E+04  0.99978139266E+03 0.  0.
         25    2    3    3    0    0 -0.25060484417E+02  0.24107108579E+02 -0.27337800663E+02  0.13255509911E+03  0.12495726626E+03 0.  0.
         35    2    3    3    0    0  0.25060484417E+02 -0.24107108579E+02  0.84344320324E+03  0.11580226247E+04  0.79272364774E+03 0.  0.
         22    1    5    5    0    0  0.10714567315E+03  0.72940427825E+02  0.97001947204E+03  0.97864103604E+03  0.00000000000E+00 0. -1.
         22    1    5    5    0    0 -0.82085188737E+02 -0.97047536403E+02 -0.12657626880E+03  0.17938158867E+03  0.00000000000E+00 0. -1.
          5    1    4    4  502    0  0.17345071661E+02  0.21886780826E+02 -0.67946463405E+02  0.73611782855E+02  0.47000000000E+01 0. -1.
         -5    1    4    4    0  502 -0.42405556078E+02  0.22203277523E+01  0.40608662742E+02  0.58943316257E+02  0.47000000000E+01 0. -1.
<mgrwt>
<rscale>  0 0.99978139E+03</rscale>
<asrwt>0</asrwt>
<pdfrwt beam="1">  1        2 0.16205255E+00 0.99978139E+03</pdfrwt>
<pdfrwt beam="2">  1       -2 0.36497871E-01 0.99978139E+03</pdfrwt>
<totfact> 0.19884903E+02</totfact>
</mgrwt>
</event>
<event>
 9    1  0.4236486E-036  0.1000220E+04  0.7818608E-02  0.8680828E-01
          1   -1    0    0  501    0  0.00000000000E+00  0.00000000000E+00  0.15872600945E+03  0.15872600945E+03  0.00000000000E+00 0. -1.
         -1   -1    0    0    0  501 -0.00000000000E+00 -0.00000000000E+00 -0.15757351801E+04  0.15757351801E+04  0.00000000000E+00 0. -1.
         36    2    1    2    0    0 -0.14210854715E-13  0.00000000000E+00 -0.14170091707E+04  0.17344611896E+04  0.10002202899E+04 0.  0.
         25    2    3    3    0    0  0.75183366420E+02  0.11289744596E+03 -0.21208955773E+03  0.28140668911E+03  0.12573532633E+03 0.  0.
         35    2    3    3    0    0 -0.75183366420E+02 -0.11289744596E+03 -0.12049196129E+04  0.14530545005E+04  0.80071076911E+03 0.  0.
         22    1    5    5    0    0  0.32591740876E+03 -0.20890958961E+03 -0.45674719002E+03  0.59873480737E+03  0.00000000000E+00 0.  1.
         22    1    5    5    0    0 -0.40110077518E+03  0.96012143656E+02 -0.74817242292E+03  0.85431969309E+03  0.00000000000E+00 0.  1.
          5    1    4    4  502    0  0.53784027164E+02  0.10354853332E+03 -0.67530206194E+02  0.13489788390E+03  0.47000000000E+01 0. -1.
         -5    1    4    4    0  502  0.21399339256E+02  0.93489126306E+01 -0.14455935154E+03  0.14650880521E+03  0.47000000000E+01 0. -1.
<mgrwt>
<rscale>  0 0.10002203E+04</rscale>
<asrwt>0</asrwt>
<pdfrwt beam="1">  1        1 0.24419387E-01 0.10002203E+04</pdfrwt>
<pdfrwt beam="2">  1       -1 0.24242079E+00 0.10002203E+04</pdfrwt>
<totfact> 0.13298703E+01</totfact>
</mgrwt>
</event>
<event>
 9    1  0.4236486E-036  0.1001655E+04  0.7818608E-02  0.8679464E-01
         -2   -1    0    0    0  501 -0.00000000000E+00  0.00000000000E+00  0.17094729137E+03  0.17094729137E+03  0.00000000000E+00 0. -1.
          2   -1    0    0  501    0  0.00000000000E+00 -0.00000000000E+00 -0.14672835478E+04  0.14672835478E+04  0.00000000000E+00 0. -1.
         36    2    1    2    0    0  0.00000000000E+00 -0.14210854715E-13 -0.12963362564E+04  0.16382308392E+04  0.10016549269E+04 0.  0.
         25    2    3    3    0    0  0.26426301670E+01 -0.55470321730E+02 -0.46081813876E+03  0.48030381252E+03  0.12350892772E+03 0.  0.
         35    2    3    3    0    0 -0.26426301670E+01  0.55470321730E+02 -0.83551811767E+03  0.11579270266E+04  0.79976279857E+03 0.  0.
         22    1    5    5    0    0 -0.61384052661E+02 -0.35278488030E+03 -0.23108928576E+03  0.42617769966E+03  0.00000000000E+00 0.  1.
         22    1    5    5    0    0  0.58741422494E+02  0.40825520203E+03 -0.60442883190E+03  0.73174932698E+03  0.00000000000E+00 0.  1.
          5    1    4    4  502    0 -0.33805016845E+02  0.27638914476E+02 -0.17258963676E+03  0.17808975679E+03  0.47000000000E+01 0.  1.
         -5    1    4    4    0  502  0.36447647012E+02 -0.83109236207E+02 -0.28822850200E+03  0.30221405573E+03  0.47000000000E+01 0.  1.
<mgrwt>
<rscale>  0 0.10016549E+04</rscale>
<asrwt>0</asrwt>
<pdfrwt beam="1">  1        2 0.22573593E+00 0.10016549E+04</pdfrwt>
<pdfrwt beam="2">  1       -2 0.26299583E-01 0.10016549E+04</pdfrwt>
<totfact> 0.20724937E+02</totfact>
</mgrwt>
</event>
<event>
 9    1  0.4236486E-036  0.1001267E+04  0.7818608E-02  0.8679832E-01
         -2   -1    0    0    0  501 -0.00000000000E+00  0.00000000000E+00  0.40688525226E+03  0.40688525226E+03  0.00000000000E+00 0. -1.
          2   -1    0    0  501    0  0.00000000000E+00 -0.00000000000E+00 -0.61598171938E+03  0.61598171938E+03  0.00000000000E+00 0. -1.
         36    2    1    2    0    0 -0.21316282073E-13  0.14210854715E-13 -0.20909646712E+03  0.10228669716E+04  0.10012669520E+04 0.  0.
         25    2    3    3    0    0  0.48881741397E+02 -0.12356657122E+03 -0.75986639034E+02  0.20007713241E+03  0.12883620390E+03 0.  0.
         35    2    3    3    0    0 -0.48881741397E+02  0.12356657122E+03 -0.13310982808E+03  0.82278983924E+03  0.80100360240E+03 0.  0.
         22    1    5    5    0    0 -0.36096070924E+03  0.40422844562E+02  0.15032005563E+03  0.39309382990E+03  0.00000000000E+00 0.  1.
         22    1    5    5    0    0  0.31207896785E+03  0.83143726663E+02 -0.28342988372E+03  0.42969600934E+03  0.00000000000E+00 0.  1.
          5    1    4    4  502    0  0.21502325561E+02 -0.28143980249E+02  0.35745891448E+02  0.50540007758E+02  0.47000000000E+01 0. -1.
         -5    1    4    4    0  502  0.27379415836E+02 -0.95422590976E+02 -0.11173253048E+03  0.14953712465E+03  0.47000000000E+01 0. -1.
<mgrwt>
<rscale>  0 0.10012670E+04</rscale>
<asrwt>0</asrwt>
<pdfrwt beam="1">  1        2 0.94766418E-01 0.10012670E+04</pdfrwt>
<pdfrwt beam="2">  1       -2 0.62597732E-01 0.10012670E+04</pdfrwt>
<totfact> 0.13756060E+02</totfact>
</mgrwt>
</event>
<event>
 9    1  0.4236486E-036  0.9984915E+03  0.7818608E-02  0.8682476E-01
          1   -1    0    0  501    0  0.00000000000E+00  0.00000000000E+00  0.36591293349E+04  0.36591293349E+04  0.00000000000E+00 0.  1.
         -1   -1    0    0    0  501 -0.00000000000E+00 -0.00000000000E+00 -0.68116294738E+02  0.68116294738E+02  0.00000000000E+00 0.  1.
         36    2    1    2    0    0  0.21316282073E-13  0.28421709430E-13  0.35910130402E+04  0.37272456297E+04  0.99849152678E+03 0.  0.
         25    2    3    3    0    0 -0.53717917232E+02  0.81452339257E+02  0.32348900704E+03  0.36006848605E+03  0.12443503834E+03 0.  0.
         35    2    3    3    0    0  0.53717917232E+02 -0.81452339257E+02  0.32675240331E+04  0.33671771436E+04  0.80724749061E+03 0.  0.
         22    1    5    5    0    0 -0.12037500065E+03 -0.33560468785E+03  0.26816492485E+04  0.27052473712E+04  0.00000000000E+00 0. -1.
         22    1    5    5    0    0  0.17409291789E+03  0.25415234859E+03  0.58587478462E+03  0.66192977242E+03  0.00000000000E+00 0. -1.
          5    1    4    4  502    0  0.66274200946E+01  0.78214865088E+02  0.93229716389E+02  0.12196457615E+03  0.47000000000E+01 0.  1.
         -5    1    4    4    0  502 -0.60345337327E+02  0.32374741690E+01  0.23025929065E+03  0.23810390990E+03  0.47000000000E+01 0.  1.
<mgrwt>
<rscale>  0 0.99849153E+03</rscale>
<asrwt>0</asrwt>
<pdfrwt beam="1">  1        1 0.56294282E+00 0.99849153E+03</pdfrwt>
<pdfrwt beam="2">  1       -1 0.10479433E-01 0.99849153E+03</pdfrwt>
<totfact> 0.11642762E+01</totfact>
</mgrwt>
</event>
<event>
 9    1  0.4236486E-036  0.1002270E+04  0.7818608E-02  0.8678879E-01
         -2   -1    0    0    0  501 -0.00000000000E+00  0.00000000000E+00  0.29822629530E+03  0.29822629530E+03  0.00000000000E+00 0. -1.
          2   -1    0    0  501    0  0.00000000000E+00 -0.00000000000E+00 -0.84210003083E+03  0.84210003083E+03  0.00000000000E+00 0. -1.
         36    2    1    2    0    0 -0.14210854715E-13  0.00000000000E+00 -0.54387373552E+03  0.11403263261E+04  0.10022701681E+04 0.  0.
         25    2    3    3    0    0 -0.10585309415E+03  0.65987782969E+02 -0.18226368457E+03  0.25384595628E+03  0.12513374351E+03 0.  0.
         35    2    3    3    0    0  0.10585309415E+03 -0.65987782969E+02 -0.36161005095E+03  0.88648036985E+03  0.79970391530E+03 0.  0.
         22    1    5    5    0    0  0.42263355532E+03  0.10930619993E+03 -0.12540626612E+03  0.45419566159E+03  0.00000000000E+00 0. -1.
         22    1    5    5    0    0 -0.31678046118E+03 -0.17529398290E+03 -0.23620378483E+03  0.43228470826E+03  0.00000000000E+00 0. -1.
          5    1    4    4  502    0 -0.34785802104E+02  0.93576337493E+02 -0.95203568032E+02  0.13803040365E+03  0.47000000000E+01 0. -1.
         -5    1    4    4    0  502 -0.71067292043E+02 -0.27588554523E+02 -0.87060116537E+02  0.11581555263E+03  0.47000000000E+01 0. -1.
<mgrwt>
<rscale>  0 0.10022702E+04</rscale>
<asrwt>0</asrwt>
<pdfrwt beam="1">  1        2 0.12955385E+00 0.10022702E+04</pdfrwt>
<pdfrwt beam="2">  1       -2 0.45880970E-01 0.10022702E+04</pdfrwt>
<totfact> 0.17525921E+02</totfact>
</mgrwt>
</event>
<event>
 9    1  0.4236486E-036  0.9996604E+03  0.7818608E-02  0.8681361E-01
         -2   -1    0    0    0  501 -0.00000000000E+00  0.00000000000E+00  0.56995862701E+03  0.56995862701E+03  0.00000000000E+00 0. -1.
          2   -1    0    0  501    0  0.00000000000E+00 -0.00000000000E+00 -0.43833043101E+03  0.43833043101E+03  0.00000000000E+00 0. -1.
         36    2    1    2    0    0 -0.28421709430E-13  0.14210854715E-13  0.13162819600E+03  0.10082890580E+04  0.99966036359E+03 0.  0.
         25    2    3    3    0    0 -0.12872174688E+03  0.68776536127E+02  0.84949818606E+01  0.19009112001E+03  0.12150295941E+03 0.  0.
         35    2    3    3    0    0  0.12872174688E+03 -0.68776536127E+02  0.12313321414E+03  0.81819793801E+03  0.79560453574E+03 0.  0.
         22    1    5    5    0    0 -0.14440988103E+03  0.24153321738E+03  0.25959956227E+03  0.38286347641E+03  0.00000000000E+00 0.  1.
         22    1    5    5    0    0  0.27313162791E+03 -0.31030975350E+03 -0.13646634814E+03  0.43533446160E+03  0.00000000000E+00 0.  1.
          5    1    4    4  502    0 -0.94431871753E+02 -0.92106072162E+01 -0.25319368862E+02  0.98312634629E+02  0.47000000000E+01 0. -1.
         -5    1    4    4    0  502 -0.34289875129E+02  0.77987143344E+02  0.33814350723E+02  0.91778485377E+02  0.47000000000E+01 0. -1.
<mgrwt>
<rscale>  0 0.99966036E+03</rscale>
<asrwt>0</asrwt>
<pdfrwt beam="1">  1        2 0.67435451E-01 0.99966036E+03</pdfrwt>
<pdfrwt beam="2">  1       -2 0.87685943E-01 0.99966036E+03</pdfrwt>
<totfact> 0.96259595E+01</totfact>
</mgrwt>
</event>
<event>
 9    1  0.4236486E-036  0.9998979E+03  0.7818608E-02  0.8681135E-01
         -1   -1    0    0    0  501 -0.00000000000E+00  0.00000000000E+00  0.52495231863E+03  0.52495231863E+03  0.00000000000E+00 0.  1.
          1   -1    0    0  501    0  0.00000000000E+00 -0.00000000000E+00 -0.47613649950E+03  0.47613649950E+03  0.00000000000E+00 0.  1.
         36    2    1    2    0    0 -0.71054273576E-14  0.00000000000E+00  0.48815819133E+02  0.10010888181E+04  0.99989791358E+03 0.  0.
         25    2    3    3    0    0 -0.28806351669E+02 -0.13477907143E+03 -0.15620998874E+02  0.18660993849E+03  0.12483609071E+03 0.  0.
         35    2    3    3    0    0  0.28806351669E+02  0.13477907143E+03  0.64436818007E+02  0.81447887964E+03  0.80014282342E+03 0.  0.
         22    1    5    5    0    0 -0.28819699613E+03 -0.58221017517E+02 -0.20277135323E+03  0.35716021216E+03  0.00000000000E+00 0. -1.
         22    1    5    5    0    0  0.31700334780E+03  0.19300008895E+03  0.26720817124E+03  0.45731866748E+03  0.00000000000E+00 0. -1.
          5    1    4    4  502    0 -0.29674647614E+02 -0.15795890070E+03 -0.55435918458E+01  0.16088635875E+03  0.47000000000E+01 0. -1.
         -5    1    4    4    0  502  0.86829594425E+00  0.23179829262E+02 -0.10077407028E+02  0.25723579745E+02  0.47000000000E+01 0. -1.
<mgrwt>
<rscale>  0 0.99989791E+03</rscale>
<asrwt>0</asrwt>
<pdfrwt beam="1">  1        1 0.73251770E-01 0.99989791E+03</pdfrwt>
<pdfrwt beam="2">  1       -1 0.80761895E-01 0.99989791E+03</pdfrwt>
<totfact> 0.85774867E+01</totfact>
</mgrwt>
</event>
<event>
 9    1  0.4236486E-036  0.1000163E+04  0.7818608E-02  0.8680883E-01
         -1   -1    0    0    0  501 -0.00000000000E+00  0.00000000000E+00  0.43177681375E+03  0.43177681375E+03  0.00000000000E+00 0. -1.
          1   -1    0    0  501    0  0.00000000000E+00 -0.00000000000E+00 -0.57919163998E+03  0.57919163998E+03  0.00000000000E+00 0. -1.
         36    2    1    2    0    0  0.00000000000E+00 -0.21316282073E-13 -0.14741482622E+03  0.10109684537E+04  0.10001630284E+04 0.  0.
         25    2    3    3    0    0  0.14139919783E+03 -0.52349455038E+01 -0.21553301223E+02  0.18932352347E+03  0.12392624396E+03 0.  0.
         35    2    3    3    0    0 -0.14139919783E+03  0.52349455038E+01 -0.12586152500E+03  0.82164493026E+03  0.79952368955E+03 0.  0.
         22    1    5    5    0    0 -0.43285773550E+03 -0.17299740527E+03 -0.31468625410E+02  0.46720894234E+03  0.00000000000E+00 0. -1.
         22    1    5    5    0    0  0.29145853767E+03  0.17823235077E+03 -0.94392899591E+02  0.35443598792E+03  0.00000000000E+00 0. -1.
          5    1    4    4  502    0 -0.94012810000E+01  0.22267320079E+02 -0.26118853725E+02  0.35895712110E+02  0.47000000000E+01 0.  1.
         -5    1    4    4    0  502  0.15080047883E+03 -0.27502265583E+02  0.45655525021E+01  0.15342781136E+03  0.47000000000E+01 0.  1.
<mgrwt>
<rscale>  0 0.10001630E+04</rscale>
<asrwt>0</asrwt>
<pdfrwt beam="1">  1        1 0.89106406E-01 0.10001630E+04</pdfrwt>
<pdfrwt beam="2">  1       -1 0.66427202E-01 0.10001630E+04</pdfrwt>
<totfact> 0.96590935E+01</totfact>
</mgrwt>
</event>
<event>
 9    1  0.4236486E-036  0.9922735E+03  0.7818608E-02  0.8688431E-01
         -2   -1    0    0    0  501 -0.00000000000E+00  0.00000000000E+00  0.29905900603E+03  0.29905900603E+03  0.00000000000E+00 0. -1.
          2   -1    0    0  501    0  0.00000000000E+00 -0.00000000000E+00 -0.82308725074E+03  0.82308725074E+03  0.00000000000E+00 0. -1.
         36    2    1    2    0    0 -0.14210854715E-13  0.00000000000E+00 -0.52402824471E+03  0.11221462568E+04  0.99227346045E+03 0.  0.
         25    2    3    3    0    0 -0.71891311755E+02  0.91851485229E+02 -0.26349300712E+02  0.17275581520E+03  0.12468051168E+03 0.  0.
         35    2    3    3    0    0  0.71891311755E+02 -0.91851485229E+02 -0.49767894400E+03  0.94939044157E+03  0.80003301382E+03 0.  0.
         22    1    5    5    0    0 -0.19212046340E+03 -0.13916430540E+03 -0.61309796197E+03  0.65739340377E+03  0.00000000000E+00 0. -1.
         22    1    5    5    0    0  0.26401177515E+03  0.47312820174E+02  0.11541901797E+03  0.29199703780E+03  0.00000000000E+00 0. -1.
          5    1    4    4  502    0  0.73051307318E+01 -0.21725146594E+02  0.15459028881E+02  0.28043154307E+02  0.47000000000E+01 0. -1.
         -5    1    4    4    0  502 -0.79196442487E+02  0.11357663182E+03 -0.41808329593E+02  0.14471266089E+03  0.47000000000E+01 0. -1.
<mgrwt>
<rscale>  0 0.99227346E+03</rscale>
<asrwt>0</asrwt>
<pdfrwt beam="1">  1        2 0.12662881E+00 0.99227346E+03</pdfrwt>
<pdfrwt beam="2">  1       -2 0.46009078E-01 0.99227346E+03</pdfrwt>
<totfact> 0.17964440E+02</totfact>
</mgrwt>
</event>
<event>
 9    1  0.4236486E-036  0.1000341E+04  0.7818608E-02  0.8680713E-01
         -2   -1    0    0    0  501 -0.00000000000E+00  0.00000000000E+00  0.13228901878E+03  0.13228901878E+03  0.00000000000E+00 0.  1.
          2   -1    0    0  501    0  0.00000000000E+00 -0.00000000000E+00 -0.18910902076E+04  0.18910902076E+04  0.00000000000E+00 0.  1.
         36    2    1    2    0    0  0.00000000000E+00 -0.42632564146E-13 -0.17588011888E+04  0.20233792264E+04  0.10003408779E+04 0.  0.
         25    2    3    3    0    0  0.78531203010E+02 -0.10941245423E+03 -0.40691880521E+03  0.44645579496E+03  0.12490647636E+03 0.  0.
         35    2    3    3    0    0 -0.78531203010E+02  0.10941245423E+03 -0.13518823836E+04  0.15769234314E+04  0.80060183265E+03 0.  0.
         22    1    5    5    0    0 -0.98298925233E+02 -0.16038767992E+03  0.10051321273E+02  0.18838236550E+03  0.00000000000E+00 0.  1.
         22    1    5    5    0    0  0.19767722222E+02  0.26980013416E+03 -0.13619337049E+04  0.13885410659E+04  0.00000000000E+00 0.  1.
          5    1    4    4  502    0  0.34275696706E+02  0.19649685154E+02 -0.47376451925E+02  0.61867210284E+02  0.47000000000E+01 0. -1.
         -5    1    4    4    0  502  0.44255506305E+02 -0.12906213939E+03 -0.35954235328E+03  0.38458858468E+03  0.47000000000E+01 0. -1.
<mgrwt>
<rscale>  0 0.10003409E+04</rscale>
<asrwt>0</asrwt>
<pdfrwt beam="1">  1        2 0.29093694E+00 0.10003409E+04</pdfrwt>
<pdfrwt beam="2">  1       -2 0.20352158E-01 0.10003409E+04</pdfrwt>
<totfact> 0.18753106E+02</totfact>
</mgrwt>
</event>
<event>
 9    1  0.4236486E-036  0.1000544E+04  0.7818608E-02  0.8680520E-01
          1   -1    0    0  501    0  0.00000000000E+00  0.00000000000E+00  0.66190091973E+03  0.66190091973E+03  0.00000000000E+00 0. -1.
         -1   -1    0    0    0  501 -0.00000000000E+00 -0.00000000000E+00 -0.37811081665E+03  0.37811081665E+03  0.00000000000E+00 0. -1.
         36    2    1    2    0    0 -0.28421709430E-13 -0.56843418861E-13  0.28379010308E+03  0.10400117364E+04  0.10005436468E+04 0.  0.
         25    2    3    3    0    0  0.78941907801E+02  0.72580069105E+02 -0.40951444552E+02  0.16971693666E+03  0.12500850587E+03 0.  0.
         35    2    3    3    0    0 -0.78941907801E+02 -0.72580069105E+02  0.32474154763E+03  0.87029479972E+03  0.80028512070E+03 0.  0.
         22    1    5    5    0    0  0.80053838806E+01  0.27262443878E+03  0.42090709058E+03  0.50154855168E+03  0.00000000000E+00 0.  1.
         22    1    5    5    0    0 -0.86947291681E+02 -0.34520450788E+03 -0.96165542945E+02  0.36874624804E+03  0.00000000000E+00 0.  1.
          5    1    4    4  502    0  0.10831408190E+02  0.86455722390E+02  0.30591650417E+01  0.87311853881E+02  0.47000000000E+01 0. -1.
         -5    1    4    4    0  502  0.68110499611E+02 -0.13875653285E+02 -0.44010609593E+02  0.82405082780E+02  0.47000000000E+01 0. -1.
<mgrwt>
<rscale>  0 0.10005436E+04</rscale>
<asrwt>0</asrwt>
<pdfrwt beam="1">  1        1 0.10183091E+00 0.10005436E+04</pdfrwt>
<pdfrwt beam="2">  1       -1 0.58170895E-01 0.10005436E+04</pdfrwt>
<totfact> 0.10250640E+02</totfact>
</mgrwt>
</event>
<event>
 9    1  0.4236486E-036  0.1000379E+04  0.7818608E-02  0.8680677E-01
         -1   -1    0    0    0  501 -0.00000000000E+00  0.00000000000E+00  0.28746308271E+03  0.28746308271E+03  0.00000000000E+00 0.  1.
          1   -1    0    0  501    0  0.00000000000E+00 -0.00000000000E+00 -0.87033646125E+03  0.87033646125E+03  0.00000000000E+00 0.  1.
         36    2    1    2    0    0  0.56843418861E-13  0.71054273576E-14 -0.58287337854E+03  0.11577995440E+04  0.10003791324E+04 0.  0.
         25    2    3    3    0    0  0.70005304235E+02  0.19983481295E+02  0.30614895832E+02  0.14792789490E+03  0.12508120601E+03 0.  0.
         35    2    3    3    0    0 -0.70005304235E+02 -0.19983481295E+02 -0.61348827437E+03  0.10098716491E+04  0.79885718538E+03 0.  0.
         22    1    5    5    0    0  0.30758259354E+03  0.52505291121E+02 -0.33235878115E+02  0.31379687863E+03  0.00000000000E+00 0.  1.
         22    1    5    5    0    0 -0.37758789777E+03 -0.72488772415E+02 -0.58025239626E+03  0.69607477043E+03  0.00000000000E+00 0.  1.
          5    1    4    4  502    0  0.80381884010E+02  0.36338191830E+02 -0.22531424891E+02  0.91167245051E+02  0.47000000000E+01 0. -1.
         -5    1    4    4    0  502 -0.10376579776E+02 -0.16354710536E+02  0.53146320723E+02  0.56760649846E+02  0.47000000000E+01 0. -1.
<mgrwt>
<rscale>  0 0.10003791E+04</rscale>
<asrwt>0</asrwt>
<pdfrwt beam="1">  1        1 0.13389792E+00 0.10003791E+04</pdfrwt>
<pdfrwt beam="2">  1       -1 0.44225089E-01 0.10003791E+04</pdfrwt>
<totfact> 0.11021814E+02</totfact>
</mgrwt>
</event>
<event>
 9    1  0.4236486E-036  0.9997738E+03  0.7818608E-02  0.8681253E-01
         -2   -1    0    0    0  501 -0.00000000000E+00  0.00000000000E+00  0.11616085472E+04  0.11616085472E+04  0.00000000000E+00 0.  1.
          2   -1    0    0  501    0  0.00000000000E+00 -0.00000000000E+00 -0.21512144182E+03  0.21512144182E+03  0.00000000000E+00 0.  1.
         36    2    1    2    0    0  0.28421709430E-13  0.71054273576E-14  0.94648710542E+03  0.13767299891E+04  0.99977378545E+03 0.  0.
         25    2    3    3    0    0  0.97533445585E+02 -0.41036256472E+02  0.30394726584E+03  0.34513946358E+03  0.12466178869E+03 0.  0.
         35    2    3    3    0    0 -0.97533445585E+02  0.41036256472E+02  0.64253983958E+03  0.10315905255E+04  0.80007800836E+03 0.  0.
         22    1    5    5    0    0  0.34233487088E+03  0.17542527379E+02  0.16018210320E+03  0.37836385963E+03  0.00000000000E+00 0.  1.
         22    1    5    5    0    0 -0.43986831646E+03  0.23493729093E+02  0.48235773638E+03  0.65322666586E+03  0.00000000000E+00 0.  1.
          5    1    4    4  502    0  0.91120252457E+02 -0.51121191090E+02  0.11380393108E+03  0.15456293642E+03  0.47000000000E+01 0. -1.
         -5    1    4    4    0  502  0.64131931279E+01  0.10084934618E+02  0.19014333475E+03  0.19057652716E+03  0.47000000000E+01 0. -1.
<mgrwt>
<rscale>  0 0.99977379E+03</rscale>
<asrwt>0</asrwt>
<pdfrwt beam="1">  1        2 0.33095607E-01 0.99977379E+03</pdfrwt>
<pdfrwt beam="2">  1       -2 0.17870900E+00 0.99977379E+03</pdfrwt>
<totfact> 0.32584777E+01</totfact>
</mgrwt>
</event>
<event>
 9    1  0.4236486E-036  0.1001099E+04  0.7818608E-02  0.8679992E-01
          2   -1    0    0  501    0  0.00000000000E+00  0.00000000000E+00  0.15021180921E+04  0.15021180921E+04  0.00000000000E+00 0.  1.
         -2   -1    0    0    0  501 -0.00000000000E+00 -0.00000000000E+00 -0.16679756499E+03  0.16679756499E+03  0.00000000000E+00 0.  1.
         36    2    1    2    0    0 -0.71054273576E-14  0.71054273576E-14  0.13353205271E+04  0.16689156571E+04  0.10010986766E+04 0.  0.
         25    2    3    3    0    0 -0.39091180994E+02 -0.25013769924E+02  0.28863532754E+02  0.13632658291E+03  0.12489205166E+03 0.  0.
         35    2    3    3    0    0  0.39091180994E+02  0.25013769924E+02  0.13064569943E+04  0.15325890742E+04  0.79990348358E+03 0.  0.
         22    1    5    5    0    0  0.40819515744E+03 -0.82006152274E+02  0.64991660126E+03  0.77184187769E+03  0.00000000000E+00 0.  1.
         22    1    5    5    0    0 -0.36910397645E+03  0.10701992220E+03  0.65654039309E+03  0.76074719647E+03  0.00000000000E+00 0.  1.
          5    1    4    4  502    0 -0.60843330767E+01 -0.31668396306E+02 -0.44681884403E+02  0.55303410631E+02  0.47000000000E+01 0.  1.
         -5    1    4    4    0  502 -0.33006847917E+02  0.66546263821E+01  0.73545417157E+02  0.81023172281E+02  0.47000000000E+01 0.  1.
<mgrwt>
<rscale>  0 0.10010987E+04</rscale>
<asrwt>0</asrwt>
<pdfrwt beam="1">  1        2 0.23109508E+00 0.10010987E+04</pdfrwt>
<pdfrwt beam="2">  1       -2 0.25661165E-01 0.10010987E+04</pdfrwt>
<totfact> 0.20691611E+02</totfact>
</mgrwt>
</event>
<event>
 9    1  0.4236486E-036  0.1000218E+04  0.7818608E-02  0.8680830E-01
         -1   -1    0    0    0  501 -0.00000000000E+00  0.00000000000E+00  0.10144013945E+03  0.10144013945E+03  0.00000000000E+00 0.  1.
          1   -1    0    0  501    0  0.00000000000E+00 -0.00000000000E+00 -0.24655821286E+04  0.24655821286E+04  0.00000000000E+00 0.  1.
         36    2    1    2    0    0  0.21316282073E-13  0.14210854715E-13 -0.23641419892E+04  0.25670222681E+04  0.10002179662E+04 0.  0.
         25    2    3    3    0    0  0.55604983116E+02 -0.36712711861E+02 -0.12939248861E+03  0.19035784412E+03  0.12269456121E+03 0.  0.
         35    2    3    3    0    0 -0.55604983116E+02  0.36712711861E+02 -0.22347495006E+04  0.23766644240E+04  0.80621877706E+03 0.  0.
         22    1    5    5    0    0 -0.27397403453E+03  0.10238847231E+03 -0.26786831165E+03  0.39660887943E+03  0.00000000000E+00 0. -1.
         22    1    5    5    0    0  0.21836905141E+03 -0.65675760445E+02 -0.19668811889E+04  0.19800555445E+04  0.00000000000E+00 0. -1.
          5    1    4    4  502    0  0.26975268566E+02 -0.81448706178E+02 -0.73020626105E+02  0.11276372949E+03  0.47000000000E+01 0.  1.
         -5    1    4    4    0  502  0.28629714549E+02  0.44735994317E+02 -0.56371862507E+02  0.77594114630E+02  0.47000000000E+01 0.  1.
<mgrwt>
<rscale>  0 0.10002180E+04</rscale>
<asrwt>0</asrwt>
<pdfrwt beam="1">  1        1 0.37932030E+00 0.10002180E+04</pdfrwt>
<pdfrwt beam="2">  1       -1 0.15606176E-01 0.10002180E+04</pdfrwt>
<totfact> 0.45021743E+01</totfact>
</mgrwt>
</event>
<event>
 9    1  0.4236486E-036  0.9999792E+03  0.7818608E-02  0.8681058E-01
         -2   -1    0    0    0  501 -0.00000000000E+00  0.00000000000E+00  0.39606065947E+03  0.39606065947E+03  0.00000000000E+00 0. -1.
          2   -1    0    0  501    0  0.00000000000E+00 -0.00000000000E+00 -0.63119020206E+03  0.63119020206E+03  0.00000000000E+00 0. -1.
         36    2    1    2    0    0 -0.28421709430E-13  0.31974423109E-13 -0.23512954259E+03  0.10272508615E+04  0.99997921514E+03 0.  0.
         25    2    3    3    0    0  0.13109857508E+03 -0.11194985406E+02 -0.10736075264E+03  0.20652506308E+03  0.11753342668E+03 0.  0.
         35    2    3    3    0    0 -0.13109857508E+03  0.11194985406E+02 -0.12776878995E+03  0.82072579845E+03  0.79997112978E+03 0.  0.
         22    1    5    5    0    0  0.16709259207E+03 -0.27161462248E+03 -0.23483749617E+03  0.39603419938E+03  0.00000000000E+00 0. -1.
         22    1    5    5    0    0 -0.29819116714E+03  0.28280960789E+03  0.10706870621E+03  0.42469159908E+03  0.00000000000E+00 0. -1.
          5    1    4    4  502    0  0.98525750141E+02  0.24786835354E+02 -0.15985842946E+02  0.10295313411E+03  0.47000000000E+01 0. -1.
         -5    1    4    4    0  502  0.32572824937E+02 -0.35981820760E+02 -0.91374909692E+02  0.10357192897E+03  0.47000000000E+01 0. -1.
<mgrwt>
<rscale>  0 0.99997922E+03</rscale>
<asrwt>0</asrwt>
<pdfrwt beam="1">  1        2 0.97106185E-01 0.99997922E+03</pdfrwt>
<pdfrwt beam="2">  1       -2 0.60932409E-01 0.99997922E+03</pdfrwt>
<totfact> 0.14139781E+02</totfact>
</mgrwt>
</event>
<event>
 9    1  0.4236486E-036  0.1000179E+04  0.7818608E-02  0.8680868E-01
         -1   -1    0    0    0  501 -0.00000000000E+00  0.00000000000E+00  0.16519430115E+03  0.16519430115E+03  0.00000000000E+00 0.  1.
          1   -1    0    0  501    0  0.00000000000E+00 -0.00000000000E+00 -0.15139110760E+04  0.15139110760E+04  0.00000000000E+00 0.  1.
         36    2    1    2    0    0  0.00000000000E+00  0.00000000000E+00 -0.13487167749E+04  0.16791053772E+04  0.10001789484E+04 0.  0.
         25    2    3    3    0    0  0.12271688630E+03 -0.69025253007E+02 -0.25770668760E+03  0.31893438463E+03  0.12442863467E+03 0.  0.
         35    2    3    3    0    0 -0.12271688630E+03  0.69025253007E+02 -0.10910100873E+04  0.13601709926E+04  0.79996137325E+03 0.  0.
         22    1    5    5    0    0  0.55465366397E+02  0.37124479883E+03 -0.86474719961E+03  0.94270187587E+03  0.00000000000E+00 0.  1.
         22    1    5    5    0    0 -0.17818225270E+03 -0.30221954582E+03 -0.22626288767E+03  0.41746911669E+03  0.00000000000E+00 0.  1.
          5    1    4    4  502    0  0.20799732962E+02 -0.76945316026E+02 -0.75128823467E+02  0.10963412181E+03  0.47000000000E+01 0.  1.
         -5    1    4    4    0  502  0.10191715334E+03  0.79200630185E+01 -0.18257786414E+03  0.20930026282E+03  0.47000000000E+01 0.  1.
<mgrwt>
<rscale>  0 0.10001789E+04</rscale>
<asrwt>0</asrwt>
<pdfrwt beam="1">  1        1 0.23290940E+00 0.10001789E+04</pdfrwt>
<pdfrwt beam="2">  1       -1 0.25414507E-01 0.10001789E+04</pdfrwt>
<totfact> 0.93968934E+01</totfact>
</mgrwt>
</event>
<event>
 9    1  0.4236486E-036  0.9997574E+03  0.7818608E-02  0.8681269E-01
          2   -1    0    0  501    0  0.00000000000E+00  0.00000000000E+00  0.28656791012E+04  0.28656791012E+04  0.00000000000E+00 0. -1.
         -2   -1    0    0    0  501 -0.00000000000E+00 -0.00000000000E+00 -0.87197040227E+02  0.87197040227E+02  0.00000000000E+00 0. -1.
         36    2    1    2    0    0  0.00000000000E+00  0.28421709430E-13  0.27784820609E+04  0.29528761414E+04  0.99975744231E+03 0.  0.
         25    2    3    3    0    0 -0.90201366443E+02  0.52730774097E+02  0.79333136382E+03  0.81006442813E+03  0.12614635885E+03 0.  0.
         35    2    3    3    0    0  0.90201366443E+02 -0.52730774097E+02  0.19851506971E+04  0.21428117133E+04  0.79993870215E+03 0.  0.
         22    1    5    5    0    0  0.29264596321E+03 -0.32591635368E+03  0.82777091250E+03  0.93651898698E+03  0.00000000000E+00 0. -1.
         22    1    5    5    0    0 -0.20244459677E+03  0.27318557959E+03  0.11573797846E+04  0.12062927263E+04  0.00000000000E+00 0. -1.
          5    1    4    4  502    0 -0.38090949407E+02 -0.28419494341E+02  0.47544795050E+03  0.47784038310E+03  0.47000000000E+01 0.  1.
         -5    1    4    4    0  502 -0.52110417036E+02  0.81150268439E+02  0.31788341332E+03  0.33222404503E+03  0.47000000000E+01 0.  1.
<mgrwt>
<rscale>  0 0.99975744E+03</rscale>
<asrwt>0</asrwt>
<pdfrwt beam="1">  1        2 0.44087363E+00 0.99975744E+03</pdfrwt>
<pdfrwt beam="2">  1       -2 0.13414932E-01 0.99975744E+03</pdfrwt>
<totfact> 0.98839521E+01</totfact>
</mgrwt>
</event>
<event>
 9    1  0.4236486E-036  0.1000026E+04  0.7818608E-02  0.8681013E-01
         -3   -1    0    0    0  501 -0.00000000000E+00  0.00000000000E+00  0.90395555590E+03  0.90395555590E+03  0.00000000000E+00 0.  1.
          3   -1    0    0  501    0  0.00000000000E+00 -0.00000000000E+00 -0.27657661667E+03  0.27657661667E+03  0.00000000000E+00 0.  1.
         36    2    1    2    0    0  0.00000000000E+00  0.00000000000E+00  0.62737893923E+03  0.11805321726E+04  0.10000259382E+04 0.  0.
         25    2    3    3    0    0  0.22964702749E+01  0.11063436906E+03  0.14573167509E+02  0.16599599023E+03  0.12287007027E+03 0.  0.
         35    2    3    3    0    0 -0.22964702749E+01 -0.11063436906E+03  0.61280577172E+03  0.10145361823E+04  0.80094164208E+03 0.  0.
         22    1    5    5    0    0 -0.12532636081E+02 -0.14224984417E+03  0.80597579177E+03  0.81852859575E+03  0.00000000000E+00 0.  1.
         22    1    5    5    0    0  0.10236165806E+02  0.31615475112E+02 -0.19317002005E+03  0.19600758659E+03  0.00000000000E+00 0.  1.
          5    1    4    4  502    0  0.38474977499E+02  0.11211116383E+03  0.35615800673E+02  0.12385399552E+03  0.47000000000E+01 0.  1.
         -5    1    4    4    0  502 -0.36178507224E+02 -0.14767947701E+01 -0.21042633164E+02  0.42141994711E+02  0.47000000000E+01 0.  1.
<mgrwt>
<rscale>  0 0.10000259E+04</rscale>
<asrwt>0</asrwt>
<pdfrwt beam="1">  1        3 0.42550249E-01 0.10000259E+04</pdfrwt>
<pdfrwt beam="2">  1       -3 0.13907008E+00 0.10000259E+04</pdfrwt>
<totfact> 0.71339871E+00</totfact>
</mgrwt>
</event>
<event>
 9    1  0.4236486E-036  0.9995769E+03  0.7818608E-02  0.8681441E-01
         -2   -1    0    0    0  501 -0.00000000000E+00  0.00000000000E+00  0.98239459379E+02  0.98239459379E+02  0.00000000000E+00 0. -1.
          2   -1    0    0  501    0  0.00000000000E+00 -0.00000000000E+00 -0.25426492028E+04  0.25426492028E+04  0.00000000000E+00 0. -1.
         36    2    1    2    0    0  0.00000000000E+00  0.00000000000E+00 -0.24444097434E+04  0.26408886621E+04  0.99957687662E+03 0.  0.
         25    2    3    3    0    0  0.11568798676E+03 -0.58939635450E+02 -0.32154584748E+03  0.36866567745E+03  0.12516013260E+03 0.  0.
         35    2    3    3    0    0 -0.11568798676E+03  0.58939635450E+02 -0.21228638959E+04  0.22722229847E+04  0.79974282161E+03 0.  0.
         22    1    5    5    0    0 -0.42745664202E+03  0.74072774484E+02 -0.16465776204E+04  0.17027694549E+04  0.00000000000E+00 0.  1.
         22    1    5    5    0    0  0.31176865526E+03 -0.15133139034E+02 -0.47628627554E+03  0.56945352977E+03  0.00000000000E+00 0.  1.
          5    1    4    4  502    0  0.11730550843E+03 -0.58455681874E+02 -0.33206290351E+03  0.35702312382E+03  0.47000000000E+01 0. -1.
         -5    1    4    4    0  502 -0.16175216698E+01 -0.48395357574E+00  0.10517056037E+02  0.11642553633E+02  0.47000000000E+01 0. -1.
<mgrwt>
<rscale>  0 0.99957688E+03</rscale>
<asrwt>0</asrwt>
<pdfrwt beam="1">  1        2 0.39117688E+00 0.99957688E+03</pdfrwt>
<pdfrwt beam="2">  1       -2 0.15113760E-01 0.99957688E+03</pdfrwt>
<totfact> 0.12949819E+02</totfact>
</mgrwt>
</event>
<event>
 9    1  0.4236486E-036  0.1000437E+04  0.7818608E-02  0.8680622E-01
          2   -1    0    0  501    0  0.00000000000E+00  0.00000000000E+00  0.18548104801E+04  0.18548104801E+04  0.00000000000E+00 0.  1.
         -2   -1    0    0    0  501 -0.00000000000E+00 -0.00000000000E+00 -0.13490247763E+03  0.13490247763E+03  0.00000000000E+00 0.  1.
         36    2    1    2    0    0  0.00000000000E+00  0.28421709430E-13  0.17199080025E+04  0.19897129577E+04  0.10004369631E+04 0.  0.
         25    2    3    3    0    0  0.39980203970E+02  0.11501134819E+03  0.17329099596E+03  0.24523440904E+03  0.12362895766E+03 0.  0.
         35    2    3    3    0    0 -0.39980203970E+02 -0.11501134819E+03  0.15466170065E+04  0.17444785487E+04  0.79771875690E+03 0.  0.
         22    1    5    5    0    0 -0.17402722964E+03  0.30233074169E+03  0.88037972970E+03  0.94697297875E+03  0.00000000000E+00 0. -1.
         22    1    5    5    0    0  0.13404702567E+03 -0.41734208988E+03  0.66623727681E+03  0.79750556994E+03  0.00000000000E+00 0. -1.
          5    1    4    4  502    0  0.58133841664E+02  0.11899149101E+03  0.18120912970E+03  0.22449355707E+03  0.47000000000E+01 0. -1.
         -5    1    4    4    0  502 -0.18153637695E+02 -0.39801428259E+01 -0.79181337356E+01  0.20740851967E+02  0.47000000000E+01 0. -1.
<mgrwt>
<rscale>  0 0.10004370E+04</rscale>
<asrwt>0</asrwt>
<pdfrwt beam="1">  1        2 0.28535544E+00 0.10004370E+04</pdfrwt>
<pdfrwt beam="2">  1       -2 0.20754229E-01 0.10004370E+04</pdfrwt>
<totfact> 0.19004467E+02</totfact>
</mgrwt>
</event>
<event>
 9    1  0.4236486E-036  0.9913084E+03  0.7818608E-02  0.8689359E-01
          2   -1    0    0  501    0  0.00000000000E+00  0.00000000000E+00  0.20803490903E+04  0.20803490903E+04  0.00000000000E+00 0.  1.
         -2   -1    0    0    0  501 -0.00000000000E+00 -0.00000000000E+00 -0.11809223306E+03  0.11809223306E+03  0.00000000000E+00 0.  1.
         36    2    1    2    0    0  0.00000000000E+00 -0.14210854715E-13  0.19622568572E+04  0.21984413233E+04  0.99130836697E+03 0.  0.
         25    2    3    3    0    0 -0.48885652126E+02 -0.10755848737E+03  0.24355967090E+03  0.29879569229E+03  0.12648682639E+03 0.  0.
         35    2    3    3    0    0  0.48885652126E+02  0.10755848737E+03  0.17186971863E+04  0.18996456310E+04  0.80048414731E+03 0.  0.
         22    1    5    5    0    0  0.40442772699E+03 -0.71982815580E+02  0.88503260390E+03  0.97571820833E+03  0.00000000000E+00 0.  1.
         22    1    5    5    0    0 -0.35554207487E+03  0.17954130295E+03  0.83366458242E+03  0.92392742271E+03  0.00000000000E+00 0.  1.
          5    1    4    4  502    0 -0.32878706805E+02  0.23606670362E+02  0.62043129072E+02  0.74227515867E+02  0.47000000000E+01 0.  1.
         -5    1    4    4    0  502 -0.16006945321E+02 -0.13116515774E+03  0.18151654183E+03  0.22456817642E+03  0.47000000000E+01 0.  1.
<mgrwt>
<rscale>  0 0.99130837E+03</rscale>
<asrwt>0</asrwt>
<pdfrwt beam="1">  1        2 0.32005368E+00 0.99130837E+03</pdfrwt>
<pdfrwt beam="2">  1       -2 0.18168037E-01 0.99130837E+03</pdfrwt>
<totfact> 0.17793581E+02</totfact>
</mgrwt>
</event>
<event>
 9    1  0.4236486E-036  0.9998030E+03  0.7818608E-02  0.8681226E-01
         -2   -1    0    0    0  501 -0.00000000000E+00  0.00000000000E+00  0.24328954560E+03  0.24328954560E+03  0.00000000000E+00 0. -1.
          2   -1    0    0  501    0  0.00000000000E+00 -0.00000000000E+00 -0.10271773830E+04  0.10271773830E+04  0.00000000000E+00 0. -1.
         36    2    1    2    0    0  0.28421709430E-13 -0.71054273576E-14 -0.78388783741E+03  0.12704669286E+04  0.99980301813E+03 0.  0.
         25    2    3    3    0    0 -0.12803851928E+03 -0.58300902580E+02 -0.19718903412E+03  0.27235544055E+03  0.12450346646E+03 0.  0.
         35    2    3    3    0    0  0.12803851928E+03  0.58300902580E+02 -0.58669880330E+03  0.99811148806E+03  0.79512149962E+03 0.  0.
         22    1    5    5    0    0 -0.21871966097E+03 -0.49555904546E+01 -0.60682400387E+03  0.64505675692E+03  0.00000000000E+00 0. -1.
         22    1    5    5    0    0  0.34675818025E+03  0.63256493035E+02  0.20125200577E+02  0.35305473114E+03  0.00000000000E+00 0. -1.
          5    1    4    4  502    0 -0.95520512006E+02 -0.66632872592E+02 -0.20656912716E+03  0.23718558603E+03  0.47000000000E+01 0. -1.
         -5    1    4    4    0  502 -0.32518007278E+02  0.83319700119E+01  0.93800930437E+01  0.35169854522E+02  0.47000000000E+01 0. -1.
<mgrwt>
<rscale>  0 0.99980302E+03</rscale>
<asrwt>0</asrwt>
<pdfrwt beam="1">  1        2 0.15802729E+00 0.99980302E+03</pdfrwt>
<pdfrwt beam="2">  1       -2 0.37429161E-01 0.99980302E+03</pdfrwt>
<totfact> 0.19682993E+02</totfact>
</mgrwt>
</event>
<event>
 9    1  0.4236486E-036  0.9956881E+03  0.7818608E-02  0.8685155E-01
          2   -1    0    0  501    0  0.00000000000E+00  0.00000000000E+00  0.10154335870E+04  0.10154335870E+04  0.00000000000E+00 0. -1.
         -2   -1    0    0    0  501 -0.00000000000E+00 -0.00000000000E+00 -0.24408163348E+03  0.24408163348E+03  0.00000000000E+00 0. -1.
         36    2    1    2    0    0 -0.14210854715E-13  0.28421709430E-13  0.77135195353E+03  0.12595152205E+04  0.99568808090E+03 0.  0.
         25    2    3    3    0    0 -0.11215523203E+03  0.46106961543E+02  0.21633055108E+03  0.27778969517E+03  0.12515414271E+03 0.  0.
         35    2    3    3    0    0  0.11215523203E+03 -0.46106961543E+02  0.55502140245E+03  0.98172552533E+03  0.80064449160E+03 0.  0.
         22    1    5    5    0    0  0.23157756816E+03  0.33675616440E+03  0.27643580745E+03  0.49340616127E+03  0.00000000000E+00 0. -1.
         22    1    5    5    0    0 -0.11942233614E+03 -0.38286312594E+03  0.27858559500E+03  0.48831936406E+03  0.00000000000E+00 0. -1.
          5    1    4    4  502    0 -0.42213395289E+02 -0.42024922031E+02  0.95220911472E+02  0.11241519824E+03  0.47000000000E+01 0.  1.
         -5    1    4    4    0  502 -0.69941836737E+02  0.88131883575E+02  0.12110963961E+03  0.16537449693E+03  0.47000000000E+01 0.  1.
<mgrwt>
<rscale>  0 0.99568808E+03</rscale>
<asrwt>0</asrwt>
<pdfrwt beam="1">  1        2 0.15622055E+00 0.99568808E+03</pdfrwt>
<pdfrwt beam="2">  1       -2 0.37551021E-01 0.99568808E+03</pdfrwt>
<totfact> 0.19895515E+02</totfact>
</mgrwt>
</event>
<event>
 9    1  0.4236486E-036  0.9993925E+03  0.7818608E-02  0.8681617E-01
         -2   -1    0    0    0  501 -0.00000000000E+00  0.00000000000E+00  0.39495291049E+03  0.39495291049E+03  0.00000000000E+00 0.  1.
          2   -1    0    0  501    0  0.00000000000E+00 -0.00000000000E+00 -0.63221804950E+03  0.63221804950E+03  0.00000000000E+00 0.  1.
         36    2    1    2    0    0  0.00000000000E+00  0.21316282073E-13 -0.23726513901E+03  0.10271709600E+04  0.99939253292E+03 0.  0.
         25    2    3    3    0    0  0.87878055138E+02 -0.31074634945E+02  0.61219533039E+02  0.16803544267E+03  0.12569762629E+03 0.  0.
         35    2    3    3    0    0 -0.87878055138E+02  0.31074634945E+02 -0.29848467205E+03  0.85913551733E+03  0.80020781811E+03 0.  0.
         22    1    5    5    0    0 -0.39570660033E+03  0.19961114606E+03 -0.23784386285E+03  0.50298909161E+03  0.00000000000E+00 0. -1.
         22    1    5    5    0    0  0.30782854519E+03 -0.16853651111E+03 -0.60640809199E+02  0.35614642572E+03  0.00000000000E+00 0. -1.
          5    1    4    4  502    0  0.46565723972E+02  0.36712260786E+02 -0.11142073541E+02  0.60517704383E+02  0.47000000000E+01 0.  1.
         -5    1    4    4    0  502  0.41312331166E+02 -0.67786895731E+02  0.72361606580E+02  0.10751773828E+03  0.47000000000E+01 0.  1.
<mgrwt>
<rscale>  0 0.99939253E+03</rscale>
<asrwt>0</asrwt>
<pdfrwt beam="1">  1        2 0.97264314E-01 0.99939253E+03</pdfrwt>
<pdfrwt beam="2">  1       -2 0.60761987E-01 0.99939253E+03</pdfrwt>
<totfact> 0.14195412E+02</totfact>
</mgrwt>
</event>
<event>
 9    1  0.4236486E-036  0.1000585E+04  0.7818608E-02  0.8680481E-01
         -1   -1    0    0    0  501 -0.00000000000E+00  0.00000000000E+00  0.16176319931E+03  0.16176319931E+03  0.00000000000E+00 0.  1.
          1   -1    0    0  501    0  0.00000000000E+00 -0.00000000000E+00 -0.15472780207E+04  0.15472780207E+04  0.00000000000E+00 0.  1.
         36    2    1    2    0    0  0.00000000000E+00  0.21316282073E-13 -0.13855148214E+04  0.17090412200E+04  0.10005851145E+04 0.  0.
         25    2    3    3    0    0 -0.11443281466E+03 -0.11379131650E+01 -0.40212232837E+03  0.43668233878E+03  0.12606718095E+03 0.  0.
         35    2    3    3    0    0  0.11443281466E+03  0.11379131650E+01 -0.98339249302E+03  0.12723588812E+04  0.79921221426E+03 0.  0.
         22    1    5    5    0    0 -0.22997762646E+03 -0.17978846117E+03 -0.78110417693E+03  0.83386889537E+03  0.00000000000E+00 0. -1.
         22    1    5    5    0    0  0.34441044112E+03  0.18092637433E+03 -0.20228831609E+03  0.43848998587E+03  0.00000000000E+00 0. -1.
          5    1    4    4  502    0 -0.66176915234E+02 -0.45889478843E+02 -0.10547926462E+03  0.13279003593E+03  0.47000000000E+01 0.  1.
         -5    1    4    4    0  502 -0.48255899425E+02  0.44751565678E+02 -0.29664306375E+03  0.30389230285E+03  0.47000000000E+01 0.  1.
<mgrwt>
<rscale>  0 0.10005851E+04</rscale>
<asrwt>0</asrwt>
<pdfrwt beam="1">  1        1 0.23804277E+00 0.10005851E+04</pdfrwt>
<pdfrwt beam="2">  1       -1 0.24886646E-01 0.10005851E+04</pdfrwt>
<totfact> 0.92164792E+01</totfact>
</mgrwt>
</event>
<event>
 9    1  0.4236486E-036  0.1000193E+04  0.7818608E-02  0.8680854E-01
         -2   -1    0    0    0  501 -0.00000000000E+00  0.00000000000E+00  0.33841457776E+03  0.33841457776E+03  0.00000000000E+00 0. -1.
          2   -1    0    0  501    0  0.00000000000E+00 -0.00000000000E+00 -0.73902357227E+03  0.73902357227E+03  0.00000000000E+00 0. -1.
         36    2    1    2    0    0 -0.28421709430E-13  0.14210854715E-13 -0.40060899451E+03  0.10774381500E+04  0.10001926818E+04 0.  0.
         25    2    3    3    0    0 -0.81837325004E+02  0.96267206239E+02 -0.76036989403E+01  0.17771367562E+03  0.12473817180E+03 0.  0.
         35    2    3    3    0    0  0.81837325004E+02 -0.96267206239E+02 -0.39300529557E+03  0.89972447440E+03  0.79942869897E+03 0.  0.
         22    1    5    5    0    0 -0.12043001728E+03  0.17473186275E+03 -0.50152734691E+03  0.54457716866E+03  0.00000000000E+00 0. -1.
         22    1    5    5    0    0  0.20226734229E+03 -0.27099906899E+03  0.10852205134E+03  0.35514730574E+03  0.00000000000E+00 0. -1.
          5    1    4    4  502    0 -0.45062592785E+02  0.98836714718E+02 -0.51409494690E+02  0.12026786599E+03  0.47000000000E+01 0.  1.
         -5    1    4    4    0  502 -0.36774732219E+02 -0.25695084788E+01  0.43805795750E+02  0.57445809637E+02  0.47000000000E+01 0.  1.
<mgrwt>
<rscale>  0 0.10001927E+04</rscale>
<asrwt>0</asrwt>
<pdfrwt beam="1">  1        2 0.11369593E+00 0.10001927E+04</pdfrwt>
<pdfrwt beam="2">  1       -2 0.52063782E-01 0.10001927E+04</pdfrwt>
<totfact> 0.16114296E+02</totfact>
</mgrwt>
</event>
<event>
 9    1  0.4236486E-036  0.1002751E+04  0.7818608E-02  0.8678422E-01
         -2   -1    0    0    0  501 -0.00000000000E+00  0.00000000000E+00  0.12923276703E+03  0.12923276703E+03  0.00000000000E+00 0. -1.
          2   -1    0    0  501    0  0.00000000000E+00 -0.00000000000E+00 -0.19451538340E+04  0.19451538340E+04  0.00000000000E+00 0. -1.
         36    2    1    2    0    0 -0.14210854715E-13 -0.14210854715E-13 -0.18159210670E+04  0.20743866010E+04  0.10027514393E+04 0.  0.
         25    2    3    3    0    0 -0.69643015813E+02  0.12835028773E+02 -0.88392120087E+02  0.16928427126E+03  0.12581379093E+03 0.  0.
         35    2    3    3    0    0  0.69643015813E+02 -0.12835028773E+02 -0.17275289469E+04  0.19051023298E+04  0.80002733515E+03 0.  0.
         22    1    5    5    0    0 -0.27048066722E+03 -0.25323618738E+03 -0.62569866943E+03  0.72717754563E+03  0.00000000000E+00 0. -1.
         22    1    5    5    0    0  0.34012368303E+03  0.24040115860E+03 -0.11018302774E+04  0.11779247841E+04  0.00000000000E+00 0. -1.
          5    1    4    4  502    0 -0.15781410772E+02  0.12693658955E+02  0.31512724906E+02  0.37753459903E+02  0.47000000000E+01 0. -1.
         -5    1    4    4    0  502 -0.53861605041E+02  0.14136981761E+00 -0.11990484499E+03  0.13153081136E+03  0.47000000000E+01 0. -1.
<mgrwt>
<rscale>  0 0.10027514E+04</rscale>
<asrwt>0</asrwt>
<pdfrwt beam="1">  1        2 0.29925443E+00 0.10027514E+04</pdfrwt>
<pdfrwt beam="2">  1       -2 0.19881965E-01 0.10027514E+04</pdfrwt>
<totfact> 0.18196131E+02</totfact>
</mgrwt>
</event>
<event>
 9    1  0.4236486E-036  0.1000005E+04  0.7818608E-02  0.8681034E-01
          2   -1    0    0  501    0  0.00000000000E+00  0.00000000000E+00  0.21595817597E+04  0.21595817597E+04  0.00000000000E+00 0. -1.
         -2   -1    0    0    0  501 -0.00000000000E+00 -0.00000000000E+00 -0.11576420005E+03  0.11576420005E+03  0.00000000000E+00 0. -1.
         36    2    1    2    0    0  0.00000000000E+00  0.28421709430E-13  0.20438175596E+04  0.22753459597E+04  0.10000045097E+04 0.  0.
         25    2    3    3    0    0 -0.65405436183E+02 -0.11637064636E+03  0.48220573201E+03  0.51568245213E+03  0.12484400281E+03 0.  0.
         35    2    3    3    0    0  0.65405436183E+02  0.11637064636E+03  0.15616118276E+04  0.17596635076E+04  0.79997760054E+03 0.  0.
         22    1    5    5    0    0 -0.12824640631E+03  0.26538864702E+03  0.15700185720E+03  0.33395786840E+03  0.00000000000E+00 0. -1.
         22    1    5    5    0    0  0.19365184249E+03 -0.14901800066E+03  0.14046099704E+04  0.14257056392E+04  0.00000000000E+00 0. -1.
          5    1    4    4  502    0 -0.28538490675E+02 -0.13535441683E+02  0.31035755804E+03  0.31199608566E+03  0.47000000000E+01 0. -1.
         -5    1    4    4    0  502 -0.36866945508E+02 -0.10283520467E+03  0.17184817397E+03  0.20368636648E+03  0.47000000000E+01 0. -1.
<mgrwt>
<rscale>  0 0.10000045E+04</rscale>
<asrwt>0</asrwt>
<pdfrwt beam="1">  1        2 0.33224332E+00 0.10000045E+04</pdfrwt>
<pdfrwt beam="2">  1       -2 0.17809879E-01 0.10000045E+04</pdfrwt>
<totfact> 0.16571631E+02</totfact>
</mgrwt>
</event>
<event>
 9    1  0.4236486E-036  0.9999134E+03  0.7818608E-02  0.8681120E-01
          1   -1    0    0  501    0  0.00000000000E+00  0.00000000000E+00  0.62487575093E+03  0.62487575093E+03  0.00000000000E+00 0. -1.
         -1   -1    0    0    0  501 -0.00000000000E+00 -0.00000000000E+00 -0.40001024181E+03  0.40001024181E+03  0.00000000000E+00 0. -1.
         36    2    1    2    0    0 -0.71054273576E-14 -0.28421709430E-13  0.22486550911E+03  0.10248859927E+04  0.99991339671E+03 0.  0.
         25    2    3    3    0    0  0.49960728307E+02  0.10495670517E+03  0.12280519133E+03  0.20997355986E+03  0.12448211314E+03 0.  0.
         35    2    3    3    0    0 -0.49960728307E+02 -0.10495670517E+03  0.10206031778E+03  0.81491243288E+03  0.80009623200E+03 0.  0.
         22    1    5    5    0    0 -0.91997388402E+02  0.32118418942E+03 -0.89392615549E+02  0.34585234237E+03  0.00000000000E+00 0.  1.
         22    1    5    5    0    0  0.42036660095E+02 -0.42614089458E+03  0.19145293333E+03  0.46906009051E+03  0.00000000000E+00 0.  1.
          5    1    4    4  502    0  0.67660378975E+02  0.80410831231E+02  0.13979407450E+03  0.17495228472E+03  0.47000000000E+01 0. -1.
         -5    1    4    4    0  502 -0.17699650668E+02  0.24545873934E+02 -0.16988883175E+02  0.35021275141E+02  0.47000000000E+01 0. -1.
<mgrwt>
<rscale>  0 0.99991340E+03</rscale>
<asrwt>0</asrwt>
<pdfrwt beam="1">  1        1 0.96134731E-01 0.99991340E+03</pdfrwt>
<pdfrwt beam="2">  1       -1 0.61540037E-01 0.99991340E+03</pdfrwt>
<totfact> 0.10028117E+02</totfact>
</mgrwt>
</event>
<event>
 9    1  0.4236486E-036  0.9999530E+03  0.7818608E-02  0.8681083E-01
          2   -1    0    0  501    0  0.00000000000E+00  0.00000000000E+00  0.42522162997E+04  0.42522162997E+04  0.00000000000E+00 0.  1.
         -2   -1    0    0    0  501 -0.00000000000E+00 -0.00000000000E+00 -0.58787348236E+02  0.58787348236E+02  0.00000000000E+00 0.  1.
         36    2    1    2    0    0  0.28421709430E-13  0.00000000000E+00  0.41934289514E+04  0.43110036479E+04  0.99995303966E+03 0.  0.
         25    2    3    3    0    0  0.10500202935E+03 -0.88926090548E+02  0.66634009148E+03  0.69188362184E+03  0.12554104074E+03 0.  0.
         35    2    3    3    0    0 -0.10500202935E+03  0.88926090548E+02  0.35270888599E+04  0.36191200261E+04  0.79921252574E+03 0.  0.
         22    1    5    5    0    0  0.23804108399E+03  0.13266938806E+03  0.28080468764E+04  0.28212394411E+04  0.00000000000E+00 0.  1.
         22    1    5    5    0    0 -0.34304311334E+03 -0.43743297512E+02  0.71904198357E+03  0.79788058493E+03  0.00000000000E+00 0.  1.
          5    1    4    4  502    0  0.38628151271E+02 -0.76210729732E+02  0.16386283340E+03  0.18486029202E+03  0.47000000000E+01 0. -1.
         -5    1    4    4    0  502  0.66373878076E+02 -0.12715360816E+02  0.50247725809E+03  0.50702332982E+03  0.47000000000E+01 0. -1.
<mgrwt>
<rscale>  0 0.99995304E+03</rscale>
<asrwt>0</asrwt>
<pdfrwt beam="1">  1        2 0.65418688E+00 0.99995304E+03</pdfrwt>
<pdfrwt beam="2">  1       -2 0.90442108E-02 0.99995304E+03</pdfrwt>
<totfact> 0.15787996E+01</totfact>
</mgrwt>
</event>
<event>
 9    1  0.4236486E-036  0.9989185E+03  0.7818608E-02  0.8682069E-01
         -1   -1    0    0    0  501 -0.00000000000E+00  0.00000000000E+00  0.45161119197E+03  0.45161119197E+03  0.00000000000E+00 0.  1.
          1   -1    0    0  501    0  0.00000000000E+00 -0.00000000000E+00 -0.55237684047E+03  0.55237684047E+03  0.00000000000E+00 0.  1.
         36    2    1    2    0    0  0.14210854715E-13 -0.71054273576E-14 -0.10076564850E+03  0.10039880324E+04  0.99891854191E+03 0.  0.
         25    2    3    3    0    0 -0.96531001765E+02 -0.61200467988E+02 -0.97894367543E+02  0.19565340413E+03  0.12503285875E+03 0.  0.
         35    2    3    3    0    0  0.96531001765E+02  0.61200467988E+02 -0.28712809558E+01  0.80833462831E+03  0.80020803263E+03 0.  0.
         22    1    5    5    0    0 -0.47549704730E+02  0.95600491914E+02 -0.38445557010E+03  0.39900690954E+03  0.00000000000E+00 0. -1.
         22    1    5    5    0    0  0.14408070650E+03 -0.34400023927E+02  0.38158428915E+03  0.40932771877E+03  0.00000000000E+00 0. -1.
          5    1    4    4  502    0 -0.53372539721E+02  0.30408516675E+02 -0.11961671966E+02  0.62757290245E+02  0.47000000000E+01 0.  1.
         -5    1    4    4    0  502 -0.43158462044E+02 -0.91608984663E+02 -0.85932695576E+02  0.13289611389E+03  0.47000000000E+01 0.  1.
<mgrwt>
<rscale>  0 0.99891854E+03</rscale>
<asrwt>0</asrwt>
<pdfrwt beam="1">  1        1 0.84981052E-01 0.99891854E+03</pdfrwt>
<pdfrwt beam="2">  1       -1 0.69478645E-01 0.99891854E+03</pdfrwt>
<totfact> 0.94643702E+01</totfact>
</mgrwt>
</event>
<event>
 9    1  0.4236486E-036  0.1002819E+04  0.7818608E-02  0.8678358E-01
          1   -1    0    0  501    0  0.00000000000E+00  0.00000000000E+00  0.92040858991E+03  0.92040858991E+03  0.00000000000E+00 0.  1.
         -1   -1    0    0    0  501 -0.00000000000E+00 -0.00000000000E+00 -0.27315225413E+03  0.27315225413E+03  0.00000000000E+00 0.  1.
         36    2    1    2    0    0  0.00000000000E+00 -0.14210854715E-13  0.64725633578E+03  0.11935608440E+04  0.10028193876E+04 0.  0.
         25    2    3    3    0    0 -0.11521075330E+03 -0.72660769842E+02  0.16926907442E+03  0.25174788409E+03  0.12716867712E+03 0.  0.
         35    2    3    3    0    0  0.11521075330E+03  0.72660769842E+02  0.47798726136E+03  0.94181295995E+03  0.79999170268E+03 0.  0.
         22    1    5    5    0    0  0.12682575952E+03 -0.35500782927E+03  0.16389050389E+03  0.41106621046E+03  0.00000000000E+00 0.  1.
         22    1    5    5    0    0 -0.11615006227E+02  0.42766859911E+03  0.31409675747E+03  0.53074674948E+03  0.00000000000E+00 0.  1.
          5    1    4    4  502    0  0.89869561121E+01 -0.42484266812E+02  0.93228196107E+02  0.10295273117E+03  0.47000000000E+01 0.  1.
         -5    1    4    4    0  502 -0.12419770941E+03 -0.30176503030E+02  0.76040878317E+02  0.14879515292E+03  0.47000000000E+01 0.  1.
<mgrwt>
<rscale>  0 0.10028194E+04</rscale>
<asrwt>0</asrwt>
<pdfrwt beam="1">  1        1 0.14160132E+00 0.10028194E+04</pdfrwt>
<pdfrwt beam="2">  1       -1 0.42023424E-01 0.10028194E+04</pdfrwt>
<totfact> 0.10973423E+02</totfact>
</mgrwt>
</event>
<event>
 9    1  0.4236486E-036  0.9998874E+03  0.7818608E-02  0.8681145E-01
         -2   -1    0    0    0  501 -0.00000000000E+00  0.00000000000E+00  0.36041544090E+03  0.36041544090E+03  0.00000000000E+00 0.  1.
          2   -1    0    0  501    0  0.00000000000E+00 -0.00000000000E+00 -0.69348783473E+03  0.69348783473E+03  0.00000000000E+00 0.  1.
         36    2    1    2    0    0  0.00000000000E+00 -0.42632564146E-13 -0.33307239383E+03  0.10539032756E+04  0.99988744109E+03 0.  0.
         25    2    3    3    0    0 -0.85942546029E+02 -0.11383105070E+03 -0.94027692904E+02  0.21187500933E+03  0.12532431219E+03 0.  0.
         35    2    3    3    0    0  0.85942546029E+02  0.11383105070E+03 -0.23904470092E+03  0.84202826630E+03  0.79468585170E+03 0.  0.
         22    1    5    5    0    0  0.49554182685E+02 -0.28022815431E+03 -0.33022244225E+03  0.43592464584E+03  0.00000000000E+00 0. -1.
         22    1    5    5    0    0  0.36388363344E+02  0.39405920501E+03  0.91177741323E+02  0.40610362046E+03  0.00000000000E+00 0. -1.
          5    1    4    4  502    0 -0.73823204028E+02 -0.13979611909E+03 -0.65558362187E+02  0.17120983973E+03  0.47000000000E+01 0.  1.
         -5    1    4    4    0  502 -0.12119342001E+02  0.25965068399E+02 -0.28469330717E+02  0.40665169604E+02  0.47000000000E+01 0.  1.
<mgrwt>
<rscale>  0 0.99988744E+03</rscale>
<asrwt>0</asrwt>
<pdfrwt beam="1">  1        2 0.10669043E+00 0.99988744E+03</pdfrwt>
<pdfrwt beam="2">  1       -2 0.55448530E-01 0.99988744E+03</pdfrwt>
<totfact> 0.15337764E+02</totfact>
</mgrwt>
</event>
<event>
 9    1  0.4236486E-036  0.1000012E+04  0.7818608E-02  0.8681026E-01
         -1   -1    0    0    0  501 -0.00000000000E+00  0.00000000000E+00  0.64230861476E+03  0.64230861476E+03  0.00000000000E+00 0.  1.
          1   -1    0    0  501    0  0.00000000000E+00 -0.00000000000E+00 -0.38923054119E+03  0.38923054119E+03  0.00000000000E+00 0.  1.
         36    2    1    2    0    0  0.71054273576E-14 -0.14210854715E-13  0.25307807357E+03  0.10315391559E+04  0.10000122594E+04 0.  0.
         25    2    3    3    0    0 -0.25888638542E+02  0.11872954132E+03  0.12008779363E+03  0.21193806458E+03  0.12541825805E+03 0.  0.
         35    2    3    3    0    0  0.25888638542E+02 -0.11872954132E+03  0.13299027994E+03  0.81960109137E+03  0.79955775828E+03 0.  0.
         22    1    5    5    0    0 -0.32466816763E+03 -0.11056264000E+02 -0.14861042551E+03  0.35723482280E+03  0.00000000000E+00 0. -1.
         22    1    5    5    0    0  0.35055680617E+03 -0.10767327732E+03  0.28160070546E+03  0.46236626857E+03  0.00000000000E+00 0. -1.
          5    1    4    4  502    0 -0.26254549126E+02  0.18403129767E+02  0.10560166591E+03  0.11046166022E+03  0.47000000000E+01 0.  1.
         -5    1    4    4    0  502  0.36591058420E+00  0.10032641155E+03  0.14486127713E+02  0.10147640436E+03  0.47000000000E+01 0.  1.
<mgrwt>
<rscale>  0 0.10000123E+04</rscale>
<asrwt>0</asrwt>
<pdfrwt beam="1">  1        1 0.59881622E-01 0.10000123E+04</pdfrwt>
<pdfrwt beam="2">  1       -1 0.98816710E-01 0.10000123E+04</pdfrwt>
<totfact> 0.72962468E+01</totfact>
</mgrwt>
</event>
<event>
 9    1  0.4236486E-036  0.9991678E+03  0.7818608E-02  0.8681831E-01
         -2   -1    0    0    0  501 -0.00000000000E+00  0.00000000000E+00  0.27284426158E+03  0.27284426158E+03  0.00000000000E+00 0.  1.
          2   -1    0    0  501    0  0.00000000000E+00 -0.00000000000E+00 -0.91474918123E+03  0.91474918123E+03  0.00000000000E+00 0.  1.
         36    2    1    2    0    0  0.00000000000E+00 -0.14210854715E-13 -0.64190491964E+03  0.11875934428E+04  0.99916778347E+03 0.  0.
         25    2    3    3    0    0  0.12174293642E+03 -0.62057486523E+02 -0.14383956050E+03  0.23456803730E+03  0.12513940529E+03 0.  0.
         35    2    3    3    0    0 -0.12174293642E+03  0.62057486523E+02 -0.49806535914E+03  0.95302540551E+03  0.80094684428E+03 0.  0.
         22    1    5    5    0    0 -0.24625194999E+02 -0.16349385052E+03  0.17248023439E+03  0.23892691486E+03  0.00000000000E+00 0. -1.
         22    1    5    5    0    0 -0.97117741419E+02  0.22555133704E+03 -0.67054559354E+03  0.71409849065E+03  0.00000000000E+00 0. -1.
          5    1    4    4  502    0  0.13596747440E+03 -0.44713902613E+02 -0.74271234596E+02  0.16132201793E+03  0.47000000000E+01 0.  1.
         -5    1    4    4    0  502 -0.14224537981E+02 -0.17343583910E+02 -0.69568325905E+02  0.73246019365E+02  0.47000000000E+01 0.  1.
<mgrwt>
<rscale>  0 0.99916778E+03</rscale>
<asrwt>0</asrwt>
<pdfrwt beam="1">  1        2 0.14073065E+00 0.99916778E+03</pdfrwt>
<pdfrwt beam="2">  1       -2 0.41976040E-01 0.99916778E+03</pdfrwt>
<totfact> 0.18643445E+02</totfact>
</mgrwt>
</event>
<event>
 9    1  0.4236486E-036  0.1000198E+04  0.7818608E-02  0.8680849E-01
          2   -1    0    0  501    0  0.00000000000E+00  0.00000000000E+00  0.86540671884E+03  0.86540671884E+03  0.00000000000E+00 0. -1.
         -2   -1    0    0    0  501 -0.00000000000E+00 -0.00000000000E+00 -0.28899619767E+03  0.28899619767E+03  0.00000000000E+00 0. -1.
         36    2    1    2    0    0 -0.14210854715E-13  0.00000000000E+00  0.57641052117E+03  0.11544029165E+04  0.10001984827E+04 0.  0.
         25    2    3    3    0    0  0.36872793205E+02 -0.10758658437E+03  0.12622425897E+02  0.16859177655E+03  0.12381189551E+03 0.  0.
         35    2    3    3    0    0 -0.36872793205E+02  0.10758658437E+03  0.56378809527E+03  0.98581113996E+03  0.80064480969E+03 0.  0.
         22    1    5    5    0    0  0.13701816467E+03  0.16144750006E+03  0.71716300131E+03  0.74777138430E+03  0.00000000000E+00 0. -1.
         22    1    5    5    0    0 -0.17389095787E+03 -0.53860915691E+02 -0.15337490604E+03  0.23803975566E+03  0.00000000000E+00 0. -1.
          5    1    4    4  502    0  0.72468172602E+02 -0.91514892495E+02 -0.18690573970E+02  0.11831330924E+03  0.47000000000E+01 0. -1.
         -5    1    4    4    0  502 -0.35595379397E+02 -0.16071691877E+02  0.31312999867E+02  0.50278467308E+02  0.47000000000E+01 0. -1.
<mgrwt>
<rscale>  0 0.10001985E+04</rscale>
<asrwt>0</asrwt>
<pdfrwt beam="1">  1        2 0.13313949E+00 0.10001985E+04</pdfrwt>
<pdfrwt beam="2">  1       -2 0.44460954E-01 0.10001985E+04</pdfrwt>
<totfact> 0.17975720E+02</totfact>
</mgrwt>
</event>
<event>
 9    1  0.4236486E-036  0.1000465E+04  0.7818608E-02  0.8680595E-01
          2   -1    0    0  501    0  0.00000000000E+00  0.00000000000E+00  0.19190757672E+04  0.19190757672E+04  0.00000000000E+00 0. -1.
         -2   -1    0    0    0  501 -0.00000000000E+00 -0.00000000000E+00 -0.13039231878E+03  0.13039231878E+03  0.00000000000E+00 0. -1.
         36    2    1    2    0    0  0.00000000000E+00  0.00000000000E+00  0.17886834484E+04  0.20494680860E+04  0.10004653701E+04 0.  0.
         25    2    3    3    0    0 -0.14540913600E+02 -0.12865364206E+03  0.22616348601E+03  0.28934225603E+03  0.12572120322E+03 0.  0.
         35    2    3    3    0    0  0.14540913600E+02  0.12865364206E+03  0.15625199624E+04  0.17601258299E+04  0.79988193286E+03 0.  0.
         22    1    5    5    0    0 -0.19725957163E+03 -0.27542324601E+03  0.83855254977E+03  0.90440017789E+03  0.00000000000E+00 0.  1.
         22    1    5    5    0    0  0.21180048523E+03  0.40407688807E+03  0.72396741262E+03  0.85572565204E+03  0.00000000000E+00 0.  1.
          5    1    4    4  502    0  0.36290353207E+02 -0.12372001113E+03  0.15616859005E+03  0.20256936937E+03  0.47000000000E+01 0. -1.
         -5    1    4    4    0  502 -0.50831266807E+02 -0.49336309328E+01  0.69994895960E+02  0.86772886663E+02  0.47000000000E+01 0. -1.
<mgrwt>
<rscale>  0 0.10004654E+04</rscale>
<asrwt>0</asrwt>
<pdfrwt beam="1">  1        2 0.29524241E+00 0.10004654E+04</pdfrwt>
<pdfrwt beam="2">  1       -2 0.20060358E-01 0.10004654E+04</pdfrwt>
<totfact> 0.18538369E+02</totfact>
</mgrwt>
</event>
<event>
 9    1  0.4236486E-036  0.1003786E+04  0.7818608E-02  0.8677441E-01
         -2   -1    0    0    0  501 -0.00000000000E+00  0.00000000000E+00  0.29830381158E+03  0.29830381158E+03  0.00000000000E+00 0. -1.
          2   -1    0    0  501    0  0.00000000000E+00 -0.00000000000E+00 -0.84443016639E+03  0.84443016639E+03  0.00000000000E+00 0. -1.
         36    2    1    2    0    0 -0.28421709430E-13  0.28421709430E-13 -0.54612635481E+03  0.11427339780E+04  0.10037863064E+04 0.  0.
         25    2    3    3    0    0  0.10670566583E+03  0.87004131729E+02 -0.14626670384E+03  0.23735334014E+03  0.12643908163E+03 0.  0.
         35    2    3    3    0    0 -0.10670566583E+03 -0.87004131729E+02 -0.39985965096E+03  0.90538063784E+03  0.80054390313E+03 0.  0.
         22    1    5    5    0    0  0.15477317119E+03  0.30345476317E+03 -0.13905570690E+03  0.36793480052E+03  0.00000000000E+00 0.  1.
         22    1    5    5    0    0 -0.26147883702E+03 -0.39045889490E+03 -0.26080394407E+03  0.53744583732E+03  0.00000000000E+00 0.  1.
          5    1    4    4  502    0  0.46518215687E+02  0.10797254035E+03 -0.66536092033E+02  0.13517083785E+03  0.47000000000E+01 0. -1.
         -5    1    4    4    0  502  0.60187450142E+02 -0.20968408624E+02 -0.79730611811E+02  0.10218250229E+03  0.47000000000E+01 0. -1.
<mgrwt>
<rscale>  0 0.10037863E+04</rscale>
<asrwt>0</asrwt>
<pdfrwt beam="1">  1        2 0.12991233E+00 0.10037863E+04</pdfrwt>
<pdfrwt beam="2">  1       -2 0.45892895E-01 0.10037863E+04</pdfrwt>
<totfact> 0.17452620E+02</totfact>
</mgrwt>
</event>
<event>
 9    1  0.4236486E-036  0.1000140E+04  0.7818608E-02  0.8680904E-01
          2   -1    0    0  501    0  0.00000000000E+00  0.00000000000E+00  0.27715196316E+03  0.27715196316E+03  0.00000000000E+00 0. -1.
         -2   -1    0    0    0  501 -0.00000000000E+00 -0.00000000000E+00 -0.90228532758E+03  0.90228532758E+03  0.00000000000E+00 0. -1.
         36    2    1    2    0    0  0.00000000000E+00  0.14210854715E-13 -0.62513336442E+03  0.11794372907E+04  0.10001402899E+04 0.  0.
         25    2    3    3    0    0  0.11126447135E+03 -0.80798557864E+02 -0.59117833729E+02  0.19470116163E+03  0.12452081969E+03 0.  0.
         35    2    3    3    0    0 -0.11126447135E+03  0.80798557864E+02 -0.56601553069E+03  0.98473612912E+03  0.79399211172E+03 0.  0.
         22    1    5    5    0    0  0.18969823260E+03 -0.37650511561E+00  0.12464848291E+03  0.22698635531E+03  0.00000000000E+00 0. -1.
         22    1    5    5    0    0 -0.30096270395E+03  0.81175062980E+02 -0.69066401360E+03  0.75774977380E+03  0.00000000000E+00 0. -1.
          5    1    4    4  502    0  0.12080731635E+03 -0.18853405487E+02 -0.44243896939E+02  0.13011330062E+03  0.47000000000E+01 0. -1.
         -5    1    4    4    0  502 -0.95428450019E+01 -0.61945152377E+02 -0.14873936790E+02  0.64587861006E+02  0.47000000000E+01 0. -1.
<mgrwt>
<rscale>  0 0.10001403E+04</rscale>
<asrwt>0</asrwt>
<pdfrwt beam="1">  1        2 0.42638764E-01 0.10001403E+04</pdfrwt>
<pdfrwt beam="2">  1       -2 0.13881313E+00 0.10001403E+04</pdfrwt>
<totfact> 0.50384019E+01</totfact>
</mgrwt>
</event>
<event>
 9    1  0.4236486E-036  0.9969584E+03  0.7818608E-02  0.8683940E-01
          2   -1    0    0  501    0  0.00000000000E+00  0.00000000000E+00  0.62800567962E+03  0.62800567962E+03  0.00000000000E+00 0.  1.
         -2   -1    0    0    0  501 -0.00000000000E+00 -0.00000000000E+00 -0.39566759633E+03  0.39566759633E+03  0.00000000000E+00 0.  1.
         36    2    1    2    0    0  0.28421709430E-13  0.14210854715E-13  0.23233808329E+03  0.10236732760E+04  0.99695836972E+03 0.  0.
         25    2    3    3    0    0  0.10697073664E+03  0.75332328933E+02  0.13249174046E+02  0.18251358008E+03  0.12656211132E+03 0.  0.
         35    2    3    3    0    0 -0.10697073664E+03 -0.75332328933E+02  0.21908890924E+03  0.84115969588E+03  0.80151854971E+03 0.  0.
         22    1    5    5    0    0 -0.43693188087E+03  0.84546085092E+02  0.13382192602E+03  0.46472122494E+03  0.00000000000E+00 0.  1.
         22    1    5    5    0    0  0.32996114423E+03 -0.15987841403E+03  0.85266983221E+02  0.37643847094E+03  0.00000000000E+00 0.  1.
          5    1    4    4  502    0  0.49903301361E+02 -0.11923518313E+02  0.50068022695E+02  0.71842930565E+02  0.47000000000E+01 0. -1.
         -5    1    4    4    0  502  0.57067435278E+02  0.87255847246E+02 -0.36818848649E+02  0.11067064951E+03  0.47000000000E+01 0. -1.
<mgrwt>
<rscale>  0 0.99695837E+03</rscale>
<asrwt>0</asrwt>
<pdfrwt beam="1">  1        2 0.96616258E-01 0.99695837E+03</pdfrwt>
<pdfrwt beam="2">  1       -2 0.60871938E-01 0.99695837E+03</pdfrwt>
<totfact> 0.14256462E+02</totfact>
</mgrwt>
</event>
<event>
 9    1  0.4236486E-036  0.9992422E+03  0.7818608E-02  0.8681760E-01
         -1   -1    0    0    0  501 -0.00000000000E+00  0.00000000000E+00  0.18889151337E+03  0.18889151337E+03  0.00000000000E+00 0.  1.
          1   -1    0    0  501    0  0.00000000000E+00 -0.00000000000E+00 -0.13215059867E+04  0.13215059867E+04  0.00000000000E+00 0.  1.
         36    2    1    2    0    0 -0.28421709430E-13  0.00000000000E+00 -0.11326144734E+04  0.15103975001E+04  0.99924224443E+03 0.  0.
         25    2    3    3    0    0  0.92491464646E+02 -0.42278015678E+02 -0.35251747845E+03  0.38739658908E+03  0.12436013420E+03 0.  0.
         35    2    3    3    0    0 -0.92491464646E+02  0.42278015678E+02 -0.78009699491E+03  0.11230009110E+04  0.80139729413E+03 0.  0.
         22    1    5    5    0    0  0.14840650145E+03  0.20977144474E+02 -0.85639573657E+03  0.86941255332E+03  0.00000000000E+00 0.  1.
         22    1    5    5    0    0 -0.24089796610E+03  0.21300871204E+02  0.76298741656E+02  0.25358835770E+03  0.00000000000E+00 0.  1.
          5    1    4    4  502    0  0.38853295569E+02 -0.52557423825E+02 -0.31308963795E+03  0.31987352620E+03  0.47000000000E+01 0. -1.
         -5    1    4    4    0  502  0.53638169078E+02  0.10279408147E+02 -0.39427840497E+02  0.67523062876E+02  0.47000000000E+01 0. -1.
<mgrwt>
<rscale>  0 0.99924224E+03</rscale>
<asrwt>0</asrwt>
<pdfrwt beam="1">  1        1 0.20330862E+00 0.99924224E+03</pdfrwt>
<pdfrwt beam="2">  1       -1 0.29060232E-01 0.99924224E+03</pdfrwt>
<totfact> 0.10295556E+02</totfact>
</mgrwt>
</event>
<event>
 9    1  0.4236486E-036  0.9985706E+03  0.7818608E-02  0.8682400E-01
         -2   -1    0    0    0  501 -0.00000000000E+00  0.00000000000E+00  0.67776857605E+03  0.67776857605E+03  0.00000000000E+00 0. -1.
          2   -1    0    0  501    0  0.00000000000E+00 -0.00000000000E+00 -0.36780373993E+03  0.36780373993E+03  0.00000000000E+00 0. -1.
         36    2    1    2    0    0 -0.14210854715E-13 -0.14210854715E-13  0.30996483612E+03  0.10455723160E+04  0.99857061259E+03 0.  0.
         25    2    3    3    0    0  0.36744798927E+02 -0.67089570603E+02 -0.66374829570E+02  0.15783136464E+03  0.12105342181E+03 0.  0.
         35    2    3    3    0    0 -0.36744798927E+02  0.67089570603E+02  0.37633966569E+03  0.88774095135E+03  0.80037570052E+03 0.  0.
         22    1    5    5    0    0 -0.24229843574E+03  0.22395900857E+03  0.50162713040E+03  0.60041314728E+03  0.00000000000E+00 0. -1.
         22    1    5    5    0    0  0.20555363681E+03 -0.15686943797E+03 -0.12528746470E+03  0.28732780406E+03  0.00000000000E+00 0. -1.
          5    1    4    4  502    0  0.33025222497E+02  0.23351061664E+02  0.68734261972E+01  0.41294931766E+02  0.47000000000E+01 0.  1.
         -5    1    4    4    0  502  0.37195764293E+01 -0.90440632268E+02 -0.73248255767E+02  0.11653643287E+03  0.47000000000E+01 0.  1.
<mgrwt>
<rscale>  0 0.99857061E+03</rscale>
<asrwt>0</asrwt>
<pdfrwt beam="1">  1        2 0.56585191E-01 0.99857061E+03</pdfrwt>
<pdfrwt beam="2">  1       -2 0.10427209E+00 0.99857061E+03</pdfrwt>
<totfact> 0.77372534E+01</totfact>
</mgrwt>
</event>
<event>
 9    1  0.4236486E-036  0.9991824E+03  0.7818608E-02  0.8681817E-01
          2   -1    0    0  501    0  0.00000000000E+00  0.00000000000E+00  0.40921619473E+04  0.40921619473E+04  0.00000000000E+00 0.  1.
         -2   -1    0    0    0  501 -0.00000000000E+00 -0.00000000000E+00 -0.60992547599E+02  0.60992547599E+02  0.00000000000E+00 0.  1.
         36    2    1    2    0    0 -0.14210854715E-13  0.00000000000E+00  0.40311693997E+04  0.41531544949E+04  0.99918243050E+03 0.  0.
         25    2    3    3    0    0 -0.28762731788E+02 -0.83448289269E+02  0.30437396222E+03  0.34067087385E+03  0.12498889428E+03 0.  0.
         35    2    3    3    0    0  0.28762731788E+02  0.83448289269E+02  0.37267954374E+04  0.38124836210E+04  0.79889687456E+03 0.  0.
         22    1    5    5    0    0 -0.18891409175E+03  0.11688892279E+03  0.27432167500E+03  0.35299282671E+03  0.00000000000E+00 0.  1.
         22    1    5    5    0    0  0.21767682354E+03 -0.33440633523E+02  0.34524737624E+04  0.34594907943E+04  0.00000000000E+00 0.  1.
          5    1    4    4  502    0 -0.27043523666E+02 -0.96212221973E+02  0.31007931207E+03  0.32582113744E+03  0.47000000000E+01 0.  1.
         -5    1    4    4    0  502 -0.17192081218E+01  0.12763932705E+02 -0.57053498498E+01  0.14849736414E+02  0.47000000000E+01 0.  1.
<mgrwt>
<rscale>  0 0.99918243E+03</rscale>
<asrwt>0</asrwt>
<pdfrwt beam="1">  1        2 0.62956316E+00 0.99918243E+03</pdfrwt>
<pdfrwt beam="2">  1       -2 0.93834721E-02 0.99918243E+03</pdfrwt>
<totfact> 0.20886952E+01</totfact>
</mgrwt>
</event>
<event>
 9    1  0.4236486E-036  0.9999606E+03  0.7818608E-02  0.8681075E-01
          2   -1    0    0  501    0  0.00000000000E+00  0.00000000000E+00  0.65543270683E+03  0.65543270683E+03  0.00000000000E+00 0.  1.
         -2   -1    0    0    0  501 -0.00000000000E+00 -0.00000000000E+00 -0.38139733842E+03  0.38139733842E+03  0.00000000000E+00 0.  1.
         36    2    1    2    0    0  0.88817841970E-14  0.00000000000E+00  0.27403536841E+03  0.10368300453E+04  0.99996057902E+03 0.  0.
         25    2    3    3    0    0 -0.47910907286E+01 -0.44243524040E+02 -0.86430812074E+02  0.15805835178E+03  0.12462629467E+03 0.  0.
         35    2    3    3    0    0  0.47910907286E+01  0.44243524040E+02  0.36046618048E+03  0.87877169347E+03  0.80020208573E+03 0.  0.
         22    1    5    5    0    0 -0.36816567847E+03 -0.51870182935E+02  0.33052966188E+02  0.37326797513E+03  0.00000000000E+00 0.  1.
         22    1    5    5    0    0  0.37295676920E+03  0.96113706975E+02  0.32741321429E+03  0.50550371834E+03  0.00000000000E+00 0.  1.
          5    1    4    4  502    0 -0.13788703614E+02 -0.76618081369E+02 -0.95148469130E+02  0.12302755755E+03  0.47000000000E+01 0.  1.
         -5    1    4    4    0  502  0.89976128853E+01  0.32374557329E+02  0.87176570560E+01  0.35030794231E+02  0.47000000000E+01 0.  1.
<mgrwt>
<rscale>  0 0.99996058E+03</rscale>
<asrwt>0</asrwt>
<pdfrwt beam="1">  1        2 0.10083580E+00 0.99996058E+03</pdfrwt>
<pdfrwt beam="2">  1       -2 0.58676513E-01 0.99996058E+03</pdfrwt>
<totfact> 0.14617855E+02</totfact>
</mgrwt>
</event>
<event>
 9    1  0.4236486E-036  0.1000473E+04  0.7818608E-02  0.8680587E-01
          2   -1    0    0  501    0  0.00000000000E+00  0.00000000000E+00  0.23198275676E+03  0.23198275676E+03  0.00000000000E+00 0. -1.
         -2   -1    0    0    0  501 -0.00000000000E+00 -0.00000000000E+00 -0.10786870621E+04  0.10786870621E+04  0.00000000000E+00 0. -1.
         36    2    1    2    0    0 -0.28421709430E-13  0.14210854715E-13 -0.84670430530E+03  0.13106698188E+04  0.10004734846E+04 0.  0.
         25    2    3    3    0    0  0.51425063897E+02  0.25049967952E+02 -0.31666161067E+03  0.34991117967E+03  0.13744533419E+03 0.  0.
         35    2    3    3    0    0 -0.51425063897E+02 -0.25049967952E+02 -0.53004269463E+03  0.96075863915E+03  0.79927458766E+03 0.  0.
         22    1    5    5    0    0 -0.29267314958E+03 -0.19155834872E+03 -0.56606938891E+03  0.66542221672E+03  0.00000000000E+00 0.  1.
         22    1    5    5    0    0  0.24124808568E+03  0.16650838077E+03  0.36026694284E+02  0.29533642243E+03  0.00000000000E+00 0.  1.
          5    1    4    4  502    0  0.65066974043E+02 -0.43767891462E+02 -0.16760669776E+03  0.18510384806E+03  0.47000000000E+01 0. -1.
         -5    1    4    4    0  502 -0.13641910146E+02  0.68817859414E+02 -0.14905491291E+03  0.16480733160E+03  0.47000000000E+01 0. -1.
<mgrwt>
<rscale>  0 0.10004735E+04</rscale>
<asrwt>0</asrwt>
<pdfrwt beam="1">  1        2 0.35689655E-01 0.10004735E+04</pdfrwt>
<pdfrwt beam="2">  1       -2 0.16595186E+00 0.10004735E+04</pdfrwt>
<totfact> 0.37234087E+01</totfact>
</mgrwt>
</event>
<event>
 9    1  0.4236486E-036  0.9997957E+03  0.7818608E-02  0.8681233E-01
         -1   -1    0    0    0  501 -0.00000000000E+00  0.00000000000E+00  0.50852368459E+03  0.50852368459E+03  0.00000000000E+00 0. -1.
          1   -1    0    0  501    0  0.00000000000E+00 -0.00000000000E+00 -0.49141828380E+03  0.49141828380E+03  0.00000000000E+00 0. -1.
         36    2    1    2    0    0 -0.14210854715E-13 -0.14210854715E-13  0.17105400790E+02  0.99994196838E+03  0.99979565182E+03 0.  0.
         25    2    3    3    0    0  0.16577769553E+02 -0.12482809128E+03 -0.60560850043E+02  0.18723709628E+03  0.12463241491E+03 0.  0.
         35    2    3    3    0    0 -0.16577769553E+02  0.12482809128E+03  0.77666250834E+02  0.81270487210E+03  0.79912470104E+03 0.  0.
         22    1    5    5    0    0 -0.14922522288E+03 -0.88376573232E+02  0.38118343511E+03  0.41878323396E+03  0.00000000000E+00 0. -1.
         22    1    5    5    0    0  0.13264745333E+03  0.21320466452E+03 -0.30351718428E+03  0.39392163815E+03  0.00000000000E+00 0. -1.
          5    1    4    4  502    0 -0.45786541749E+02 -0.14808997536E+02 -0.30487339830E+02  0.57160140861E+02  0.47000000000E+01 0. -1.
         -5    1    4    4    0  502  0.62364311302E+02 -0.11001909375E+03 -0.30073510213E+02  0.13007695542E+03  0.47000000000E+01 0. -1.
<mgrwt>
<rscale>  0 0.99979565E+03</rscale>
<asrwt>0</asrwt>
<pdfrwt beam="1">  1        1 0.75602813E-01 0.99979565E+03</pdfrwt>
<pdfrwt beam="2">  1       -1 0.78234413E-01 0.99979565E+03</pdfrwt>
<totfact> 0.87732671E+01</totfact>
</mgrwt>
</event>
<event>
 9    1  0.4236486E-036  0.9996905E+03  0.7818608E-02  0.8681333E-01
          2   -1    0    0  501    0  0.00000000000E+00  0.00000000000E+00  0.53440580510E+03  0.53440580510E+03  0.00000000000E+00 0. -1.
         -2   -1    0    0    0  501 -0.00000000000E+00 -0.00000000000E+00 -0.46751976678E+03  0.46751976678E+03  0.00000000000E+00 0. -1.
         36    2    1    2    0    0  0.14210854715E-13  0.28421709430E-13  0.66886038317E+02  0.10019255719E+04  0.99969050683E+03 0.  0.
         25    2    3    3    0    0 -0.73111823408E+02  0.11568228704E+03 -0.55899067373E+01  0.18661265649E+03  0.12674898913E+03 0.  0.
         35    2    3    3    0    0  0.73111823408E+02 -0.11568228704E+03  0.72475945054E+02  0.81531291539E+03  0.80047152175E+03 0.  0.
         22    1    5    5    0    0 -0.79628858630E+02  0.26914809333E+03 -0.17709297554E+03  0.33187855197E+03  0.00000000000E+00 0.  1.
         22    1    5    5    0    0  0.15274068204E+03 -0.38483038038E+03  0.24956892059E+03  0.48343436342E+03  0.00000000000E+00 0.  1.
          5    1    4    4  502    0 -0.69029813039E+02 -0.13847506201E+01  0.77095739965E+00  0.69207781338E+02  0.47000000000E+01 0.  1.
         -5    1    4    4    0  502 -0.40820103691E+01  0.11706703766E+03 -0.63608641369E+01  0.11740487515E+03  0.47000000000E+01 0.  1.
<mgrwt>
<rscale>  0 0.99969051E+03</rscale>
<asrwt>0</asrwt>
<pdfrwt beam="1">  1        2 0.82216277E-01 0.99969051E+03</pdfrwt>
<pdfrwt beam="2">  1       -2 0.71926118E-01 0.99969051E+03</pdfrwt>
<totfact> 0.12062427E+02</totfact>
</mgrwt>
</event>
<event>
 9    1  0.4236486E-036  0.9991963E+03  0.7818608E-02  0.8681804E-01
         -2   -1    0    0    0  501 -0.00000000000E+00  0.00000000000E+00  0.92279092194E+03  0.92279092194E+03  0.00000000000E+00 0.  1.
          2   -1    0    0  501    0  0.00000000000E+00 -0.00000000000E+00 -0.27048194922E+03  0.27048194922E+03  0.00000000000E+00 0.  1.
         36    2    1    2    0    0  0.14210854715E-13  0.71054273576E-14  0.65230897272E+03  0.11932728712E+04  0.99919625157E+03 0.  0.
         25    2    3    3    0    0  0.86279234033E+02  0.61793564471E+02  0.22554248990E+03  0.27890930323E+03  0.12513366389E+03 0.  0.
         35    2    3    3    0    0 -0.86279234033E+02 -0.61793564471E+02  0.42676648281E+03  0.91436356793E+03  0.80166611047E+03 0.  0.
         22    1    5    5    0    0 -0.41594821610E+03 -0.56931297048E+02  0.40596235981E+03  0.58400302109E+03  0.00000000000E+00 0.  1.
         22    1    5    5    0    0  0.32966898206E+03 -0.48622674234E+01  0.20804123003E+02  0.33036054685E+03  0.00000000000E+00 0.  1.
          5    1    4    4  502    0  0.44769245793E+02  0.97143254494E+02  0.12626243435E+03  0.16554573263E+03  0.47000000000E+01 0. -1.
         -5    1    4    4    0  502  0.41509988241E+02 -0.35349690023E+02  0.99280055550E+02  0.11336357060E+03  0.47000000000E+01 0. -1.
<mgrwt>
<rscale>  0 0.99919625E+03</rscale>
<asrwt>0</asrwt>
<pdfrwt beam="1">  1        2 0.41612608E-01 0.99919625E+03</pdfrwt>
<pdfrwt beam="2">  1       -2 0.14196783E+00 0.99919625E+03</pdfrwt>
<totfact> 0.48690016E+01</totfact>
</mgrwt>
</event>
<event>
 9    1  0.4236486E-036  0.9994963E+03  0.7818608E-02  0.8681518E-01
          2   -1    0    0  501    0  0.00000000000E+00  0.00000000000E+00  0.51928071756E+03  0.51928071756E+03  0.00000000000E+00 0. -1.
         -2   -1    0    0    0  501 -0.00000000000E+00 -0.00000000000E+00 -0.48095026342E+03  0.48095026342E+03  0.00000000000E+00 0. -1.
         36    2    1    2    0    0  0.00000000000E+00  0.28421709430E-13  0.38330454134E+02  0.10002309810E+04  0.99949626893E+03 0.  0.
         25    2    3    3    0    0 -0.21345670785E+01  0.92864255415E+02 -0.99095882010E+02  0.18323192511E+03  0.12298625223E+03 0.  0.
         35    2    3    3    0    0  0.21345670785E+01 -0.92864255415E+02  0.13742633614E+03  0.81699905588E+03  0.79998320803E+03 0.  0.
         22    1    5    5    0    0  0.18170631393E+03  0.28797540813E+03  0.19442375157E+03  0.39210663777E+03  0.00000000000E+00 0. -1.
         22    1    5    5    0    0 -0.17957174685E+03 -0.38083966355E+03 -0.56997415422E+02  0.42489241811E+03  0.00000000000E+00 0. -1.
          5    1    4    4  502    0  0.24705808809E+02  0.75987724915E+02 -0.10159540713E+01  0.80047695091E+02  0.47000000000E+01 0.  1.
         -5    1    4    4    0  502 -0.26840375887E+02  0.16876530500E+02 -0.98079927939E+02  0.10318423002E+03  0.47000000000E+01 0.  1.
<mgrwt>
<rscale>  0 0.99949627E+03</rscale>
<asrwt>0</asrwt>
<pdfrwt beam="1">  1        2 0.79889341E-01 0.99949627E+03</pdfrwt>
<pdfrwt beam="2">  1       -2 0.73992349E-01 0.99949627E+03</pdfrwt>
<totfact> 0.11714936E+02</totfact>
</mgrwt>
</event>
<event>
 9    1  0.4236486E-036  0.9997362E+03  0.7818608E-02  0.8681289E-01
         -2   -1    0    0    0  501 -0.00000000000E+00  0.00000000000E+00  0.42190395769E+03  0.42190395769E+03  0.00000000000E+00 0. -1.
          2   -1    0    0  501    0  0.00000000000E+00 -0.00000000000E+00 -0.59223933969E+03  0.59223933969E+03  0.00000000000E+00 0. -1.
         36    2    1    2    0    0 -0.42632564146E-13 -0.14210854715E-13 -0.17033538200E+03  0.10141432974E+04  0.99973620783E+03 0.  0.
         25    2    3    3    0    0  0.56954027782E+02  0.12663191437E+03 -0.37466658413E+02  0.19181543906E+03  0.12692521086E+03 0.  0.
         35    2    3    3    0    0 -0.56954027782E+02 -0.12663191437E+03 -0.13286872359E+03  0.82232785831E+03  0.79955588037E+03 0.  0.
         22    1    5    5    0    0 -0.42155761933E+03 -0.14070298303E+03 -0.42623218996E+02  0.44645816674E+03  0.00000000000E+00 0.  1.
         22    1    5    5    0    0  0.36460359155E+03  0.14071068659E+02 -0.90245504595E+02  0.37586969157E+03  0.00000000000E+00 0.  1.
          5    1    4    4  502    0 -0.20939895023E+02  0.21725938232E+02 -0.51957765088E+02  0.60267694070E+02  0.47000000000E+01 0. -1.
         -5    1    4    4    0  502  0.77893922805E+02  0.10490597614E+03  0.14491106675E+02  0.13154774499E+03  0.47000000000E+01 0. -1.
<mgrwt>
<rscale>  0 0.99973621E+03</rscale>
<asrwt>0</asrwt>
<pdfrwt beam="1">  1        2 0.91113745E-01 0.99973621E+03</pdfrwt>
<pdfrwt beam="2">  1       -2 0.64908301E-01 0.99973621E+03</pdfrwt>
<totfact> 0.13348930E+02</totfact>
</mgrwt>
</event>
<event>
 9    1  0.4236486E-036  0.1001152E+04  0.7818608E-02  0.8679942E-01
          1   -1    0    0  501    0  0.00000000000E+00  0.00000000000E+00  0.90316710548E+03  0.90316710548E+03  0.00000000000E+00 0. -1.
         -1   -1    0    0    0  501 -0.00000000000E+00 -0.00000000000E+00 -0.27744175418E+03  0.27744175418E+03  0.00000000000E+00 0. -1.
         36    2    1    2    0    0  0.00000000000E+00  0.14210854715E-13  0.62572535130E+03  0.11806088597E+04  0.10011518687E+04 0.  0.
         25    2    3    3    0    0  0.10737815784E+03 -0.90295516525E+02  0.10950725793E+03  0.21784306859E+03  0.12562011745E+03 0.  0.
         35    2    3    3    0    0 -0.10737815784E+03  0.90295516525E+02  0.51621809337E+03  0.96276579108E+03  0.80047079863E+03 0.  0.
         22    1    5    5    0    0 -0.36821668827E+03  0.18459318170E+03  0.54585727342E+03  0.68382624635E+03  0.00000000000E+00 0.  1.
         22    1    5    5    0    0  0.26083853043E+03 -0.94297665171E+02 -0.29639180056E+02  0.27893954472E+03  0.00000000000E+00 0.  1.
          5    1    4    4  502    0  0.65334989415E+02 -0.56297369364E+02  0.13309588314E+03  0.15866524115E+03  0.47000000000E+01 0.  1.
         -5    1    4    4    0  502  0.42043168425E+02 -0.33998147161E+02 -0.23588625208E+02  0.59177827442E+02  0.47000000000E+01 0.  1.
<mgrwt>
<rscale>  0 0.10011519E+04</rscale>
<asrwt>0</asrwt>
<pdfrwt beam="1">  1        1 0.13894878E+00 0.10011519E+04</pdfrwt>
<pdfrwt beam="2">  1       -1 0.42683347E-01 0.10011519E+04</pdfrwt>
<totfact> 0.11028492E+02</totfact>
</mgrwt>
</event>
<event>
 9    1  0.4236486E-036  0.1000208E+04  0.7818608E-02  0.8680840E-01
         -3   -1    0    0    0  501 -0.00000000000E+00  0.00000000000E+00  0.34881565086E+03  0.34881565086E+03  0.00000000000E+00 0.  1.
          3   -1    0    0  501    0  0.00000000000E+00 -0.00000000000E+00 -0.71700916647E+03  0.71700916647E+03  0.00000000000E+00 0.  1.
         36    2    1    2    0    0 -0.14210854715E-13  0.14210854715E-13 -0.36819351561E+03  0.10658248173E+04  0.10002080165E+04 0.  0.
         25    2    3    3    0    0 -0.78855530784E+02  0.65867982211E+02  0.35648747383E+02  0.16550036104E+03  0.12475075350E+03 0.  0.
         35    2    3    3    0    0  0.78855530784E+02 -0.65867982211E+02 -0.40384226299E+03  0.90032445628E+03  0.79808443625E+03 0.  0.
         22    1    5    5    0    0  0.92959728440E+02  0.35943958476E+03 -0.12579633749E+03  0.39199878154E+03  0.00000000000E+00 0. -1.
         22    1    5    5    0    0 -0.14104197656E+02 -0.42530756697E+03 -0.27804592550E+03  0.50832567474E+03  0.00000000000E+00 0. -1.
          5    1    4    4  502    0 -0.85051058790E+01  0.55456200700E+01 -0.42647355280E+02  0.44090561806E+02  0.47000000000E+01 0. -1.
         -5    1    4    4    0  502 -0.70350424905E+02  0.60322362141E+02  0.78296102663E+02  0.12140979924E+03  0.47000000000E+01 0. -1.
<mgrwt>
<rscale>  0 0.10002080E+04</rscale>
<asrwt>0</asrwt>
<pdfrwt beam="1">  1        3 0.11030910E+00 0.10002080E+04</pdfrwt>
<pdfrwt beam="2">  1       -3 0.53663946E-01 0.10002080E+04</pdfrwt>
<totfact> 0.99316844E+00</totfact>
</mgrwt>
</event>
<event>
 9    1  0.4236486E-036  0.9996800E+03  0.7818608E-02  0.8681343E-01
          1   -1    0    0  501    0  0.00000000000E+00  0.00000000000E+00  0.53118108290E+03  0.53118108290E+03  0.00000000000E+00 0.  1.
         -1   -1    0    0    0  501 -0.00000000000E+00 -0.00000000000E+00 -0.47034809260E+03  0.47034809260E+03  0.00000000000E+00 0.  1.
         36    2    1    2    0    0  0.00000000000E+00 -0.28421709430E-13  0.60832990308E+02  0.10015291755E+04  0.99967996713E+03 0.  0.
         25    2    3    3    0    0 -0.86217193562E+02  0.83942718832E+02 -0.56595680528E+02  0.18269213929E+03  0.12527394857E+03 0.  0.
         35    2    3    3    0    0  0.86217193562E+02 -0.83942718832E+02  0.11742867084E+03  0.81883703622E+03  0.80138930280E+03 0.  0.
         22    1    5    5    0    0 -0.22761793906E+03  0.20375921723E+03  0.22535112253E+03  0.37961937940E+03  0.00000000000E+00 0. -1.
         22    1    5    5    0    0  0.31383513263E+03 -0.28770193606E+03 -0.10792245170E+03  0.43921765682E+03  0.00000000000E+00 0. -1.
          5    1    4    4  502    0 -0.13683098271E+02  0.97916179043E+02 -0.40503087013E+02  0.10694575894E+03  0.47000000000E+01 0.  1.
         -5    1    4    4    0  502 -0.72534095291E+02 -0.13973460212E+02 -0.16092593515E+02  0.75746380349E+02  0.47000000000E+01 0.  1.
<mgrwt>
<rscale>  0 0.99967997E+03</rscale>
<asrwt>0</asrwt>
<pdfrwt beam="1">  1        1 0.81720166E-01 0.99967997E+03</pdfrwt>
<pdfrwt beam="2">  1       -1 0.72361245E-01 0.99967997E+03</pdfrwt>
<totfact> 0.92244756E+01</totfact>
</mgrwt>
</event>
<event>
 9    1  0.4236486E-036  0.1000482E+04  0.7818608E-02  0.8680579E-01
         -1   -1    0    0    0  501 -0.00000000000E+00  0.00000000000E+00  0.78978278563E+03  0.78978278563E+03  0.00000000000E+00 0.  1.
          1   -1    0    0  501    0  0.00000000000E+00 -0.00000000000E+00 -0.31684824239E+03  0.31684824239E+03  0.00000000000E+00 0.  1.
         36    2    1    2    0    0 -0.14210854715E-13  0.31974423109E-13  0.47293454324E+03  0.11066310280E+04  0.10004824586E+04 0.  0.
         25    2    3    3    0    0 -0.12166702645E+03  0.35417569471E+01  0.16618335518E+03  0.24089758343E+03  0.12489727298E+03 0.  0.
         35    2    3    3    0    0  0.12166702645E+03 -0.35417569471E+01  0.30675118806E+03  0.86573344459E+03  0.80036410236E+03 0.  0.
         22    1    5    5    0    0 -0.10556934911E+03  0.31717413498E+03  0.33294693397E+03  0.47180290399E+03  0.00000000000E+00 0.  1.
         22    1    5    5    0    0  0.22723637556E+03 -0.32071589193E+03 -0.26195745907E+02  0.39393054060E+03  0.00000000000E+00 0.  1.
          5    1    4    4  502    0 -0.68608907933E+01 -0.84019211032E+01 -0.19152239444E+02  0.22506940628E+02  0.47000000000E+01 0.  1.
         -5    1    4    4    0  502 -0.11480613566E+03  0.11943678050E+02  0.18533559463E+03  0.21839064281E+03  0.47000000000E+01 0.  1.
<mgrwt>
<rscale>  0 0.10004825E+04</rscale>
<asrwt>0</asrwt>
<pdfrwt beam="1">  1        1 0.48745884E-01 0.10004825E+04</pdfrwt>
<pdfrwt beam="2">  1       -1 0.12150504E+00 0.10004825E+04</pdfrwt>
<totfact> 0.58883037E+01</totfact>
</mgrwt>
</event>
<event>
 9    1  0.4236486E-036  0.1000226E+04  0.7818608E-02  0.8680822E-01
         -1   -1    0    0    0  501 -0.00000000000E+00  0.00000000000E+00  0.64485753950E+03  0.64485753950E+03  0.00000000000E+00 0.  1.
          1   -1    0    0  501    0  0.00000000000E+00 -0.00000000000E+00 -0.38785808196E+03  0.38785808196E+03  0.00000000000E+00 0.  1.
         36    2    1    2    0    0  0.00000000000E+00  0.28421709430E-13  0.25699945754E+03  0.10327156215E+04  0.10002263912E+04 0.  0.
         25    2    3    3    0    0  0.24182791502E+01 -0.10448842393E+03  0.14732879451E+03  0.21938139200E+03  0.12449394626E+03 0.  0.
         35    2    3    3    0    0 -0.24182791502E+01  0.10448842393E+03  0.10967066303E+03  0.81333422946E+03  0.79910026634E+03 0.  0.
         22    1    5    5    0    0  0.27788443059E+02  0.23046132318E+03  0.41842650353E+03  0.47850324754E+03  0.00000000000E+00 0.  1.
         22    1    5    5    0    0 -0.30206722209E+02 -0.12597289925E+03 -0.30875584050E+03  0.33483098192E+03  0.00000000000E+00 0.  1.
          5    1    4    4  502    0  0.24840305502E+02 -0.91530563124E+02  0.16307755474E+03  0.18870946883E+03  0.47000000000E+01 0.  1.
         -5    1    4    4    0  502 -0.22422026352E+02 -0.12957860808E+02 -0.15748760233E+02  0.30671923176E+02  0.47000000000E+01 0.  1.
<mgrwt>
<rscale>  0 0.10002264E+04</rscale>
<asrwt>0</asrwt>
<pdfrwt beam="1">  1        1 0.59670474E-01 0.10002264E+04</pdfrwt>
<pdfrwt beam="2">  1       -1 0.99208852E-01 0.10002264E+04</pdfrwt>
<totfact> 0.72659547E+01</totfact>
</mgrwt>
</event>
<event>
 9    1  0.4236486E-036  0.9993386E+03  0.7818608E-02  0.8681668E-01
         -2   -1    0    0    0  501 -0.00000000000E+00  0.00000000000E+00  0.13778503886E+03  0.13778503886E+03  0.00000000000E+00 0.  1.
          2   -1    0    0  501    0  0.00000000000E+00 -0.00000000000E+00 -0.18120211503E+04  0.18120211503E+04  0.00000000000E+00 0.  1.
         36    2    1    2    0    0  0.00000000000E+00 -0.14210854715E-13 -0.16742361114E+04  0.19498061891E+04  0.99933859047E+03 0.  0.
         25    2    3    3    0    0 -0.11692178384E+03 -0.63100065986E+02 -0.33575894405E+03  0.38233243778E+03  0.12566504129E+03 0.  0.
         35    2    3    3    0    0  0.11692178384E+03  0.63100065986E+02 -0.13384771674E+04  0.15674737513E+04  0.80486055423E+03 0.  0.
         22    1    5    5    0    0 -0.30259831092E+01  0.20732447376E+03 -0.13626522763E+04  0.13783373390E+04  0.00000000000E+00 0.  1.
         22    1    5    5    0    0  0.11994776695E+03 -0.14422440777E+03  0.24175108912E+02  0.18913641237E+03  0.00000000000E+00 0.  1.
          5    1    4    4  502    0 -0.10830332073E+03 -0.95079457535E+02 -0.23050437180E+03  0.27188980846E+03  0.47000000000E+01 0. -1.
         -5    1    4    4    0  502 -0.86184631104E+01  0.31979391548E+02 -0.10525457225E+03  0.11044262932E+03  0.47000000000E+01 0. -1.
<mgrwt>
<rscale>  0 0.99933859E+03</rscale>
<asrwt>0</asrwt>
<pdfrwt beam="1">  1        2 0.27877245E+00 0.99933859E+03</pdfrwt>
<pdfrwt beam="2">  1       -2 0.21197701E-01 0.99933859E+03</pdfrwt>
<totfact> 0.19366121E+02</totfact>
</mgrwt>
</event>
<event>
 9    1  0.4236486E-036  0.1000306E+04  0.7818608E-02  0.8680747E-01
          1   -1    0    0  501    0  0.00000000000E+00  0.00000000000E+00  0.55982814342E+03  0.55982814342E+03  0.00000000000E+00 0.  1.
         -1   -1    0    0    0  501 -0.00000000000E+00 -0.00000000000E+00 -0.44683851479E+03  0.44683851479E+03  0.00000000000E+00 0.  1.
         36    2    1    2    0    0  0.10658141036E-13  0.00000000000E+00  0.11298962863E+03  0.10066666582E+04  0.10003055056E+04 0.  0.
         25    2    3    3    0    0 -0.10655046377E+02 -0.13284109548E+03 -0.22481329450E+02  0.18420754958E+03  0.12516678667E+03 0.  0.
         35    2    3    3    0    0  0.10655046377E+02  0.13284109548E+03  0.13547095808E+03  0.82245910863E+03  0.80020392290E+03 0.  0.
         22    1    5    5    0    0 -0.27832918413E+03 -0.39713375829E+02  0.33014362527E+03  0.43363475445E+03  0.00000000000E+00 0.  1.
         22    1    5    5    0    0  0.28898423051E+03  0.17255447131E+03 -0.19467266720E+03  0.38882435418E+03  0.00000000000E+00 0.  1.
          5    1    4    4  502    0 -0.20320501096E+02 -0.13694092124E+03  0.20216269571E+02  0.13998759313E+03  0.47000000000E+01 0. -1.
         -5    1    4    4    0  502  0.96654547186E+01  0.40998257567E+01 -0.42697599021E+02  0.44219956449E+02  0.47000000000E+01 0. -1.
<mgrwt>
<rscale>  0 0.10003055E+04</rscale>
<asrwt>0</asrwt>
<pdfrwt beam="1">  1        1 0.86127407E-01 0.10003055E+04</pdfrwt>
<pdfrwt beam="2">  1       -1 0.68744387E-01 0.10003055E+04</pdfrwt>
<totfact> 0.94811415E+01</totfact>
</mgrwt>
</event>
<event>
 9    1  0.4236486E-036  0.1012484E+04  0.7818608E-02  0.8669239E-01
         -1   -1    0    0    0  501 -0.00000000000E+00  0.00000000000E+00  0.10583088194E+04  0.10583088194E+04  0.00000000000E+00 0.  1.
          1   -1    0    0  501    0  0.00000000000E+00 -0.00000000000E+00 -0.24216097347E+03  0.24216097347E+03  0.00000000000E+00 0.  1.
         36    2    1    2    0    0  0.14210854715E-13 -0.14210854715E-13  0.81614784592E+03  0.13004697929E+04  0.10124842595E+04 0.  0.
         25    2    3    3    0    0 -0.40004794176E+02 -0.75744443057E+02 -0.47995359157E+01  0.15086226930E+03  0.12409183915E+03 0.  0.
         35    2    3    3    0    0  0.40004794176E+02  0.75744443057E+02  0.82094738184E+03  0.11496075236E+04  0.80019075867E+03 0.  0.
         22    1    5    5    0    0  0.38494588104E+03 -0.60851576040E+02  0.23202109353E+03  0.45356370389E+03  0.00000000000E+00 0.  1.
         22    1    5    5    0    0 -0.34494108687E+03  0.13659601910E+03  0.58892628830E+03  0.69604381967E+03  0.00000000000E+00 0.  1.
          5    1    4    4  502    0 -0.69042778835E+02 -0.52003574451E+02  0.37320903082E+02  0.94266732583E+02  0.47000000000E+01 0. -1.
         -5    1    4    4    0  502  0.29037984659E+02 -0.23740868606E+02 -0.42120438998E+02  0.56595536720E+02  0.47000000000E+01 0. -1.
<mgrwt>
<rscale>  0 0.10124843E+04</rscale>
<asrwt>0</asrwt>
<pdfrwt beam="1">  1        1 0.37255535E-01 0.10124843E+04</pdfrwt>
<pdfrwt beam="2">  1       -1 0.16281674E+00 0.10124843E+04</pdfrwt>
<totfact> 0.37035302E+01</totfact>
</mgrwt>
</event>
<event>
 9    1  0.4236486E-036  0.1000262E+04  0.7818608E-02  0.8680789E-01
          2   -1    0    0  501    0  0.00000000000E+00  0.00000000000E+00  0.10657720465E+04  0.10657720465E+04  0.00000000000E+00 0.  1.
         -2   -1    0    0    0  501 -0.00000000000E+00 -0.00000000000E+00 -0.23469443932E+03  0.23469443932E+03  0.00000000000E+00 0.  1.
         36    2    1    2    0    0 -0.28421709430E-13  0.14210854715E-13  0.83107760720E+03  0.13004664858E+04  0.10002615116E+04 0.  0.
         25    2    3    3    0    0 -0.13176482879E+02 -0.12538276308E+03  0.23877068601E+03  0.29758555006E+03  0.12510500442E+03 0.  0.
         35    2    3    3    0    0  0.13176482879E+02  0.12538276308E+03  0.59230692119E+03  0.10028809358E+04  0.79940491959E+03 0.  0.
         22    1    5    5    0    0  0.39003772198E+03 -0.65603721407E+01  0.40338226753E+03  0.56115035134E+03  0.00000000000E+00 0.  1.
         22    1    5    5    0    0 -0.37686123910E+03  0.13194313522E+03  0.18892465366E+03  0.44173058444E+03  0.00000000000E+00 0.  1.
          5    1    4    4  502    0  0.36564416567E+02 -0.14880054822E+02  0.12548370216E+03  0.13163062751E+03  0.47000000000E+01 0.  1.
         -5    1    4    4    0  502 -0.49740899446E+02 -0.11050270826E+03  0.11328698385E+03  0.16595492255E+03  0.47000000000E+01 0.  1.
<mgrwt>
<rscale>  0 0.10002615E+04</rscale>
<asrwt>0</asrwt>
<pdfrwt beam="1">  1        2 0.16396493E+00 0.10002615E+04</pdfrwt>
<pdfrwt beam="2">  1       -2 0.36106837E-01 0.10002615E+04</pdfrwt>
<totfact> 0.19937368E+02</totfact>
</mgrwt>
</event>
<event>
 9    1  0.4236486E-036  0.1000738E+04  0.7818608E-02  0.8680336E-01
          2   -1    0    0  501    0  0.00000000000E+00  0.00000000000E+00  0.80023531681E+03  0.80023531681E+03  0.00000000000E+00 0. -1.
         -2   -1    0    0    0  501 -0.00000000000E+00 -0.00000000000E+00 -0.31286919624E+03  0.31286919624E+03  0.00000000000E+00 0. -1.
         36    2    1    2    0    0 -0.14210854715E-13  0.28421709430E-13  0.48736612057E+03  0.11131045130E+04  0.10007376887E+04 0.  0.
         25    2    3    3    0    0 -0.67461564049E+02 -0.12744953603E+03  0.86554864881E+02  0.20671440425E+03  0.12018591195E+03 0.  0.
         35    2    3    3    0    0  0.67461564049E+02  0.12744953603E+03  0.40081125569E+03  0.90639010880E+03  0.80006182247E+03 0.  0.
         22    1    5    5    0    0 -0.12014941601E+02 -0.50968509205E+02  0.61459180353E+03  0.61681863843E+03  0.00000000000E+00 0.  1.
         22    1    5    5    0    0  0.79476505650E+02  0.17841804524E+03 -0.21378054783E+03  0.28957147037E+03  0.00000000000E+00 0.  1.
          5    1    4    4  502    0  0.27648552392E+02 -0.71927105383E+02  0.30031037483E+02  0.82836611172E+02  0.47000000000E+01 0. -1.
         -5    1    4    4    0  502 -0.95110116441E+02 -0.55522430650E+02  0.56523827397E+02  0.12387779308E+03  0.47000000000E+01 0. -1.
<mgrwt>
<rscale>  0 0.10007377E+04</rscale>
<asrwt>0</asrwt>
<pdfrwt beam="1">  1        2 0.12311312E+00 0.10007377E+04</pdfrwt>
<pdfrwt beam="2">  1       -2 0.48133723E-01 0.10007377E+04</pdfrwt>
<totfact> 0.17041209E+02</totfact>
</mgrwt>
</event>
<event>
 9    1  0.4236486E-036  0.9999880E+03  0.7818608E-02  0.8681049E-01
         -1   -1    0    0    0  501 -0.00000000000E+00  0.00000000000E+00  0.13464164401E+03  0.13464164401E+03  0.00000000000E+00 0. -1.
          1   -1    0    0  501    0  0.00000000000E+00 -0.00000000000E+00 -0.18567359402E+04  0.18567359402E+04  0.00000000000E+00 0. -1.
         36    2    1    2    0    0  0.14210854715E-13  0.14210854715E-13 -0.17220942962E+04  0.19913775842E+04  0.99998795889E+03 0.  0.
         25    2    3    3    0    0  0.26423855027E+02  0.91013471114E+02 -0.11764894403E+03  0.19624810760E+03  0.12526122172E+03 0.  0.
         35    2    3    3    0    0 -0.26423855027E+02 -0.91013471114E+02 -0.16044453521E+04  0.17951294766E+04  0.79953941597E+03 0.  0.
         22    1    5    5    0    0  0.15167087315E+03  0.37621590856E+02  0.18521355038E+02  0.15736098136E+03  0.00000000000E+00 0. -1.
         22    1    5    5    0    0 -0.17809472818E+03 -0.12863506197E+03 -0.16229667072E+04  0.16377684952E+04  0.00000000000E+00 0. -1.
          5    1    4    4  502    0  0.10713921259E+02  0.85578803283E+02 -0.14211087230E+03  0.16630126189E+03  0.47000000000E+01 0.  1.
         -5    1    4    4    0  502  0.15709933768E+02  0.54346678315E+01  0.24461928269E+02  0.29946845712E+02  0.47000000000E+01 0.  1.
<mgrwt>
<rscale>  0 0.99998796E+03</rscale>
<asrwt>0</asrwt>
<pdfrwt beam="1">  1        1 0.28565167E+00 0.99998796E+03</pdfrwt>
<pdfrwt beam="2">  1       -1 0.20714100E-01 0.99998796E+03</pdfrwt>
<totfact> 0.75742368E+01</totfact>
</mgrwt>
</event>
<event>
 9    1  0.4236486E-036  0.9997010E+03  0.7818608E-02  0.8681323E-01
         -2   -1    0    0    0  501 -0.00000000000E+00  0.00000000000E+00  0.26089787610E+03  0.26089787610E+03  0.00000000000E+00 0.  1.
          2   -1    0    0  501    0  0.00000000000E+00 -0.00000000000E+00 -0.95765632647E+03  0.95765632647E+03  0.00000000000E+00 0.  1.
         36    2    1    2    0    0 -0.71054273576E-14  0.00000000000E+00 -0.69675845037E+03  0.12185542026E+04  0.99970095851E+03 0.  0.
         25    2    3    3    0    0  0.56351256549E+02 -0.47199725692E+02  0.12363108779E+02  0.14623694902E+03  0.12581383303E+03 0.  0.
         35    2    3    3    0    0 -0.56351256549E+02  0.47199725692E+02 -0.70912155915E+03  0.10723172536E+04  0.80100413756E+03 0.  0.
         22    1    5    5    0    0 -0.39626673289E+03  0.17332264475E+03 -0.30406777907E+03  0.52870150090E+03  0.00000000000E+00 0.  1.
         22    1    5    5    0    0  0.33991547635E+03 -0.12612291906E+03 -0.40505378009E+03  0.54361575266E+03  0.00000000000E+00 0.  1.
          5    1    4    4  502    0 -0.34416420305E+01  0.36067498536E+02  0.22836119190E+02  0.43084657248E+02  0.47000000000E+01 0. -1.
         -5    1    4    4    0  502  0.59792898579E+02 -0.83267224228E+02 -0.10473010410E+02  0.10315229177E+03  0.47000000000E+01 0. -1.
<mgrwt>
<rscale>  0 0.99970096E+03</rscale>
<asrwt>0</asrwt>
<pdfrwt beam="1">  1        2 0.14733174E+00 0.99970096E+03</pdfrwt>
<pdfrwt beam="2">  1       -2 0.40138134E-01 0.99970096E+03</pdfrwt>
<totfact> 0.19062505E+02</totfact>
</mgrwt>
</event>
<event>
 9    1  0.4236486E-036  0.9992915E+03  0.7818608E-02  0.8681713E-01
          2   -1    0    0  501    0  0.00000000000E+00  0.00000000000E+00  0.46421795696E+03  0.46421795696E+03  0.00000000000E+00 0. -1.
         -2   -1    0    0    0  501 -0.00000000000E+00 -0.00000000000E+00 -0.53777732375E+03  0.53777732375E+03  0.00000000000E+00 0. -1.
         36    2    1    2    0    0  0.71054273576E-14 -0.28421709430E-13 -0.73559366793E+02  0.10019952807E+04  0.99929153009E+03 0.  0.
         25    2    3    3    0    0 -0.16370935755E+02  0.13655800454E+03 -0.91002212792E+01  0.18675311064E+03  0.12600719886E+03 0.  0.
         35    2    3    3    0    0  0.16370935755E+02 -0.13655800454E+03 -0.64459145514E+02  0.81524217007E+03  0.80096736405E+03 0.  0.
         22    1    5    5    0    0 -0.71682154074E+02 -0.45604409365E+03 -0.12520905249E+03  0.47832191398E+03  0.00000000000E+00 0. -1.
         22    1    5    5    0    0  0.88053089829E+02  0.31948608911E+03  0.60749906975E+02  0.33692025609E+03  0.00000000000E+00 0. -1.
          5    1    4    4  502    0  0.78595079066E+01 -0.23146685027E+02  0.68805539027E-01  0.24892481324E+02  0.47000000000E+01 0.  1.
         -5    1    4    4    0  502 -0.24230443661E+02  0.15970468957E+03 -0.91690268182E+01  0.16186062932E+03  0.47000000000E+01 0.  1.
<mgrwt>
<rscale>  0 0.99929153E+03</rscale>
<asrwt>0</asrwt>
<pdfrwt beam="1">  1        2 0.71418148E-01 0.99929153E+03</pdfrwt>
<pdfrwt beam="2">  1       -2 0.82734972E-01 0.99929153E+03</pdfrwt>
<totfact> 0.10333961E+02</totfact>
</mgrwt>
</event>
<event>
 9    1  0.4236486E-036  0.9997431E+03  0.7818608E-02  0.8681283E-01
          2   -1    0    0  501    0  0.00000000000E+00  0.00000000000E+00  0.72581674180E+03  0.72581674180E+03  0.00000000000E+00 0. -1.
         -2   -1    0    0    0  501 -0.00000000000E+00 -0.00000000000E+00 -0.34426258895E+03  0.34426258895E+03  0.00000000000E+00 0. -1.
         36    2    1    2    0    0 -0.71054273576E-14  0.00000000000E+00  0.38155415285E+03  0.10700793308E+04  0.99974306827E+03 0.  0.
         25    2    3    3    0    0 -0.40299402386E+02  0.75379638645E+01  0.21528559095E+03  0.25217804769E+03  0.12475984665E+03 0.  0.
         35    2    3    3    0    0  0.40299402386E+02 -0.75379638645E+01  0.16626856190E+03  0.81790128307E+03  0.79977272486E+03 0.  0.
         22    1    5    5    0    0 -0.77024028123E+02 -0.38206016284E+03  0.17050163592E+03  0.42540977515E+03  0.00000000000E+00 0.  1.
         22    1    5    5    0    0  0.11732343051E+03  0.37452219898E+03 -0.42330740132E+01  0.39249150792E+03  0.00000000000E+00 0.  1.
          5    1    4    4  502    0 -0.32747822806E+02 -0.54851527704E+02  0.14027037520E+03  0.15420433895E+03  0.47000000000E+01 0. -1.
         -5    1    4    4    0  502 -0.75515795800E+01  0.62389491568E+02  0.75015215741E+02  0.97973708743E+02  0.47000000000E+01 0. -1.
<mgrwt>
<rscale>  0 0.99974307E+03</rscale>
<asrwt>0</asrwt>
<pdfrwt beam="1">  1        2 0.11166411E+00 0.99974307E+03</pdfrwt>
<pdfrwt beam="2">  1       -2 0.52963475E-01 0.99974307E+03</pdfrwt>
<totfact> 0.15919547E+02</totfact>
</mgrwt>
</event>
<event>
 9    1  0.4236486E-036  0.1000433E+04  0.7818608E-02  0.8680626E-01
          2   -1    0    0  501    0  0.00000000000E+00  0.00000000000E+00  0.11325644409E+04  0.11325644409E+04  0.00000000000E+00 0. -1.
         -2   -1    0    0    0  501 -0.00000000000E+00 -0.00000000000E+00 -0.22092902713E+03  0.22092902713E+03  0.00000000000E+00 0. -1.
         36    2    1    2    0    0  0.71054273576E-14 -0.71054273576E-14  0.91163541378E+03  0.13534934680E+04  0.10004326266E+04 0.  0.
         25    2    3    3    0    0 -0.80953075722E+01 -0.58353422288E+02  0.33555078489E+03  0.36336551767E+03  0.12637054361E+03 0.  0.
         35    2    3    3    0    0  0.80953075722E+01  0.58353422288E+02  0.57608462889E+03  0.99012795037E+03  0.80312464946E+03 0.  0.
         22    1    5    5    0    0  0.20386710183E+03 -0.56761703610E+02  0.70008672063E+03  0.73137206852E+03  0.00000000000E+00 0. -1.
         22    1    5    5    0    0 -0.19577179426E+03  0.11511512590E+03 -0.12400209174E+03  0.25875588185E+03  0.00000000000E+00 0. -1.
          5    1    4    4  502    0 -0.66214589094E+02 -0.20176705331E+02  0.18031908764E+03  0.19320593835E+03  0.47000000000E+01 0.  1.
         -5    1    4    4    0  502  0.58119281522E+02 -0.38176716957E+02  0.15523169725E+03  0.17015957932E+03  0.47000000000E+01 0.  1.
<mgrwt>
<rscale>  0 0.10004326E+04</rscale>
<asrwt>0</asrwt>
<pdfrwt beam="1">  1        2 0.17424068E+00 0.10004326E+04</pdfrwt>
<pdfrwt beam="2">  1       -2 0.33989082E-01 0.10004326E+04</pdfrwt>
<totfact> 0.20330289E+02</totfact>
</mgrwt>
</event>
<event>
 9    1  0.4236486E-036  0.1000176E+04  0.7818608E-02  0.8680871E-01
         -2   -1    0    0    0  501 -0.00000000000E+00  0.00000000000E+00  0.15104592848E+03  0.15104592848E+03  0.00000000000E+00 0.  1.
          2   -1    0    0  501    0  0.00000000000E+00 -0.00000000000E+00 -0.16557075975E+04  0.16557075975E+04  0.00000000000E+00 0.  1.
         36    2    1    2    0    0  0.14210854715E-13  0.14210854715E-13 -0.15046616690E+04  0.18067535260E+04  0.10001757672E+04 0.  0.
         25    2    3    3    0    0  0.79125278947E+02 -0.68275033993E+02 -0.44858799202E+03  0.47735313525E+03  0.12534966742E+03 0.  0.
         35    2    3    3    0    0 -0.79125278947E+02  0.68275033993E+02 -0.10560736770E+04  0.13294003907E+04  0.80068189535E+03 0.  0.
         22    1    5    5    0    0 -0.50921921250E+01  0.28688800501E+03 -0.42722597371E+02  0.29009632566E+03  0.00000000000E+00 0.  1.
         22    1    5    5    0    0 -0.74033086822E+02 -0.21861297101E+03 -0.10133510796E+04  0.10393040650E+04  0.00000000000E+00 0.  1.
          5    1    4    4  502    0  0.88784470759E+02 -0.41430898824E+02 -0.43404082604E+03  0.44498621360E+03  0.47000000000E+01 0.  1.
         -5    1    4    4    0  502 -0.96591918112E+01 -0.26844135169E+02 -0.14547165975E+02  0.32366921653E+02  0.47000000000E+01 0.  1.
<mgrwt>
<rscale>  0 0.10001758E+04</rscale>
<asrwt>0</asrwt>
<pdfrwt beam="1">  1        2 0.25472426E+00 0.10001758E+04</pdfrwt>
<pdfrwt beam="2">  1       -2 0.23237834E-01 0.10001758E+04</pdfrwt>
<totfact> 0.20198538E+02</totfact>
</mgrwt>
</event>
<event>
 9    1  0.4236486E-036  0.9976080E+03  0.7818608E-02  0.8683319E-01
          2   -1    0    0  501    0  0.00000000000E+00  0.00000000000E+00  0.66078932372E+03  0.66078932372E+03  0.00000000000E+00 0. -1.
         -2   -1    0    0    0  501 -0.00000000000E+00 -0.00000000000E+00 -0.37652760952E+03  0.37652760952E+03  0.00000000000E+00 0. -1.
         36    2    1    2    0    0 -0.53290705182E-14  0.00000000000E+00  0.28426171421E+03  0.10373169332E+04  0.99760798805E+03 0.  0.
         25    2    3    3    0    0 -0.40346926445E+00  0.13692370884E+03  0.50156805098E+02  0.19161368116E+03  0.12430540165E+03 0.  0.
         35    2    3    3    0    0  0.40346926445E+00 -0.13692370884E+03  0.23410490911E+03  0.84570325208E+03  0.80103721342E+03 0.  0.
         22    1    5    5    0    0  0.79243197893E+02 -0.81682927034E+02  0.52608974774E+03  0.53825830942E+03  0.00000000000E+00 0. -1.
         22    1    5    5    0    0 -0.78839728629E+02 -0.55240781805E+02 -0.29198483863E+03  0.30744494267E+03  0.00000000000E+00 0. -1.
          5    1    4    4  502    0  0.15565229180E+02  0.34819171864E+02  0.75840424482E+02  0.85020650869E+02  0.47000000000E+01 0.  1.
         -5    1    4    4    0  502 -0.15968698445E+02  0.10210453698E+03 -0.25683619384E+02  0.10659303029E+03  0.47000000000E+01 0.  1.
<mgrwt>
<rscale>  0 0.99760799E+03</rscale>
<asrwt>0</asrwt>
<pdfrwt beam="1">  1        2 0.10165990E+00 0.99760799E+03</pdfrwt>
<pdfrwt beam="2">  1       -2 0.57927324E-01 0.99760799E+03</pdfrwt>
<totfact> 0.14866359E+02</totfact>
</mgrwt>
</event>
<event>
 9    1  0.4236486E-036  0.1000146E+04  0.7818608E-02  0.8680899E-01
          2   -1    0    0  501    0  0.00000000000E+00  0.00000000000E+00  0.16030929521E+04  0.16030929521E+04  0.00000000000E+00 0. -1.
         -2   -1    0    0    0  501 -0.00000000000E+00 -0.00000000000E+00 -0.15599392143E+03  0.15599392143E+03  0.00000000000E+00 0. -1.
         36    2    1    2    0    0  0.71054273576E-14 -0.28421709430E-13  0.14470990307E+04  0.17590868735E+04  0.10001455014E+04 0.  0.
         25    2    3    3    0    0 -0.23774768597E+02  0.13762047723E+03  0.21702877780E+03  0.28680184998E+03  0.12509666415E+03 0.  0.
         35    2    3    3    0    0  0.23774768597E+02 -0.13762047723E+03  0.12300702529E+04  0.14722850235E+04  0.79689756444E+03 0.  0.
         22    1    5    5    0    0  0.10291228942E+03 -0.32976538427E+03  0.12158750662E+04  0.12639969638E+04  0.00000000000E+00 0. -1.
         22    1    5    5    0    0 -0.79137520823E+02  0.19214490704E+03  0.14195186690E+02  0.20828805974E+03  0.00000000000E+00 0. -1.
          5    1    4    4  502    0  0.88184795648E+01  0.57583271506E+02  0.60435767463E+01  0.58755540667E+02  0.47000000000E+01 0. -1.
         -5    1    4    4    0  502 -0.32593248161E+02  0.80037205721E+02  0.21098520106E+03  0.22804630931E+03  0.47000000000E+01 0. -1.
<mgrwt>
<rscale>  0 0.10001455E+04</rscale>
<asrwt>0</asrwt>
<pdfrwt beam="1">  1        2 0.24662967E+00 0.10001455E+04</pdfrwt>
<pdfrwt beam="2">  1       -2 0.23999066E-01 0.10001455E+04</pdfrwt>
<totfact> 0.20431640E+02</totfact>
</mgrwt>
</event>
<event>
 9    1  0.4236486E-036  0.9995321E+03  0.7818608E-02  0.8681484E-01
          2   -1    0    0  501    0  0.00000000000E+00  0.00000000000E+00  0.10809251076E+04  0.10809251076E+04  0.00000000000E+00 0. -1.
         -2   -1    0    0    0  501 -0.00000000000E+00 -0.00000000000E+00 -0.23106697970E+03  0.23106697970E+03  0.00000000000E+00 0. -1.
         36    2    1    2    0    0  0.17763568394E-13  0.71054273576E-14  0.84985812795E+03  0.13119920873E+04  0.99953209033E+03 0.  0.
         25    2    3    3    0    0  0.59388489784E+01 -0.50602709573E+02  0.32748588164E+03  0.35429174319E+03  0.12521873851E+03 0.  0.
         35    2    3    3    0    0 -0.59388489784E+01  0.50602709573E+02  0.52237224631E+03  0.95770034415E+03  0.80107507847E+03 0.  0.
         22    1    5    5    0    0 -0.25423040824E+03 -0.27174225105E+02 -0.10661904423E+03  0.27701833798E+03  0.00000000000E+00 0. -1.
         22    1    5    5    0    0  0.24829155926E+03  0.77776934678E+02  0.62899129053E+03  0.68068200618E+03  0.00000000000E+00 0. -1.
          5    1    4    4  502    0  0.36448492299E+02  0.11010925835E+01  0.26490286733E+03  0.26744218837E+03  0.47000000000E+01 0.  1.
         -5    1    4    4    0  502 -0.30509643320E+02 -0.51703802157E+02  0.62583014305E+02  0.86849554820E+02  0.47000000000E+01 0.  1.
<mgrwt>
<rscale>  0 0.99953209E+03</rscale>
<asrwt>0</asrwt>
<pdfrwt beam="1">  1        2 0.16629617E+00 0.99953209E+03</pdfrwt>
<pdfrwt beam="2">  1       -2 0.35548767E-01 0.99953209E+03</pdfrwt>
<totfact> 0.20094441E+02</totfact>
</mgrwt>
</event>
<event>
 9    1  0.4236486E-036  0.1000118E+04  0.7818608E-02  0.8680925E-01
          1   -1    0    0  501    0  0.00000000000E+00  0.00000000000E+00  0.13476925291E+04  0.13476925291E+04  0.00000000000E+00 0. -1.
         -1   -1    0    0    0  501 -0.00000000000E+00 -0.00000000000E+00 -0.18554616244E+03  0.18554616244E+03  0.00000000000E+00 0. -1.
         36    2    1    2    0    0  0.00000000000E+00  0.00000000000E+00  0.11621463666E+04  0.15332386915E+04  0.10001183468E+04 0.  0.
         25    2    3    3    0    0 -0.73295877958E+02 -0.15707365990E+02  0.40015326835E+03  0.42587982808E+03  0.12502792775E+03 0.  0.
         35    2    3    3    0    0  0.73295877958E+02  0.15707365990E+02  0.76199309829E+03  0.11073588634E+04  0.79999447718E+03 0.  0.
         22    1    5    5    0    0  0.11509878829E+03 -0.36567138669E+03  0.54579225459E+03  0.66697262259E+03  0.00000000000E+00 0.  1.
         22    1    5    5    0    0 -0.41802910335E+02  0.38137875268E+03  0.21620084370E+03  0.44038624084E+03  0.00000000000E+00 0.  1.
          5    1    4    4  502    0 -0.64601694058E+01 -0.32314650302E+02  0.18597732211E+02  0.38130513454E+02  0.47000000000E+01 0. -1.
         -5    1    4    4    0  502 -0.66835708552E+02  0.16607284312E+02  0.38155553614E+03  0.38774931462E+03  0.47000000000E+01 0. -1.
<mgrwt>
<rscale>  0 0.10001183E+04</rscale>
<asrwt>0</asrwt>
<pdfrwt beam="1">  1        1 0.20733731E+00 0.10001183E+04</pdfrwt>
<pdfrwt beam="2">  1       -1 0.28545564E-01 0.10001183E+04</pdfrwt>
<totfact> 0.10158187E+02</totfact>
</mgrwt>
</event>
<event>
 9    1  0.4236486E-036  0.1003286E+04  0.7818608E-02  0.8677915E-01
          2   -1    0    0  501    0  0.00000000000E+00  0.00000000000E+00  0.42230985459E+03  0.42230985459E+03  0.00000000000E+00 0. -1.
         -2   -1    0    0    0  501 -0.00000000000E+00 -0.00000000000E+00 -0.59587954368E+03  0.59587954368E+03  0.00000000000E+00 0. -1.
         36    2    1    2    0    0  0.00000000000E+00  0.00000000000E+00 -0.17356968908E+03  0.10181893983E+04  0.10032862073E+04 0.  0.
         25    2    3    3    0    0 -0.46183427239E+02 -0.13361197065E+03  0.21186938141E+02  0.18856115497E+03  0.12296891950E+03 0.  0.
         35    2    3    3    0    0  0.46183427239E+02  0.13361197065E+03 -0.19475662723E+03  0.82962824330E+03  0.79395705840E+03 0.  0.
         22    1    5    5    0    0  0.88959652018E+02  0.44108679292E+03  0.22804842511E+02  0.45054571291E+03  0.00000000000E+00 0.  1.
         22    1    5    5    0    0 -0.42776224779E+02 -0.30747482227E+03 -0.21756146974E+03  0.37908253040E+03  0.00000000000E+00 0.  1.
          5    1    4    4  502    0 -0.84136385020E+02 -0.66107350086E+02  0.27925307277E+02  0.11068435213E+03  0.47000000000E+01 0. -1.
         -5    1    4    4    0  502  0.37952957781E+02 -0.67504620563E+02 -0.67383691354E+01  0.77876802838E+02  0.47000000000E+01 0. -1.
<mgrwt>
<rscale>  0 0.10032862E+04</rscale>
<asrwt>0</asrwt>
<pdfrwt beam="1">  1        2 0.64970747E-01 0.10032862E+04</pdfrwt>
<pdfrwt beam="2">  1       -2 0.91673775E-01 0.10032862E+04</pdfrwt>
<totfact> 0.90407407E+01</totfact>
</mgrwt>
</event>
<event>
 9    1  0.4236486E-036  0.1000586E+04  0.7818608E-02  0.8680480E-01
          2   -1    0    0  501    0  0.00000000000E+00  0.00000000000E+00  0.10413747062E+04  0.10413747062E+04  0.00000000000E+00 0.  1.
         -2   -1    0    0    0  501 -0.00000000000E+00 -0.00000000000E+00 -0.24034877880E+03  0.24034877880E+03  0.00000000000E+00 0.  1.
         36    2    1    2    0    0  0.14210854715E-13  0.14210854715E-13  0.80102592738E+03  0.12817234850E+04  0.10005861060E+04 0.  0.
         25    2    3    3    0    0 -0.56100325237E+02  0.33669715072E+02  0.30859187969E+03  0.34015724583E+03  0.12726785720E+03 0.  0.
         35    2    3    3    0    0  0.56100325237E+02 -0.33669715072E+02  0.49243404769E+03  0.94156623915E+03  0.79985923460E+03 0.  0.
         22    1    5    5    0    0 -0.34867050993E+03 -0.11573722635E+03  0.34226188337E+03  0.50210499586E+03  0.00000000000E+00 0.  1.
         22    1    5    5    0    0  0.40477083517E+03  0.82067511279E+02  0.15017216432E+03  0.43946124329E+03  0.00000000000E+00 0.  1.
          5    1    4    4  502    0 -0.46896789572E+02 -0.27491887184E+02  0.49259481957E+02  0.73509858494E+02  0.47000000000E+01 0.  1.
         -5    1    4    4    0  502 -0.92035356657E+01  0.61161602256E+02  0.25933239773E+03  0.26664738734E+03  0.47000000000E+01 0.  1.
<mgrwt>
<rscale>  0 0.10005861E+04</rscale>
<asrwt>0</asrwt>
<pdfrwt beam="1">  1        2 0.16021149E+00 0.10005861E+04</pdfrwt>
<pdfrwt beam="2">  1       -2 0.36976736E-01 0.10005861E+04</pdfrwt>
<totfact> 0.19735603E+02</totfact>
</mgrwt>
</event>
<event>
 9    1  0.4236486E-036  0.1001745E+04  0.7818608E-02  0.8679378E-01
          2   -1    0    0  501    0  0.00000000000E+00  0.00000000000E+00  0.22317828624E+03  0.22317828624E+03  0.00000000000E+00 0. -1.
         -2   -1    0    0    0  501 -0.00000000000E+00 -0.00000000000E+00 -0.11240940235E+04  0.11240940235E+04  0.00000000000E+00 0. -1.
         36    2    1    2    0    0  0.00000000000E+00  0.24868995752E-13 -0.90091573728E+03  0.13472723098E+04  0.10017452326E+04 0.  0.
         25    2    3    3    0    0  0.51548198223E+02 -0.18239635932E+02 -0.34668002534E+03  0.37254305830E+03  0.12494554518E+03 0.  0.
         35    2    3    3    0    0 -0.51548198223E+02  0.18239635932E+02 -0.55423571195E+03  0.97472925145E+03  0.79995624142E+03 0.  0.
         22    1    5    5    0    0  0.20837494775E+03 -0.24813415145E+03 -0.50400911408E+03  0.59917932461E+03  0.00000000000E+00 0.  1.
         22    1    5    5    0    0 -0.25992314597E+03  0.26637378739E+03 -0.50226597870E+02  0.37554992684E+03  0.00000000000E+00 0.  1.
          5    1    4    4  502    0  0.84268511718E+02  0.19027746289E+02 -0.22499002301E+03  0.24105152488E+03  0.47000000000E+01 0.  1.
         -5    1    4    4    0  502 -0.32720313494E+02 -0.37267382221E+02 -0.12169000233E+03  0.13149153341E+03  0.47000000000E+01 0.  1.
<mgrwt>
<rscale>  0 0.10017452E+04</rscale>
<asrwt>0</asrwt>
<pdfrwt beam="1">  1        2 0.34335121E-01 0.10017452E+04</pdfrwt>
<pdfrwt beam="2">  1       -2 0.17293754E+00 0.10017452E+04</pdfrwt>
<totfact> 0.34462937E+01</totfact>
</mgrwt>
</event>
<event>
 9    1  0.4236486E-036  0.9998128E+03  0.7818608E-02  0.8681216E-01
          1   -1    0    0  501    0  0.00000000000E+00  0.00000000000E+00  0.24764510358E+03  0.24764510358E+03  0.00000000000E+00 0.  1.
         -1   -1    0    0    0  501 -0.00000000000E+00 -0.00000000000E+00 -0.10091313213E+04  0.10091313213E+04  0.00000000000E+00 0.  1.
         36    2    1    2    0    0 -0.14210854715E-13  0.28421709430E-13 -0.76148621775E+03  0.12567764249E+04  0.99981284368E+03 0.  0.
         25    2    3    3    0    0 -0.11300871125E+03  0.70893744994E+02 -0.19242558553E+03  0.26631578796E+03  0.12688420331E+03 0.  0.
         35    2    3    3    0    0  0.11300871125E+03 -0.70893744994E+02 -0.56906063222E+03  0.99046063695E+03  0.79961576918E+03 0.  0.
         22    1    5    5    0    0  0.20555225503E+03 -0.27498295681E+03  0.36033920401E+02  0.34520399694E+03  0.00000000000E+00 0. -1.
         22    1    5    5    0    0 -0.92543543776E+02  0.20408921181E+03 -0.60509455262E+03  0.64525664001E+03  0.00000000000E+00 0. -1.
          5    1    4    4  502    0  0.10369637930E+02  0.48361724606E+02 -0.21198505542E+02  0.54017149452E+02  0.47000000000E+01 0.  1.
         -5    1    4    4    0  502 -0.12337834918E+03  0.22532020388E+02 -0.17122707999E+03  0.21229863851E+03  0.47000000000E+01 0.  1.
<mgrwt>
<rscale>  0 0.99981284E+03</rscale>
<asrwt>0</asrwt>
<pdfrwt beam="1">  1        1 0.38099247E-01 0.99981284E+03</pdfrwt>
<pdfrwt beam="2">  1       -1 0.15525097E+00 0.99981284E+03</pdfrwt>
<totfact> 0.41690087E+01</totfact>
</mgrwt>
</event>
<event>
 9    1  0.4236486E-036  0.9999122E+03  0.7818608E-02  0.8681122E-01
         -2   -1    0    0    0  501 -0.00000000000E+00  0.00000000000E+00  0.25156135442E+03  0.25156135442E+03  0.00000000000E+00 0.  1.
          2   -1    0    0  501    0  0.00000000000E+00 -0.00000000000E+00 -0.99361880508E+03  0.99361880508E+03  0.00000000000E+00 0.  1.
         36    2    1    2    0    0  0.71054273576E-14  0.00000000000E+00 -0.74205745066E+03  0.12451801595E+04  0.99991218091E+03 0.  0.
         25    2    3    3    0    0  0.19159216262E+02 -0.13004286608E+03 -0.20249760975E+03  0.27181863784E+03  0.12490743507E+03 0.  0.
         35    2    3    3    0    0 -0.19159216262E+02  0.13004286608E+03 -0.53955984091E+03  0.97336152166E+03  0.79939327451E+03 0.  0.
         22    1    5    5    0    0 -0.27251895714E+03 -0.33649591937E+02 -0.60527398883E+03  0.66464688263E+03  0.00000000000E+00 0. -1.
         22    1    5    5    0    0  0.25335974088E+03  0.16369245802E+03  0.65714147917E+02  0.30871463903E+03  0.00000000000E+00 0. -1.
          5    1    4    4  502    0 -0.99287396346E+01 -0.10759933396E+03 -0.58159694616E+02  0.12280405782E+03  0.47000000000E+01 0.  1.
         -5    1    4    4    0  502  0.29087955897E+02 -0.22443532118E+02 -0.14433791513E+03  0.14901458001E+03  0.47000000000E+01 0.  1.
<mgrwt>
<rscale>  0 0.99991218E+03</rscale>
<asrwt>0</asrwt>
<pdfrwt beam="1">  1        2 0.15286443E+00 0.99991218E+03</pdfrwt>
<pdfrwt beam="2">  1       -2 0.38701747E-01 0.99991218E+03</pdfrwt>
<totfact> 0.19389203E+02</totfact>
</mgrwt>
</event>
<event>
 9    1  0.4236486E-036  0.9996361E+03  0.7818608E-02  0.8681385E-01
         -2   -1    0    0    0  501 -0.00000000000E+00  0.00000000000E+00  0.40666323009E+03  0.40666323009E+03  0.00000000000E+00 0.  1.
          2   -1    0    0  501    0  0.00000000000E+00 -0.00000000000E+00 -0.61431197237E+03  0.61431197237E+03  0.00000000000E+00 0.  1.
         36    2    1    2    0    0  0.28421709430E-13 -0.14210854715E-13 -0.20764874227E+03  0.10209752025E+04  0.99963611573E+03 0.  0.
         25    2    3    3    0    0  0.11914033112E+03  0.18212562501E+02  0.32365734390E+02  0.17670355979E+03  0.12510192383E+03 0.  0.
         35    2    3    3    0    0 -0.11914033112E+03 -0.18212562501E+02 -0.24001447666E+03  0.84427164267E+03  0.80041335676E+03 0.  0.
         22    1    5    5    0    0 -0.37753004326E+03  0.14137345824E+03  0.71265842054E+02  0.40938271642E+03  0.00000000000E+00 0. -1.
         22    1    5    5    0    0  0.25838971214E+03 -0.15958602074E+03 -0.31128031872E+03  0.43488892625E+03  0.00000000000E+00 0. -1.
          5    1    4    4  502    0  0.10585595541E+03  0.56225755716E+02 -0.70490535061E+01  0.12016071761E+03  0.47000000000E+01 0. -1.
         -5    1    4    4    0  502  0.13284375709E+02 -0.38013193215E+02  0.39414787897E+02  0.56542842176E+02  0.47000000000E+01 0. -1.
<mgrwt>
<rscale>  0 0.99963612E+03</rscale>
<asrwt>0</asrwt>
<pdfrwt beam="1">  1        2 0.94509534E-01 0.99963612E+03</pdfrwt>
<pdfrwt beam="2">  1       -2 0.62563574E-01 0.99963612E+03</pdfrwt>
<totfact> 0.13817088E+02</totfact>
</mgrwt>
</event>
<event>
 9    1  0.4236486E-036  0.9996155E+03  0.7818608E-02  0.8681404E-01
          2   -1    0    0  501    0  0.00000000000E+00  0.00000000000E+00  0.31881334571E+04  0.31881334571E+04  0.00000000000E+00 0.  1.
         -2   -1    0    0    0  501 -0.00000000000E+00 -0.00000000000E+00 -0.78355500672E+02  0.78355500672E+02  0.00000000000E+00 0.  1.
         36    2    1    2    0    0  0.21316282073E-13 -0.71054273576E-14  0.31097779565E+04  0.32664889578E+04  0.99961551257E+03 0.  0.
         25    2    3    3    0    0  0.62371045800E+02 -0.15312076009E+02  0.98577112918E+03  0.99577703874E+03  0.12530995465E+03 0.  0.
         35    2    3    3    0    0 -0.62371045800E+02  0.15312076009E+02  0.21240068273E+04  0.22707119191E+04  0.80037679253E+03 0.  0.
         22    1    5    5    0    0  0.23939619787E+03  0.10301282737E+03  0.18020953713E+04  0.18208431864E+04  0.00000000000E+00 0.  1.
         22    1    5    5    0    0 -0.30176724367E+03 -0.87700751364E+02  0.32191145596E+03  0.44986873266E+03  0.00000000000E+00 0.  1.
          5    1    4    4  502    0  0.16411077533E+02  0.29391565451E+02  0.76708014064E+03  0.76783280716E+03  0.47000000000E+01 0. -1.
         -5    1    4    4    0  502  0.45959968267E+02 -0.44703641460E+02  0.21869098853E+03  0.22794423157E+03  0.47000000000E+01 0. -1.
<mgrwt>
<rscale>  0 0.99961551E+03</rscale>
<asrwt>0</asrwt>
<pdfrwt beam="1">  1        2 0.49048197E+00 0.99961551E+03</pdfrwt>
<pdfrwt beam="2">  1       -2 0.12054695E-01 0.99961551E+03</pdfrwt>
<totfact> 0.71600565E+01</totfact>
</mgrwt>
</event>
<event>
 9    1  0.4236486E-036  0.1002066E+04  0.7818608E-02  0.8679073E-01
          2   -1    0    0  501    0  0.00000000000E+00  0.00000000000E+00  0.70700824544E+03  0.70700824544E+03  0.00000000000E+00 0.  1.
         -2   -1    0    0    0  501 -0.00000000000E+00 -0.00000000000E+00 -0.35506543313E+03  0.35506543313E+03  0.00000000000E+00 0.  1.
         36    2    1    2    0    0  0.00000000000E+00  0.00000000000E+00  0.35194281231E+03  0.10620736786E+04  0.10020662431E+04 0.  0.
         25    2    3    3    0    0 -0.76120006300E+02  0.48365209110E+02  0.18189779078E+03  0.23824561187E+03  0.12466241003E+03 0.  0.
         35    2    3    3    0    0  0.76120006300E+02 -0.48365209110E+02  0.17004502154E+03  0.82382806670E+03  0.80102679439E+03 0.  0.
         22    1    5    5    0    0 -0.19580784437E+03  0.22986773269E+03 -0.13371402107E+03  0.33024131462E+03  0.00000000000E+00 0.  1.
         22    1    5    5    0    0  0.27192785067E+03 -0.27823294180E+03  0.30375904261E+03  0.49358675209E+03  0.00000000000E+00 0.  1.
          5    1    4    4  502    0  0.79853385831E-01 -0.10313861286E+02  0.12680163328E+03  0.12730721234E+03  0.47000000000E+01 0. -1.
         -5    1    4    4    0  502 -0.76199859686E+02  0.58679070396E+02  0.55096157495E+02  0.11093839953E+03  0.47000000000E+01 0. -1.
<mgrwt>
<rscale>  0 0.10020662E+04</rscale>
<asrwt>0</asrwt>
<pdfrwt beam="1">  1        2 0.10877050E+00 0.10020662E+04</pdfrwt>
<pdfrwt beam="2">  1       -2 0.54625451E-01 0.10020662E+04</pdfrwt>
<totfact> 0.15442450E+02</totfact>
</mgrwt>
</event>
<event>
 9    1  0.4236486E-036  0.1000873E+04  0.7818608E-02  0.8680207E-01
          2   -1    0    0  501    0  0.00000000000E+00  0.00000000000E+00  0.63328456299E+03  0.63328456299E+03  0.00000000000E+00 0.  1.
         -2   -1    0    0    0  501 -0.00000000000E+00 -0.00000000000E+00 -0.39545707194E+03  0.39545707194E+03  0.00000000000E+00 0.  1.
         36    2    1    2    0    0 -0.14210854715E-13  0.28421709430E-13  0.23782749104E+03  0.10287416349E+04  0.10008733366E+04 0.  0.
         25    2    3    3    0    0  0.14439509483E+02 -0.12091052200E+03 -0.28792759883E+02  0.17683645759E+03  0.12495701641E+03 0.  0.
         35    2    3    3    0    0 -0.14439509483E+02  0.12091052200E+03  0.26662025093E+03  0.85190517733E+03  0.79989262980E+03 0.  0.
         22    1    5    5    0    0  0.35898557459E+03 -0.22571659277E+02  0.27340165528E+03  0.45180591815E+03  0.00000000000E+00 0.  1.
         22    1    5    5    0    0 -0.37342508407E+03  0.14348218127E+03 -0.67814043588E+01  0.40009925918E+03  0.00000000000E+00 0.  1.
          5    1    4    4  502    0 -0.48701445137E+02 -0.54152202518E+02 -0.41497764274E+02  0.83955025077E+02  0.47000000000E+01 0.  1.
         -5    1    4    4    0  502  0.63140954619E+02 -0.66758319477E+02  0.12705004391E+02  0.92881432516E+02  0.47000000000E+01 0.  1.
<mgrwt>
<rscale>  0 0.10008733E+04</rscale>
<asrwt>0</asrwt>
<pdfrwt beam="1">  1        2 0.97428394E-01 0.10008733E+04</pdfrwt>
<pdfrwt beam="2">  1       -2 0.60839550E-01 0.10008733E+04</pdfrwt>
<totfact> 0.14128414E+02</totfact>
</mgrwt>
</event>
<event>
 9    1  0.4236486E-036  0.9996127E+03  0.7818608E-02  0.8681407E-01
         -1   -1    0    0    0  501 -0.00000000000E+00  0.00000000000E+00  0.34133168260E+03  0.34133168260E+03  0.00000000000E+00 0. -1.
          1   -1    0    0  501    0  0.00000000000E+00 -0.00000000000E+00 -0.73185812182E+03  0.73185812182E+03  0.00000000000E+00 0. -1.
         36    2    1    2    0    0  0.00000000000E+00  0.00000000000E+00 -0.39052643922E+03  0.10731898044E+04  0.99961265326E+03 0.  0.
         25    2    3    3    0    0 -0.10436510690E+03  0.71399142118E+02 -0.81986727049E+02  0.20540550069E+03  0.13956963591E+03 0.  0.
         35    2    3    3    0    0  0.10436510690E+03 -0.71399142118E+02 -0.30853971217E+03  0.86778430372E+03  0.80116348566E+03 0.  0.
         22    1    5    5    0    0 -0.12827945419E+03  0.15606487597E+03  0.18679647520E+03  0.27514502908E+03  0.00000000000E+00 0.  1.
         22    1    5    5    0    0  0.23264456109E+03 -0.22746401808E+03 -0.49533618737E+03  0.59263927464E+03  0.00000000000E+00 0.  1.
          5    1    4    4  502    0 -0.34426273970E+01 -0.16887273188E+02 -0.68231180098E+02  0.70530955024E+02  0.47000000000E+01 0.  1.
         -5    1    4    4    0  502 -0.10092247951E+03  0.88286415306E+02 -0.13755546951E+02  0.13487454567E+03  0.47000000000E+01 0.  1.
<mgrwt>
<rscale>  0 0.99961265E+03</rscale>
<asrwt>0</asrwt>
<pdfrwt beam="1">  1        1 0.11259356E+00 0.99961265E+03</pdfrwt>
<pdfrwt beam="2">  1       -1 0.52512567E-01 0.99961265E+03</pdfrwt>
<totfact> 0.10658789E+02</totfact>
</mgrwt>
</event>
<event>
 9    1  0.4236486E-036  0.1001157E+04  0.7818608E-02  0.8679937E-01
         -2   -1    0    0    0  501 -0.00000000000E+00  0.00000000000E+00  0.28052829592E+03  0.28052829592E+03  0.00000000000E+00 0. -1.
          2   -1    0    0  501    0  0.00000000000E+00 -0.00000000000E+00 -0.89323968860E+03  0.89323968860E+03  0.00000000000E+00 0. -1.
         36    2    1    2    0    0  0.00000000000E+00  0.00000000000E+00 -0.61271139269E+03  0.11737679845E+04  0.10011573457E+04 0.  0.
         25    2    3    3    0    0  0.13250189003E+03  0.47775461742E+02 -0.15182881419E+03  0.24213816963E+03  0.12545779676E+03 0.  0.
         35    2    3    3    0    0 -0.13250189003E+03 -0.47775461742E+02 -0.46088257850E+03  0.93162981488E+03  0.79729675480E+03 0.  0.
         22    1    5    5    0    0  0.13074885886E+03 -0.87344273314E+02 -0.60763588364E+03  0.62765090079E+03  0.00000000000E+00 0.  1.
         22    1    5    5    0    0 -0.26325074889E+03  0.39568811572E+02  0.14675330515E+03  0.30397891409E+03  0.00000000000E+00 0.  1.
          5    1    4    4  502    0  0.32016938158E+02  0.59133573831E+02 -0.10392053324E+02  0.68205195222E+02  0.47000000000E+01 0.  1.
         -5    1    4    4    0  502  0.10048495187E+03 -0.11358112089E+02 -0.14143676087E+03  0.17393297441E+03  0.47000000000E+01 0.  1.
<mgrwt>
<rscale>  0 0.10011573E+04</rscale>
<asrwt>0</asrwt>
<pdfrwt beam="1">  1        2 0.13742149E+00 0.10011573E+04</pdfrwt>
<pdfrwt beam="2">  1       -2 0.43158200E-01 0.10011573E+04</pdfrwt>
<totfact> 0.18251173E+02</totfact>
</mgrwt>
</event>
<event>
 9    1  0.4236486E-036  0.9988692E+03  0.7818608E-02  0.8682116E-01
          1   -1    0    0  501    0  0.00000000000E+00  0.00000000000E+00  0.39083647608E+03  0.39083647608E+03  0.00000000000E+00 0. -1.
         -1   -1    0    0    0  501 -0.00000000000E+00 -0.00000000000E+00 -0.63820788390E+03  0.63820788390E+03  0.00000000000E+00 0. -1.
         36    2    1    2    0    0  0.14210854715E-13  0.00000000000E+00 -0.24737140783E+03  0.10290443600E+04  0.99886920134E+03 0.  0.
         25    2    3    3    0    0  0.98139905519E+02  0.51319749895E+02  0.44174912757E+02  0.17282796888E+03  0.12511165463E+03 0.  0.
         35    2    3    3    0    0 -0.98139905519E+02 -0.51319749895E+02 -0.29154632058E+03  0.85621639110E+03  0.79739707396E+03 0.  0.
         22    1    5    5    0    0 -0.44192871925E+03  0.19561150059E+02 -0.23423314719E+03  0.50054849788E+03  0.00000000000E+00 0. -1.
         22    1    5    5    0    0  0.34378881373E+03 -0.70880899954E+02 -0.57313173396E+02  0.35566789322E+03  0.00000000000E+00 0. -1.
          5    1    4    4  502    0  0.87848307439E+02  0.37835354358E+02  0.85204224089E+02  0.12818224901E+03  0.47000000000E+01 0. -1.
         -5    1    4    4    0  502  0.10291598080E+02  0.13484395538E+02 -0.41029311331E+02  0.44645719866E+02  0.47000000000E+01 0. -1.
<mgrwt>
<rscale>  0 0.99886920E+03</rscale>
<asrwt>0</asrwt>
<pdfrwt beam="1">  1        1 0.60128689E-01 0.99886920E+03</pdfrwt>
<pdfrwt beam="2">  1       -1 0.98185828E-01 0.99886920E+03</pdfrwt>
<totfact> 0.73614925E+01</totfact>
</mgrwt>
</event>
<event>
 9    1  0.4236486E-036  0.9969673E+03  0.7818608E-02  0.8683931E-01
         -2   -1    0    0    0  501 -0.00000000000E+00  0.00000000000E+00  0.17904843003E+03  0.17904843003E+03  0.00000000000E+00 0. -1.
          2   -1    0    0  501    0  0.00000000000E+00 -0.00000000000E+00 -0.13878141594E+04  0.13878141594E+04  0.00000000000E+00 0. -1.
         36    2    1    2    0    0  0.35527136788E-13 -0.14210854715E-13 -0.12087657294E+04  0.15668625895E+04  0.99696729419E+03 0.  0.
         25    2    3    3    0    0  0.22422092658E+02  0.87391535397E+02 -0.38026507842E+03  0.41130735073E+03  0.12818805017E+03 0.  0.
         35    2    3    3    0    0 -0.22422092658E+02 -0.87391535397E+02 -0.82850065099E+03  0.11555552387E+04  0.80047145507E+03 0.  0.
         22    1    5    5    0    0 -0.27768588350E+03 -0.26058995379E+03 -0.14828722420E+03  0.40866327799E+03  0.00000000000E+00 0. -1.
         22    1    5    5    0    0  0.25526379084E+03  0.17319841839E+03 -0.68021342678E+03  0.74689196074E+03  0.00000000000E+00 0. -1.
          5    1    4    4  502    0  0.29218349821E+02 -0.12135431588E+02 -0.20625934460E+02  0.38059162345E+02  0.47000000000E+01 0.  1.
         -5    1    4    4    0  502 -0.67962571622E+01  0.99526966985E+02 -0.35963914396E+03  0.37324818839E+03  0.47000000000E+01 0.  1.
<mgrwt>
<rscale>  0 0.99696729E+03</rscale>
<asrwt>0</asrwt>
<pdfrwt beam="1">  1        2 0.21350987E+00 0.99696729E+03</pdfrwt>
<pdfrwt beam="2">  1       -2 0.27545913E-01 0.99696729E+03</pdfrwt>
<totfact> 0.21171071E+02</totfact>
</mgrwt>
</event>
<event>
 9    1  0.4236486E-036  0.9995711E+03  0.7818608E-02  0.8681446E-01
          2   -1    0    0  501    0  0.00000000000E+00  0.00000000000E+00  0.11568047836E+04  0.11568047836E+04  0.00000000000E+00 0.  1.
         -2   -1    0    0    0  501 -0.00000000000E+00 -0.00000000000E+00 -0.21592719120E+03  0.21592719120E+03  0.00000000000E+00 0.  1.
         36    2    1    2    0    0 -0.28421709430E-13  0.00000000000E+00  0.94087759244E+03  0.13727319748E+04  0.99957112344E+03 0.  0.
         25    2    3    3    0    0 -0.10932249973E+03 -0.87473363240E+02  0.17589879551E+03  0.25753816408E+03  0.12562850581E+03 0.  0.
         35    2    3    3    0    0  0.10932249973E+03  0.87473363240E+02  0.76497879692E+03  0.11151938108E+04  0.79928823187E+03 0.  0.
         22    1    5    5    0    0  0.35705293557E+03  0.20662730513E+03  0.72943669201E+03  0.83800926587E+03  0.00000000000E+00 0. -1.
         22    1    5    5    0    0 -0.24773043584E+03 -0.11915394189E+03  0.35542104915E+02  0.27718454490E+03  0.00000000000E+00 0. -1.
          5    1    4    4  502    0 -0.46484790613E+02 -0.90953647489E+02  0.16407776731E+03  0.19333133599E+03  0.47000000000E+01 0.  1.
         -5    1    4    4    0  502 -0.62837709120E+02  0.34802842486E+01  0.11821028203E+02  0.64206828093E+02  0.47000000000E+01 0.  1.
<mgrwt>
<rscale>  0 0.99957112E+03</rscale>
<asrwt>0</asrwt>
<pdfrwt beam="1">  1        2 0.17796996E+00 0.99957112E+03</pdfrwt>
<pdfrwt beam="2">  1       -2 0.33219569E-01 0.99957112E+03</pdfrwt>
<totfact> 0.20514706E+02</totfact>
</mgrwt>
</event>
<event>
 9    1  0.4236486E-036  0.1000242E+04  0.7818608E-02  0.8680807E-01
         -2   -1    0    0    0  501 -0.00000000000E+00  0.00000000000E+00  0.41056536956E+03  0.41056536956E+03  0.00000000000E+00 0.  1.
          2   -1    0    0  501    0  0.00000000000E+00 -0.00000000000E+00 -0.60921177826E+03  0.60921177826E+03  0.00000000000E+00 0.  1.
         36    2    1    2    0    0  0.00000000000E+00 -0.14210854715E-13 -0.19864640870E+03  0.10197771478E+04  0.10002424884E+04 0.  0.
         25    2    3    3    0    0  0.12975196176E+03  0.56534160436E+02 -0.20078567758E+02  0.18974643218E+03  0.12477530510E+03 0.  0.
         35    2    3    3    0    0 -0.12975196176E+03 -0.56534160436E+02 -0.17856784094E+03  0.83003071564E+03  0.79814336570E+03 0.  0.
         22    1    5    5    0    0  0.22221333960E+01 -0.15305775127E+03  0.29318846954E+03  0.33074324147E+03  0.00000000000E+00 0.  1.
         22    1    5    5    0    0 -0.13197409516E+03  0.96523590838E+02 -0.47175631049E+03  0.49928747417E+03  0.00000000000E+00 0.  1.
          5    1    4    4  502    0  0.11511215873E+03  0.93502130135E+02 -0.11667127676E+02  0.14883436867E+03  0.47000000000E+01 0.  1.
         -5    1    4    4    0  502  0.14639803032E+02 -0.36967969699E+02 -0.84114400815E+01  0.40912063511E+02  0.47000000000E+01 0.  1.
<mgrwt>
<rscale>  0 0.10002425E+04</rscale>
<asrwt>0</asrwt>
<pdfrwt beam="1">  1        2 0.93724888E-01 0.10002425E+04</pdfrwt>
<pdfrwt beam="2">  1       -2 0.63163904E-01 0.10002425E+04</pdfrwt>
<totfact> 0.13676342E+02</totfact>
</mgrwt>
</event>
<event>
 9    1  0.4236486E-036  0.9994821E+03  0.7818608E-02  0.8681531E-01
          2   -1    0    0  501    0  0.00000000000E+00  0.00000000000E+00  0.13755130006E+04  0.13755130006E+04  0.00000000000E+00 0.  1.
         -2   -1    0    0    0  501 -0.00000000000E+00 -0.00000000000E+00 -0.18156215314E+03  0.18156215314E+03  0.00000000000E+00 0.  1.
         36    2    1    2    0    0  0.00000000000E+00  0.00000000000E+00  0.11939508474E+04  0.15570751537E+04  0.99948206999E+03 0.  0.
         25    2    3    3    0    0  0.13795176910E+03  0.17868337440E+02  0.23779821834E+03  0.30237776783E+03  0.12463688760E+03 0.  0.
         35    2    3    3    0    0 -0.13795176910E+03 -0.17868337440E+02  0.95615262908E+03  0.12546973859E+04  0.80042970457E+03 0.  0.
         22    1    5    5    0    0 -0.33039802908E+03  0.21554069870E+03  0.84475105827E+03  0.93232236961E+03  0.00000000000E+00 0.  1.
         22    1    5    5    0    0  0.19244625999E+03 -0.23340903615E+03  0.11140157081E+03  0.32237501627E+03  0.00000000000E+00 0.  1.
          5    1    4    4  502    0  0.72855366012E+02  0.43739684015E+02  0.43078755907E+02  0.95388330130E+02  0.47000000000E+01 0. -1.
         -5    1    4    4    0  502  0.65096403087E+02 -0.25871346575E+02  0.19471946243E+03  0.20698943770E+03  0.47000000000E+01 0. -1.
<mgrwt>
<rscale>  0 0.99948207E+03</rscale>
<asrwt>0</asrwt>
<pdfrwt beam="1">  1        2 0.21161738E+00 0.99948207E+03</pdfrwt>
<pdfrwt beam="2">  1       -2 0.27932640E-01 0.99948207E+03</pdfrwt>
<totfact> 0.20983290E+02</totfact>
</mgrwt>
</event>
<event>
 9    1  0.4236486E-036  0.9851223E+03  0.7818608E-02  0.8695337E-01
         -2   -1    0    0    0  501 -0.00000000000E+00  0.00000000000E+00  0.36018373080E+03  0.36018373080E+03  0.00000000000E+00 0. -1.
          2   -1    0    0  501    0  0.00000000000E+00 -0.00000000000E+00 -0.67359091501E+03  0.67359091501E+03  0.00000000000E+00 0. -1.
         36    2    1    2    0    0  0.00000000000E+00  0.28421709430E-13 -0.31340718421E+03  0.10337746458E+04  0.98512230470E+03 0.  0.
         25    2    3    3    0    0  0.11803762806E+03  0.35652200331E+02 -0.39527190307E+02  0.17916908978E+03  0.12383538643E+03 0.  0.
         35    2    3    3    0    0 -0.11803762806E+03 -0.35652200331E+02 -0.27387999390E+03  0.85460555603E+03  0.80008527315E+03 0.  0.
         22    1    5    5    0    0  0.17288644212E+03 -0.34429025560E+03 -0.12267934288E+03  0.40432131175E+03  0.00000000000E+00 0. -1.
         22    1    5    5    0    0 -0.29092407019E+03  0.30863805527E+03 -0.15120065102E+03  0.45028424428E+03  0.00000000000E+00 0. -1.
          5    1    4    4  502    0 -0.23006348619E+02  0.23051098899E+02 -0.10527494992E+02  0.34547986743E+02  0.47000000000E+01 0. -1.
         -5    1    4    4    0  502  0.14104397668E+03  0.12601101432E+02 -0.28999695315E+02  0.14462110304E+03  0.47000000000E+01 0. -1.
<mgrwt>
<rscale>  0 0.98512230E+03</rscale>
<asrwt>0</asrwt>
<pdfrwt beam="1">  1        2 0.10362937E+00 0.98512230E+03</pdfrwt>
<pdfrwt beam="2">  1       -2 0.55412882E-01 0.98512230E+03</pdfrwt>
<totfact> 0.15920197E+02</totfact>
</mgrwt>
</event>
<event>
 9    1  0.4236486E-036  0.1000062E+04  0.7818608E-02  0.8680979E-01
          2   -1    0    0  501    0  0.00000000000E+00  0.00000000000E+00  0.12232723881E+04  0.12232723881E+04  0.00000000000E+00 0. -1.
         -2   -1    0    0    0  501 -0.00000000000E+00 -0.00000000000E+00 -0.20439532815E+03  0.20439532815E+03  0.00000000000E+00 0. -1.
         36    2    1    2    0    0  0.42632564146E-13  0.14210854715E-13  0.10188770599E+04  0.14276677162E+04  0.10000623204E+04 0.  0.
         25    2    3    3    0    0 -0.10333133173E+03 -0.86594503646E+02  0.13867165321E+03  0.23048870152E+03  0.12537640108E+03 0.  0.
         35    2    3    3    0    0  0.10333133173E+03  0.86594503646E+02  0.88020540670E+03  0.11971790147E+04  0.80018751744E+03 0.  0.
         22    1    5    5    0    0 -0.29051947256E+03 -0.13136041277E+02  0.68959040077E+03  0.74840432945E+03  0.00000000000E+00 0.  1.
         22    1    5    5    0    0  0.39385080428E+03  0.99730544923E+02  0.19061500593E+03  0.44877468524E+03  0.00000000000E+00 0.  1.
          5    1    4    4  502    0 -0.12594050640E+03 -0.90925088846E+02  0.13659407763E+03  0.20690194532E+03  0.47000000000E+01 0. -1.
         -5    1    4    4    0  502  0.22609174677E+02  0.43305851996E+01  0.20775755809E+01  0.23586756200E+02  0.47000000000E+01 0. -1.
<mgrwt>
<rscale>  0 0.10000623E+04</rscale>
<asrwt>0</asrwt>
<pdfrwt beam="1">  1        2 0.18819575E+00 0.10000623E+04</pdfrwt>
<pdfrwt beam="2">  1       -2 0.31445436E-01 0.10000623E+04</pdfrwt>
<totfact> 0.20729660E+02</totfact>
</mgrwt>
</event>
<event>
 9    1  0.4236486E-036  0.1000430E+04  0.7818608E-02  0.8680628E-01
         -3   -1    0    0    0  501 -0.00000000000E+00  0.00000000000E+00  0.15491299033E+04  0.15491299033E+04  0.00000000000E+00 0. -1.
          3   -1    0    0  501    0  0.00000000000E+00 -0.00000000000E+00 -0.16151979924E+03  0.16151979924E+03  0.00000000000E+00 0. -1.
         36    2    1    2    0    0 -0.21316282073E-13  0.14210854715E-13  0.13876101040E+04  0.17106497025E+04  0.10004302094E+04 0.  0.
         25    2    3    3    0    0  0.31084503155E+01 -0.10864968451E+03  0.41154651096E+03  0.44359826534E+03  0.12487783599E+03 0.  0.
         35    2    3    3    0    0 -0.31084503155E+01  0.10864968451E+03  0.97606359308E+03  0.12670514372E+04  0.80056529422E+03 0.  0.
         22    1    5    5    0    0 -0.20544489166E+03  0.32300458478E+03  0.18964688554E+03  0.42720663208E+03  0.00000000000E+00 0. -1.
         22    1    5    5    0    0  0.20233644135E+03 -0.21435490027E+03  0.78641670754E+03  0.83984480510E+03  0.00000000000E+00 0. -1.
          5    1    4    4  502    0  0.11612153252E+02  0.26021057741E+02  0.51152502956E+02  0.58741859928E+02  0.47000000000E+01 0. -1.
         -5    1    4    4    0  502 -0.85037029361E+01 -0.13467074225E+03  0.36039400801E+03  0.38485640542E+03  0.47000000000E+01 0. -1.
<mgrwt>
<rscale>  0 0.10004302E+04</rscale>
<asrwt>0</asrwt>
<pdfrwt beam="1">  1        3 0.24849201E-01 0.10004302E+04</pdfrwt>
<pdfrwt beam="2">  1       -3 0.23832767E+00 0.10004302E+04</pdfrwt>
<totfact> 0.31716203E+00</totfact>
</mgrwt>
</event>
<event>
 9    1  0.4236486E-036  0.1000780E+04  0.7818608E-02  0.8680296E-01
         -1   -1    0    0    0  501 -0.00000000000E+00  0.00000000000E+00  0.12070534630E+04  0.12070534630E+04  0.00000000000E+00 0. -1.
          1   -1    0    0  501    0  0.00000000000E+00 -0.00000000000E+00 -0.20743900633E+03  0.20743900633E+03  0.00000000000E+00 0. -1.
         36    2    1    2    0    0  0.00000000000E+00  0.00000000000E+00  0.99961445672E+03  0.14144924694E+04  0.10007796380E+04 0.  0.
         25    2    3    3    0    0 -0.20366591610E+02 -0.58924015560E+02  0.36390155729E+03  0.39029806268E+03  0.12657565589E+03 0.  0.
         35    2    3    3    0    0  0.20366591610E+02  0.58924015560E+02  0.63571289942E+03  0.10241944067E+04  0.80059756092E+03 0.  0.
         22    1    5    5    0    0  0.33324332183E+03  0.22219994847E+03  0.51236997508E+03  0.65034369376E+03  0.00000000000E+00 0. -1.
         22    1    5    5    0    0 -0.31287673022E+03 -0.16327593291E+03  0.12334292434E+03  0.37385071294E+03  0.00000000000E+00 0. -1.
          5    1    4    4  502    0  0.43335997760E+02 -0.56168190434E+02  0.24730999145E+03  0.25732702188E+03  0.47000000000E+01 0.  1.
         -5    1    4    4    0  502 -0.63702589370E+02 -0.27558251262E+01  0.11659156584E+03  0.13297104079E+03  0.47000000000E+01 0.  1.
<mgrwt>
<rscale>  0 0.10007796E+04</rscale>
<asrwt>0</asrwt>
<pdfrwt beam="1">  1        1 0.31913694E-01 0.10007796E+04</pdfrwt>
<pdfrwt beam="2">  1       -1 0.18570053E+00 0.10007796E+04</pdfrwt>
<totfact> 0.29171365E+01</totfact>
</mgrwt>
</event>
<event>
 9    1  0.4236486E-036  0.9992933E+03  0.7818608E-02  0.8681711E-01
         -2   -1    0    0    0  501 -0.00000000000E+00  0.00000000000E+00  0.74208840941E+02  0.74208840941E+02  0.00000000000E+00 0. -1.
          2   -1    0    0  501    0  0.00000000000E+00 -0.00000000000E+00 -0.33641109930E+04  0.33641109930E+04  0.00000000000E+00 0. -1.
         36    2    1    2    0    0 -0.14210854715E-13 -0.42632564146E-13 -0.32899021520E+04  0.34383198339E+04  0.99929330546E+03 0.  0.
         25    2    3    3    0    0 -0.41439506946E+02  0.12162462148E+03 -0.73247595567E+03  0.75429164214E+03  0.12619458978E+03 0.  0.
         35    2    3    3    0    0  0.41439506946E+02 -0.12162462148E+03 -0.25574261963E+04  0.26840281918E+04  0.80440586962E+03 0.  0.
         22    1    5    5    0    0 -0.21582696762E+03 -0.37175146711E+03 -0.10520873600E+04  0.11365158364E+04  0.00000000000E+00 0.  1.
         22    1    5    5    0    0  0.25726647456E+03  0.25012684564E+03 -0.15053388364E+04  0.15475123554E+04  0.00000000000E+00 0.  1.
          5    1    4    4  502    0 -0.23197313072E+02  0.69407010299E+02 -0.65438294207E+03  0.65847898470E+03  0.47000000000E+01 0. -1.
         -5    1    4    4    0  502 -0.18242193875E+02  0.52217611177E+02 -0.78093013595E+02  0.95812657445E+02  0.47000000000E+01 0. -1.
<mgrwt>
<rscale>  0 0.99929331E+03</rscale>
<asrwt>0</asrwt>
<pdfrwt beam="1">  1        2 0.51755549E+00 0.99929331E+03</pdfrwt>
<pdfrwt beam="2">  1       -2 0.11416746E-01 0.99929331E+03</pdfrwt>
<totfact> 0.58652704E+01</totfact>
</mgrwt>
</event>
<event>
 9    1  0.4236486E-036  0.9996022E+03  0.7818608E-02  0.8681417E-01
          2   -1    0    0  501    0  0.00000000000E+00  0.00000000000E+00  0.33386270790E+03  0.33386270790E+03  0.00000000000E+00 0. -1.
         -2   -1    0    0    0  501 -0.00000000000E+00 -0.00000000000E+00 -0.74821521998E+03  0.74821521998E+03  0.00000000000E+00 0. -1.
         36    2    1    2    0    0  0.14210854715E-13  0.00000000000E+00 -0.41435251208E+03  0.10820779279E+04  0.99960223976E+03 0.  0.
         25    2    3    3    0    0  0.50603136158E+02  0.10743289581E+03  0.12454057924E+01  0.17254852999E+03  0.12517563531E+03 0.  0.
         35    2    3    3    0    0 -0.50603136158E+02 -0.10743289581E+03 -0.41559791787E+03  0.90952939789E+03  0.80026220190E+03 0.  0.
         22    1    5    5    0    0 -0.28696992359E+03  0.98853490866E+02 -0.49976297381E+03  0.58471085136E+03  0.00000000000E+00 0.  1.
         22    1    5    5    0    0  0.23636678743E+03 -0.20628638668E+03  0.84165055938E+02  0.32481854653E+03  0.00000000000E+00 0.  1.
          5    1    4    4  502    0  0.89117435384E+02  0.59864842136E+02  0.17906224878E+02  0.10894236780E+03  0.47000000000E+01 0.  1.
         -5    1    4    4    0  502 -0.38514299226E+02  0.47568053674E+02 -0.16660819085E+02  0.63606162184E+02  0.47000000000E+01 0.  1.
<mgrwt>
<rscale>  0 0.99960224E+03</rscale>
<asrwt>0</asrwt>
<pdfrwt beam="1">  1        2 0.51363494E-01 0.99960224E+03</pdfrwt>
<pdfrwt beam="2">  1       -2 0.11511003E+00 0.99960224E+03</pdfrwt>
<totfact> 0.67193849E+01</totfact>
</mgrwt>
</event>
<event>
 9    1  0.4236486E-036  0.9995670E+03  0.7818608E-02  0.8681450E-01
          2   -1    0    0  501    0  0.00000000000E+00  0.00000000000E+00  0.27737309828E+03  0.27737309828E+03  0.00000000000E+00 0. -1.
         -2   -1    0    0    0  501 -0.00000000000E+00 -0.00000000000E+00 -0.90053262778E+03  0.90053262778E+03  0.00000000000E+00 0. -1.
         36    2    1    2    0    0  0.00000000000E+00 -0.14210854715E-13 -0.62315952950E+03  0.11779057261E+04  0.99956695637E+03 0.  0.
         25    2    3    3    0    0  0.99597187672E+02 -0.78110860209E+02 -0.48005976305E+02  0.18462126507E+03  0.12553697256E+03 0.  0.
         35    2    3    3    0    0 -0.99597187672E+02  0.78110860209E+02 -0.57515355320E+03  0.99328446098E+03  0.79986967964E+03 0.  0.
         22    1    5    5    0    0 -0.18061155737E+03  0.29652412645E+03  0.26398536981E+02  0.34820105539E+03  0.00000000000E+00 0.  1.
         22    1    5    5    0    0  0.81014369696E+02 -0.21841326624E+03 -0.60155209018E+03  0.64508340559E+03  0.00000000000E+00 0.  1.
          5    1    4    4  502    0  0.74184893295E+02 -0.93305606487E+02  0.96000896220E+01  0.11968118614E+03  0.47000000000E+01 0.  1.
         -5    1    4    4    0  502  0.25412294377E+02  0.15194746278E+02 -0.57606065927E+02  0.64940078931E+02  0.47000000000E+01 0.  1.
<mgrwt>
<rscale>  0 0.99956696E+03</rscale>
<asrwt>0</asrwt>
<pdfrwt beam="1">  1        2 0.42672784E-01 0.99956696E+03</pdfrwt>
<pdfrwt beam="2">  1       -2 0.13854348E+00 0.99956696E+03</pdfrwt>
<totfact> 0.50609622E+01</totfact>
</mgrwt>
</event>
<event>
 9    1  0.4236486E-036  0.1000371E+04  0.7818608E-02  0.8680684E-01
         -1   -1    0    0    0  501 -0.00000000000E+00  0.00000000000E+00  0.85596607736E+03  0.85596607736E+03  0.00000000000E+00 0. -1.
          1   -1    0    0  501    0  0.00000000000E+00 -0.00000000000E+00 -0.29228460600E+03  0.29228460600E+03  0.00000000000E+00 0. -1.
         36    2    1    2    0    0  0.00000000000E+00  0.14210854715E-13  0.56368147136E+03  0.11482506834E+04  0.10003713464E+04 0.  0.
         25    2    3    3    0    0 -0.15584502777E+02  0.89249420121E+02 -0.16985298126E+02  0.15576283876E+03  0.12555965064E+03 0.  0.
         35    2    3    3    0    0  0.15584502777E+02 -0.89249420121E+02  0.58066676949E+03  0.99248784460E+03  0.79978115054E+03 0.  0.
         22    1    5    5    0    0  0.40632685395E+03 -0.14749931567E+02  0.31135937275E+03  0.51211691216E+03  0.00000000000E+00 0. -1.
         22    1    5    5    0    0 -0.39074235117E+03 -0.74499488554E+02  0.26930739674E+03  0.48037093244E+03  0.00000000000E+00 0. -1.
          5    1    4    4  502    0  0.39413372058E+02  0.42579198441E+02  0.33901815137E+02  0.67363381050E+02  0.47000000000E+01 0.  1.
         -5    1    4    4    0  502 -0.54997874835E+02  0.46670221679E+02 -0.50887113263E+02  0.88399457714E+02  0.47000000000E+01 0.  1.
<mgrwt>
<rscale>  0 0.10003713E+04</rscale>
<asrwt>0</asrwt>
<pdfrwt beam="1">  1        1 0.44966863E-01 0.10003713E+04</pdfrwt>
<pdfrwt beam="2">  1       -1 0.13168709E+00 0.10003713E+04</pdfrwt>
<totfact> 0.53259978E+01</totfact>
</mgrwt>
</event>
<event>
 9    1  0.4236486E-036  0.9993600E+03  0.7818608E-02  0.8681648E-01
          2   -1    0    0  501    0  0.00000000000E+00  0.00000000000E+00  0.15800555925E+04  0.15800555925E+04  0.00000000000E+00 0.  1.
         -2   -1    0    0    0  501 -0.00000000000E+00 -0.00000000000E+00 -0.15801983268E+03  0.15801983268E+03  0.00000000000E+00 0.  1.
         36    2    1    2    0    0  0.00000000000E+00  0.28421709430E-13  0.14220357599E+04  0.17380754252E+04  0.99936003593E+03 0.  0.
         25    2    3    3    0    0 -0.32497361076E+01 -0.10490296258E+03  0.11389709628E+03  0.20080337281E+03  0.12780553059E+03 0.  0.
         35    2    3    3    0    0  0.32497361076E+01  0.10490296258E+03  0.13081386636E+04  0.15372720524E+04  0.80060190333E+03 0.  0.
         22    1    5    5    0    0 -0.34595842233E+02  0.41499932018E+03  0.10582067536E+04  0.11371995610E+04  0.00000000000E+00 0. -1.
         22    1    5    5    0    0  0.37845578341E+02 -0.31009635760E+03  0.24993190996E+03  0.40007249145E+03  0.00000000000E+00 0. -1.
          5    1    4    4  502    0 -0.38293416208E+02 -0.11730500701E+03  0.10547167711E+03  0.16239832224E+03  0.47000000000E+01 0. -1.
         -5    1    4    4    0  502  0.35043680100E+02  0.12402044433E+02  0.84254191737E+01  0.38405050571E+02  0.47000000000E+01 0. -1.
<mgrwt>
<rscale>  0 0.99936004E+03</rscale>
<asrwt>0</asrwt>
<pdfrwt beam="1">  1        2 0.24308547E+00 0.99936004E+03</pdfrwt>
<pdfrwt beam="2">  1       -2 0.24310745E-01 0.99936004E+03</pdfrwt>
<totfact> 0.20577402E+02</totfact>
</mgrwt>
</event>
<event>
 9    1  0.4236486E-036  0.1000383E+04  0.7818608E-02  0.8680674E-01
          1   -1    0    0  501    0  0.00000000000E+00  0.00000000000E+00  0.16360504860E+04  0.16360504860E+04  0.00000000000E+00 0. -1.
         -1   -1    0    0    0  501 -0.00000000000E+00 -0.00000000000E+00 -0.15292402442E+03  0.15292402442E+03  0.00000000000E+00 0. -1.
         36    2    1    2    0    0  0.00000000000E+00 -0.24868995752E-13  0.14831264616E+04  0.17889745104E+04  0.10003827757E+04 0.  0.
         25    2    3    3    0    0 -0.13065706239E+03  0.24965017832E+01  0.18188036569E+03  0.25647414079E+03  0.12498406697E+03 0.  0.
         35    2    3    3    0    0  0.13065706239E+03 -0.24965017832E+01  0.13012460959E+04  0.15325003696E+04  0.79889829165E+03 0.  0.
         22    1    5    5    0    0  0.41732487214E+02  0.37890445063E+03  0.87066800770E+03  0.95045934307E+03  0.00000000000E+00 0.  1.
         22    1    5    5    0    0  0.88924575171E+02 -0.38140095242E+03  0.43057808817E+03  0.58204102655E+03  0.00000000000E+00 0.  1.
          5    1    4    4  502    0 -0.12280306473E+02 -0.46190896704E+01  0.12336447943E+03  0.12414921144E+03  0.47000000000E+01 0.  1.
         -5    1    4    4    0  502 -0.11837675591E+03  0.71155914537E+01  0.58515886265E+02  0.13232492935E+03  0.47000000000E+01 0.  1.
<mgrwt>
<rscale>  0 0.10003828E+04</rscale>
<asrwt>0</asrwt>
<pdfrwt beam="1">  1        1 0.25170006E+00 0.10003828E+04</pdfrwt>
<pdfrwt beam="2">  1       -1 0.23526774E-01 0.10003828E+04</pdfrwt>
<totfact> 0.87619408E+01</totfact>
</mgrwt>
</event>
<event>
 9    1  0.4236486E-036  0.9996860E+03  0.7818608E-02  0.8681337E-01
          1   -1    0    0  501    0  0.00000000000E+00  0.00000000000E+00  0.20877114191E+04  0.20877114191E+04  0.00000000000E+00 0. -1.
         -1   -1    0    0    0  501 -0.00000000000E+00 -0.00000000000E+00 -0.11967315717E+03  0.11967315717E+03  0.00000000000E+00 0. -1.
         36    2    1    2    0    0  0.14210854715E-13  0.14210854715E-13  0.19680382619E+04  0.22073845763E+04  0.99968598425E+03 0.  0.
         25    2    3    3    0    0  0.12092055820E+03 -0.53209880281E+02  0.27105580267E+03  0.32634142703E+03  0.12479746023E+03 0.  0.
         35    2    3    3    0    0 -0.12092055820E+03  0.53209880281E+02  0.16969824593E+04  0.18810431492E+04  0.80070018703E+03 0.  0.
         22    1    5    5    0    0 -0.25149816856E+03 -0.28270600688E+03  0.47651159194E+03  0.60847129132E+03  0.00000000000E+00 0.  1.
         22    1    5    5    0    0  0.13057761036E+03  0.33591588716E+03  0.12204708673E+04  0.12725718579E+04  0.00000000000E+00 0.  1.
          5    1    4    4  502    0  0.85830247503E+02  0.23600040184E+02  0.90862287915E+02  0.12728644330E+03  0.47000000000E+01 0.  1.
         -5    1    4    4    0  502  0.35090310696E+02 -0.76809920465E+02  0.18019351476E+03  0.19905498373E+03  0.47000000000E+01 0.  1.
<mgrwt>
<rscale>  0 0.99968598E+03</rscale>
<asrwt>0</asrwt>
<pdfrwt beam="1">  1        1 0.32118635E+00 0.99968598E+03</pdfrwt>
<pdfrwt beam="2">  1       -1 0.18411256E-01 0.99968598E+03</pdfrwt>
<totfact> 0.63362802E+01</totfact>
</mgrwt>
</event>
<event>
 9    1  0.4236486E-036  0.1000332E+04  0.7818608E-02  0.8680722E-01
          2   -1    0    0  501    0  0.00000000000E+00  0.00000000000E+00  0.17814047997E+04  0.17814047997E+04  0.00000000000E+00 0.  1.
         -2   -1    0    0    0  501 -0.00000000000E+00 -0.00000000000E+00 -0.14043190454E+03  0.14043190454E+03  0.00000000000E+00 0.  1.
         36    2    1    2    0    0  0.00000000000E+00 -0.14210854715E-13  0.16409728951E+04  0.19218367042E+04  0.10003320824E+04 0.  0.
         25    2    3    3    0    0 -0.84547172218E+02 -0.96823161505E+02  0.18861592903E+03  0.25854154442E+03  0.12142821984E+03 0.  0.
         35    2    3    3    0    0  0.84547172218E+02  0.96823161505E+02  0.14523569661E+04  0.16632951598E+04  0.80042931147E+03 0.  0.
         22    1    5    5    0    0 -0.24629175222E+03  0.12791888620E+03  0.12359899500E+04  0.12667651815E+04  0.00000000000E+00 0. -1.
         22    1    5    5    0    0  0.33083892443E+03 -0.31095724693E+02  0.21636701616E+03  0.39652997831E+03  0.00000000000E+00 0. -1.
          5    1    4    4  502    0  0.30873405619E+02 -0.13059256823E+02  0.30547790205E+02  0.45595710869E+02  0.47000000000E+01 0.  1.
         -5    1    4    4    0  502 -0.11542057784E+03 -0.83763904682E+02  0.15806813883E+03  0.21294583356E+03  0.47000000000E+01 0.  1.
<mgrwt>
<rscale>  0 0.10003321E+04</rscale>
<asrwt>0</asrwt>
<pdfrwt beam="1">  1        2 0.27406226E+00 0.10003321E+04</pdfrwt>
<pdfrwt beam="2">  1       -2 0.21604910E-01 0.10003321E+04</pdfrwt>
<totfact> 0.19494851E+02</totfact>
</mgrwt>
</event>
<event>
 9    1  0.4236486E-036  0.9994445E+03  0.7818608E-02  0.8681567E-01
         -1   -1    0    0    0  501 -0.00000000000E+00  0.00000000000E+00  0.40800120110E+03  0.40800120110E+03  0.00000000000E+00 0.  1.
          1   -1    0    0  501    0  0.00000000000E+00 -0.00000000000E+00 -0.61206275059E+03  0.61206275059E+03  0.00000000000E+00 0.  1.
         36    2    1    2    0    0 -0.10658141036E-13 -0.56843418861E-13 -0.20406154948E+03  0.10200639517E+04  0.99944452050E+03 0.  0.
         25    2    3    3    0    0  0.17248948436E+02 -0.13024641533E+03  0.85470991475E+01  0.18254296613E+03  0.12644060523E+03 0.  0.
         35    2    3    3    0    0 -0.17248948436E+02  0.13024641533E+03 -0.21260864863E+03  0.83752098556E+03  0.79936056248E+03 0.  0.
         22    1    5    5    0    0  0.64733207534E+02  0.44096975211E+03  0.11320612759E+02  0.44583950779E+03  0.00000000000E+00 0. -1.
         22    1    5    5    0    0 -0.81982155970E+02 -0.31072333678E+03 -0.22392926139E+03  0.39168147777E+03  0.00000000000E+00 0. -1.
          5    1    4    4  502    0  0.15736095928E+01 -0.10442016271E+03  0.61580644153E+02  0.12132729438E+03  0.47000000000E+01 0. -1.
         -5    1    4    4    0  502  0.15675338843E+02 -0.25826252624E+02 -0.53033545005E+02  0.61215671754E+02  0.47000000000E+01 0. -1.
<mgrwt>
<rscale>  0 0.99944452E+03</rscale>
<asrwt>0</asrwt>
<pdfrwt beam="1">  1        1 0.94163500E-01 0.99944452E+03</pdfrwt>
<pdfrwt beam="2">  1       -1 0.62769416E-01 0.99944452E+03</pdfrwt>
<totfact> 0.99521151E+01</totfact>
</mgrwt>
</event>
<event>
 9    1  0.4236486E-036  0.1000646E+04  0.7818608E-02  0.8680423E-01
         -2   -1    0    0    0  501 -0.00000000000E+00  0.00000000000E+00  0.30040449686E+03  0.30040449686E+03  0.00000000000E+00 0.  1.
          2   -1    0    0  501    0  0.00000000000E+00 -0.00000000000E+00 -0.83328707292E+03  0.83328707292E+03  0.00000000000E+00 0.  1.
         36    2    1    2    0    0  0.00000000000E+00 -0.28421709430E-13 -0.53288257606E+03  0.11336915698E+04  0.10006461590E+04 0.  0.
         25    2    3    3    0    0 -0.66464749029E+02  0.41761393486E+02  0.32104982883E+02  0.15106772527E+03  0.12501660227E+03 0.  0.
         35    2    3    3    0    0  0.66464749029E+02 -0.41761393486E+02 -0.56498755894E+03  0.98262384450E+03  0.80011068058E+03 0.  0.
         22    1    5    5    0    0  0.10873061359E+03  0.34474463590E+03 -0.97152850568E+02  0.37431255214E+03  0.00000000000E+00 0. -1.
         22    1    5    5    0    0 -0.42265864564E+02 -0.38650602939E+03 -0.46783470837E+03  0.60831129236E+03  0.00000000000E+00 0. -1.
          5    1    4    4  502    0  0.36817359749E+02  0.50157915864E+01  0.13289783145E+02  0.39741470534E+02  0.47000000000E+01 0.  1.
         -5    1    4    4    0  502 -0.10328210878E+03  0.36745601899E+02  0.18815199738E+02  0.11132625474E+03  0.47000000000E+01 0.  1.
<mgrwt>
<rscale>  0 0.10006462E+04</rscale>
<asrwt>0</asrwt>
<pdfrwt beam="1">  1        2 0.12819801E+00 0.10006462E+04</pdfrwt>
<pdfrwt beam="2">  1       -2 0.46216076E-01 0.10006462E+04</pdfrwt>
<totfact> 0.17518555E+02</totfact>
</mgrwt>
</event>
<event>
 9    1  0.4236486E-036  0.9999219E+03  0.7818608E-02  0.8681112E-01
          2   -1    0    0  501    0  0.00000000000E+00  0.00000000000E+00  0.27914950113E+04  0.27914950113E+04  0.00000000000E+00 0.  1.
         -2   -1    0    0    0  501 -0.00000000000E+00 -0.00000000000E+00 -0.89543750035E+02  0.89543750035E+02  0.00000000000E+00 0.  1.
         36    2    1    2    0    0  0.35527136788E-14  0.14210854715E-13  0.27019512612E+04  0.28810387613E+04  0.99992185997E+03 0.  0.
         25    2    3    3    0    0 -0.30463749716E+02 -0.11215821959E+03  0.73956603491E+03  0.75898661404E+03  0.12488095942E+03 0.  0.
         35    2    3    3    0    0  0.30463749716E+02  0.11215821959E+03  0.19623852263E+04  0.21220521473E+04  0.79915081991E+03 0.  0.
         22    1    5    5    0    0  0.22832208723E+03  0.94482871695E+02  0.18968468004E+04  0.19128736949E+04  0.00000000000E+00 0. -1.
         22    1    5    5    0    0 -0.19785833752E+03  0.17675347892E+02  0.65538425913E+02  0.20917845233E+03  0.00000000000E+00 0. -1.
          5    1    4    4  502    0 -0.68029712396E+01 -0.87495744593E+02  0.70390190322E+03  0.70936715817E+03  0.47000000000E+01 0. -1.
         -5    1    4    4    0  502 -0.23660778476E+02 -0.24662474994E+02  0.35664131696E+02  0.49619455867E+02  0.47000000000E+01 0. -1.
<mgrwt>
<rscale>  0 0.99992186E+03</rscale>
<asrwt>0</asrwt>
<pdfrwt beam="1">  1        2 0.42946070E+00 0.99992186E+03</pdfrwt>
<pdfrwt beam="2">  1       -2 0.13775964E-01 0.99992186E+03</pdfrwt>
<totfact> 0.10558667E+02</totfact>
</mgrwt>
</event>
<event>
 9    1  0.4236486E-036  0.1000065E+04  0.7818608E-02  0.8680976E-01
          1   -1    0    0  501    0  0.00000000000E+00  0.00000000000E+00  0.96421851051E+03  0.96421851051E+03  0.00000000000E+00 0. -1.
         -1   -1    0    0    0  501 -0.00000000000E+00 -0.00000000000E+00 -0.25931095873E+03  0.25931095873E+03  0.00000000000E+00 0. -1.
         36    2    1    2    0    0  0.00000000000E+00  0.35527136788E-14  0.70490755178E+03  0.12235294692E+04  0.10000648507E+04 0.  0.
         25    2    3    3    0    0 -0.81485530330E+02 -0.41747678440E+01  0.27681392755E+03  0.31456322724E+03  0.12516690102E+03 0.  0.
         35    2    3    3    0    0  0.81485530330E+02  0.41747678440E+01  0.42809362424E+03  0.90896624199E+03  0.79768299319E+03 0.  0.
         22    1    5    5    0    0  0.12757189617E+03  0.13356021020E+03 -0.19636710948E+03  0.26957922792E+03  0.00000000000E+00 0.  1.
         22    1    5    5    0    0 -0.46086365836E+02 -0.12938544236E+03  0.62446073372E+03  0.63938701407E+03  0.00000000000E+00 0.  1.
          5    1    4    4  502    0 -0.77314359815E+02 -0.20761842766E+02  0.68412641004E+02  0.10540846170E+03  0.47000000000E+01 0. -1.
         -5    1    4    4    0  502 -0.41711705150E+01  0.16587074922E+02  0.20840128654E+03  0.20915476554E+03  0.47000000000E+01 0. -1.
<mgrwt>
<rscale>  0 0.10000649E+04</rscale>
<asrwt>0</asrwt>
<pdfrwt beam="1">  1        1 0.14834131E+00 0.10000649E+04</pdfrwt>
<pdfrwt beam="2">  1       -1 0.39893994E-01 0.10000649E+04</pdfrwt>
<totfact> 0.11093747E+02</totfact>
</mgrwt>
</event>
<event>
 9    1  0.4236486E-036  0.9994497E+03  0.7818608E-02  0.8681562E-01
         -2   -1    0    0    0  501 -0.00000000000E+00  0.00000000000E+00  0.22878746685E+03  0.22878746685E+03  0.00000000000E+00 0.  1.
          2   -1    0    0  501    0  0.00000000000E+00 -0.00000000000E+00 -0.10915148060E+04  0.10915148060E+04  0.00000000000E+00 0.  1.
         36    2    1    2    0    0 -0.28421709430E-13  0.00000000000E+00 -0.86272733912E+03  0.13203022728E+04  0.99944966355E+03 0.  0.
         25    2    3    3    0    0 -0.39450314093E+01 -0.42065313469E+02  0.17679610383E+02  0.13162589580E+03  0.12340078587E+03 0.  0.
         35    2    3    3    0    0  0.39450314093E+01  0.42065313469E+02 -0.88040694950E+03  0.11886763770E+04  0.79752747833E+03 0.  0.
         22    1    5    5    0    0  0.31072705101E+03  0.20499218807E+03 -0.19491196393E+03  0.42019492035E+03  0.00000000000E+00 0. -1.
         22    1    5    5    0    0 -0.30678201960E+03 -0.16292687460E+03 -0.68549498557E+03  0.76848145668E+03  0.00000000000E+00 0. -1.
          5    1    4    4  502    0  0.32639970129E+02 -0.74357819176E+02  0.13071790949E+02  0.82385767224E+02  0.47000000000E+01 0. -1.
         -5    1    4    4    0  502 -0.36585001538E+02  0.32292505707E+02  0.46078194348E+01  0.49240128577E+02  0.47000000000E+01 0. -1.
<mgrwt>
<rscale>  0 0.99944966E+03</rscale>
<asrwt>0</asrwt>
<pdfrwt beam="1">  1        2 0.16792536E+00 0.99944966E+03</pdfrwt>
<pdfrwt beam="2">  1       -2 0.35198072E-01 0.99944966E+03</pdfrwt>
<totfact> 0.20168560E+02</totfact>
</mgrwt>
</event>
<event>
 9    1  0.4236486E-036  0.1000219E+04  0.7818608E-02  0.8680830E-01
         -1   -1    0    0    0  501 -0.00000000000E+00  0.00000000000E+00  0.18182290013E+03  0.18182290013E+03  0.00000000000E+00 0. -1.
          1   -1    0    0  501    0  0.00000000000E+00 -0.00000000000E+00 -0.13755656124E+04  0.13755656124E+04  0.00000000000E+00 0. -1.
         36    2    1    2    0    0  0.14210854715E-13  0.42632564146E-13 -0.11937427123E+04  0.15573885125E+04  0.10002186340E+04 0.  0.
         25    2    3    3    0    0 -0.10261819084E+03  0.94069062393E+02 -0.24424210550E+03  0.30779435274E+03  0.12531430839E+03 0.  0.
         35    2    3    3    0    0  0.10261819084E+03 -0.94069062393E+02 -0.94950060677E+03  0.12495941598E+04  0.80034660013E+03 0.  0.
         22    1    5    5    0    0 -0.10744881956E+03 -0.13510437687E+03  0.85540520479E+02  0.19265415157E+03  0.00000000000E+00 0. -1.
         22    1    5    5    0    0  0.21006701039E+03  0.41035314479E+02 -0.10350411272E+04  0.10569400082E+04  0.00000000000E+00 0. -1.
          5    1    4    4  502    0 -0.76117611350E+02  0.36757185372E+02 -0.22685015036E+03  0.24213232365E+03  0.47000000000E+01 0.  1.
         -5    1    4    4    0  502 -0.26500579487E+02  0.57311877021E+02 -0.17391955134E+02  0.65662029089E+02  0.47000000000E+01 0.  1.
<mgrwt>
<rscale>  0 0.10002186E+04</rscale>
<asrwt>0</asrwt>
<pdfrwt beam="1">  1        1 0.21162548E+00 0.10002186E+04</pdfrwt>
<pdfrwt beam="2">  1       -1 0.27972753E-01 0.10002186E+04</pdfrwt>
<totfact> 0.10037730E+02</totfact>
</mgrwt>
</event>
<event>
 9    1  0.4236486E-036  0.1000312E+04  0.7818608E-02  0.8680741E-01
         -1   -1    0    0    0  501 -0.00000000000E+00  0.00000000000E+00  0.31938632345E+03  0.31938632345E+03  0.00000000000E+00 0. -1.
          1   -1    0    0  501    0  0.00000000000E+00 -0.00000000000E+00 -0.78323897293E+03  0.78323897293E+03  0.00000000000E+00 0. -1.
         36    2    1    2    0    0 -0.17763568394E-14  0.00000000000E+00 -0.46385264948E+03  0.11026252964E+04  0.10003115834E+04 0.  0.
         25    2    3    3    0    0 -0.13492086518E+02  0.90191033209E+02  0.30362207388E+02  0.15775948606E+03  0.12509889262E+03 0.  0.
         35    2    3    3    0    0  0.13492086518E+02 -0.90191033209E+02 -0.49421485687E+03  0.94486581033E+03  0.80012912452E+03 0.  0.
         22    1    5    5    0    0  0.17288197734E+02  0.77193008554E+02 -0.68584839766E+03  0.69039529759E+03  0.00000000000E+00 0.  1.
         22    1    5    5    0    0 -0.37961112166E+01 -0.16738404176E+03  0.19163354079E+03  0.25447051274E+03  0.00000000000E+00 0.  1.
          5    1    4    4  502    0 -0.19090525287E+02 -0.15376369386E+02 -0.27512336990E+02  0.37146999581E+02  0.47000000000E+01 0.  1.
         -5    1    4    4    0  502  0.55984387688E+01  0.10556740260E+03  0.57874544377E+02  0.12061248648E+03  0.47000000000E+01 0.  1.
<mgrwt>
<rscale>  0 0.10003116E+04</rscale>
<asrwt>0</asrwt>
<pdfrwt beam="1">  1        1 0.12049830E+00 0.10003116E+04</pdfrwt>
<pdfrwt beam="2">  1       -1 0.49136358E-01 0.10003116E+04</pdfrwt>
<totfact> 0.10825196E+02</totfact>
</mgrwt>
</event>
<event>
 9    1  0.4236486E-036  0.9994682E+03  0.7818608E-02  0.8681545E-01
          1   -1    0    0  501    0  0.00000000000E+00  0.00000000000E+00  0.46817276559E+03  0.46817276559E+03  0.00000000000E+00 0. -1.
         -1   -1    0    0    0  501 -0.00000000000E+00 -0.00000000000E+00 -0.53342315206E+03  0.53342315206E+03  0.00000000000E+00 0. -1.
         36    2    1    2    0    0 -0.28421709430E-13  0.00000000000E+00 -0.65250386471E+02  0.10015959177E+04  0.99946824328E+03 0.  0.
         25    2    3    3    0    0 -0.85272932658E+02  0.10707241771E+03  0.17763932353E+02  0.18614042591E+03  0.12488684954E+03 0.  0.
         35    2    3    3    0    0  0.85272932658E+02 -0.10707241771E+03 -0.83014318823E+02  0.81545549174E+03  0.79958758507E+03 0.  0.
         22    1    5    5    0    0  0.24399400564E+03 -0.63272007416E+02 -0.39158759440E+03  0.46570083294E+03  0.00000000000E+00 0. -1.
         22    1    5    5    0    0 -0.15872107298E+03 -0.43800410292E+02  0.30857327558E+03  0.34975465880E+03  0.00000000000E+00 0. -1.
          5    1    4    4  502    0 -0.61843021819E+02  0.63309294411E+01 -0.33317803437E+02  0.70688089811E+02  0.47000000000E+01 0.  1.
         -5    1    4    4    0  502 -0.23429910839E+02  0.10074148827E+03  0.51081735790E+02  0.11545233610E+03  0.47000000000E+01 0.  1.
<mgrwt>
<rscale>  0 0.99946824E+03</rscale>
<asrwt>0</asrwt>
<pdfrwt beam="1">  1        1 0.72026580E-01 0.99946824E+03</pdfrwt>
<pdfrwt beam="2">  1       -1 0.82065100E-01 0.99946824E+03</pdfrwt>
<totfact> 0.84882016E+01</totfact>
</mgrwt>
</event>
<event>
 9    1  0.4236486E-036  0.9999419E+03  0.7818608E-02  0.8681093E-01
          1   -1    0    0  501    0  0.00000000000E+00  0.00000000000E+00  0.74259049539E+03  0.74259049539E+03  0.00000000000E+00 0.  1.
         -1   -1    0    0    0  501 -0.00000000000E+00 -0.00000000000E+00 -0.33662018855E+03  0.33662018855E+03  0.00000000000E+00 0.  1.
         36    2    1    2    0    0 -0.28421709430E-13 -0.71054273576E-14  0.40597030684E+03  0.10792106839E+04  0.99994190346E+03 0.  0.
         25    2    3    3    0    0  0.86382608406E+02 -0.32933192015E+02  0.18917084296E+03  0.24493323608E+03  0.12514044965E+03 0.  0.
         35    2    3    3    0    0 -0.86382608406E+02  0.32933192015E+02  0.21679946388E+03  0.83427744786E+03  0.80029388495E+03 0.  0.
         22    1    5    5    0    0  0.31989445245E+03 -0.88866773886E+02  0.23973631357E+03  0.40951589011E+03  0.00000000000E+00 0. -1.
         22    1    5    5    0    0 -0.40627706085E+03  0.12179996590E+03 -0.22936849685E+02  0.42476155775E+03  0.00000000000E+00 0. -1.
          5    1    4    4  502    0  0.24048183296E+02 -0.24111464719E+02 -0.10157790189E+02  0.35846179046E+02  0.47000000000E+01 0.  1.
         -5    1    4    4    0  502  0.62334425111E+02 -0.88217272963E+01  0.19932863315E+03  0.20908705703E+03  0.47000000000E+01 0.  1.
<mgrwt>
<rscale>  0 0.99994190E+03</rscale>
<asrwt>0</asrwt>
<pdfrwt beam="1">  1        1 0.11424469E+00 0.99994190E+03</pdfrwt>
<pdfrwt beam="2">  1       -1 0.51787722E-01 0.99994190E+03</pdfrwt>
<totfact> 0.10691190E+02</totfact>
</mgrwt>
</event>
<event>
 9    1  0.4236486E-036  0.1002993E+04  0.7818608E-02  0.8678193E-01
         -1   -1    0    0    0  501 -0.00000000000E+00  0.00000000000E+00  0.17772528285E+04  0.17772528285E+04  0.00000000000E+00 0.  1.
          1   -1    0    0  501    0  0.00000000000E+00 -0.00000000000E+00 -0.14150977427E+03  0.14150977427E+03  0.00000000000E+00 0.  1.
         36    2    1    2    0    0  0.00000000000E+00  0.71054273576E-14  0.16357430542E+04  0.19187626027E+04  0.10029928147E+04 0.  0.
         25    2    3    3    0    0  0.13833123500E+03 -0.39198597802E+02  0.29149571189E+03  0.34832650119E+03  0.12525789691E+03 0.  0.
         35    2    3    3    0    0 -0.13833123500E+03  0.39198597802E+02  0.13442473423E+04  0.15704361015E+04  0.79912237554E+03 0.  0.
         22    1    5    5    0    0 -0.43376615494E+03  0.15419424653E+03  0.10088405537E+04  0.11089130740E+04  0.00000000000E+00 0.  1.
         22    1    5    5    0    0  0.29543491993E+03 -0.11499564872E+03  0.33540678860E+03  0.46152302757E+03  0.00000000000E+00 0.  1.
          5    1    4    4  502    0  0.47446168160E+02  0.43354320658E+02  0.70829936532E+02  0.95758581348E+02  0.47000000000E+01 0. -1.
         -5    1    4    4    0  502  0.90885066844E+02 -0.82552918460E+02  0.22066577536E+03  0.25256791984E+03  0.47000000000E+01 0. -1.
<mgrwt>
<rscale>  0 0.10029928E+04</rscale>
<asrwt>0</asrwt>
<pdfrwt beam="1">  1        1 0.21770736E-01 0.10029928E+04</pdfrwt>
<pdfrwt beam="2">  1       -1 0.27342350E+00 0.10029928E+04</pdfrwt>
<totfact> 0.76905095E+00</totfact>
</mgrwt>
</event>
<event>
 9    1  0.4236486E-036  0.9967416E+03  0.7818608E-02  0.8684147E-01
         -2   -1    0    0    0  501 -0.00000000000E+00  0.00000000000E+00  0.40956338192E+03  0.40956338192E+03  0.00000000000E+00 0.  1.
          2   -1    0    0  501    0  0.00000000000E+00 -0.00000000000E+00 -0.60643472257E+03  0.60643472257E+03  0.00000000000E+00 0.  1.
         36    2    1    2    0    0 -0.14210854715E-13  0.14210854715E-13 -0.19687134065E+03  0.10159981045E+04  0.99674160320E+03 0.  0.
         25    2    3    3    0    0 -0.55254654688E+02  0.10096837903E+03  0.36014676489E+02  0.17398698656E+03  0.12540623646E+03 0.  0.
         35    2    3    3    0    0  0.55254654688E+02 -0.10096837903E+03 -0.23288601714E+03  0.84201111792E+03  0.80093641152E+03 0.  0.
         22    1    5    5    0    0  0.20185796541E+03 -0.78334491386E+02  0.25357153344E+03  0.33343882994E+03  0.00000000000E+00 0. -1.
         22    1    5    5    0    0 -0.14660331072E+03 -0.22633887644E+02 -0.48645755058E+03  0.50857228798E+03  0.00000000000E+00 0. -1.
          5    1    4    4  502    0  0.11855402281E+02  0.37852456948E+02  0.65865500438E+02  0.77030599168E+02  0.47000000000E+01 0. -1.
         -5    1    4    4    0  502 -0.67110056969E+02  0.63115922082E+02 -0.29850823948E+02  0.96956387397E+02  0.47000000000E+01 0. -1.
<mgrwt>
<rscale>  0 0.99674160E+03</rscale>
<asrwt>0</asrwt>
<pdfrwt beam="1">  1        2 0.93297649E-01 0.99674160E+03</pdfrwt>
<pdfrwt beam="2">  1       -2 0.63009751E-01 0.99674160E+03</pdfrwt>
<totfact> 0.13823158E+02</totfact>
</mgrwt>
</event>
<event>
 9    1  0.4236486E-036  0.9997043E+03  0.7818608E-02  0.8681320E-01
         -2   -1    0    0    0  501 -0.00000000000E+00  0.00000000000E+00  0.30919971731E+03  0.30919971731E+03  0.00000000000E+00 0.  1.
          2   -1    0    0  501    0  0.00000000000E+00 -0.00000000000E+00 -0.80806074494E+03  0.80806074494E+03  0.00000000000E+00 0.  1.
         36    2    1    2    0    0  0.28421709430E-13 -0.71054273576E-14 -0.49886102763E+03  0.11172604622E+04  0.99970426408E+03 0.  0.
         25    2    3    3    0    0 -0.13451121243E+03 -0.17549312153E+01 -0.13558860447E+03  0.22836201096E+03  0.12517424789E+03 0.  0.
         35    2    3    3    0    0  0.13451121243E+03  0.17549312153E+01 -0.36327242315E+03  0.88889845128E+03  0.80004828430E+03 0.  0.
         22    1    5    5    0    0 -0.31996068052E+03 -0.84253726149E+02 -0.24435221811E+03  0.41131682916E+03  0.00000000000E+00 0.  1.
         22    1    5    5    0    0  0.45447189296E+03  0.86008657365E+02 -0.11892020504E+03  0.47758162213E+03  0.00000000000E+00 0.  1.
          5    1    4    4  502    0 -0.86718524070E+01 -0.41440798634E+02 -0.54005860267E+01  0.42939459068E+02  0.47000000000E+01 0. -1.
         -5    1    4    4    0  502 -0.12583936003E+03  0.39685867419E+02 -0.13018801845E+03  0.18542255190E+03  0.47000000000E+01 0. -1.
<mgrwt>
<rscale>  0 0.99970426E+03</rscale>
<asrwt>0</asrwt>
<pdfrwt beam="1">  1        2 0.12431704E+00 0.99970426E+03</pdfrwt>
<pdfrwt beam="2">  1       -2 0.47569187E-01 0.99970426E+03</pdfrwt>
<totfact> 0.17226498E+02</totfact>
</mgrwt>
</event>
<event>
 9    1  0.4236486E-036  0.1002731E+04  0.7818608E-02  0.8678442E-01
         -2   -1    0    0    0  501 -0.00000000000E+00  0.00000000000E+00  0.15688209830E+03  0.15688209830E+03  0.00000000000E+00 0. -1.
          2   -1    0    0  501    0  0.00000000000E+00 -0.00000000000E+00 -0.16022686836E+04  0.16022686836E+04  0.00000000000E+00 0. -1.
         36    2    1    2    0    0  0.00000000000E+00 -0.71054273576E-14 -0.14453865853E+04  0.17591507819E+04  0.10027308176E+04 0.  0.
         25    2    3    3    0    0 -0.13712856934E+03  0.43513809829E+02 -0.29165048127E+03  0.34812505967E+03  0.12423106605E+03 0.  0.
         35    2    3    3    0    0  0.13712856934E+03 -0.43513809829E+02 -0.11537361041E+04  0.14110257223E+04  0.79949289859E+03 0.  0.
         22    1    5    5    0    0  0.19565869017E+03 -0.15535355189E+03  0.57350948265E+00  0.24983470142E+03  0.00000000000E+00 0. -1.
         22    1    5    5    0    0 -0.58530120830E+02  0.11183974206E+03 -0.11543096136E+04  0.11611910208E+04  0.00000000000E+00 0. -1.
          5    1    4    4  502    0  0.20568336427E+02 -0.10181541464E+02 -0.36295269873E+02  0.43199037780E+02  0.47000000000E+01 0. -1.
         -5    1    4    4    0  502 -0.15769690576E+03  0.53695351293E+02 -0.25535521140E+03  0.30492602189E+03  0.47000000000E+01 0. -1.
<mgrwt>
<rscale>  0 0.10027308E+04</rscale>
<asrwt>0</asrwt>
<pdfrwt beam="1">  1        2 0.24650286E+00 0.10027308E+04</pdfrwt>
<pdfrwt beam="2">  1       -2 0.24135709E-01 0.10027308E+04</pdfrwt>
<totfact> 0.20249357E+02</totfact>
</mgrwt>
</event>
<event>
 9    1  0.4236486E-036  0.9999470E+03  0.7818608E-02  0.8681088E-01
         -2   -1    0    0    0  501 -0.00000000000E+00  0.00000000000E+00  0.92138627169E+03  0.92138627169E+03  0.00000000000E+00 0.  1.
          2   -1    0    0  501    0  0.00000000000E+00 -0.00000000000E+00 -0.27130154378E+03  0.27130154378E+03  0.00000000000E+00 0.  1.
         36    2    1    2    0    0  0.00000000000E+00  0.00000000000E+00  0.65008472792E+03  0.11926878155E+04  0.99994703445E+03 0.  0.
         25    2    3    3    0    0 -0.94396745682E+02  0.52797759856E+02  0.22786071985E+03  0.28179584761E+03  0.12565843799E+03 0.  0.
         35    2    3    3    0    0  0.94396745682E+02 -0.52797759856E+02  0.42222400806E+03  0.91089196786E+03  0.79984543200E+03 0.  0.
         22    1    5    5    0    0 -0.22283978935E+03  0.54387515543E+02 -0.13104997552E+03  0.26417734507E+03  0.00000000000E+00 0. -1.
         22    1    5    5    0    0  0.31723653503E+03 -0.10718527540E+03  0.55327398359E+03  0.64671462279E+03  0.00000000000E+00 0. -1.
          5    1    4    4  502    0 -0.75259568833E+02 -0.16498895266E+02  0.55757644309E+02  0.95221957262E+02  0.47000000000E+01 0. -1.
         -5    1    4    4    0  502 -0.19137176849E+02  0.69296655122E+02  0.17210307554E+03  0.18657389035E+03  0.47000000000E+01 0. -1.
<mgrwt>
<rscale>  0 0.99994703E+03</rscale>
<asrwt>0</asrwt>
<pdfrwt beam="1">  1        2 0.41738699E-01 0.99994703E+03</pdfrwt>
<pdfrwt beam="2">  1       -2 0.14175173E+00 0.99994703E+03</pdfrwt>
<totfact> 0.48725534E+01</totfact>
</mgrwt>
</event>
<event>
 9    1  0.4236486E-036  0.9995400E+03  0.7818608E-02  0.8681476E-01
          2   -1    0    0  501    0  0.00000000000E+00  0.00000000000E+00  0.11567288092E+04  0.11567288092E+04  0.00000000000E+00 0. -1.
         -2   -1    0    0    0  501 -0.00000000000E+00 -0.00000000000E+00 -0.21592791099E+03  0.21592791099E+03  0.00000000000E+00 0. -1.
         36    2    1    2    0    0  0.14210854715E-13 -0.14210854715E-13  0.94080089820E+03  0.13726567202E+04  0.99953996488E+03 0.  0.
         25    2    3    3    0    0 -0.61186951007E+01  0.12093987775E+03  0.27207169669E+03  0.32292331127E+03  0.12487019004E+03 0.  0.
         35    2    3    3    0    0  0.61186951007E+01 -0.12093987775E+03  0.66872920152E+03  0.10497334089E+04  0.80004849376E+03 0.  0.
         22    1    5    5    0    0  0.36107557016E+03 -0.32663209792E+02  0.10448447997E+03  0.37730552500E+03  0.00000000000E+00 0. -1.
         22    1    5    5    0    0 -0.35495687506E+03 -0.88276667959E+02  0.56424472155E+03  0.67242788391E+03  0.00000000000E+00 0. -1.
          5    1    4    4  502    0  0.44160431797E+02  0.94143882820E+02  0.11177726281E+03  0.15273984710E+03  0.47000000000E+01 0.  1.
         -5    1    4    4    0  502 -0.50279126898E+02  0.26795994931E+02  0.16029443387E+03  0.17018346417E+03  0.47000000000E+01 0.  1.
<mgrwt>
<rscale>  0 0.99953996E+03</rscale>
<asrwt>0</asrwt>
<pdfrwt beam="1">  1        2 0.17795827E+00 0.99953996E+03</pdfrwt>
<pdfrwt beam="2">  1       -2 0.33219679E-01 0.99953996E+03</pdfrwt>
<totfact> 0.20516727E+02</totfact>
</mgrwt>
</event>
<event>
 9    1  0.4236486E-036  0.9998803E+03  0.7818608E-02  0.8681152E-01
         -1   -1    0    0    0  501 -0.00000000000E+00  0.00000000000E+00  0.61577234321E+03  0.61577234321E+03  0.00000000000E+00 0. -1.
          1   -1    0    0  501    0  0.00000000000E+00 -0.00000000000E+00 -0.40589705158E+03  0.40589705158E+03  0.00000000000E+00 0. -1.
         36    2    1    2    0    0  0.14210854715E-13  0.00000000000E+00  0.20987529163E+03  0.10216693948E+04  0.99988034995E+03 0.  0.
         25    2    3    3    0    0 -0.10611865863E+03  0.91046742030E+02  0.25329782299E+02  0.18898829928E+03  0.12459655071E+03 0.  0.
         35    2    3    3    0    0  0.10611865863E+03 -0.91046742030E+02  0.18454550933E+03  0.83268109551E+03  0.79984378654E+03 0.  0.
         22    1    5    5    0    0 -0.16751436140E+03  0.90894747453E+02 -0.23320714113E+03  0.30117849701E+03  0.00000000000E+00 0.  1.
         22    1    5    5    0    0  0.27363302002E+03 -0.18194148948E+03  0.41775265046E+03  0.53150259850E+03  0.00000000000E+00 0.  1.
          5    1    4    4  502    0 -0.79575530792E+02  0.55887569504E+02 -0.43901573400E+02  0.10679477362E+03  0.47000000000E+01 0.  1.
         -5    1    4    4    0  502 -0.26543127834E+02  0.35159172525E+02  0.69231355699E+02  0.82193525657E+02  0.47000000000E+01 0.  1.
<mgrwt>
<rscale>  0 0.99988035E+03</rscale>
<asrwt>0</asrwt>
<pdfrwt beam="1">  1        1 0.62445700E-01 0.99988035E+03</pdfrwt>
<pdfrwt beam="2">  1       -1 0.94734207E-01 0.99988035E+03</pdfrwt>
<totfact> 0.75715487E+01</totfact>
</mgrwt>
</event>
<event>
 9    1  0.4236486E-036  0.1000173E+04  0.7818608E-02  0.8680873E-01
          2   -1    0    0  501    0  0.00000000000E+00  0.00000000000E+00  0.70291415197E+03  0.70291415197E+03  0.00000000000E+00 0.  1.
         -2   -1    0    0    0  501 -0.00000000000E+00 -0.00000000000E+00 -0.35578554781E+03  0.35578554781E+03  0.00000000000E+00 0.  1.
         36    2    1    2    0    0 -0.28421709430E-13  0.00000000000E+00  0.34712860416E+03  0.10586996998E+04  0.10001733782E+04 0.  0.
         25    2    3    3    0    0  0.13144428947E+02  0.12472301642E+03  0.13207733294E+03  0.22122215831E+03  0.12556358792E+03 0.  0.
         35    2    3    3    0    0 -0.13144428947E+02 -0.12472301642E+03  0.21505127122E+03  0.83747754147E+03  0.79962052023E+03 0.  0.
         22    1    5    5    0    0 -0.36714646877E+03  0.11011811078E+03  0.78546827647E+02  0.39126989660E+03  0.00000000000E+00 0. -1.
         22    1    5    5    0    0  0.35400203982E+03 -0.23484112720E+03  0.13650444357E+03  0.44620764487E+03  0.00000000000E+00 0. -1.
          5    1    4    4  502    0 -0.34904609802E+02  0.65467247974E+02  0.12371579126E+03  0.14433287688E+03  0.47000000000E+01 0.  1.
         -5    1    4    4    0  502  0.48049038749E+02  0.59255768444E+02  0.83615416860E+01  0.76889281424E+02  0.47000000000E+01 0.  1.
<mgrwt>
<rscale>  0 0.10001734E+04</rscale>
<asrwt>0</asrwt>
<pdfrwt beam="1">  1        2 0.10814064E+00 0.10001734E+04</pdfrwt>
<pdfrwt beam="2">  1       -2 0.54736238E-01 0.10001734E+04</pdfrwt>
<totfact> 0.15489886E+02</totfact>
</mgrwt>
</event>
<event>
 9    1  0.4236486E-036  0.9992369E+03  0.7818608E-02  0.8681765E-01
          1   -1    0    0  501    0  0.00000000000E+00  0.00000000000E+00  0.22559748523E+04  0.22559748523E+04  0.00000000000E+00 0. -1.
         -1   -1    0    0    0  501 -0.00000000000E+00 -0.00000000000E+00 -0.11064777451E+03  0.11064777451E+03  0.00000000000E+00 0. -1.
         36    2    1    2    0    0  0.28421709430E-13  0.00000000000E+00  0.21453270778E+04  0.23666226268E+04  0.99923690233E+03 0.  0.
         25    2    3    3    0    0 -0.23719723339E+02  0.81352023939E+02  0.66302056993E+03  0.68009605966E+03  0.12551333451E+03 0.  0.
         35    2    3    3    0    0  0.23719723339E+02 -0.81352023939E+02  0.14823065078E+04  0.16865265671E+04  0.79997406292E+03 0.  0.
         22    1    5    5    0    0  0.40001583526E+03 -0.99680329489E+02  0.60887616701E+03  0.73530879452E+03  0.00000000000E+00 0. -1.
         22    1    5    5    0    0 -0.37629611192E+03  0.18328305550E+02  0.87343034082E+03  0.95121777259E+03  0.00000000000E+00 0. -1.
          5    1    4    4  502    0  0.18867809815E+02 -0.22347834304E+02  0.62266944069E+02  0.68954204143E+02  0.47000000000E+01 0.  1.
         -5    1    4    4    0  502 -0.42587533154E+02  0.10369985824E+03  0.60075362586E+03  0.61114185552E+03  0.47000000000E+01 0.  1.
<mgrwt>
<rscale>  0 0.99923690E+03</rscale>
<asrwt>0</asrwt>
<pdfrwt beam="1">  1        1 0.34707302E+00 0.99923690E+03</pdfrwt>
<pdfrwt beam="2">  1       -1 0.17022736E-01 0.99923690E+03</pdfrwt>
<totfact> 0.54882215E+01</totfact>
</mgrwt>
</event>
<event>
 9    1  0.4236486E-036  0.1000227E+04  0.7818608E-02  0.8680821E-01
          2   -1    0    0  501    0  0.00000000000E+00  0.00000000000E+00  0.11545415930E+04  0.11545415930E+04  0.00000000000E+00 0.  1.
         -2   -1    0    0    0  501 -0.00000000000E+00 -0.00000000000E+00 -0.21663465625E+03  0.21663465625E+03  0.00000000000E+00 0.  1.
         36    2    1    2    0    0  0.42632564146E-13  0.14210854715E-13  0.93790693678E+03  0.13711762493E+04  0.10002274164E+04 0.  0.
         25    2    3    3    0    0  0.69205848048E+02  0.95599615535E+02  0.23822298012E+03  0.29576898475E+03  0.12961623427E+03 0.  0.
         35    2    3    3    0    0 -0.69205848048E+02 -0.95599615535E+02  0.69968395666E+03  0.10754072645E+04  0.80809306983E+03 0.  0.
         22    1    5    5    0    0  0.11931266233E+03  0.18659926458E+03 -0.71592745468E+02  0.23276666028E+03  0.00000000000E+00 0.  1.
         22    1    5    5    0    0 -0.18851851038E+03 -0.28219888011E+03  0.77127670212E+03  0.84264060425E+03  0.00000000000E+00 0.  1.
          5    1    4    4  502    0  0.79704522834E+02  0.32673630390E+02  0.20767448938E+03  0.22488032511E+03  0.47000000000E+01 0.  1.
         -5    1    4    4    0  502 -0.10498674787E+02  0.62925985145E+02  0.30548490742E+02  0.70888659639E+02  0.47000000000E+01 0.  1.
<mgrwt>
<rscale>  0 0.10002274E+04</rscale>
<asrwt>0</asrwt>
<pdfrwt beam="1">  1        2 0.17762178E+00 0.10002274E+04</pdfrwt>
<pdfrwt beam="2">  1       -2 0.33328409E-01 0.10002274E+04</pdfrwt>
<totfact> 0.20454384E+02</totfact>
</mgrwt>
</event>
<event>
 9    1  0.4236486E-036  0.9996915E+03  0.7818608E-02  0.8681332E-01
          1   -1    0    0  501    0  0.00000000000E+00  0.00000000000E+00  0.11219020844E+04  0.11219020844E+04  0.00000000000E+00 0. -1.
         -1   -1    0    0    0  501 -0.00000000000E+00 -0.00000000000E+00 -0.22269839390E+03  0.22269839390E+03  0.00000000000E+00 0. -1.
         36    2    1    2    0    0  0.49737991503E-13  0.14210854715E-13  0.89920369052E+03  0.13446004783E+04  0.99969153704E+03 0.  0.
         25    2    3    3    0    0 -0.30539385926E+02 -0.77125245297E+02  0.16313354886E+02  0.15039172145E+03  0.12438081355E+03 0.  0.
         35    2    3    3    0    0  0.30539385926E+02  0.77125245297E+02  0.88289033564E+03  0.11942087569E+04  0.79984889364E+03 0.  0.
         22    1    5    5    0    0  0.30327116698E+03  0.31522333783E+03  0.41857820853E+03  0.60543114397E+03  0.00000000000E+00 0. -1.
         22    1    5    5    0    0 -0.27273178106E+03 -0.23809809253E+03  0.46431212711E+03  0.58877761289E+03  0.00000000000E+00 0. -1.
          5    1    4    4  502    0 -0.19414445558E+02  0.23653149498E+02  0.35490758565E+02  0.47096455504E+02  0.47000000000E+01 0. -1.
         -5    1    4    4    0  502 -0.11124940367E+02 -0.10077839479E+03 -0.19177403680E+02  0.10329526595E+03  0.47000000000E+01 0. -1.
<mgrwt>
<rscale>  0 0.99969154E+03</rscale>
<asrwt>0</asrwt>
<pdfrwt beam="1">  1        1 0.17260032E+00 0.99969154E+03</pdfrwt>
<pdfrwt beam="2">  1       -1 0.34261292E-01 0.99969154E+03</pdfrwt>
<totfact> 0.10913017E+02</totfact>
</mgrwt>
</event>
<event>
 9    1  0.4236486E-036  0.1001017E+04  0.7818608E-02  0.8680070E-01
          1   -1    0    0  501    0  0.00000000000E+00  0.00000000000E+00  0.63143650401E+03  0.63143650401E+03  0.00000000000E+00 0. -1.
         -1   -1    0    0    0  501 -0.00000000000E+00 -0.00000000000E+00 -0.39672828693E+03  0.39672828693E+03  0.00000000000E+00 0. -1.
         36    2    1    2    0    0  0.00000000000E+00 -0.28421709430E-13  0.23470821708E+03  0.10281647909E+04  0.10010169280E+04 0.  0.
         25    2    3    3    0    0  0.76893972443E+02 -0.11731099101E+03  0.32888266090E+02  0.19179697381E+03  0.12660919992E+03 0.  0.
         35    2    3    3    0    0 -0.76893972443E+02  0.11731099101E+03  0.20181995099E+03  0.83636781713E+03  0.79944060523E+03 0.  0.
         22    1    5    5    0    0 -0.93434768824E+02 -0.29252622728E+03  0.28373248255E+03  0.41809780115E+03  0.00000000000E+00 0.  1.
         22    1    5    5    0    0  0.16540796381E+02  0.40983721829E+03 -0.81912531561E+02  0.41827001598E+03  0.00000000000E+00 0.  1.
          5    1    4    4  502    0  0.23994727026E+02 -0.13012738236E+03  0.35569169860E+02  0.13709900951E+03  0.47000000000E+01 0.  1.
         -5    1    4    4    0  502  0.52899245418E+02  0.12816391345E+02 -0.26809037706E+01  0.54697964294E+02  0.47000000000E+01 0.  1.
<mgrwt>
<rscale>  0 0.10010169E+04</rscale>
<asrwt>0</asrwt>
<pdfrwt beam="1">  1        1 0.97144078E-01 0.10010169E+04</pdfrwt>
<pdfrwt beam="2">  1       -1 0.61035121E-01 0.10010169E+04</pdfrwt>
<totfact> 0.10031048E+02</totfact>
</mgrwt>
</event>
<event>
 9    1  0.4236486E-036  0.9993876E+03  0.7818608E-02  0.8681621E-01
         -2   -1    0    0    0  501 -0.00000000000E+00  0.00000000000E+00  0.73524233564E+03  0.73524233564E+03  0.00000000000E+00 0. -1.
          2   -1    0    0  501    0  0.00000000000E+00 -0.00000000000E+00 -0.33960762223E+03  0.33960762223E+03  0.00000000000E+00 0. -1.
         36    2    1    2    0    0  0.53290705182E-14  0.00000000000E+00  0.39563471341E+03  0.10748499579E+04  0.99938761523E+03 0.  0.
         25    2    3    3    0    0  0.15164670438E+02 -0.51186775124E+02  0.21274921898E+03  0.25292302102E+03  0.12592764276E+03 0.  0.
         35    2    3    3    0    0 -0.15164670438E+02  0.51186775124E+02  0.18288549443E+03  0.82192693685E+03  0.79954157632E+03 0.  0.
         22    1    5    5    0    0 -0.22798548580E+03  0.35553958438E+03  0.15349847991E+03  0.44938575982E+03  0.00000000000E+00 0. -1.
         22    1    5    5    0    0  0.21282081536E+03 -0.30435280926E+03  0.29387014521E+02  0.37254117702E+03  0.00000000000E+00 0. -1.
          5    1    4    4  502    0  0.17998534824E+02 -0.90211867230E+02  0.11374151648E+03  0.14636034578E+03  0.47000000000E+01 0.  1.
         -5    1    4    4    0  502 -0.28338643852E+01  0.39025092106E+02  0.99007702501E+02  0.10656267525E+03  0.47000000000E+01 0.  1.
<mgrwt>
<rscale>  0 0.99938762E+03</rscale>
<asrwt>0</asrwt>
<pdfrwt beam="1">  1        2 0.52247327E-01 0.99938762E+03</pdfrwt>
<pdfrwt beam="2">  1       -2 0.11311421E+00 0.99938762E+03</pdfrwt>
<totfact> 0.68945708E+01</totfact>
</mgrwt>
</event>
<event>
 9    1  0.4236486E-036  0.1001007E+04  0.7818608E-02  0.8680080E-01
         -2   -1    0    0    0  501 -0.00000000000E+00  0.00000000000E+00  0.99725390970E+02  0.99725390970E+02  0.00000000000E+00 0.  1.
          2   -1    0    0  501    0  0.00000000000E+00 -0.00000000000E+00 -0.25119349830E+04  0.25119349830E+04  0.00000000000E+00 0.  1.
         36    2    1    2    0    0  0.21316282073E-13  0.00000000000E+00 -0.24122095920E+04  0.26116603740E+04  0.10010068896E+04 0.  0.
         25    2    3    3    0    0 -0.60960170611E+02 -0.85763158281E+02 -0.21294648051E+03  0.26897366414E+03  0.12621080271E+03 0.  0.
         35    2    3    3    0    0  0.60960170611E+02  0.85763158281E+02 -0.21992631115E+04  0.23426867098E+04  0.80021954800E+03 0.  0.
         22    1    5    5    0    0  0.37234995188E+03 -0.16244895776E+03 -0.12054049938E+04  0.12720201845E+04  0.00000000000E+00 0. -1.
         22    1    5    5    0    0 -0.31138978127E+03  0.24821211604E+03 -0.99385811771E+03  0.10706665254E+04  0.00000000000E+00 0. -1.
          5    1    4    4  502    0 -0.57540550917E+02  0.17576426982E+02 -0.88369767542E+02  0.10701005374E+03  0.47000000000E+01 0.  1.
         -5    1    4    4    0  502 -0.34196196934E+01 -0.10333958526E+03 -0.12457671297E+03  0.16196361040E+03  0.47000000000E+01 0.  1.
<mgrwt>
<rscale>  0 0.10010069E+04</rscale>
<asrwt>0</asrwt>
<pdfrwt beam="1">  1        2 0.38645154E+00 0.10010069E+04</pdfrwt>
<pdfrwt beam="2">  1       -2 0.15342367E-01 0.10010069E+04</pdfrwt>
<totfact> 0.13185031E+02</totfact>
</mgrwt>
</event>
<event>
 9    1  0.4236486E-036  0.9996208E+03  0.7818608E-02  0.8681399E-01
         -2   -1    0    0    0  501 -0.00000000000E+00  0.00000000000E+00  0.72061973011E+03  0.72061973011E+03  0.00000000000E+00 0. -1.
          2   -1    0    0  501    0  0.00000000000E+00 -0.00000000000E+00 -0.34666053242E+03  0.34666053242E+03  0.00000000000E+00 0. -1.
         36    2    1    2    0    0  0.14210854715E-13  0.28421709430E-13  0.37395919769E+03  0.10672802625E+04  0.99962076672E+03 0.  0.
         25    2    3    3    0    0  0.70187106501E+02  0.11014227860E+03  0.12530607694E+03  0.21954650076E+03  0.12426383877E+03 0.  0.
         35    2    3    3    0    0 -0.70187106501E+02 -0.11014227860E+03  0.24865312075E+03  0.84773376178E+03  0.79985411479E+03 0.  0.
         22    1    5    5    0    0 -0.38068462991E+03  0.15901682458E+02 -0.67592737678E+02  0.38696566920E+03  0.00000000000E+00 0.  1.
         22    1    5    5    0    0  0.31049752341E+03 -0.12604396105E+03  0.31624585843E+03  0.46076809257E+03  0.00000000000E+00 0.  1.
          5    1    4    4  502    0 -0.75647611399E+01  0.64997904315E+01  0.82173178533E+02  0.82909554075E+02  0.47000000000E+01 0.  1.
         -5    1    4    4    0  502  0.77751867641E+02  0.10364248817E+03  0.43132898410E+02  0.13663694669E+03  0.47000000000E+01 0.  1.
<mgrwt>
<rscale>  0 0.99962077E+03</rscale>
<asrwt>0</asrwt>
<pdfrwt beam="1">  1        2 0.53332390E-01 0.99962077E+03</pdfrwt>
<pdfrwt beam="2">  1       -2 0.11086457E+00 0.99962077E+03</pdfrwt>
<totfact> 0.70907792E+01</totfact>
</mgrwt>
</event>
<event>
 9    1  0.4236486E-036  0.9997675E+03  0.7818608E-02  0.8681259E-01
          2   -1    0    0  501    0  0.00000000000E+00  0.00000000000E+00  0.52415676381E+03  0.52415676381E+03  0.00000000000E+00 0.  1.
         -2   -1    0    0    0  501 -0.00000000000E+00 -0.00000000000E+00 -0.47673481947E+03  0.47673481947E+03  0.00000000000E+00 0.  1.
         36    2    1    2    0    0 -0.14210854715E-13  0.14210854715E-13  0.47421944337E+02  0.10008915833E+04  0.99976753331E+03 0.  0.
         25    2    3    3    0    0  0.90881128260E+02  0.48823540044E+02  0.10199508606E+03  0.19227284550E+03  0.12618530819E+03 0.  0.
         35    2    3    3    0    0 -0.90881128260E+02 -0.48823540044E+02 -0.54573141720E+02  0.80861873777E+03  0.80015180918E+03 0.  0.
         22    1    5    5    0    0  0.31370120072E+03 -0.11329917241E+03  0.13167174821E+03  0.35858415341E+03  0.00000000000E+00 0.  1.
         22    1    5    5    0    0 -0.40458232898E+03  0.64475632367E+02 -0.18624488994E+03  0.45003458436E+03  0.00000000000E+00 0.  1.
          5    1    4    4  502    0  0.92761076399E+02  0.85287809563E+02  0.81413230586E+02  0.15009607546E+03  0.47000000000E+01 0.  1.
         -5    1    4    4    0  502 -0.18799481387E+01 -0.36464269519E+02  0.20581855471E+02  0.42176770042E+02  0.47000000000E+01 0.  1.
<mgrwt>
<rscale>  0 0.99976753E+03</rscale>
<asrwt>0</asrwt>
<pdfrwt beam="1">  1        2 0.80639502E-01 0.99976753E+03</pdfrwt>
<pdfrwt beam="2">  1       -2 0.73343818E-01 0.99976753E+03</pdfrwt>
<totfact> 0.11817059E+02</totfact>
</mgrwt>
</event>
<event>
 9    1  0.4236486E-036  0.1000447E+04  0.7818608E-02  0.8680613E-01
          2   -1    0    0  501    0  0.00000000000E+00  0.00000000000E+00  0.99569321525E+03  0.99569321525E+03  0.00000000000E+00 0.  1.
         -2   -1    0    0    0  501 -0.00000000000E+00 -0.00000000000E+00 -0.25130570892E+03  0.25130570892E+03  0.00000000000E+00 0.  1.
         36    2    1    2    0    0 -0.28421709430E-13  0.00000000000E+00  0.74438750632E+03  0.12469989242E+04  0.10004466789E+04 0.  0.
         25    2    3    3    0    0 -0.76710862120E+02  0.78971397986E+02  0.31913019498E+02  0.16980895530E+03  0.12528209138E+03 0.  0.
         35    2    3    3    0    0  0.76710862120E+02 -0.78971397986E+02  0.71247448682E+03  0.10771899689E+04  0.80037322331E+03 0.  0.
         22    1    5    5    0    0 -0.35954600328E+03 -0.84401811631E+02  0.36725926375E+03  0.52084197324E+03  0.00000000000E+00 0.  1.
         22    1    5    5    0    0  0.43625686540E+03  0.54304136451E+01  0.34521522308E+03  0.55634799563E+03  0.00000000000E+00 0.  1.
          5    1    4    4  502    0 -0.39954383043E+02  0.33754518597E+00 -0.40192479053E+02  0.56868198789E+02  0.47000000000E+01 0.  1.
         -5    1    4    4    0  502 -0.36756479077E+02  0.78633852800E+02  0.72105498551E+02  0.11294075651E+03  0.47000000000E+01 0.  1.
<mgrwt>
<rscale>  0 0.10004467E+04</rscale>
<asrwt>0</asrwt>
<pdfrwt beam="1">  1        2 0.15318357E+00 0.10004467E+04</pdfrwt>
<pdfrwt beam="2">  1       -2 0.38662417E-01 0.10004467E+04</pdfrwt>
<totfact> 0.19368306E+02</totfact>
</mgrwt>
</event>
<event>
 9    1  0.4236486E-036  0.9999160E+03  0.7818608E-02  0.8681118E-01
         -2   -1    0    0    0  501 -0.00000000000E+00  0.00000000000E+00  0.15957354241E+03  0.15957354241E+03  0.00000000000E+00 0. -1.
          2   -1    0    0  501    0  0.00000000000E+00 -0.00000000000E+00 -0.15664125708E+04  0.15664125708E+04  0.00000000000E+00 0. -1.
         36    2    1    2    0    0 -0.35527136788E-13 -0.14210854715E-13 -0.14068390284E+04  0.17259861132E+04  0.99991600206E+03 0.  0.
         25    2    3    3    0    0  0.40148448682E+02  0.65612552326E+02 -0.63441694856E+02  0.16042824571E+03  0.12568002395E+03 0.  0.
         35    2    3    3    0    0 -0.40148448682E+02 -0.65612552326E+02 -0.13433973335E+04  0.15655578675E+04  0.80021130696E+03 0.  0.
         22    1    5    5    0    0  0.29308827540E+03  0.17555976769E+03 -0.89022576598E+03  0.95353231913E+03  0.00000000000E+00 0.  1.
         22    1    5    5    0    0 -0.33323672408E+03 -0.24117232001E+03 -0.45317156754E+03  0.61202554836E+03  0.00000000000E+00 0.  1.
          5    1    4    4  502    0  0.15360394778E+02 -0.32084344998E+02  0.80417977620E+01  0.36771013488E+02  0.47000000000E+01 0. -1.
         -5    1    4    4    0  502  0.24788053903E+02  0.97696897324E+02 -0.71483492618E+02  0.12365723222E+03  0.47000000000E+01 0. -1.
<mgrwt>
<rscale>  0 0.99991600E+03</rscale>
<asrwt>0</asrwt>
<pdfrwt beam="1">  1        2 0.24098654E+00 0.99991600E+03</pdfrwt>
<pdfrwt beam="2">  1       -2 0.24549777E-01 0.99991600E+03</pdfrwt>
<totfact> 0.20586061E+02</totfact>
</mgrwt>
</event>
<event>
 9    1  0.4236486E-036  0.9992573E+03  0.7818608E-02  0.8681746E-01
          2   -1    0    0  501    0  0.00000000000E+00  0.00000000000E+00  0.68572652992E+03  0.68572652992E+03  0.00000000000E+00 0. -1.
         -2   -1    0    0    0  501 -0.00000000000E+00 -0.00000000000E+00 -0.36403545634E+03  0.36403545634E+03  0.00000000000E+00 0. -1.
         36    2    1    2    0    0 -0.28421709430E-13 -0.71054273576E-14  0.32169107358E+03  0.10497619863E+04  0.99925726466E+03 0.  0.
         25    2    3    3    0    0 -0.64090537201E+02  0.17732608071E+02 -0.81190168710E+02  0.15222572103E+03  0.11026687763E+03 0.  0.
         35    2    3    3    0    0  0.64090537201E+02 -0.17732608071E+02  0.40288124229E+03  0.89753626523E+03  0.79927217496E+03 0.  0.
         22    1    5    5    0    0 -0.26448729208E+03 -0.23286364489E+03  0.35783724275E+03  0.50222156174E+03  0.00000000000E+00 0.  1.
         22    1    5    5    0    0  0.32857782928E+03  0.21513103682E+03  0.45043999545E+02  0.39531470349E+03  0.00000000000E+00 0.  1.
          5    1    4    4  502    0 -0.18293600728E+02 -0.46234208289E+02 -0.32504590449E+02  0.59589397077E+02  0.47000000000E+01 0. -1.
         -5    1    4    4    0  502 -0.45796936473E+02  0.63966816360E+02 -0.48685578261E+02  0.92636323957E+02  0.47000000000E+01 0. -1.
<mgrwt>
<rscale>  0 0.99925726E+03</rscale>
<asrwt>0</asrwt>
<pdfrwt beam="1">  1        2 0.10549639E+00 0.99925726E+03</pdfrwt>
<pdfrwt beam="2">  1       -2 0.56005455E-01 0.99925726E+03</pdfrwt>
<totfact> 0.15235088E+02</totfact>
</mgrwt>
</event>
<event>
 9    1  0.4236486E-036  0.9997839E+03  0.7818608E-02  0.8681244E-01
          1   -1    0    0  501    0  0.00000000000E+00  0.00000000000E+00  0.13116486815E+04  0.13116486815E+04  0.00000000000E+00 0.  1.
         -1   -1    0    0    0  501 -0.00000000000E+00 -0.00000000000E+00 -0.19051745661E+03  0.19051745661E+03  0.00000000000E+00 0.  1.
         36    2    1    2    0    0 -0.71054273576E-14  0.14210854715E-13  0.11211312249E+04  0.15021661381E+04  0.99978391820E+03 0.  0.
         25    2    3    3    0    0  0.57615065255E+02  0.12219019087E+03  0.26694076462E+03  0.32416233017E+03  0.12479545664E+03 0.  0.
         35    2    3    3    0    0 -0.57615065255E+02 -0.12219019087E+03  0.85419046027E+03  0.11780038079E+04  0.79987604704E+03 0.  0.
         22    1    5    5    0    0 -0.52469081903E+02 -0.24077073453E+03 -0.62045004776E+02  0.25411244318E+03  0.00000000000E+00 0.  1.
         22    1    5    5    0    0 -0.51459833521E+01  0.11858054366E+03  0.91623546505E+03  0.92389136476E+03  0.00000000000E+00 0.  1.
          5    1    4    4  502    0  0.16479016804E+02  0.78782122169E+02  0.24873113472E+03  0.26147169665E+03  0.47000000000E+01 0.  1.
         -5    1    4    4    0  502  0.41136048452E+02  0.43408068702E+02  0.18209629896E+02  0.62690633523E+02  0.47000000000E+01 0.  1.
<mgrwt>
<rscale>  0 0.99978392E+03</rscale>
<asrwt>0</asrwt>
<pdfrwt beam="1">  1        1 0.20179210E+00 0.99978392E+03</pdfrwt>
<pdfrwt beam="2">  1       -1 0.29310379E-01 0.99978392E+03</pdfrwt>
<totfact> 0.10314862E+02</totfact>
</mgrwt>
</event>
<event>
 9    1  0.4236486E-036  0.1000019E+04  0.7818608E-02  0.8681020E-01
          2   -1    0    0  501    0  0.00000000000E+00  0.00000000000E+00  0.22980489447E+04  0.22980489447E+04  0.00000000000E+00 0.  1.
         -2   -1    0    0    0  501 -0.00000000000E+00 -0.00000000000E+00 -0.10879210496E+03  0.10879210496E+03  0.00000000000E+00 0.  1.
         36    2    1    2    0    0 -0.14210854715E-13  0.28421709430E-13  0.21892568398E+04  0.24068410497E+04  0.10000191638E+04 0.  0.
         25    2    3    3    0    0 -0.78184775373E+02  0.10992913022E+02  0.68850768806E+03  0.70416569624E+03  0.12479097722E+03 0.  0.
         35    2    3    3    0    0  0.78184775373E+02 -0.10992913022E+02  0.15007491517E+04  0.17026753534E+04  0.80038843050E+03 0.  0.
         22    1    5    5    0    0 -0.13650788429E+03 -0.36349067066E+03  0.65107557482E+03  0.75806284321E+03  0.00000000000E+00 0.  1.
         22    1    5    5    0    0  0.21469265966E+03  0.35249775764E+03  0.84967357687E+03  0.94461251023E+03  0.00000000000E+00 0.  1.
          5    1    4    4  502    0 -0.80365864488E+02  0.51907205545E+02  0.34029124877E+03  0.35351556423E+03  0.47000000000E+01 0.  1.
         -5    1    4    4    0  502  0.21810891149E+01 -0.40914292522E+02  0.34821643930E+03  0.35065013201E+03  0.47000000000E+01 0.  1.
<mgrwt>
<rscale>  0 0.10000192E+04</rscale>
<asrwt>0</asrwt>
<pdfrwt beam="1">  1        2 0.35354596E+00 0.10000192E+04</pdfrwt>
<pdfrwt beam="2">  1       -2 0.16737249E-01 0.10000192E+04</pdfrwt>
<totfact> 0.15290938E+02</totfact>
</mgrwt>
</event>
<event>
 9    1  0.4236486E-036  0.1000679E+04  0.7818608E-02  0.8680392E-01
          1   -1    0    0  501    0  0.00000000000E+00  0.00000000000E+00  0.20297890584E+03  0.20297890584E+03  0.00000000000E+00 0. -1.
         -1   -1    0    0    0  501 -0.00000000000E+00 -0.00000000000E+00 -0.12333274656E+04  0.12333274656E+04  0.00000000000E+00 0. -1.
         36    2    1    2    0    0  0.14210854715E-13  0.14210854715E-13 -0.10303485598E+04  0.14363063714E+04  0.10006786887E+04 0.  0.
         25    2    3    3    0    0  0.22373912968E+02 -0.77134780889E+02 -0.35166985601E+03  0.38349701934E+03  0.13018413812E+03 0.  0.
         35    2    3    3    0    0 -0.22373912968E+02  0.77134780889E+02 -0.67867870375E+03  0.10528093521E+04  0.80084479304E+03 0.  0.
         22    1    5    5    0    0  0.31655481779E+03 -0.16675223420E+03 -0.45592321539E+03  0.57955089389E+03  0.00000000000E+00 0.  1.
         22    1    5    5    0    0 -0.33892873076E+03  0.24388701509E+03 -0.22275548836E+03  0.47325845820E+03  0.00000000000E+00 0.  1.
          5    1    4    4  502    0 -0.53157036856E+02 -0.19929411175E+02 -0.11000183203E+03  0.12387632965E+03  0.47000000000E+01 0.  1.
         -5    1    4    4    0  502  0.75530949824E+02 -0.57205369714E+02 -0.24166802398E+03  0.25962068970E+03  0.47000000000E+01 0.  1.
<mgrwt>
<rscale>  0 0.10006787E+04</rscale>
<asrwt>0</asrwt>
<pdfrwt beam="1">  1        1 0.31227523E-01 0.10006787E+04</pdfrwt>
<pdfrwt beam="2">  1       -1 0.18974269E+00 0.10006787E+04</pdfrwt>
<totfact> 0.27745798E+01</totfact>
</mgrwt>
</event>
<event>
 9    1  0.4236486E-036  0.9994548E+03  0.7818608E-02  0.8681557E-01
          1   -1    0    0  501    0  0.00000000000E+00  0.00000000000E+00  0.31398220529E+03  0.31398220529E+03  0.00000000000E+00 0. -1.
         -1   -1    0    0    0  501 -0.00000000000E+00 -0.00000000000E+00 -0.79535549337E+03  0.79535549337E+03  0.00000000000E+00 0. -1.
         36    2    1    2    0    0  0.28421709430E-13  0.00000000000E+00 -0.48137328808E+03  0.11093376987E+04  0.99945479497E+03 0.  0.
         25    2    3    3    0    0 -0.11784502026E+03  0.41256497753E+02 -0.19620699370E+02  0.17722601287E+03  0.12423582571E+03 0.  0.
         35    2    3    3    0    0  0.11784502026E+03 -0.41256497753E+02 -0.46175258871E+03  0.93211168579E+03  0.80001699619E+03 0.  0.
         22    1    5    5    0    0 -0.41131159465E+02 -0.73908645819E+02 -0.66593549974E+03  0.67128559497E+03  0.00000000000E+00 0.  1.
         22    1    5    5    0    0  0.15897617972E+03  0.32652148066E+02  0.20418291103E+03  0.26082609081E+03  0.00000000000E+00 0.  1.
          5    1    4    4  502    0 -0.38735244029E+02  0.42352073241E+02  0.46494612017E+02  0.74013216282E+02  0.47000000000E+01 0.  1.
         -5    1    4    4    0  502 -0.79109776229E+02 -0.10955754886E+01 -0.66115311386E+02  0.10321279659E+03  0.47000000000E+01 0.  1.
<mgrwt>
<rscale>  0 0.99945479E+03</rscale>
<asrwt>0</asrwt>
<pdfrwt beam="1">  1        1 0.48304955E-01 0.99945479E+03</pdfrwt>
<pdfrwt beam="2">  1       -1 0.12236238E+00 0.99945479E+03</pdfrwt>
<totfact> 0.58556488E+01</totfact>
</mgrwt>
</event>
<event>
 9    1  0.4236486E-036  0.9994978E+03  0.7818608E-02  0.8681516E-01
          1   -1    0    0  501    0  0.00000000000E+00  0.00000000000E+00  0.95780613852E+03  0.95780613852E+03  0.00000000000E+00 0. -1.
         -1   -1    0    0    0  501 -0.00000000000E+00 -0.00000000000E+00 -0.26075107819E+03  0.26075107819E+03  0.00000000000E+00 0. -1.
         36    2    1    2    0    0 -0.28421709430E-13  0.28421709430E-13  0.69705506033E+03  0.12185572167E+04  0.99949784054E+03 0.  0.
         25    2    3    3    0    0 -0.77707054903E+02 -0.73040750885E+02  0.27981914631E+02  0.16712036526E+03  0.12559017185E+03 0.  0.
         35    2    3    3    0    0  0.77707054903E+02  0.73040750885E+02  0.66907314570E+03  0.10514368514E+04  0.80404430264E+03 0.  0.
         22    1    5    5    0    0  0.25175489932E+03 -0.22090159953E+03  0.42265294424E+02  0.33758613881E+03  0.00000000000E+00 0. -1.
         22    1    5    5    0    0 -0.17404784441E+03  0.29394235041E+03  0.62680785128E+03  0.71385071264E+03  0.00000000000E+00 0. -1.
          5    1    4    4  502    0 -0.44820723028E+02  0.29573099651E+02  0.24492153503E+02  0.59206596076E+02  0.47000000000E+01 0. -1.
         -5    1    4    4    0  502 -0.32886331875E+02 -0.10261385054E+03  0.34897611285E+01  0.10791376918E+03  0.47000000000E+01 0. -1.
<mgrwt>
<rscale>  0 0.99949784E+03</rscale>
<asrwt>0</asrwt>
<pdfrwt beam="1">  1        1 0.14735479E+00 0.99949784E+03</pdfrwt>
<pdfrwt beam="2">  1       -1 0.40115551E-01 0.99949784E+03</pdfrwt>
<totfact> 0.11117349E+02</totfact>
</mgrwt>
</event>
<event>
 9    1  0.4236486E-036  0.9998124E+03  0.7818608E-02  0.8681217E-01
          3   -1    0    0  501    0  0.00000000000E+00  0.00000000000E+00  0.79065470778E+03  0.79065470778E+03  0.00000000000E+00 0.  1.
         -3   -1    0    0    0  501 -0.00000000000E+00 -0.00000000000E+00 -0.31607503379E+03  0.31607503379E+03  0.00000000000E+00 0.  1.
         36    2    1    2    0    0  0.14210854715E-13  0.00000000000E+00  0.47457967399E+03  0.11067297416E+04  0.99981240937E+03 0.  0.
         25    2    3    3    0    0 -0.60601220943E+02  0.65955254271E+02  0.20257635059E+03  0.25422244023E+03  0.12477687188E+03 0.  0.
         35    2    3    3    0    0  0.60601220943E+02 -0.65955254271E+02  0.27200332340E+03  0.85250730134E+03  0.80296966777E+03 0.  0.
         22    1    5    5    0    0 -0.28369227005E+03  0.19479297311E+03  0.38661692939E+01  0.34415193407E+03  0.00000000000E+00 0. -1.
         22    1    5    5    0    0  0.34429349099E+03 -0.26074822738E+03  0.26813715411E+03  0.50835536727E+03  0.00000000000E+00 0. -1.
          5    1    4    4  502    0  0.37675010760E+02  0.27812742675E+02  0.49540347250E+02  0.68332211266E+02  0.47000000000E+01 0.  1.
         -5    1    4    4    0  502 -0.98276231703E+02  0.38142511596E+02  0.15303600334E+03  0.18589022897E+03  0.47000000000E+01 0.  1.
<mgrwt>
<rscale>  0 0.99981241E+03</rscale>
<asrwt>0</asrwt>
<pdfrwt beam="1">  1        3 0.12163919E+00 0.99981241E+03</pdfrwt>
<pdfrwt beam="2">  1       -3 0.48626928E-01 0.99981241E+03</pdfrwt>
<totfact> 0.96445388E+00</totfact>
</mgrwt>
</event>
<event>
 9    1  0.4236486E-036  0.9996949E+03  0.7818608E-02  0.8681329E-01
         -2   -1    0    0    0  501 -0.00000000000E+00  0.00000000000E+00  0.10360534293E+03  0.10360534293E+03  0.00000000000E+00 0. -1.
          2   -1    0    0  501    0  0.00000000000E+00 -0.00000000000E+00 -0.24115308802E+04  0.24115308802E+04  0.00000000000E+00 0. -1.
         36    2    1    2    0    0  0.14210854715E-13 -0.17763568394E-13 -0.23079255373E+04  0.25151362232E+04  0.99969492112E+03 0.  0.
         25    2    3    3    0    0  0.64166962976E+02 -0.16686535604E+02 -0.12177154473E+03  0.18644433881E+03  0.12464887790E+03 0.  0.
         35    2    3    3    0    0 -0.64166962976E+02  0.16686535604E+02 -0.21861539926E+04  0.23286918844E+04  0.79946280299E+03 0.  0.
         22    1    5    5    0    0 -0.28655972914E+03  0.19975715782E+03 -0.45441670388E+03  0.57316135706E+03  0.00000000000E+00 0. -1.
         22    1    5    5    0    0  0.22239276616E+03 -0.18307062222E+03 -0.17317372887E+04  0.17555305273E+04  0.00000000000E+00 0. -1.
          5    1    4    4  502    0  0.59124877456E+02  0.19117996895E+02 -0.32059289304E+01  0.62398853514E+02  0.47000000000E+01 0. -1.
         -5    1    4    4    0  502  0.50420855199E+01 -0.35804532499E+02 -0.11856561580E+03  0.12404548530E+03  0.47000000000E+01 0. -1.
<mgrwt>
<rscale>  0 0.99969492E+03</rscale>
<asrwt>0</asrwt>
<pdfrwt beam="1">  1        2 0.37100477E+00 0.99969492E+03</pdfrwt>
<pdfrwt beam="2">  1       -2 0.15939283E-01 0.99969492E+03</pdfrwt>
<totfact> 0.14219263E+02</totfact>
</mgrwt>
</event>
<event>
 9    1  0.4236486E-036  0.1003659E+04  0.7818608E-02  0.8677562E-01
         -2   -1    0    0    0  501 -0.00000000000E+00  0.00000000000E+00  0.63302415219E+03  0.63302415219E+03  0.00000000000E+00 0. -1.
          2   -1    0    0  501    0  0.00000000000E+00 -0.00000000000E+00 -0.39782462943E+03  0.39782462943E+03  0.00000000000E+00 0. -1.
         36    2    1    2    0    0  0.00000000000E+00  0.00000000000E+00  0.23519952276E+03  0.10308487816E+04  0.10036585052E+04 0.  0.
         25    2    3    3    0    0 -0.17458257388E+02 -0.13353942729E+03 -0.10380957979E+02  0.18343784255E+03  0.12411328857E+03 0.  0.
         35    2    3    3    0    0  0.17458257388E+02  0.13353942729E+03  0.24558048074E+03  0.84741093907E+03  0.79978619502E+03 0.  0.
         22    1    5    5    0    0  0.36859029650E+02  0.29111689764E+03  0.48100845245E+03  0.56345076758E+03  0.00000000000E+00 0.  1.
         22    1    5    5    0    0 -0.19400772261E+02 -0.15757747035E+03 -0.23542797171E+03  0.28396017149E+03  0.00000000000E+00 0.  1.
          5    1    4    4  502    0 -0.59621233436E+01  0.12159740749E+02  0.28697404864E+02  0.32078610565E+02  0.47000000000E+01 0.  1.
         -5    1    4    4    0  502 -0.11496134045E+02 -0.14569916804E+03 -0.39078362843E+02  0.15135923199E+03  0.47000000000E+01 0.  1.
<mgrwt>
<rscale>  0 0.10036585E+04</rscale>
<asrwt>0</asrwt>
<pdfrwt beam="1">  1        2 0.61203789E-01 0.10036585E+04</pdfrwt>
<pdfrwt beam="2">  1       -2 0.97388331E-01 0.10036585E+04</pdfrwt>
<totfact> 0.83712852E+01</totfact>
</mgrwt>
</event>
<event>
 9    1  0.4236486E-036  0.9997410E+03  0.7818608E-02  0.8681285E-01
         -2   -1    0    0    0  501 -0.00000000000E+00  0.00000000000E+00  0.11688722716E+03  0.11688722716E+03  0.00000000000E+00 0. -1.
          2   -1    0    0  501    0  0.00000000000E+00 -0.00000000000E+00 -0.21377057567E+04  0.21377057567E+04  0.00000000000E+00 0. -1.
         36    2    1    2    0    0 -0.28421709430E-13 -0.14210854715E-13 -0.20208185295E+04  0.22545929838E+04  0.99974096322E+03 0.  0.
         25    2    3    3    0    0 -0.90712285304E+02 -0.75711868413E+02 -0.54933468906E+03  0.57565604547E+03  0.12510106459E+03 0.  0.
         35    2    3    3    0    0  0.90712285304E+02  0.75711868413E+02 -0.14714838405E+04  0.16789369384E+04  0.79975217697E+03 0.  0.
         22    1    5    5    0    0 -0.33872755705E+03  0.11479433523E+03 -0.48759436893E+03  0.60470022814E+03  0.00000000000E+00 0. -1.
         22    1    5    5    0    0  0.42943984235E+03 -0.39082466814E+02 -0.98388947152E+03  0.10742367102E+04  0.00000000000E+00 0. -1.
          5    1    4    4  502    0 -0.87907228202E+02  0.13596290734E+01 -0.37097881463E+03  0.38128322841E+03  0.47000000000E+01 0. -1.
         -5    1    4    4    0  502 -0.28050571020E+01 -0.77071497486E+02 -0.17835587442E+03  0.19437281706E+03  0.47000000000E+01 0. -1.
<mgrwt>
<rscale>  0 0.99974096E+03</rscale>
<asrwt>0</asrwt>
<pdfrwt beam="1">  1        2 0.32887784E+00 0.99974096E+03</pdfrwt>
<pdfrwt beam="2">  1       -2 0.17982649E-01 0.99974096E+03</pdfrwt>
<totfact> 0.16782290E+02</totfact>
</mgrwt>
</event>
<event>
 9    1  0.4236486E-036  0.1001311E+04  0.7818608E-02  0.8679791E-01
          2   -1    0    0  501    0  0.00000000000E+00  0.00000000000E+00  0.34276156990E+03  0.34276156990E+03  0.00000000000E+00 0. -1.
         -2   -1    0    0    0  501 -0.00000000000E+00 -0.00000000000E+00 -0.73128323649E+03  0.73128323649E+03  0.00000000000E+00 0. -1.
         36    2    1    2    0    0 -0.14210854715E-13  0.14210854715E-13 -0.38852166659E+03  0.10740448064E+04  0.10013107214E+04 0.  0.
         25    2    3    3    0    0  0.41693183794E+02 -0.11498260062E+03 -0.15947563671E+03  0.23497799648E+03  0.12174916880E+03 0.  0.
         35    2    3    3    0    0 -0.41693183794E+02  0.11498260062E+03 -0.22904602988E+03  0.83906680992E+03  0.79787950700E+03 0.  0.
         22    1    5    5    0    0 -0.40813788035E+03  0.15488762789E+03 -0.15390321970E+03  0.46287461335E+03  0.00000000000E+00 0.  1.
         22    1    5    5    0    0  0.36644469656E+03 -0.39905027265E+02 -0.75142810178E+02  0.37619219657E+03  0.00000000000E+00 0.  1.
          5    1    4    4  502    0  0.53177200724E+02 -0.11424069385E+03 -0.17461682004E+03  0.21538773096E+03  0.47000000000E+01 0.  1.
         -5    1    4    4    0  502 -0.11484016929E+02 -0.74190676871E+00  0.15141183325E+02  0.19590265515E+02  0.47000000000E+01 0.  1.
<mgrwt>
<rscale>  0 0.10013107E+04</rscale>
<asrwt>0</asrwt>
<pdfrwt beam="1">  1        2 0.52732549E-01 0.10013107E+04</pdfrwt>
<pdfrwt beam="2">  1       -2 0.11250511E+00 0.10013107E+04</pdfrwt>
<totfact> 0.69173448E+01</totfact>
</mgrwt>
</event>
<event>
 9    1  0.4236486E-036  0.9973336E+03  0.7818608E-02  0.8683581E-01
          2   -1    0    0  501    0  0.00000000000E+00  0.00000000000E+00  0.57266306727E+03  0.57266306727E+03  0.00000000000E+00 0.  1.
         -2   -1    0    0    0  501 -0.00000000000E+00 -0.00000000000E+00 -0.43423191971E+03  0.43423191971E+03  0.00000000000E+00 0.  1.
         36    2    1    2    0    0 -0.28421709430E-13  0.00000000000E+00  0.13843114756E+03  0.10068949870E+04  0.99733361128E+03 0.  0.
         25    2    3    3    0    0 -0.77606574265E+02  0.99491965252E+02 -0.55119922568E+02  0.18534680320E+03  0.12407175373E+03 0.  0.
         35    2    3    3    0    0  0.77606574265E+02 -0.99491965252E+02  0.19355107013E+03  0.82154818377E+03  0.78838947862E+03 0.  0.
         22    1    5    5    0    0 -0.31338845765E+03 -0.56321948314E+02  0.27395665802E+03  0.42004373310E+03  0.00000000000E+00 0. -1.
         22    1    5    5    0    0  0.39099503191E+03 -0.43170016938E+02 -0.80405587892E+02  0.40150445067E+03  0.00000000000E+00 0. -1.
          5    1    4    4  502    0 -0.91059491885E+02  0.12017625072E+03 -0.53925323478E+02  0.16020047694E+03  0.47000000000E+01 0. -1.
         -5    1    4    4    0  502  0.13452917619E+02 -0.20684285464E+02 -0.11945990895E+01  0.25146326265E+02  0.47000000000E+01 0. -1.
<mgrwt>
<rscale>  0 0.99733361E+03</rscale>
<asrwt>0</asrwt>
<pdfrwt beam="1">  1        2 0.88102010E-01 0.99733361E+03</pdfrwt>
<pdfrwt beam="2">  1       -2 0.66804911E-01 0.99733361E+03</pdfrwt>
<totfact> 0.13060545E+02</totfact>
</mgrwt>
</event>
<event>
 9    1  0.4236486E-036  0.1000437E+04  0.7818608E-02  0.8680622E-01
         -2   -1    0    0    0  501 -0.00000000000E+00  0.00000000000E+00  0.27601670312E+03  0.27601670312E+03  0.00000000000E+00 0.  1.
          2   -1    0    0  501    0  0.00000000000E+00 -0.00000000000E+00 -0.90653458043E+03  0.90653458043E+03  0.00000000000E+00 0.  1.
         36    2    1    2    0    0 -0.14210854715E-13  0.00000000000E+00 -0.63051787730E+03  0.11825512835E+04  0.10004372767E+04 0.  0.
         25    2    3    3    0    0  0.93758734176E+02  0.75151815064E+02 -0.21335321865E+03  0.27449208755E+03  0.12404763068E+03 0.  0.
         35    2    3    3    0    0 -0.93758734176E+02 -0.75151815064E+02 -0.41716465865E+03  0.90805919600E+03  0.79756294765E+03 0.  0.
         22    1    5    5    0    0  0.34666880985E+03 -0.65639755026E+02 -0.26760974880E+03  0.44283497921E+03  0.00000000000E+00 0. -1.
         22    1    5    5    0    0 -0.44042754402E+03 -0.95120600374E+01 -0.14955490986E+03  0.46522421679E+03  0.00000000000E+00 0. -1.
          5    1    4    4  502    0  0.18414064804E+01  0.77690580305E+02 -0.73609248852E+02  0.10714302853E+03  0.47000000000E+01 0. -1.
         -5    1    4    4    0  502  0.91917327696E+02 -0.25387652411E+01 -0.13974396980E+03  0.16734905902E+03  0.47000000000E+01 0. -1.
<mgrwt>
<rscale>  0 0.10004373E+04</rscale>
<asrwt>0</asrwt>
<pdfrwt beam="1">  1        2 0.13946686E+00 0.10004373E+04</pdfrwt>
<pdfrwt beam="2">  1       -2 0.42464109E-01 0.10004373E+04</pdfrwt>
<totfact> 0.18458254E+02</totfact>
</mgrwt>
</event>
<event>
 9    1  0.4236486E-036  0.1000251E+04  0.7818608E-02  0.8680799E-01
          2   -1    0    0  501    0  0.00000000000E+00  0.00000000000E+00  0.63158633837E+03  0.63158633837E+03  0.00000000000E+00 0.  1.
         -2   -1    0    0    0  501 -0.00000000000E+00 -0.00000000000E+00 -0.39602729490E+03  0.39602729490E+03  0.00000000000E+00 0.  1.
         36    2    1    2    0    0  0.00000000000E+00 -0.14210854715E-13  0.23555904347E+03  0.10276136333E+04  0.10002508267E+04 0.  0.
         25    2    3    3    0    0  0.12586841468E+03 -0.63015060948E+02  0.41122171240E+02  0.19277918465E+03  0.12513602738E+03 0.  0.
         35    2    3    3    0    0 -0.12586841468E+03  0.63015060948E+02  0.19443687223E+03  0.83483444861E+03  0.79958057980E+03 0.  0.
         22    1    5    5    0    0  0.10708794196E+03 -0.30400637218E+03  0.23403850305E+03  0.39832364046E+03  0.00000000000E+00 0.  1.
         22    1    5    5    0    0 -0.23295635664E+03  0.36702143313E+03 -0.39601630825E+02  0.43651080815E+03  0.00000000000E+00 0.  1.
          5    1    4    4  502    0  0.57605860979E+02  0.15636186948E+02 -0.29612846817E+02  0.66797726443E+02  0.47000000000E+01 0.  1.
         -5    1    4    4    0  502  0.68262553698E+02 -0.78651247897E+02  0.70735018057E+02  0.12598145821E+03  0.47000000000E+01 0.  1.
<mgrwt>
<rscale>  0 0.10002508E+04</rscale>
<asrwt>0</asrwt>
<pdfrwt beam="1">  1        2 0.97167129E-01 0.10002508E+04</pdfrwt>
<pdfrwt beam="2">  1       -2 0.60927276E-01 0.10002508E+04</pdfrwt>
<totfact> 0.14131540E+02</totfact>
</mgrwt>
</event>
<event>
 9    1  0.4236486E-036  0.1000440E+04  0.7818608E-02  0.8680619E-01
          1   -1    0    0  501    0  0.00000000000E+00  0.00000000000E+00  0.49201502247E+03  0.49201502247E+03  0.00000000000E+00 0.  1.
         -1   -1    0    0    0  501 -0.00000000000E+00 -0.00000000000E+00 -0.50856194157E+03  0.50856194157E+03  0.00000000000E+00 0.  1.
         36    2    1    2    0    0  0.00000000000E+00  0.14210854715E-13 -0.16546919099E+02  0.10005769640E+04  0.10004401334E+04 0.  0.
         25    2    3    3    0    0 -0.89942154371E+02 -0.57303089438E+02 -0.93190169296E+02  0.18890761456E+03  0.12501377522E+03 0.  0.
         35    2    3    3    0    0  0.89942154371E+02  0.57303089438E+02  0.76643250197E+02  0.81166934947E+03  0.80097422548E+03 0.  0.
         22    1    5    5    0    0  0.69999355426E+02 -0.22770141415E+03  0.34529607985E+03  0.41949639632E+03  0.00000000000E+00 0.  1.
         22    1    5    5    0    0  0.19942798945E+02  0.28500450359E+03 -0.26865282966E+03  0.39217295315E+03  0.00000000000E+00 0.  1.
          5    1    4    4  502    0 -0.90582543055E+02  0.23534045974E+01 -0.17483053245E+02  0.92403911012E+02  0.47000000000E+01 0.  1.
         -5    1    4    4    0  502  0.64038868426E+00 -0.59656494035E+02 -0.75707116051E+02  0.96503703551E+02  0.47000000000E+01 0.  1.
<mgrwt>
<rscale>  0 0.10004401E+04</rscale>
<asrwt>0</asrwt>
<pdfrwt beam="1">  1        1 0.75694619E-01 0.10004401E+04</pdfrwt>
<pdfrwt beam="2">  1       -1 0.78240298E-01 0.10004401E+04</pdfrwt>
<totfact> 0.87566341E+01</totfact>
</mgrwt>
</event>
<event>
 9    1  0.4236486E-036  0.1002281E+04  0.7818608E-02  0.8678869E-01
         -2   -1    0    0    0  501 -0.00000000000E+00  0.00000000000E+00  0.74418207399E+03  0.74418207399E+03  0.00000000000E+00 0. -1.
          2   -1    0    0  501    0  0.00000000000E+00 -0.00000000000E+00 -0.33747374399E+03  0.33747374399E+03  0.00000000000E+00 0. -1.
         36    2    1    2    0    0 -0.28421709430E-13  0.00000000000E+00  0.40670832999E+03  0.10816558180E+04  0.10022812195E+04 0.  0.
         25    2    3    3    0    0  0.11597852211E+03  0.58723478624E+02  0.14041836155E+03  0.22865058278E+03  0.12515713408E+03 0.  0.
         35    2    3    3    0    0 -0.11597852211E+03 -0.58723478624E+02  0.26628996844E+03  0.85300523520E+03  0.79988006567E+03 0.  0.
         22    1    5    5    0    0  0.31523596686E+03 -0.58700583611E+02 -0.41335154182E+02  0.32330800839E+03  0.00000000000E+00 0. -1.
         22    1    5    5    0    0 -0.43121448897E+03 -0.22895013532E-01  0.30762512262E+03  0.52969722681E+03  0.00000000000E+00 0. -1.
          5    1    4    4  502    0  0.96516467625E+02  0.22960132805E+02  0.15588986737E+03  0.18484138327E+03  0.47000000000E+01 0.  1.
         -5    1    4    4    0  502  0.19462054490E+02  0.35763345819E+02 -0.15471505821E+02  0.43809199507E+02  0.47000000000E+01 0.  1.
<mgrwt>
<rscale>  0 0.10022812E+04</rscale>
<asrwt>0</asrwt>
<pdfrwt beam="1">  1        2 0.51919038E-01 0.10022812E+04</pdfrwt>
<pdfrwt beam="2">  1       -2 0.11448955E+00 0.10022812E+04</pdfrwt>
<totfact> 0.67306229E+01</totfact>
</mgrwt>
</event>
<event>
 9    1  0.4236486E-036  0.9998068E+03  0.7818608E-02  0.8681222E-01
          1   -1    0    0  501    0  0.00000000000E+00  0.00000000000E+00  0.52792738818E+03  0.52792738818E+03  0.00000000000E+00 0.  1.
         -1   -1    0    0    0  501 -0.00000000000E+00 -0.00000000000E+00 -0.47336702853E+03  0.47336702853E+03  0.00000000000E+00 0.  1.
         36    2    1    2    0    0  0.00000000000E+00  0.00000000000E+00  0.54560359655E+02  0.10012944167E+04  0.99980681939E+03 0.  0.
         25    2    3    3    0    0 -0.13890534287E+03 -0.81925109694E+01 -0.11208989714E+02  0.18726868013E+03  0.12482830445E+03 0.  0.
         35    2    3    3    0    0  0.13890534287E+03  0.81925109694E+01  0.65769349369E+02  0.81402573658E+03  0.79934378148E+03 0.  0.
         22    1    5    5    0    0  0.51693286721E+02 -0.84310503662E+02  0.42322966516E+03  0.43463065515E+03  0.00000000000E+00 0.  1.
         22    1    5    5    0    0  0.87212056148E+02  0.92503014632E+02 -0.35746031579E+03  0.37939508144E+03  0.00000000000E+00 0.  1.
          5    1    4    4  502    0 -0.14314781686E+03 -0.43507538905E+02 -0.17960028049E+02  0.15076092339E+03  0.47000000000E+01 0.  1.
         -5    1    4    4    0  502  0.42424739899E+01  0.35315027935E+02  0.67510383351E+01  0.36507756741E+02  0.47000000000E+01 0.  1.
<mgrwt>
<rscale>  0 0.99980682E+03</rscale>
<asrwt>0</asrwt>
<pdfrwt beam="1">  1        1 0.81219598E-01 0.99980682E+03</pdfrwt>
<pdfrwt beam="2">  1       -1 0.72825697E-01 0.99980682E+03</pdfrwt>
<totfact> 0.91857357E+01</totfact>
</mgrwt>
</event>
<event>
 9    1  0.4236486E-036  0.1001025E+04  0.7818608E-02  0.8680063E-01
         -2   -1    0    0    0  501 -0.00000000000E+00  0.00000000000E+00  0.81607645550E+02  0.81607645550E+02  0.00000000000E+00 0. -1.
          2   -1    0    0  501    0  0.00000000000E+00 -0.00000000000E+00 -0.30697191068E+04  0.30697191068E+04  0.00000000000E+00 0. -1.
         36    2    1    2    0    0  0.00000000000E+00  0.35527136788E-14 -0.29881114613E+04  0.31513267524E+04  0.10010245727E+04 0.  0.
         25    2    3    3    0    0  0.13682749100E+03 -0.37078272759E+01 -0.67536681850E+03  0.70034114077E+03  0.12498745396E+03 0.  0.
         35    2    3    3    0    0 -0.13682749100E+03  0.37078272759E+01 -0.23127446428E+04  0.24509856116E+04  0.79987947551E+03 0.  0.
         22    1    5    5    0    0  0.28952541300E+03 -0.10479173890E+03 -0.51353118786E+03  0.59876585926E+03  0.00000000000E+00 0.  1.
         22    1    5    5    0    0 -0.42635290400E+03  0.10849956618E+03 -0.17992134549E+04  0.18522197523E+04  0.00000000000E+00 0.  1.
          5    1    4    4  502    0  0.60067469483E+02  0.23609826682E+02 -0.52744087048E+03  0.53139579097E+03  0.47000000000E+01 0.  1.
         -5    1    4    4    0  502  0.76760021522E+02 -0.27317653958E+02 -0.14792594801E+03  0.16894534980E+03  0.47000000000E+01 0.  1.
<mgrwt>
<rscale>  0 0.10010246E+04</rscale>
<asrwt>0</asrwt>
<pdfrwt beam="1">  1        2 0.47226442E+00 0.10010246E+04</pdfrwt>
<pdfrwt beam="2">  1       -2 0.12555024E-01 0.10010246E+04</pdfrwt>
<totfact> 0.80758161E+01</totfact>
</mgrwt>
</event>
<event>
 9    1  0.4236486E-036  0.9994294E+03  0.7818608E-02  0.8681582E-01
         -2   -1    0    0    0  501 -0.00000000000E+00  0.00000000000E+00  0.17389924061E+03  0.17389924061E+03  0.00000000000E+00 0.  1.
          2   -1    0    0  501    0  0.00000000000E+00 -0.00000000000E+00 -0.14359739483E+04  0.14359739483E+04  0.00000000000E+00 0.  1.
         36    2    1    2    0    0 -0.71054273576E-14  0.28421709430E-13 -0.12620747077E+04  0.16098731889E+04  0.99942939549E+03 0.  0.
         25    2    3    3    0    0  0.44252898066E+02 -0.71519323098E+02 -0.41938600782E+03  0.44513257000E+03  0.12322762985E+03 0.  0.
         35    2    3    3    0    0 -0.44252898066E+02  0.71519323098E+02 -0.84268869984E+03  0.11647406189E+04  0.79963937613E+03 0.  0.
         22    1    5    5    0    0 -0.86812133101E+02  0.30262575021E+03 -0.27125561823E+02  0.31599760640E+03  0.00000000000E+00 0. -1.
         22    1    5    5    0    0  0.42559235035E+02 -0.23110642712E+03 -0.81556313801E+03  0.84874301248E+03  0.00000000000E+00 0. -1.
          5    1    4    4  502    0  0.11106231518E+02  0.16906193208E+02 -0.68007136361E+01  0.21851943924E+02  0.47000000000E+01 0.  1.
         -5    1    4    4    0  502  0.33146666548E+02 -0.88425516306E+02 -0.41258529418E+03  0.42328062607E+03  0.47000000000E+01 0.  1.
<mgrwt>
<rscale>  0 0.99942940E+03</rscale>
<asrwt>0</asrwt>
<pdfrwt beam="1">  1        2 0.22091908E+00 0.99942940E+03</pdfrwt>
<pdfrwt beam="2">  1       -2 0.26753728E-01 0.99942940E+03</pdfrwt>
<totfact> 0.20940999E+02</totfact>
</mgrwt>
</event>
<event>
 9    1  0.4236486E-036  0.1002999E+04  0.7818608E-02  0.8678187E-01
          1   -1    0    0  501    0  0.00000000000E+00  0.00000000000E+00  0.13039227154E+04  0.13039227154E+04  0.00000000000E+00 0.  1.
         -1   -1    0    0    0  501 -0.00000000000E+00 -0.00000000000E+00 -0.19288088083E+03  0.19288088083E+03  0.00000000000E+00 0.  1.
         36    2    1    2    0    0  0.00000000000E+00  0.00000000000E+00  0.11110418346E+04  0.14968035963E+04  0.10029990267E+04 0.  0.
         25    2    3    3    0    0 -0.53896193629E+02 -0.13241832422E+03  0.24801360211E+03  0.31151919538E+03  0.12285784459E+03 0.  0.
         35    2    3    3    0    0  0.53896193629E+02  0.13241832422E+03  0.86302823247E+03  0.11852844009E+04  0.79977619909E+03 0.  0.
         22    1    5    5    0    0  0.37449915053E+03  0.24872421775E+03  0.62285835187E+03  0.76815745569E+03  0.00000000000E+00 0. -1.
         22    1    5    5    0    0 -0.32060295690E+03 -0.11630589353E+03  0.24016988061E+03  0.41712694518E+03  0.00000000000E+00 0. -1.
          5    1    4    4  502    0  0.92176515589E+01 -0.31763463771E+02  0.16036158600E+03  0.16380418492E+03  0.47000000000E+01 0.  1.
         -5    1    4    4    0  502 -0.63113845188E+02 -0.10065486045E+03  0.87652016108E+02  0.14771501046E+03  0.47000000000E+01 0.  1.
<mgrwt>
<rscale>  0 0.10029990E+04</rscale>
<asrwt>0</asrwt>
<pdfrwt beam="1">  1        1 0.20060349E+00 0.10029990E+04</pdfrwt>
<pdfrwt beam="2">  1       -1 0.29673982E-01 0.10029990E+04</pdfrwt>
<totfact> 0.10229089E+02</totfact>
</mgrwt>
</event>
<event>
 9    1  0.4236486E-036  0.9986976E+03  0.7818608E-02  0.8682279E-01
          2   -1    0    0  501    0  0.00000000000E+00  0.00000000000E+00  0.61935099110E+02  0.61935099110E+02  0.00000000000E+00 0.  1.
         -2   -1    0    0    0  501 -0.00000000000E+00 -0.00000000000E+00 -0.40259761570E+04  0.40259761570E+04  0.00000000000E+00 0.  1.
         36    2    1    2    0    0  0.42632564146E-13  0.00000000000E+00 -0.39640410579E+04  0.40879112561E+04  0.99869761650E+03 0.  0.
         25    2    3    3    0    0  0.31289598748E+02  0.64506033227E+02 -0.12264007000E+04  0.12348372681E+04  0.12499733705E+03 0.  0.
         35    2    3    3    0    0 -0.31289598748E+02 -0.64506033227E+02 -0.27376403579E+04  0.28530739880E+04  0.80013522915E+03 0.  0.
         22    1    5    5    0    0  0.35680657496E+03 -0.47281761706E+02 -0.18416409244E+04  0.18764828247E+04  0.00000000000E+00 0. -1.
         22    1    5    5    0    0 -0.38809617371E+03 -0.17224271522E+02 -0.89599943347E+03  0.97659116336E+03  0.00000000000E+00 0. -1.
          5    1    4    4  502    0 -0.39718248974E+02  0.47827942026E+02 -0.78045450443E+03  0.78294085014E+03  0.47000000000E+01 0. -1.
         -5    1    4    4    0  502  0.71007847722E+02  0.16678091201E+02 -0.44594619561E+03  0.45189641794E+03  0.47000000000E+01 0. -1.
<mgrwt>
<rscale>  0 0.99869762E+03</rscale>
<asrwt>0</asrwt>
<pdfrwt beam="1">  1        2 0.95284754E-02 0.99869762E+03</pdfrwt>
<pdfrwt beam="2">  1       -2 0.61938104E+00 0.99869762E+03</pdfrwt>
<totfact> 0.60821723E-01</totfact>
</mgrwt>
</event>
<event>
 9    1  0.4236486E-036  0.1000162E+04  0.7818608E-02  0.8680883E-01
         -2   -1    0    0    0  501 -0.00000000000E+00  0.00000000000E+00  0.39411904546E+03  0.39411904546E+03  0.00000000000E+00 0. -1.
          2   -1    0    0  501    0  0.00000000000E+00 -0.00000000000E+00 -0.63453203704E+03  0.63453203704E+03  0.00000000000E+00 0. -1.
         36    2    1    2    0    0  0.00000000000E+00  0.14210854715E-13 -0.24041299157E+03  0.10286510825E+04  0.10001623083E+04 0.  0.
         25    2    3    3    0    0 -0.11473341948E+03 -0.81931422889E+02 -0.40206034043E+02  0.19278911346E+03  0.12519824876E+03 0.  0.
         35    2    3    3    0    0  0.11473341948E+03  0.81931422889E+02 -0.20020695753E+03  0.83586196905E+03  0.79919077188E+03 0.  0.
         22    1    5    5    0    0  0.32836319435E+03 -0.17196803640E+03 -0.31326301704E+03  0.48531341502E+03  0.00000000000E+00 0. -1.
         22    1    5    5    0    0 -0.21362977487E+03  0.25389945929E+03  0.11305605951E+03  0.35054855403E+03  0.00000000000E+00 0. -1.
          5    1    4    4  502    0 -0.42183284807E+02 -0.50767418763E+02 -0.80345299663E+02  0.10408754730E+03  0.47000000000E+01 0. -1.
         -5    1    4    4    0  502 -0.72550134671E+02 -0.31164004127E+02  0.40139265620E+02  0.88701566156E+02  0.47000000000E+01 0. -1.
<mgrwt>
<rscale>  0 0.10001623E+04</rscale>
<asrwt>0</asrwt>
<pdfrwt beam="1">  1        2 0.97620312E-01 0.10001623E+04</pdfrwt>
<pdfrwt beam="2">  1       -2 0.60633700E-01 0.10001623E+04</pdfrwt>
<totfact> 0.14195652E+02</totfact>
</mgrwt>
</event>
<event>
 9    1  0.4236486E-036  0.1003796E+04  0.7818608E-02  0.8677431E-01
         -2   -1    0    0    0  501 -0.00000000000E+00  0.00000000000E+00  0.18940748157E+03  0.18940748157E+03  0.00000000000E+00 0. -1.
          2   -1    0    0  501    0  0.00000000000E+00 -0.00000000000E+00 -0.13299451561E+04  0.13299451561E+04  0.00000000000E+00 0. -1.
         36    2    1    2    0    0  0.00000000000E+00  0.14210854715E-13 -0.11405376745E+04  0.15193526376E+04  0.10037959208E+04 0.  0.
         25    2    3    3    0    0 -0.12848160423E+03  0.66631010050E+02 -0.21445670002E+03  0.28731829220E+03  0.12495163353E+03 0.  0.
         35    2    3    3    0    0  0.12848160423E+03 -0.66631010050E+02 -0.92608097447E+03  0.12320343454E+04  0.79958454396E+03 0.  0.
         22    1    5    5    0    0 -0.25266404884E+03  0.16329580719E+03 -0.14717745281E+03  0.33491169708E+03  0.00000000000E+00 0.  1.
         22    1    5    5    0    0  0.38114565308E+03 -0.22992681724E+03 -0.77890352167E+03  0.89712264837E+03  0.00000000000E+00 0.  1.
          5    1    4    4  502    0 -0.16356845905E+02  0.38669794046E+02 -0.14803874138E+03  0.15394953176E+03  0.47000000000E+01 0. -1.
         -5    1    4    4    0  502 -0.11212475833E+03  0.27961216003E+02 -0.66417958640E+02  0.13336876044E+03  0.47000000000E+01 0. -1.
<mgrwt>
<rscale>  0 0.10037959E+04</rscale>
<asrwt>0</asrwt>
<pdfrwt beam="1">  1        2 0.20460695E+00 0.10037959E+04</pdfrwt>
<pdfrwt beam="2">  1       -2 0.29139613E-01 0.10037959E+04</pdfrwt>
<totfact> 0.20645524E+02</totfact>
</mgrwt>
</event>
<event>
 9    1  0.4236486E-036  0.1000341E+04  0.7818608E-02  0.8680713E-01
          2   -1    0    0  501    0  0.00000000000E+00  0.00000000000E+00  0.11601940709E+04  0.11601940709E+04  0.00000000000E+00 0.  1.
         -2   -1    0    0    0  501 -0.00000000000E+00 -0.00000000000E+00 -0.21562834024E+03  0.21562834024E+03  0.00000000000E+00 0.  1.
         36    2    1    2    0    0  0.00000000000E+00  0.14210854715E-13  0.94456573069E+03  0.13758224112E+04  0.10003413855E+04 0.  0.
         25    2    3    3    0    0  0.75220423927E+02 -0.76090652581E+02  0.51053213202E+02  0.17228399808E+03  0.12500978293E+03 0.  0.
         35    2    3    3    0    0 -0.75220423927E+02  0.76090652581E+02  0.89351251749E+03  0.12035384131E+04  0.79918220281E+03 0.  0.
         22    1    5    5    0    0 -0.36030725556E+02 -0.84592613604E+02  0.10016952524E+04  0.10059063088E+04  0.00000000000E+00 0. -1.
         22    1    5    5    0    0 -0.39189698371E+02  0.16068326619E+03 -0.10818273493E+03  0.19763210424E+03  0.00000000000E+00 0. -1.
          5    1    4    4  502    0  0.76184408987E+02 -0.83973015886E+02 -0.68155830094E+01  0.11368409626E+03  0.47000000000E+01 0.  1.
         -5    1    4    4    0  502 -0.96398506008E+00  0.78823633050E+01  0.57868796211E+02  0.58599901821E+02  0.47000000000E+01 0.  1.
<mgrwt>
<rscale>  0 0.10003414E+04</rscale>
<asrwt>0</asrwt>
<pdfrwt beam="1">  1        2 0.17849139E+00 0.10003414E+04</pdfrwt>
<pdfrwt beam="2">  1       -2 0.33173591E-01 0.10003414E+04</pdfrwt>
<totfact> 0.20471654E+02</totfact>
</mgrwt>
</event>
<event>
 9    1  0.4236486E-036  0.9993894E+03  0.7818608E-02  0.8681620E-01
         -2   -1    0    0    0  501 -0.00000000000E+00  0.00000000000E+00  0.10321918238E+03  0.10321918238E+03  0.00000000000E+00 0. -1.
          2   -1    0    0  501    0  0.00000000000E+00 -0.00000000000E+00 -0.24190734294E+04  0.24190734294E+04  0.00000000000E+00 0. -1.
         36    2    1    2    0    0  0.00000000000E+00  0.00000000000E+00 -0.23158542471E+04  0.25222926118E+04  0.99938937656E+03 0.  0.
         25    2    3    3    0    0  0.11886160768E+03 -0.53983138389E+02 -0.55693739760E+03  0.58545962242E+03  0.12466532649E+03 0.  0.
         35    2    3    3    0    0 -0.11886160768E+03  0.53983138389E+02 -0.17589168495E+04  0.19368329894E+04  0.80030699389E+03 0.  0.
         22    1    5    5    0    0  0.12172587983E+03 -0.21094838552E+03 -0.14305756796E+04  0.14511592559E+04  0.00000000000E+00 0.  1.
         22    1    5    5    0    0 -0.24058748752E+03  0.26493152391E+03 -0.32834116992E+03  0.48567373346E+03  0.00000000000E+00 0.  1.
          5    1    4    4  502    0 -0.78794169634E+01 -0.51310279658E+02 -0.12954655027E+03  0.13963963870E+03  0.47000000000E+01 0.  1.
         -5    1    4    4    0  502  0.12674102465E+03 -0.26728587316E+01 -0.42739084733E+03  0.44581998372E+03  0.47000000000E+01 0.  1.
<mgrwt>
<rscale>  0 0.99938938E+03</rscale>
<asrwt>0</asrwt>
<pdfrwt beam="1">  1        2 0.37216516E+00 0.99938938E+03</pdfrwt>
<pdfrwt beam="2">  1       -2 0.15879873E-01 0.99938938E+03</pdfrwt>
<totfact> 0.14160865E+02</totfact>
</mgrwt>
</event>
<event>
 9    1  0.4236486E-036  0.9995170E+03  0.7818608E-02  0.8681498E-01
          2   -1    0    0  501    0  0.00000000000E+00  0.00000000000E+00  0.72242663773E+02  0.72242663773E+02  0.00000000000E+00 0. -1.
         -2   -1    0    0    0  501 -0.00000000000E+00 -0.00000000000E+00 -0.34572170910E+04  0.34572170910E+04  0.00000000000E+00 0. -1.
         36    2    1    2    0    0  0.00000000000E+00 -0.71054273576E-14 -0.33849744272E+04  0.35294597547E+04  0.99951702716E+03 0.  0.
         25    2    3    3    0    0 -0.58652297768E+02 -0.52773788284E+02 -0.22822676375E+03  0.27173984942E+03  0.12461912096E+03 0.  0.
         35    2    3    3    0    0  0.58652297768E+02  0.52773788284E+02 -0.31567476634E+04  0.32577199053E+04  0.80091073540E+03 0.  0.
         22    1    5    5    0    0  0.11883932951E+02 -0.11968036329E+03 -0.27497402070E+02  0.12337229973E+03  0.00000000000E+00 0. -1.
         22    1    5    5    0    0  0.46768364817E+02  0.17245415158E+03 -0.31292502614E+04  0.31343476056E+04  0.00000000000E+00 0. -1.
          5    1    4    4  502    0 -0.21540406959E+02 -0.78222306972E+02 -0.70288623154E+02  0.10744905297E+03  0.47000000000E+01 0. -1.
         -5    1    4    4    0  502 -0.37111890809E+02  0.25448518688E+02 -0.15793814060E+03  0.16429079645E+03  0.47000000000E+01 0. -1.
<mgrwt>
<rscale>  0 0.99951703E+03</rscale>
<asrwt>0</asrwt>
<pdfrwt beam="1">  1        2 0.11114254E-01 0.99951703E+03</pdfrwt>
<pdfrwt beam="2">  1       -2 0.53187965E+00 0.99951703E+03</pdfrwt>
<totfact> 0.14407280E+00</totfact>
</mgrwt>
</event>
<event>
 9    1  0.4236486E-036  0.9997772E+03  0.7818608E-02  0.8681250E-01
         -2   -1    0    0    0  501 -0.00000000000E+00  0.00000000000E+00  0.18142578412E+03  0.18142578412E+03  0.00000000000E+00 0.  1.
          2   -1    0    0  501    0  0.00000000000E+00 -0.00000000000E+00 -0.13773599683E+04  0.13773599683E+04  0.00000000000E+00 0.  1.
         36    2    1    2    0    0  0.71054273576E-14  0.14210854715E-13 -0.11959341842E+04  0.15587857524E+04  0.99977719969E+03 0.  0.
         25    2    3    3    0    0  0.33678070145E+02  0.72994419109E+02 -0.40920067007E+03  0.43387801198E+03  0.11976035765E+03 0.  0.
         35    2    3    3    0    0 -0.33678070145E+02 -0.72994419109E+02 -0.78673351410E+03  0.11249077404E+04  0.80000337788E+03 0.  0.
         22    1    5    5    0    0 -0.27040317837E+03  0.26905953616E+03 -0.30480163923E+03  0.48827753599E+03  0.00000000000E+00 0.  1.
         22    1    5    5    0    0  0.23672510822E+03 -0.34205395527E+03 -0.48193187488E+03  0.63663020444E+03  0.00000000000E+00 0.  1.
          5    1    4    4  502    0 -0.12022496519E+02 -0.13284744369E+02 -0.67311869432E+01  0.19708468565E+02  0.47000000000E+01 0. -1.
         -5    1    4    4    0  502  0.45700566664E+02  0.86279163478E+02 -0.40246948313E+03  0.41416954342E+03  0.47000000000E+01 0. -1.
<mgrwt>
<rscale>  0 0.99977720E+03</rscale>
<asrwt>0</asrwt>
<pdfrwt beam="1">  1        2 0.21190154E+00 0.99977720E+03</pdfrwt>
<pdfrwt beam="2">  1       -2 0.27911659E-01 0.99977720E+03</pdfrwt>
<totfact> 0.20960588E+02</totfact>
</mgrwt>
</event>
<event>
 9    1  0.4236486E-036  0.9997600E+03  0.7818608E-02  0.8681267E-01
         -1   -1    0    0    0  501 -0.00000000000E+00  0.00000000000E+00  0.15256444294E+03  0.15256444294E+03  0.00000000000E+00 0.  1.
          1   -1    0    0  501    0  0.00000000000E+00 -0.00000000000E+00 -0.16378652246E+04  0.16378652246E+04  0.00000000000E+00 0.  1.
         36    2    1    2    0    0  0.00000000000E+00  0.10658141036E-13 -0.14853007817E+04  0.17904296676E+04  0.99975996240E+03 0.  0.
         25    2    3    3    0    0 -0.11702968734E+03 -0.14068132033E+02 -0.40573163658E+03  0.44061922770E+03  0.12503312695E+03 0.  0.
         35    2    3    3    0    0  0.11702968734E+03  0.14068132033E+02 -0.10795691451E+04  0.13498104399E+04  0.80163883667E+03 0.  0.
         22    1    5    5    0    0 -0.97912828016E+02  0.19195368304E+03  0.19043365276E+02  0.21632334152E+03  0.00000000000E+00 0. -1.
         22    1    5    5    0    0  0.21494251535E+03 -0.17788555101E+03 -0.10986125104E+04  0.11334870984E+04  0.00000000000E+00 0. -1.
          5    1    4    4  502    0 -0.90298496941E+01  0.18773964281E+02 -0.20835703718E+01  0.21457660307E+02  0.47000000000E+01 0.  1.
         -5    1    4    4    0  502 -0.10799983764E+03 -0.32842096314E+02 -0.40364806621E+03  0.41916156739E+03  0.47000000000E+01 0.  1.
<mgrwt>
<rscale>  0 0.99975996E+03</rscale>
<asrwt>0</asrwt>
<pdfrwt beam="1">  1        1 0.25197926E+00 0.99975996E+03</pdfrwt>
<pdfrwt beam="2">  1       -1 0.23471453E-01 0.99975996E+03</pdfrwt>
<totfact> 0.87709398E+01</totfact>
</mgrwt>
</event>
<event>
 9    1  0.4236486E-036  0.1000221E+04  0.7818608E-02  0.8680827E-01
         -2   -1    0    0    0  501 -0.00000000000E+00  0.00000000000E+00  0.16845762878E+03  0.16845762878E+03  0.00000000000E+00 0.  1.
          2   -1    0    0  501    0  0.00000000000E+00 -0.00000000000E+00 -0.14847093816E+04  0.14847093816E+04  0.00000000000E+00 0.  1.
         36    2    1    2    0    0  0.00000000000E+00  0.00000000000E+00 -0.13162517528E+04  0.16531670104E+04  0.10002212192E+04 0.  0.
         25    2    3    3    0    0 -0.50250042800E+02 -0.11951680566E+03 -0.15422962261E+03  0.23689592880E+03  0.12459362325E+03 0.  0.
         35    2    3    3    0    0  0.50250042800E+02  0.11951680566E+03 -0.11620221302E+04  0.14162710816E+04  0.79919898135E+03 0.  0.
         22    1    5    5    0    0  0.28377677103E+03  0.36815321197E+03 -0.60247146376E+03  0.76094540403E+03  0.00000000000E+00 0.  1.
         22    1    5    5    0    0 -0.23352672823E+03 -0.24863640632E+03 -0.55955066642E+03  0.65532567753E+03  0.00000000000E+00 0.  1.
          5    1    4    4  502    0 -0.69697894521E+02 -0.80685059989E+02 -0.16052171909E+03  0.19276199756E+03  0.47000000000E+01 0. -1.
         -5    1    4    4    0  502  0.19447851721E+02 -0.38831745668E+02  0.62920964765E+01  0.44133931235E+02  0.47000000000E+01 0. -1.
<mgrwt>
<rscale>  0 0.10002212E+04</rscale>
<asrwt>0</asrwt>
<pdfrwt beam="1">  1        2 0.22841682E+00 0.10002212E+04</pdfrwt>
<pdfrwt beam="2">  1       -2 0.25916559E-01 0.10002212E+04</pdfrwt>
<totfact> 0.20796460E+02</totfact>
</mgrwt>
</event>
<event>
 9    1  0.4236486E-036  0.1000340E+04  0.7818608E-02  0.8680715E-01
         -1   -1    0    0    0  501 -0.00000000000E+00  0.00000000000E+00  0.65955046915E+03  0.65955046915E+03  0.00000000000E+00 0. -1.
          1   -1    0    0  501    0  0.00000000000E+00 -0.00000000000E+00 -0.37930346661E+03  0.37930346661E+03  0.00000000000E+00 0. -1.
         36    2    1    2    0    0 -0.10658141036E-13  0.14210854715E-13  0.28024700253E+03  0.10388539358E+04  0.10003395011E+04 0.  0.
         25    2    3    3    0    0  0.62966246447E+01  0.11668715521E+03 -0.27110825995E+02  0.17373991964E+03  0.12567825237E+03 0.  0.
         35    2    3    3    0    0 -0.62966246447E+01 -0.11668715521E+03  0.30735782853E+03  0.86511401612E+03  0.80018615738E+03 0.  0.
         22    1    5    5    0    0 -0.82126628996E+02 -0.41005464104E+03  0.36687424361E+03  0.55631493100E+03  0.00000000000E+00 0. -1.
         22    1    5    5    0    0  0.75830004352E+02  0.29336748583E+03 -0.59516415085E+02  0.30879908512E+03  0.00000000000E+00 0. -1.
          5    1    4    4  502    0  0.31653478595E+02  0.75212122107E+02 -0.70856573055E+02  0.10817370274E+03  0.47000000000E+01 0.  1.
         -5    1    4    4    0  502 -0.25356853950E+02  0.41475033102E+02  0.43745747060E+02  0.65566216902E+02  0.47000000000E+01 0.  1.
<mgrwt>
<rscale>  0 0.10003395E+04</rscale>
<asrwt>0</asrwt>
<pdfrwt beam="1">  1        1 0.58354379E-01 0.10003395E+04</pdfrwt>
<pdfrwt beam="2">  1       -1 0.10146930E+00 0.10003395E+04</pdfrwt>
<totfact> 0.71150998E+01</totfact>
</mgrwt>
</event>
<event>
 9    1  0.4236486E-036  0.9994078E+03  0.7818608E-02  0.8681602E-01
         -2   -1    0    0    0  501 -0.00000000000E+00  0.00000000000E+00  0.69905037440E+02  0.69905037440E+02  0.00000000000E+00 0. -1.
          2   -1    0    0  501    0  0.00000000000E+00 -0.00000000000E+00 -0.35720456331E+04  0.35720456331E+04  0.00000000000E+00 0. -1.
         36    2    1    2    0    0  0.71054273576E-14 -0.14210854715E-13 -0.35021405957E+04  0.36419506705E+04  0.99940779208E+03 0.  0.
         25    2    3    3    0    0  0.22159759861E+02  0.16416557319E+02 -0.11577725761E+04  0.11648123157E+04  0.12485925825E+03 0.  0.
         35    2    3    3    0    0 -0.22159759861E+02 -0.16416557319E+02 -0.23443680195E+04  0.24771383549E+04  0.79962019728E+03 0.  0.
         22    1    5    5    0    0  0.76332194458E+02 -0.18490884082E+03 -0.22526131865E+04  0.22614782889E+04  0.00000000000E+00 0.  1.
         22    1    5    5    0    0 -0.98491954320E+02  0.16849228350E+03 -0.91754833056E+02  0.21566006597E+03  0.00000000000E+00 0.  1.
          5    1    4    4  502    0  0.50481694402E+02  0.57470326232E+02 -0.77371034961E+03  0.77749664627E+03  0.47000000000E+01 0.  1.
         -5    1    4    4    0  502 -0.28321934541E+02 -0.41053768913E+02 -0.38406222652E+03  0.38731566939E+03  0.47000000000E+01 0.  1.
<mgrwt>
<rscale>  0 0.99940779E+03</rscale>
<asrwt>0</asrwt>
<pdfrwt beam="1">  1        2 0.54954549E+00 0.99940779E+03</pdfrwt>
<pdfrwt beam="2">  1       -2 0.10754621E-01 0.99940779E+03</pdfrwt>
<totfact> 0.45166273E+01</totfact>
</mgrwt>
</event>
<event>
 9    1  0.4236486E-036  0.9997539E+03  0.7818608E-02  0.8681272E-01
         -1   -1    0    0    0  501 -0.00000000000E+00  0.00000000000E+00  0.14510033227E+04  0.14510033227E+04  0.00000000000E+00 0.  1.
          1   -1    0    0  501    0  0.00000000000E+00 -0.00000000000E+00 -0.17220978558E+03  0.17220978558E+03  0.00000000000E+00 0.  1.
         36    2    1    2    0    0  0.28421709430E-13  0.14210854715E-13  0.12787935371E+04  0.16232131083E+04  0.99975391189E+03 0.  0.
         25    2    3    3    0    0  0.11326260697E+03 -0.42050984849E+02  0.35629282933E+03  0.39623154004E+03  0.12433080722E+03 0.  0.
         35    2    3    3    0    0 -0.11326260697E+03  0.42050984849E+02  0.92250070780E+03  0.12269815683E+04  0.79992468988E+03 0.  0.
         22    1    5    5    0    0 -0.30360000741E+03  0.33806106186E+03  0.56911515965E+03  0.72825154376E+03  0.00000000000E+00 0. -1.
         22    1    5    5    0    0  0.19033740044E+03 -0.29601007701E+03  0.35338554815E+03  0.49873002450E+03  0.00000000000E+00 0. -1.
          5    1    4    4  502    0 -0.24221637335E+02 -0.23716310487E+02  0.60762587536E+02  0.69737602070E+02  0.47000000000E+01 0. -1.
         -5    1    4    4    0  502  0.13748424430E+03 -0.18334674362E+02  0.29553024179E+03  0.32649393797E+03  0.47000000000E+01 0. -1.
<mgrwt>
<rscale>  0 0.99975391E+03</rscale>
<asrwt>0</asrwt>
<pdfrwt beam="1">  1        1 0.26493814E-01 0.99975391E+03</pdfrwt>
<pdfrwt beam="2">  1       -1 0.22323127E+00 0.99975391E+03</pdfrwt>
<totfact> 0.17764976E+01</totfact>
</mgrwt>
</event>
<event>
 9    1  0.4236486E-036  0.1002374E+04  0.7818608E-02  0.8678781E-01
          1   -1    0    0  501    0  0.00000000000E+00  0.00000000000E+00  0.55515435876E+03  0.55515435876E+03  0.00000000000E+00 0. -1.
         -1   -1    0    0    0  501 -0.00000000000E+00 -0.00000000000E+00 -0.45246579095E+03  0.45246579095E+03  0.00000000000E+00 0. -1.
         36    2    1    2    0    0 -0.14210854715E-13  0.28421709430E-13  0.10268856781E+03  0.10076201497E+04  0.10023738944E+04 0.  0.
         25    2    3    3    0    0 -0.72885562068E+02 -0.11179576567E+03 -0.32051634443E+02  0.18595104785E+03  0.12545870454E+03 0.  0.
         35    2    3    3    0    0  0.72885562068E+02  0.11179576567E+03  0.13474020225E+03  0.82166910186E+03  0.79948395385E+03 0.  0.
         22    1    5    5    0    0 -0.67313530577E+02 -0.32861216723E+02  0.44526646812E+03  0.45152319829E+03  0.00000000000E+00 0.  1.
         22    1    5    5    0    0  0.14019909264E+03  0.14465698240E+03 -0.31052626587E+03  0.37014590357E+03  0.00000000000E+00 0.  1.
          5    1    4    4  502    0 -0.85502884270E+02 -0.63096690018E+02 -0.65907076110E+02  0.12513100412E+03  0.47000000000E+01 0.  1.
         -5    1    4    4    0  502  0.12617322202E+02 -0.48699075655E+02  0.33855441667E+02  0.60820043733E+02  0.47000000000E+01 0.  1.
<mgrwt>
<rscale>  0 0.10023739E+04</rscale>
<asrwt>0</asrwt>
<pdfrwt beam="1">  1        1 0.85408363E-01 0.10023739E+04</pdfrwt>
<pdfrwt beam="2">  1       -1 0.69610122E-01 0.10023739E+04</pdfrwt>
<totfact> 0.93587989E+01</totfact>
</mgrwt>
</event>
<event>
 9    1  0.4236486E-036  0.9997832E+03  0.7818608E-02  0.8681244E-01
          1   -1    0    0  501    0  0.00000000000E+00  0.00000000000E+00  0.41375563233E+04  0.41375563233E+04  0.00000000000E+00 0.  1.
         -1   -1    0    0    0  501 -0.00000000000E+00 -0.00000000000E+00 -0.60395941474E+02  0.60395941474E+02  0.00000000000E+00 0.  1.
         36    2    1    2    0    0  0.71054273576E-14  0.14210854715E-13  0.40771603819E+04  0.41979522648E+04  0.99978319560E+03 0.  0.
         25    2    3    3    0    0 -0.58499973877E+02  0.11084016986E+03  0.49963756568E+03  0.52991447082E+03  0.12435376612E+03 0.  0.
         35    2    3    3    0    0  0.58499973877E+02 -0.11084016986E+03  0.35775228162E+04  0.36680377940E+04  0.80007747602E+03 0.  0.
         22    1    5    5    0    0  0.29336730845E+03 -0.76783633298E+02  0.32470407381E+04  0.32611705964E+04  0.00000000000E+00 0.  1.
         22    1    5    5    0    0 -0.23486733458E+03 -0.34056536559E+02  0.33048207810E+03  0.40686719759E+03  0.00000000000E+00 0.  1.
          5    1    4    4  502    0 -0.47912437082E+02  0.46066534148E+02  0.42592222437E+03  0.43110272373E+03  0.47000000000E+01 0. -1.
         -5    1    4    4    0  502 -0.10587536795E+02  0.64773635709E+02  0.73715341303E+02  0.98811747084E+02  0.47000000000E+01 0. -1.
<mgrwt>
<rscale>  0 0.99978320E+03</rscale>
<asrwt>0</asrwt>
<pdfrwt beam="1">  1        1 0.63654691E+00 0.99978320E+03</pdfrwt>
<pdfrwt beam="2">  1       -1 0.92916865E-02 0.99978320E+03</pdfrwt>
<totfact> 0.61237169E+00</totfact>
</mgrwt>
</event>
<event>
 9    1  0.4236486E-036  0.1000177E+04  0.7818608E-02  0.8680869E-01
          2   -1    0    0  501    0  0.00000000000E+00  0.00000000000E+00  0.35407893146E+04  0.35407893146E+04  0.00000000000E+00 0. -1.
         -2   -1    0    0    0  501 -0.00000000000E+00 -0.00000000000E+00 -0.70630756753E+02  0.70630756753E+02  0.00000000000E+00 0. -1.
         36    2    1    2    0    0 -0.71054273576E-14 -0.28421709430E-13  0.34701585578E+04  0.36114200713E+04  0.10001772419E+04 0.  0.
         25    2    3    3    0    0 -0.22637807387E+01 -0.13197781404E+02  0.14824224017E+03  0.19482059861E+03  0.12569804189E+03 0.  0.
         35    2    3    3    0    0  0.22637807387E+01  0.13197781404E+02  0.33219163177E+04  0.34165994727E+04  0.79865175725E+03 0.  0.
         22    1    5    5    0    0  0.16429050376E+03 -0.25054641577E+03  0.54026922649E+03  0.61778290133E+03  0.00000000000E+00 0. -1.
         22    1    5    5    0    0 -0.16202672302E+03  0.26374419718E+03  0.27816470912E+04  0.27988165714E+04  0.00000000000E+00 0. -1.
          5    1    4    4  502    0 -0.42524390235E+02 -0.51801059723E+02  0.58666449972E+02  0.89193698799E+02  0.47000000000E+01 0. -1.
         -5    1    4    4    0  502  0.40260609496E+02  0.38603278319E+02  0.89575790200E+02  0.10562689981E+03  0.47000000000E+01 0. -1.
<mgrwt>
<rscale>  0 0.10001772E+04</rscale>
<asrwt>0</asrwt>
<pdfrwt beam="1">  1        2 0.54473668E+00 0.10001772E+04</pdfrwt>
<pdfrwt beam="2">  1       -2 0.10866273E-01 0.10001772E+04</pdfrwt>
<totfact> 0.46933164E+01</totfact>
</mgrwt>
</event>
<event>
 9    1  0.4236486E-036  0.9998274E+03  0.7818608E-02  0.8681202E-01
         -2   -1    0    0    0  501 -0.00000000000E+00  0.00000000000E+00  0.11213826985E+03  0.11213826985E+03  0.00000000000E+00 0.  1.
          2   -1    0    0  501    0  0.00000000000E+00 -0.00000000000E+00 -0.22286208432E+04  0.22286208432E+04  0.00000000000E+00 0.  1.
         36    2    1    2    0    0  0.00000000000E+00 -0.28421709430E-13 -0.21164825733E+04  0.23407591130E+04  0.99982735610E+03 0.  0.
         25    2    3    3    0    0 -0.18507548079E+02  0.13217874858E+03 -0.49821388566E+03  0.53064110322E+03  0.12469624553E+03 0.  0.
         35    2    3    3    0    0  0.18507548079E+02 -0.13217874858E+03 -0.16182686877E+04  0.18101180098E+04  0.79994994408E+03 0.  0.
         22    1    5    5    0    0  0.33072828450E+02 -0.35944664746E+03 -0.29156542604E+03  0.46401088567E+03  0.00000000000E+00 0. -1.
         22    1    5    5    0    0 -0.14565280371E+02  0.22726789888E+03 -0.13267032616E+04  0.13461071241E+04  0.00000000000E+00 0. -1.
          5    1    4    4  502    0 -0.10996478006E+01  0.15382760134E+03 -0.43532645870E+03  0.46173082614E+03  0.47000000000E+01 0. -1.
         -5    1    4    4    0  502 -0.17407900279E+02 -0.21648852764E+02 -0.62887426960E+02  0.68910277084E+02  0.47000000000E+01 0. -1.
<mgrwt>
<rscale>  0 0.99982736E+03</rscale>
<asrwt>0</asrwt>
<pdfrwt beam="1">  1        2 0.34286471E+00 0.99982736E+03</pdfrwt>
<pdfrwt beam="2">  1       -2 0.17252043E-01 0.99982736E+03</pdfrwt>
<totfact> 0.15951985E+02</totfact>
</mgrwt>
</event>
<event>
 9    1  0.4236486E-036  0.9985240E+03  0.7818608E-02  0.8682445E-01
         -2   -1    0    0    0  501 -0.00000000000E+00  0.00000000000E+00  0.35962874533E+03  0.35962874533E+03  0.00000000000E+00 0. -1.
          2   -1    0    0  501    0  0.00000000000E+00 -0.00000000000E+00 -0.69311075835E+03  0.69311075835E+03  0.00000000000E+00 0. -1.
         36    2    1    2    0    0  0.28421709430E-13  0.28421709430E-13 -0.33348201301E+03  0.10527395037E+04  0.99852401554E+03 0.  0.
         25    2    3    3    0    0 -0.86292205871E+02 -0.69023343308E+02 -0.14622583950E+03  0.22198763863E+03  0.12524355812E+03 0.  0.
         35    2    3    3    0    0  0.86292205871E+02  0.69023343308E+02 -0.18725617352E+03  0.83075186505E+03  0.80179375157E+03 0.  0.
         22    1    5    5    0    0 -0.20463312162E+03  0.19829605986E+03 -0.36741064506E+03  0.46495873357E+03  0.00000000000E+00 0. -1.
         22    1    5    5    0    0  0.29092532749E+03 -0.12927271656E+03  0.18015447154E+03  0.36579313148E+03  0.00000000000E+00 0. -1.
          5    1    4    4  502    0 -0.88373631348E+02 -0.64710739995E+02 -0.16721571357E+03  0.19995140272E+03  0.47000000000E+01 0.  1.
         -5    1    4    4    0  502  0.20814254766E+01 -0.43126033122E+01  0.20989874067E+02  0.22036235901E+02  0.47000000000E+01 0.  1.
<mgrwt>
<rscale>  0 0.99852402E+03</rscale>
<asrwt>0</asrwt>
<pdfrwt beam="1">  1        2 0.10663242E+00 0.99852402E+03</pdfrwt>
<pdfrwt beam="2">  1       -2 0.55327500E-01 0.99852402E+03</pdfrwt>
<totfact> 0.15417458E+02</totfact>
</mgrwt>
</event>
<event>
 9    1  0.4236486E-036  0.9996046E+03  0.7818608E-02  0.8681415E-01
         -1   -1    0    0    0  501 -0.00000000000E+00  0.00000000000E+00  0.38207993728E+03  0.38207993728E+03  0.00000000000E+00 0. -1.
          1   -1    0    0  501    0  0.00000000000E+00 -0.00000000000E+00 -0.65379601859E+03  0.65379601859E+03  0.00000000000E+00 0. -1.
         36    2    1    2    0    0 -0.28421709430E-13 -0.14210854715E-13 -0.27171608131E+03  0.10358759559E+04  0.99960460538E+03 0.  0.
         25    2    3    3    0    0 -0.86341863258E+02 -0.10412989180E+03 -0.16138515857E+02  0.18494755765E+03  0.12508875117E+03 0.  0.
         35    2    3    3    0    0  0.86341863258E+02  0.10412989180E+03 -0.25557756545E+03  0.85092839822E+03  0.80028825758E+03 0.  0.
         22    1    5    5    0    0 -0.27344257926E+03  0.44878245373E+01 -0.37032860441E+03  0.46036318268E+03  0.00000000000E+00 0. -1.
         22    1    5    5    0    0  0.35978444252E+03  0.99642067263E+02  0.11475103897E+03  0.39056521554E+03  0.00000000000E+00 0. -1.
          5    1    4    4  502    0 -0.72603319358E+02 -0.44898559577E+02  0.46669952936E+02  0.97402757358E+02  0.47000000000E+01 0. -1.
         -5    1    4    4    0  502 -0.13738543900E+02 -0.59231332223E+02 -0.62808468793E+02  0.87544800289E+02  0.47000000000E+01 0. -1.
<mgrwt>
<rscale>  0 0.99960461E+03</rscale>
<asrwt>0</asrwt>
<pdfrwt beam="1">  1        1 0.10058400E+00 0.99960461E+03</pdfrwt>
<pdfrwt beam="2">  1       -1 0.58781530E-01 0.99960461E+03</pdfrwt>
<totfact> 0.10237069E+02</totfact>
</mgrwt>
</event>
<event>
 9    1  0.4236486E-036  0.9999299E+03  0.7818608E-02  0.8681105E-01
          2   -1    0    0  501    0  0.00000000000E+00  0.00000000000E+00  0.27128908891E+04  0.27128908891E+04  0.00000000000E+00 0. -1.
         -2   -1    0    0    0  501 -0.00000000000E+00 -0.00000000000E+00 -0.92139704050E+02  0.92139704050E+02  0.00000000000E+00 0. -1.
         36    2    1    2    0    0  0.00000000000E+00  0.71054273576E-14  0.26207511850E+04  0.28050305931E+04  0.99992992483E+03 0.  0.
         25    2    3    3    0    0 -0.90434426286E+02 -0.29962527545E+02  0.20753133234E+03  0.26077643349E+03  0.12593234631E+03 0.  0.
         35    2    3    3    0    0  0.90434426286E+02  0.29962527545E+02  0.24132198527E+04  0.25442541596E+04  0.80032682880E+03 0.  0.
         22    1    5    5    0    0 -0.24684348453E+03  0.13568294466E+03  0.19019787450E+04  0.19227232546E+04  0.00000000000E+00 0.  1.
         22    1    5    5    0    0  0.33727791082E+03 -0.10572041712E+03  0.51124110765E+03  0.62153090501E+03  0.00000000000E+00 0.  1.
          5    1    4    4  502    0  0.77028405944E+01 -0.37981516071E+02  0.10444245508E+02  0.40411651544E+02  0.47000000000E+01 0. -1.
         -5    1    4    4    0  502 -0.98137266881E+02  0.80189885263E+01  0.19708708683E+03  0.22036478195E+03  0.47000000000E+01 0. -1.
<mgrwt>
<rscale>  0 0.99992992E+03</rscale>
<asrwt>0</asrwt>
<pdfrwt beam="1">  1        2 0.41736777E+00 0.99992992E+03</pdfrwt>
<pdfrwt beam="2">  1       -2 0.14175341E-01 0.99992992E+03</pdfrwt>
<totfact> 0.11296114E+02</totfact>
</mgrwt>
</event>
<event>
 9    1  0.4236486E-036  0.9998277E+03  0.7818608E-02  0.8681202E-01
         -1   -1    0    0    0  501 -0.00000000000E+00  0.00000000000E+00  0.17026793474E+03  0.17026793474E+03  0.00000000000E+00 0. -1.
          1   -1    0    0  501    0  0.00000000000E+00 -0.00000000000E+00 -0.14677682581E+04  0.14677682581E+04  0.00000000000E+00 0. -1.
         36    2    1    2    0    0  0.00000000000E+00  0.28421709430E-13 -0.12975003233E+04  0.16380361928E+04  0.99982772513E+03 0.  0.
         25    2    3    3    0    0 -0.49268883842E+02  0.12209233152E+03 -0.32158869700E+03  0.36930606921E+03  0.12503488466E+03 0.  0.
         35    2    3    3    0    0  0.49268883842E+02 -0.12209233152E+03 -0.97591162633E+03  0.12687301236E+04  0.79996166398E+03 0.  0.
         22    1    5    5    0    0  0.94204932393E+02 -0.42760104852E+03 -0.31547497107E+03  0.53966812335E+03  0.00000000000E+00 0. -1.
         22    1    5    5    0    0 -0.44936048551E+02  0.30550871700E+03 -0.66043665526E+03  0.72906200027E+03  0.00000000000E+00 0. -1.
          5    1    4    4  502    0 -0.12852553422E+02  0.62597026897E+02 -0.28152910208E+03  0.28872876757E+03  0.47000000000E+01 0.  1.
         -5    1    4    4    0  502 -0.36416330420E+02  0.59495304624E+02 -0.40059594927E+02  0.80577301638E+02  0.47000000000E+01 0.  1.
<mgrwt>
<rscale>  0 0.99982773E+03</rscale>
<asrwt>0</asrwt>
<pdfrwt beam="1">  1        1 0.22581049E+00 0.99982773E+03</pdfrwt>
<pdfrwt beam="2">  1       -1 0.26195068E-01 0.99982773E+03</pdfrwt>
<totfact> 0.96325021E+01</totfact>
</mgrwt>
</event>
<event>
 9    1  0.4236486E-036  0.9999776E+03  0.7818608E-02  0.8681059E-01
         -2   -1    0    0    0  501 -0.00000000000E+00  0.00000000000E+00  0.90148937120E+03  0.90148937120E+03  0.00000000000E+00 0.  1.
          2   -1    0    0  501    0  0.00000000000E+00 -0.00000000000E+00 -0.27730642346E+03  0.27730642346E+03  0.00000000000E+00 0.  1.
         36    2    1    2    0    0  0.00000000000E+00  0.28421709430E-13  0.62418294774E+03  0.11787957947E+04  0.99997758638E+03 0.  0.
         25    2    3    3    0    0  0.15742330979E+02 -0.91325066186E+02 -0.62352725902E+01  0.15571872819E+03  0.12498541909E+03 0.  0.
         35    2    3    3    0    0 -0.15742330979E+02  0.91325066186E+02  0.63041822033E+03  0.10230770665E+04  0.80041955418E+03 0.  0.
         22    1    5    5    0    0  0.23918958717E+03  0.11749005194E+03  0.70704277611E+03  0.75559582990E+03  0.00000000000E+00 0. -1.
         22    1    5    5    0    0 -0.25493191815E+03 -0.26164985757E+02 -0.76624555780E+02  0.26748123657E+03  0.00000000000E+00 0. -1.
          5    1    4    4  502    0  0.50495664043E+02 -0.25408182058E+02 -0.44242351153E+02  0.71936523674E+02  0.47000000000E+01 0.  1.
         -5    1    4    4    0  502 -0.34753333064E+02 -0.65916884128E+02  0.38007078563E+02  0.83782204513E+02  0.47000000000E+01 0.  1.
<mgrwt>
<rscale>  0 0.99997759E+03</rscale>
<asrwt>0</asrwt>
<pdfrwt beam="1">  1        2 0.42662527E-01 0.99997759E+03</pdfrwt>
<pdfrwt beam="2">  1       -2 0.13869067E+00 0.99997759E+03</pdfrwt>
<totfact> 0.50474881E+01</totfact>
</mgrwt>
</event>
<event>
 9    1  0.4236486E-036  0.1000204E+04  0.7818608E-02  0.8680844E-01
         -1   -1    0    0    0  501 -0.00000000000E+00  0.00000000000E+00  0.16159787790E+03  0.16159787790E+03  0.00000000000E+00 0.  1.
          1   -1    0    0  501    0  0.00000000000E+00 -0.00000000000E+00 -0.15476805812E+04  0.15476805812E+04  0.00000000000E+00 0.  1.
         36    2    1    2    0    0  0.00000000000E+00  0.28421709430E-13 -0.13860827033E+04  0.17092784591E+04  0.10002037744E+04 0.  0.
         25    2    3    3    0    0  0.18777020090E+02 -0.47005376613E+02 -0.47540893368E+03  0.49418745403E+03  0.12508198744E+03 0.  0.
         35    2    3    3    0    0 -0.18777020090E+02  0.47005376613E+02 -0.91067376957E+03  0.12150910050E+04  0.80284329354E+03 0.  0.
         22    1    5    5    0    0 -0.52602085485E+01  0.31532118810E+03 -0.57430185252E+02  0.32055163022E+03  0.00000000000E+00 0.  1.
         22    1    5    5    0    0 -0.13516811542E+02 -0.26831581149E+03 -0.85324358432E+03  0.89453937480E+03  0.00000000000E+00 0.  1.
          5    1    4    4  502    0  0.23053264631E+02 -0.63674327734E+02 -0.47092666156E+03  0.47579395077E+03  0.47000000000E+01 0.  1.
         -5    1    4    4    0  502 -0.42762445408E+01  0.16668951122E+02 -0.44822721274E+01  0.18393503263E+02  0.47000000000E+01 0.  1.
<mgrwt>
<rscale>  0 0.10002038E+04</rscale>
<asrwt>0</asrwt>
<pdfrwt beam="1">  1        1 0.23810469E+00 0.10002038E+04</pdfrwt>
<pdfrwt beam="2">  1       -1 0.24861213E-01 0.10002038E+04</pdfrwt>
<totfact> 0.92265126E+01</totfact>
</mgrwt>
</event>
<event>
 9    1  0.4236486E-036  0.9972235E+03  0.7818608E-02  0.8683686E-01
          1   -1    0    0  501    0  0.00000000000E+00  0.00000000000E+00  0.16678129647E+04  0.16678129647E+04  0.00000000000E+00 0. -1.
         -1   -1    0    0    0  501 -0.00000000000E+00 -0.00000000000E+00 -0.14906569382E+03  0.14906569382E+03  0.00000000000E+00 0. -1.
         36    2    1    2    0    0  0.00000000000E+00  0.71054273576E-14  0.15187472709E+04  0.18168786585E+04  0.99722353912E+03 0.  0.
         25    2    3    3    0    0  0.10506553785E+03 -0.15669561309E+02  0.44268653399E+03  0.47207912836E+03  0.12491210375E+03 0.  0.
         35    2    3    3    0    0 -0.10506553785E+03  0.15669561309E+02  0.10760607369E+04  0.13447995301E+04  0.79955910628E+03 0.  0.
         22    1    5    5    0    0 -0.12297297574E+03  0.20798391596E+03 -0.98753191723E+01  0.24182056155E+03  0.00000000000E+00 0. -1.
         22    1    5    5    0    0  0.17907437887E+02 -0.19231435465E+03  0.10859360560E+04  0.11029789686E+04  0.00000000000E+00 0. -1.
          5    1    4    4  502    0  0.46788684044E+02  0.35857085890E+02  0.32883603202E+03  0.33411096587E+03  0.47000000000E+01 0. -1.
         -5    1    4    4    0  502  0.58276853805E+02 -0.51526647200E+02  0.11385050197E+03  0.13796816249E+03  0.47000000000E+01 0. -1.
<mgrwt>
<rscale>  0 0.99722354E+03</rscale>
<asrwt>0</asrwt>
<pdfrwt beam="1">  1        1 0.25658660E+00 0.99722354E+03</pdfrwt>
<pdfrwt beam="2">  1       -1 0.22933185E-01 0.99722354E+03</pdfrwt>
<totfact> 0.86854356E+01</totfact>
</mgrwt>
</event>
<event>
 9    1  0.4236486E-036  0.1000123E+04  0.7818608E-02  0.8680921E-01
         -1   -1    0    0    0  501 -0.00000000000E+00  0.00000000000E+00  0.12003810202E+03  0.12003810202E+03  0.00000000000E+00 0. -1.
          1   -1    0    0  501    0  0.00000000000E+00 -0.00000000000E+00 -0.20831830212E+04  0.20831830212E+04  0.00000000000E+00 0. -1.
         36    2    1    2    0    0  0.00000000000E+00  0.00000000000E+00 -0.19631449192E+04  0.22032211232E+04  0.10001226645E+04 0.  0.
         25    2    3    3    0    0 -0.90019283338E+02  0.10376168217E+03 -0.30803586861E+03  0.35977173642E+03  0.12521840085E+03 0.  0.
         35    2    3    3    0    0  0.90019283338E+02 -0.10376168217E+03 -0.16551090505E+04  0.18434493868E+04  0.80003107086E+03 0.  0.
         22    1    5    5    0    0 -0.34402328605E+03 -0.93296025197E+02 -0.95831265008E+03  0.10224574832E+04  0.00000000000E+00 0.  1.
         22    1    5    5    0    0  0.43404256939E+03 -0.10465656974E+02 -0.69679640045E+03  0.82099190356E+03  0.00000000000E+00 0.  1.
          5    1    4    4  502    0 -0.58270001862E+01 -0.13162679050E+02  0.43264100287E+01  0.15748583260E+02  0.47000000000E+01 0. -1.
         -5    1    4    4    0  502 -0.84192283152E+02  0.11692436122E+03 -0.31236227864E+03  0.34402315316E+03  0.47000000000E+01 0. -1.
<mgrwt>
<rscale>  0 0.10001227E+04</rscale>
<asrwt>0</asrwt>
<pdfrwt beam="1">  1        1 0.32048968E+00 0.10001227E+04</pdfrwt>
<pdfrwt beam="2">  1       -1 0.18467401E-01 0.10001227E+04</pdfrwt>
<totfact> 0.63507580E+01</totfact>
</mgrwt>
</event>
<event>
 9    1  0.4236486E-036  0.9995286E+03  0.7818608E-02  0.8681487E-01
         -1   -1    0    0    0  501 -0.00000000000E+00  0.00000000000E+00  0.88224073658E+03  0.88224073658E+03  0.00000000000E+00 0. -1.
          1   -1    0    0  501    0  0.00000000000E+00 -0.00000000000E+00 -0.28310226295E+03  0.28310226295E+03  0.00000000000E+00 0. -1.
         36    2    1    2    0    0  0.56843418861E-13  0.28421709430E-13  0.59913847363E+03  0.11653429995E+04  0.99952858687E+03 0.  0.
         25    2    3    3    0    0  0.18310792491E+02  0.87118464636E+02  0.24063439513E+03  0.28557778101E+03  0.12539874356E+03 0.  0.
         35    2    3    3    0    0 -0.18310792491E+02 -0.87118464636E+02  0.35850407850E+03  0.87976521852E+03  0.79845898668E+03 0.  0.
         22    1    5    5    0    0 -0.36687346103E+03  0.43545121190E+02  0.34773990974E+03  0.50736117196E+03  0.00000000000E+00 0.  1.
         22    1    5    5    0    0  0.34856266854E+03 -0.13066358583E+03  0.10764168756E+02  0.37240404655E+03  0.00000000000E+00 0.  1.
          5    1    4    4  502    0 -0.21992176197E+02  0.10598726158E+03  0.15755776511E+03  0.19121583297E+03  0.47000000000E+01 0.  1.
         -5    1    4    4    0  502  0.40302968688E+02 -0.18868796949E+02  0.83076630012E+02  0.94361948038E+02  0.47000000000E+01 0.  1.
<mgrwt>
<rscale>  0 0.99952859E+03</rscale>
<asrwt>0</asrwt>
<pdfrwt beam="1">  1        1 0.43554195E-01 0.99952859E+03</pdfrwt>
<pdfrwt beam="2">  1       -1 0.13572934E+00 0.99952859E+03</pdfrwt>
<totfact> 0.51243381E+01</totfact>
</mgrwt>
</event>
<event>
 9    1  0.4236486E-036  0.1001021E+04  0.7818608E-02  0.8680066E-01
          2   -1    0    0  501    0  0.00000000000E+00  0.00000000000E+00  0.21906194118E+04  0.21906194118E+04  0.00000000000E+00 0.  1.
         -2   -1    0    0    0  501 -0.00000000000E+00 -0.00000000000E+00 -0.11435614195E+03  0.11435614195E+03  0.00000000000E+00 0.  1.
         36    2    1    2    0    0 -0.28421709430E-13  0.00000000000E+00  0.20762632699E+04  0.23049755538E+04  0.10010210476E+04 0.  0.
         25    2    3    3    0    0  0.68972628406E+02 -0.65783192556E+02  0.15078108457E+03  0.21743490482E+03  0.12433161496E+03 0.  0.
         35    2    3    3    0    0 -0.68972628406E+02  0.65783192556E+02  0.19254821853E+04  0.20875406489E+04  0.80078690249E+03 0.  0.
         22    1    5    5    0    0 -0.41798742465E+03 -0.29146108296E+02  0.76801724480E+03  0.87487911800E+03  0.00000000000E+00 0. -1.
         22    1    5    5    0    0  0.34901479624E+03  0.94929300851E+02  0.11574649405E+04  0.12126615309E+04  0.00000000000E+00 0. -1.
          5    1    4    4  502    0  0.44996728669E+02 -0.83668846823E+02  0.41040034937E+02  0.10359322366E+03  0.47000000000E+01 0. -1.
         -5    1    4    4    0  502  0.23975899737E+02  0.17885654268E+02  0.10974104963E+03  0.11384168117E+03  0.47000000000E+01 0. -1.
<mgrwt>
<rscale>  0 0.10010210E+04</rscale>
<asrwt>0</asrwt>
<pdfrwt beam="1">  1        2 0.33701834E+00 0.10010210E+04</pdfrwt>
<pdfrwt beam="2">  1       -2 0.17593254E-01 0.10010210E+04</pdfrwt>
<totfact> 0.16234387E+02</totfact>
</mgrwt>
</event>
<event>
 9    1  0.4236486E-036  0.9999083E+03  0.7818608E-02  0.8681125E-01
          2   -1    0    0  501    0  0.00000000000E+00  0.00000000000E+00  0.19362043606E+04  0.19362043606E+04  0.00000000000E+00 0.  1.
         -2   -1    0    0    0  501 -0.00000000000E+00 -0.00000000000E+00 -0.12909492163E+03  0.12909492163E+03  0.00000000000E+00 0.  1.
         36    2    1    2    0    0 -0.28421709430E-13  0.00000000000E+00  0.18071094390E+04  0.20652992822E+04  0.99990829616E+03 0.  0.
         25    2    3    3    0    0 -0.11579422250E+03 -0.62032475757E+02  0.43172930373E+03  0.46846381124E+03  0.12574506247E+03 0.  0.
         35    2    3    3    0    0  0.11579422250E+03  0.62032475757E+02  0.13753801352E+04  0.15968354710E+04  0.80059769856E+03 0.  0.
         22    1    5    5    0    0  0.41877051141E+03  0.41489503003E+01  0.11221420142E+04  0.11977431507E+04  0.00000000000E+00 0. -1.
         22    1    5    5    0    0 -0.30297628892E+03  0.57883525457E+02  0.25323812109E+03  0.39909232032E+03  0.00000000000E+00 0. -1.
          5    1    4    4  502    0  0.66919338646E+01 -0.31043202688E+02  0.20148589588E+02  0.37901425757E+02  0.47000000000E+01 0. -1.
         -5    1    4    4    0  502 -0.12248615636E+03 -0.30989273069E+02  0.41158071414E+03  0.43056238549E+03  0.47000000000E+01 0. -1.
<mgrwt>
<rscale>  0 0.99990830E+03</rscale>
<asrwt>0</asrwt>
<pdfrwt beam="1">  1        2 0.29787757E+00 0.99990830E+03</pdfrwt>
<pdfrwt beam="2">  1       -2 0.19860759E-01 0.99990830E+03</pdfrwt>
<totfact> 0.18444446E+02</totfact>
</mgrwt>
</event>
<event>
 9    1  0.4236486E-036  0.1000904E+04  0.7818608E-02  0.8680177E-01
         -1   -1    0    0    0  501 -0.00000000000E+00  0.00000000000E+00  0.25627438330E+03  0.25627438330E+03  0.00000000000E+00 0. -1.
          1   -1    0    0  501    0  0.00000000000E+00 -0.00000000000E+00 -0.97728170621E+03  0.97728170621E+03  0.00000000000E+00 0. -1.
         36    2    1    2    0    0  0.28421709430E-13 -0.71054273576E-14 -0.72100732291E+03  0.12335560895E+04  0.10009041244E+04 0.  0.
         25    2    3    3    0    0 -0.12487194192E+03  0.22010145164E+02 -0.58720605721E+02  0.18743078243E+03  0.12491893490E+03 0.  0.
         35    2    3    3    0    0  0.12487194192E+03 -0.22010145164E+02 -0.66228671719E+03  0.10461253071E+04  0.79979810826E+03 0.  0.
         22    1    5    5    0    0  0.46211374088E+02  0.38864536798E+03 -0.33401548247E+03  0.51453576715E+03  0.00000000000E+00 0.  1.
         22    1    5    5    0    0  0.78660567833E+02 -0.41065551315E+03 -0.32827123472E+03  0.53158953993E+03  0.00000000000E+00 0.  1.
          5    1    4    4  502    0  0.11646025558E+02  0.37424195647E+02 -0.47912190456E+01  0.39764885402E+02  0.47000000000E+01 0.  1.
         -5    1    4    4    0  502 -0.13651796748E+03 -0.15414050482E+02 -0.53929386676E+02  0.14766589702E+03  0.47000000000E+01 0.  1.
<mgrwt>
<rscale>  0 0.10009041E+04</rscale>
<asrwt>0</asrwt>
<pdfrwt beam="1">  1        1 0.15035103E+00 0.10009041E+04</pdfrwt>
<pdfrwt beam="2">  1       -1 0.39426829E-01 0.10009041E+04</pdfrwt>
<totfact> 0.11056830E+02</totfact>
</mgrwt>
</event>
<event>
 9    1  0.4236486E-036  0.1000041E+04  0.7818608E-02  0.8680999E-01
          2   -1    0    0  501    0  0.00000000000E+00  0.00000000000E+00  0.48883911580E+03  0.48883911580E+03  0.00000000000E+00 0.  1.
         -2   -1    0    0    0  501 -0.00000000000E+00 -0.00000000000E+00 -0.51145795166E+03  0.51145795166E+03  0.00000000000E+00 0.  1.
         36    2    1    2    0    0  0.71054273576E-14  0.00000000000E+00 -0.22618835853E+02  0.10002970675E+04  0.10000413049E+04 0.  0.
         25    2    3    3    0    0  0.61002555771E+02  0.99697074105E+02 -0.84272996021E+02  0.18919055521E+03  0.12259816446E+03 0.  0.
         35    2    3    3    0    0 -0.61002555771E+02 -0.99697074105E+02  0.61654160169E+02  0.81110651224E+03  0.80026977973E+03 0.  0.
         22    1    5    5    0    0  0.29564075873E+03  0.76361905322E+02  0.22689382661E+03  0.38041478330E+03  0.00000000000E+00 0. -1.
         22    1    5    5    0    0 -0.35664331450E+03 -0.17605897943E+03 -0.16523966644E+03  0.43069172894E+03  0.00000000000E+00 0. -1.
          5    1    4    4  502    0  0.38072659136E+02  0.75813197185E+01 -0.85631938072E+02  0.94137785189E+02  0.47000000000E+01 0.  1.
         -5    1    4    4    0  502  0.22929896635E+02  0.92115754387E+02  0.13589420509E+01  0.95052770025E+02  0.47000000000E+01 0.  1.
<mgrwt>
<rscale>  0 0.10000413E+04</rscale>
<asrwt>0</asrwt>
<pdfrwt beam="1">  1        2 0.75206018E-01 0.10000413E+04</pdfrwt>
<pdfrwt beam="2">  1       -2 0.78685839E-01 0.10000413E+04</pdfrwt>
<totfact> 0.10936828E+02</totfact>
</mgrwt>
</event>
<event>
 9    1  0.4236486E-036  0.9993765E+03  0.7818608E-02  0.8681632E-01
          2   -1    0    0  501    0  0.00000000000E+00  0.00000000000E+00  0.25892673879E+03  0.25892673879E+03  0.00000000000E+00 0.  1.
         -2   -1    0    0    0  501 -0.00000000000E+00 -0.00000000000E+00 -0.96432052564E+03  0.96432052564E+03  0.00000000000E+00 0.  1.
         36    2    1    2    0    0 -0.28421709430E-13  0.00000000000E+00 -0.70539378685E+03  0.12232472644E+04  0.99937654336E+03 0.  0.
         25    2    3    3    0    0 -0.11680912900E+03 -0.64372451867E+02 -0.17139010096E+03  0.25212073864E+03  0.12807074205E+03 0.  0.
         35    2    3    3    0    0  0.11680912900E+03  0.64372451867E+02 -0.53400368588E+03  0.97112652579E+03  0.80008662492E+03 0.  0.
         22    1    5    5    0    0 -0.25293982196E+03 -0.90757808954E+01 -0.53752902196E+03  0.59413666170E+03  0.00000000000E+00 0. -1.
         22    1    5    5    0    0  0.36974895095E+03  0.73448232762E+02  0.35253360768E+01  0.37698986408E+03  0.00000000000E+00 0. -1.
          5    1    4    4  502    0 -0.13553022548E+03 -0.27093965732E+02 -0.15315566868E+03  0.20635230517E+03  0.47000000000E+01 0. -1.
         -5    1    4    4    0  502  0.18721096486E+02 -0.37278486135E+02 -0.18234432280E+02  0.45768433475E+02  0.47000000000E+01 0. -1.
<mgrwt>
<rscale>  0 0.99937654E+03</rscale>
<asrwt>0</asrwt>
<pdfrwt beam="1">  1        2 0.39834883E-01 0.99937654E+03</pdfrwt>
<pdfrwt beam="2">  1       -2 0.14835701E+00 0.99937654E+03</pdfrwt>
<totfact> 0.45277198E+01</totfact>
</mgrwt>
</event>
<event>
 9    1  0.4236486E-036  0.9973975E+03  0.7818608E-02  0.8683520E-01
         -1   -1    0    0    0  501 -0.00000000000E+00  0.00000000000E+00  0.14826164693E+03  0.14826164693E+03  0.00000000000E+00 0.  1.
          1   -1    0    0  501    0  0.00000000000E+00 -0.00000000000E+00 -0.16774429830E+04  0.16774429830E+04  0.00000000000E+00 0.  1.
         36    2    1    2    0    0  0.14210854715E-13  0.28421709430E-13 -0.15291813361E+04  0.18257046299E+04  0.99739753217E+03 0.  0.
         25    2    3    3    0    0 -0.49769257455E+02  0.11003646742E+03 -0.34537057858E+03  0.38636685664E+03  0.12415115068E+03 0.  0.
         35    2    3    3    0    0  0.49769257455E+02 -0.11003646742E+03 -0.11838107575E+04  0.14393377733E+04  0.80975324200E+03 0.  0.
         22    1    5    5    0    0  0.14665191285E+03  0.26514300827E+03 -0.92501357663E+03  0.97337439628E+03  0.00000000000E+00 0. -1.
         22    1    5    5    0    0 -0.96882655394E+02 -0.37517947569E+03 -0.25879718084E+03  0.46596337700E+03  0.00000000000E+00 0. -1.
          5    1    4    4  502    0 -0.86800858719E+02  0.59742006894E+02 -0.25918864383E+03  0.27982912563E+03  0.47000000000E+01 0.  1.
         -5    1    4    4    0  502  0.37031601264E+02  0.50294460524E+02 -0.86181934752E+02  0.10653773101E+03  0.47000000000E+01 0.  1.
<mgrwt>
<rscale>  0 0.99739753E+03</rscale>
<asrwt>0</asrwt>
<pdfrwt beam="1">  1        1 0.25806815E+00 0.99739753E+03</pdfrwt>
<pdfrwt beam="2">  1       -1 0.22809484E-01 0.99739753E+03</pdfrwt>
<totfact> 0.86279191E+01</totfact>
</mgrwt>
</event>
<event>
 9    1  0.4236486E-036  0.1000608E+04  0.7818608E-02  0.8680459E-01
          2   -1    0    0  501    0  0.00000000000E+00  0.00000000000E+00  0.21488046997E+03  0.21488046997E+03  0.00000000000E+00 0. -1.
         -2   -1    0    0    0  501 -0.00000000000E+00 -0.00000000000E+00 -0.11648521924E+04  0.11648521924E+04  0.00000000000E+00 0. -1.
         36    2    1    2    0    0  0.14210854715E-13 -0.14210854715E-13 -0.94997172246E+03  0.13797326624E+04  0.10006077884E+04 0.  0.
         25    2    3    3    0    0 -0.78606071844E+02 -0.98237327649E+02 -0.92607575922E+02  0.19983394825E+03  0.12461122213E+03 0.  0.
         35    2    3    3    0    0  0.78606071844E+02  0.98237327649E+02 -0.85736414653E+03  0.11798987141E+04  0.80078599439E+03 0.  0.
         22    1    5    5    0    0 -0.14543854898E+03 -0.16259575565E+03 -0.80260018722E+03  0.83171919048E+03  0.00000000000E+00 0.  1.
         22    1    5    5    0    0  0.22404462082E+03  0.26083308330E+03 -0.54763959315E+02  0.34817952367E+03  0.00000000000E+00 0.  1.
          5    1    4    4  502    0  0.27250843755E+02 -0.56874718957E+02 -0.30032007833E+02  0.70009668162E+02  0.47000000000E+01 0.  1.
         -5    1    4    4    0  502 -0.10585691560E+03 -0.41362608692E+02 -0.62575568089E+02  0.12982428009E+03  0.47000000000E+01 0.  1.
<mgrwt>
<rscale>  0 0.10006078E+04</rscale>
<asrwt>0</asrwt>
<pdfrwt beam="1">  1        2 0.33058534E-01 0.10006078E+04</pdfrwt>
<pdfrwt beam="2">  1       -2 0.17920803E+00 0.10006078E+04</pdfrwt>
<totfact> 0.32352376E+01</totfact>
</mgrwt>
</event>
<event>
 9    1  0.4236486E-036  0.9999261E+03  0.7818608E-02  0.8681108E-01
         -2   -1    0    0    0  501 -0.00000000000E+00  0.00000000000E+00  0.22261487192E+03  0.22261487192E+03  0.00000000000E+00 0. -1.
          2   -1    0    0  501    0  0.00000000000E+00 -0.00000000000E+00 -0.11228497017E+04  0.11228497017E+04  0.00000000000E+00 0. -1.
         36    2    1    2    0    0  0.00000000000E+00  0.00000000000E+00 -0.90023482975E+03  0.13454645736E+04  0.99992608231E+03 0.  0.
         25    2    3    3    0    0 -0.15647497303E+02 -0.14022290867E+03 -0.16074629002E+03  0.24724242766E+03  0.12402475556E+03 0.  0.
         35    2    3    3    0    0  0.15647497303E+02  0.14022290867E+03 -0.73948853974E+03  0.10982221459E+04  0.79958818971E+03 0.  0.
         22    1    5    5    0    0 -0.91925198026E+02 -0.10385632300E+02  0.15732577344E+03  0.18250891041E+03  0.00000000000E+00 0.  1.
         22    1    5    5    0    0  0.10757269533E+03  0.15060854097E+03 -0.89681431317E+03  0.91571323552E+03  0.00000000000E+00 0.  1.
          5    1    4    4  502    0 -0.55047599998E+02 -0.23158008078E+02 -0.78610710317E+02  0.98834535362E+02  0.47000000000E+01 0.  1.
         -5    1    4    4    0  502  0.39400102695E+02 -0.11706490059E+03 -0.82135579702E+02  0.14840789230E+03  0.47000000000E+01 0.  1.
<mgrwt>
<rscale>  0 0.99992608E+03</rscale>
<asrwt>0</asrwt>
<pdfrwt beam="1">  1        2 0.17274611E+00 0.99992608E+03</pdfrwt>
<pdfrwt beam="2">  1       -2 0.34248441E-01 0.99992608E+03</pdfrwt>
<totfact> 0.20316579E+02</totfact>
</mgrwt>
</event>
<event>
 9    1  0.4236486E-036  0.9990656E+03  0.7818608E-02  0.8681928E-01
         -2   -1    0    0    0  501 -0.00000000000E+00  0.00000000000E+00  0.49321389070E+03  0.49321389070E+03  0.00000000000E+00 0.  1.
          2   -1    0    0  501    0  0.00000000000E+00 -0.00000000000E+00 -0.50593268853E+03  0.50593268853E+03  0.00000000000E+00 0.  1.
         36    2    1    2    0    0  0.00000000000E+00 -0.14210854715E-13 -0.12718797834E+02  0.99914657923E+03  0.99906562295E+03 0.  0.
         25    2    3    3    0    0 -0.12597377057E+03  0.34408868499E+02  0.45374632251E+02  0.18701268863E+03  0.12594255577E+03 0.  0.
         35    2    3    3    0    0  0.12597377057E+03 -0.34408868499E+02 -0.58093430085E+02  0.81213389060E+03  0.79945809680E+03 0.  0.
         22    1    5    5    0    0 -0.39031436429E+02 -0.15202538288E+03  0.33496671161E+03  0.36991602825E+03  0.00000000000E+00 0. -1.
         22    1    5    5    0    0  0.16500520699E+03  0.11761651438E+03 -0.39306014170E+03  0.44221786235E+03  0.00000000000E+00 0. -1.
          5    1    4    4  502    0 -0.41982761940E+01 -0.34852645519E+02 -0.91952000682E+01  0.36591995395E+02  0.47000000000E+01 0.  1.
         -5    1    4    4    0  502 -0.12177549437E+03  0.69261514018E+02  0.54569832319E+02  0.15042069323E+03  0.47000000000E+01 0.  1.
<mgrwt>
<rscale>  0 0.99906562E+03</rscale>
<asrwt>0</asrwt>
<pdfrwt beam="1">  1        2 0.77835798E-01 0.99906562E+03</pdfrwt>
<pdfrwt beam="2">  1       -2 0.75879060E-01 0.99906562E+03</pdfrwt>
<totfact> 0.11413178E+02</totfact>
</mgrwt>
</event>
<event>
 9    1  0.4236486E-036  0.9988670E+03  0.7818608E-02  0.8682118E-01
          2   -1    0    0  501    0  0.00000000000E+00  0.00000000000E+00  0.25123827968E+04  0.25123827968E+04  0.00000000000E+00 0. -1.
         -2   -1    0    0    0  501 -0.00000000000E+00 -0.00000000000E+00 -0.99281778814E+02  0.99281778814E+02  0.00000000000E+00 0. -1.
         36    2    1    2    0    0  0.14210854715E-13  0.00000000000E+00  0.24131010180E+04  0.26116645756E+04  0.99886702444E+03 0.  0.
         25    2    3    3    0    0 -0.28465080786E+02 -0.10756035689E+03  0.23264228015E+03  0.28656383761E+03  0.12496764108E+03 0.  0.
         35    2    3    3    0    0  0.28465080786E+02  0.10756035689E+03  0.21804587378E+04  0.23251007380E+04  0.79957091196E+03 0.  0.
         22    1    5    5    0    0 -0.19684656887E+03  0.37256485494E+03  0.15361568380E+04  0.15929001770E+04  0.00000000000E+00 0.  1.
         22    1    5    5    0    0  0.22531164966E+03 -0.26500449806E+03  0.64430189985E+03  0.73220056105E+03  0.00000000000E+00 0.  1.
          5    1    4    4  502    0 -0.74999550814E+02 -0.72817528924E+02  0.11628167924E+03  0.15643159549E+03  0.47000000000E+01 0. -1.
         -5    1    4    4    0  502  0.46534470028E+02 -0.34742827961E+02  0.11636060091E+03  0.13013224212E+03  0.47000000000E+01 0. -1.
<mgrwt>
<rscale>  0 0.99886702E+03</rscale>
<asrwt>0</asrwt>
<pdfrwt beam="1">  1        2 0.38652038E+00 0.99886702E+03</pdfrwt>
<pdfrwt beam="2">  1       -2 0.15274122E-01 0.99886702E+03</pdfrwt>
<totfact> 0.13276388E+02</totfact>
</mgrwt>
</event>
<event>
 9    1  0.4236486E-036  0.1000136E+04  0.7818608E-02  0.8680909E-01
         -1   -1    0    0    0  501 -0.00000000000E+00  0.00000000000E+00  0.27150558439E+03  0.27150558439E+03  0.00000000000E+00 0.  1.
          1   -1    0    0  501    0  0.00000000000E+00 -0.00000000000E+00 -0.92104114211E+03  0.92104114211E+03  0.00000000000E+00 0.  1.
         36    2    1    2    0    0 -0.56843418861E-13  0.14210854715E-13 -0.64953555772E+03  0.11925467265E+04  0.10001356179E+04 0.  0.
         25    2    3    3    0    0  0.90402004969E+02 -0.58198843068E+02 -0.21009269319E+02  0.16636973259E+03  0.12521130416E+03 0.  0.
         35    2    3    3    0    0 -0.90402004969E+02  0.58198843068E+02 -0.62852628840E+03  0.10261769939E+04  0.80401138037E+03 0.  0.
         22    1    5    5    0    0 -0.39296383387E+03  0.12660260244E+03 -0.11901471723E+03  0.42966649461E+03  0.00000000000E+00 0.  1.
         22    1    5    5    0    0  0.30256182890E+03 -0.68403759373E+02 -0.50951157117E+03  0.59651049929E+03  0.00000000000E+00 0.  1.
          5    1    4    4  502    0  0.46776287813E+02  0.33596601682E+02 -0.28348456755E+02  0.64362083143E+02  0.47000000000E+01 0.  1.
         -5    1    4    4    0  502  0.43625717156E+02 -0.91795444749E+02  0.73391874365E+01  0.10200764945E+03  0.47000000000E+01 0.  1.
<mgrwt>
<rscale>  0 0.10001356E+04</rscale>
<asrwt>0</asrwt>
<pdfrwt beam="1">  1        1 0.14169864E+00 0.10001356E+04</pdfrwt>
<pdfrwt beam="2">  1       -1 0.41770090E-01 0.10001356E+04</pdfrwt>
<totfact> 0.11082427E+02</totfact>
</mgrwt>
</event>
<event>
 9    1  0.4236486E-036  0.9996515E+03  0.7818608E-02  0.8681370E-01
         -1   -1    0    0    0  501 -0.00000000000E+00  0.00000000000E+00  0.86758483176E+02  0.86758483176E+02  0.00000000000E+00 0.  1.
          1   -1    0    0  501    0  0.00000000000E+00 -0.00000000000E+00 -0.28795547042E+04  0.28795547042E+04  0.00000000000E+00 0.  1.
         36    2    1    2    0    0 -0.14210854715E-13  0.00000000000E+00 -0.27927962211E+04  0.29663131874E+04  0.99965153601E+03 0.  0.
         25    2    3    3    0    0  0.79608591549E+02  0.81272168763E+02 -0.28133497319E+03  0.32818240016E+03  0.12494649805E+03 0.  0.
         35    2    3    3    0    0 -0.79608591549E+02 -0.81272168763E+02 -0.25114612479E+04  0.26381307873E+04  0.79959599661E+03 0.  0.
         22    1    5    5    0    0 -0.16253927567E+03 -0.84639212241E+02 -0.25428129110E+04  0.25494078357E+04  0.00000000000E+00 0.  1.
         22    1    5    5    0    0  0.82930684119E+02  0.33670434780E+01  0.31351663127E+02  0.88722951546E+02  0.00000000000E+00 0.  1.
          5    1    4    4  502    0 -0.13254356414E+02  0.14909766179E+02 -0.16085418882E+03  0.16215467662E+03  0.47000000000E+01 0.  1.
         -5    1    4    4    0  502  0.92862947964E+02  0.66362402585E+02 -0.12048078437E+03  0.16602772354E+03  0.47000000000E+01 0.  1.
<mgrwt>
<rscale>  0 0.99965154E+03</rscale>
<asrwt>0</asrwt>
<pdfrwt beam="1">  1        1 0.44300840E+00 0.99965154E+03</pdfrwt>
<pdfrwt beam="2">  1       -1 0.13347459E-01 0.99965154E+03</pdfrwt>
<totfact> 0.29521824E+01</totfact>
</mgrwt>
</event>
<event>
 9    1  0.4236486E-036  0.1003742E+04  0.7818608E-02  0.8677482E-01
         -1   -1    0    0    0  501 -0.00000000000E+00  0.00000000000E+00  0.10637636174E+03  0.10637636174E+03  0.00000000000E+00 0.  1.
          1   -1    0    0  501    0  0.00000000000E+00 -0.00000000000E+00 -0.23677694602E+04  0.23677694602E+04  0.00000000000E+00 0.  1.
         36    2    1    2    0    0  0.14210854715E-13  0.00000000000E+00 -0.22613930985E+04  0.24741458220E+04  0.10037423985E+04 0.  0.
         25    2    3    3    0    0  0.12200407042E+03 -0.74526123844E+02 -0.42619622170E+03  0.46652503763E+03  0.12475277559E+03 0.  0.
         35    2    3    3    0    0 -0.12200407042E+03  0.74526123844E+02 -0.18351968768E+04  0.20076207843E+04  0.80134543161E+03 0.  0.
         22    1    5    5    0    0 -0.22798170137E+03  0.16861951920E+03 -0.18439537551E+04  0.18656295584E+04  0.00000000000E+00 0. -1.
         22    1    5    5    0    0  0.10597763096E+03 -0.94093395360E+02  0.87568782924E+01  0.14199122590E+03  0.00000000000E+00 0. -1.
          5    1    4    4  502    0  0.75897806582E+02 -0.10829788122E+03 -0.29149588817E+03  0.32012630467E+03  0.47000000000E+01 0.  1.
         -5    1    4    4    0  502  0.46106263833E+02  0.33771757378E+02 -0.13470033353E+03  0.14639873297E+03  0.47000000000E+01 0.  1.
<mgrwt>
<rscale>  0 0.10037424E+04</rscale>
<asrwt>0</asrwt>
<pdfrwt beam="1">  1        1 0.36427222E+00 0.10037424E+04</pdfrwt>
<pdfrwt beam="2">  1       -1 0.16365594E-01 0.10037424E+04</pdfrwt>
<totfact> 0.48818375E+01</totfact>
</mgrwt>
</event>
<event>
 9    1  0.4236486E-036  0.9999322E+03  0.7818608E-02  0.8681103E-01
         -1   -1    0    0    0  501 -0.00000000000E+00  0.00000000000E+00  0.27024072056E+03  0.27024072056E+03  0.00000000000E+00 0. -1.
          1   -1    0    0  501    0  0.00000000000E+00 -0.00000000000E+00 -0.92497569106E+03  0.92497569106E+03  0.00000000000E+00 0. -1.
         36    2    1    2    0    0  0.14210854715E-13 -0.14210854715E-13 -0.65473497050E+03  0.11952164116E+04  0.99993219220E+03 0.  0.
         25    2    3    3    0    0  0.46516754012E+02  0.11258995035E+03 -0.21106092328E+03  0.27288187723E+03  0.12279047299E+03 0.  0.
         35    2    3    3    0    0 -0.46516754012E+02 -0.11258995035E+03 -0.44367404722E+03  0.92233453439E+03  0.79938352987E+03 0.  0.
         22    1    5    5    0    0  0.19780743300E+03 -0.15585338480E+03 -0.58491718058E+03  0.63682506722E+03  0.00000000000E+00 0.  1.
         22    1    5    5    0    0 -0.24432418701E+03  0.43263434451E+02  0.14124313336E+03  0.28550946717E+03  0.00000000000E+00 0.  1.
          5    1    4    4  502    0  0.81102264816E+02  0.74016691493E+02 -0.93376724401E+02  0.14421286572E+03  0.47000000000E+01 0.  1.
         -5    1    4    4    0  502 -0.34585510804E+02  0.38573258857E+02 -0.11768419888E+03  0.12866901151E+03  0.47000000000E+01 0.  1.
<mgrwt>
<rscale>  0 0.99993219E+03</rscale>
<asrwt>0</asrwt>
<pdfrwt beam="1">  1        1 0.14230395E+00 0.99993219E+03</pdfrwt>
<pdfrwt beam="2">  1       -1 0.41575496E-01 0.99993219E+03</pdfrwt>
<totfact> 0.11092733E+02</totfact>
</mgrwt>
</event>
<event>
 9    1  0.4236486E-036  0.9996940E+03  0.7818608E-02  0.8681329E-01
          2   -1    0    0  501    0  0.00000000000E+00  0.00000000000E+00  0.14995318028E+04  0.14995318028E+04  0.00000000000E+00 0.  1.
         -2   -1    0    0    0  501 -0.00000000000E+00 -0.00000000000E+00 -0.16661668775E+03  0.16661668775E+03  0.00000000000E+00 0.  1.
         36    2    1    2    0    0  0.00000000000E+00 -0.42632564146E-13  0.13329151150E+04  0.16661484905E+04  0.99969399750E+03 0.  0.
         25    2    3    3    0    0 -0.50053784714E+02 -0.54834330116E+02  0.44533704626E+03  0.46868097231E+03  0.12579580245E+03 0.  0.
         35    2    3    3    0    0  0.50053784714E+02  0.54834330116E+02  0.88757806875E+03  0.11974675182E+04  0.80038830820E+03 0.  0.
         22    1    5    5    0    0  0.18374328578E+03  0.32960322463E+03  0.16293297407E+03  0.41103167127E+03  0.00000000000E+00 0.  1.
         22    1    5    5    0    0 -0.13368950106E+03 -0.27476889451E+03  0.72464509469E+03  0.78643584693E+03  0.00000000000E+00 0.  1.
          5    1    4    4  502    0 -0.52220881182E+02 -0.90237939749E+02  0.38131376573E+03  0.39533806310E+03  0.47000000000E+01 0. -1.
         -5    1    4    4    0  502  0.21670964678E+01  0.35403609633E+02  0.64023280529E+02  0.73342909213E+02  0.47000000000E+01 0. -1.
<mgrwt>
<rscale>  0 0.99969400E+03</rscale>
<asrwt>0</asrwt>
<pdfrwt beam="1">  1        2 0.23069719E+00 0.99969400E+03</pdfrwt>
<pdfrwt beam="2">  1       -2 0.25633337E-01 0.99969400E+03</pdfrwt>
<totfact> 0.20801755E+02</totfact>
</mgrwt>
</event>
<event>
 9    1  0.4236486E-036  0.1002530E+04  0.7818608E-02  0.8678633E-01
          4   -1    0    0  501    0  0.00000000000E+00  0.00000000000E+00  0.28343681887E+03  0.28343681887E+03  0.00000000000E+00 0.  1.
         -4   -1    0    0    0  501 -0.00000000000E+00 -0.00000000000E+00 -0.88649895158E+03  0.88649895158E+03  0.00000000000E+00 0.  1.
         36    2    1    2    0    0  0.21316282073E-13 -0.14210854715E-13 -0.60306213272E+03  0.11699357704E+04  0.10025296859E+04 0.  0.
         25    2    3    3    0    0 -0.12137345536E+02 -0.47417640851E+01 -0.27974347590E+03  0.30675030191E+03  0.12517801695E+03 0.  0.
         35    2    3    3    0    0  0.12137345536E+02  0.47417640851E+01 -0.32331865682E+03  0.86318546854E+03  0.80024021379E+03 0.  0.
         22    1    5    5    0    0  0.21642033955E+03 -0.20484916546E+03 -0.45367501352E+03  0.54279090067E+03  0.00000000000E+00 0.  1.
         22    1    5    5    0    0 -0.20428299401E+03  0.20959092954E+03  0.13035635670E+03  0.32039456787E+03  0.00000000000E+00 0.  1.
          5    1    4    4  502    0 -0.30523325403E+02 -0.36849208196E+02 -0.26027485311E+03  0.26467834573E+03  0.47000000000E+01 0.  1.
         -5    1    4    4    0  502  0.18385979867E+02  0.32107444111E+02 -0.19468622789E+02  0.42071956174E+02  0.47000000000E+01 0.  1.
<mgrwt>
<rscale>  0 0.10025297E+04</rscale>
<asrwt>0</asrwt>
<pdfrwt beam="1">  1        4 0.43605664E-01 0.10025297E+04</pdfrwt>
<pdfrwt beam="2">  1       -4 0.13638445E+00 0.10025297E+04</pdfrwt>
<totfact> 0.40625184E+00</totfact>
</mgrwt>
</event>
<event>
 9    1  0.4236486E-036  0.9996749E+03  0.7818608E-02  0.8681348E-01
         -1   -1    0    0    0  501 -0.00000000000E+00  0.00000000000E+00  0.33409210915E+03  0.33409210915E+03  0.00000000000E+00 0. -1.
          1   -1    0    0  501    0  0.00000000000E+00 -0.00000000000E+00 -0.74781020292E+03  0.74781020292E+03  0.00000000000E+00 0. -1.
         36    2    1    2    0    0 -0.14210854715E-13 -0.56843418861E-13 -0.41371809377E+03  0.10819023121E+04  0.99967492303E+03 0.  0.
         25    2    3    3    0    0  0.93633316899E+02  0.72904389686E+02 -0.15795152978E+03  0.23399794410E+03  0.12539578947E+03 0.  0.
         35    2    3    3    0    0 -0.93633316899E+02 -0.72904389686E+02 -0.25576656399E+03  0.84790436796E+03  0.79965182041E+03 0.  0.
         22    1    5    5    0    0 -0.26831458101E+02 -0.33072341264E+03  0.14871511257E+03  0.36361255138E+03  0.00000000000E+00 0.  1.
         22    1    5    5    0    0 -0.66801858798E+02  0.25781902295E+03 -0.40448167657E+03  0.48429181659E+03  0.00000000000E+00 0.  1.
          5    1    4    4  502    0 -0.28837176571E+01  0.58535302075E+02 -0.14698680006E+02  0.60603948802E+02  0.47000000000E+01 0.  1.
         -5    1    4    4    0  502  0.96517034557E+02  0.14369087611E+02 -0.14325284977E+03  0.17339399530E+03  0.47000000000E+01 0.  1.
<mgrwt>
<rscale>  0 0.99967492E+03</rscale>
<asrwt>0</asrwt>
<pdfrwt beam="1">  1        1 0.11504772E+00 0.99967492E+03</pdfrwt>
<pdfrwt beam="2">  1       -1 0.51398787E-01 0.99967492E+03</pdfrwt>
<totfact> 0.10723373E+02</totfact>
</mgrwt>
</event>
<event>
 9    1  0.4236486E-036  0.9989945E+03  0.7818608E-02  0.8681996E-01
         -2   -1    0    0    0  501 -0.00000000000E+00  0.00000000000E+00  0.23515112882E+03  0.23515112882E+03  0.00000000000E+00 0. -1.
          2   -1    0    0  501    0  0.00000000000E+00 -0.00000000000E+00 -0.10610090733E+04  0.10610090733E+04  0.00000000000E+00 0. -1.
         36    2    1    2    0    0 -0.14210854715E-13  0.00000000000E+00 -0.82585794447E+03  0.12961602021E+04  0.99899445697E+03 0.  0.
         25    2    3    3    0    0  0.13106531840E+02  0.12988177994E+03 -0.18332584169E+03  0.25729549020E+03  0.12470584231E+03 0.  0.
         35    2    3    3    0    0 -0.13106531840E+02 -0.12988177994E+03 -0.64253210278E+03  0.10388647119E+04  0.80582338548E+03 0.  0.
         22    1    5    5    0    0 -0.26610852711E+03 -0.18931893493E+03 -0.70023347821E+03  0.77264631710E+03  0.00000000000E+00 0. -1.
         22    1    5    5    0    0  0.25300199527E+03  0.59437154988E+02  0.57701375428E+02  0.26621839480E+03  0.00000000000E+00 0. -1.
          5    1    4    4  502    0 -0.84939480347E+01  0.37341073556E+02  0.11684517094E+02  0.40312787888E+02  0.47000000000E+01 0. -1.
         -5    1    4    4    0  502  0.21600479875E+02  0.92540706388E+02 -0.19501035878E+03  0.21698270231E+03  0.47000000000E+01 0. -1.
<mgrwt>
<rscale>  0 0.99899446E+03</rscale>
<asrwt>0</asrwt>
<pdfrwt beam="1">  1        2 0.16323217E+00 0.99899446E+03</pdfrwt>
<pdfrwt beam="2">  1       -2 0.36177096E-01 0.99899446E+03</pdfrwt>
<totfact> 0.19999164E+02</totfact>
</mgrwt>
</event>
<event>
 9    1  0.4236486E-036  0.1000972E+04  0.7818608E-02  0.8680113E-01
          1   -1    0    0  501    0  0.00000000000E+00  0.00000000000E+00  0.21658896036E+04  0.21658896036E+04  0.00000000000E+00 0. -1.
         -1   -1    0    0    0  501 -0.00000000000E+00 -0.00000000000E+00 -0.11565050097E+03  0.11565050097E+03  0.00000000000E+00 0. -1.
         36    2    1    2    0    0 -0.14210854715E-13  0.28421709430E-13  0.20502391026E+04  0.22815401045E+04  0.10009719630E+04 0.  0.
         25    2    3    3    0    0  0.11162608148E+03 -0.78388006863E+02  0.47800158173E+03  0.51261565654E+03  0.12523672588E+03 0.  0.
         35    2    3    3    0    0 -0.11162608148E+03  0.78388006863E+02  0.15722375209E+04  0.17689244480E+04  0.79909812850E+03 0.  0.
         22    1    5    5    0    0 -0.19864454869E+03  0.38138885003E+03  0.12329369458E+04  0.13057758705E+04  0.00000000000E+00 0.  1.
         22    1    5    5    0    0  0.87018467210E+02 -0.30300084316E+03  0.33930057508E+03  0.46314857750E+03  0.00000000000E+00 0.  1.
          5    1    4    4  502    0  0.70129672675E+02 -0.11035905454E+03  0.30729113386E+03  0.33398686031E+03  0.47000000000E+01 0. -1.
         -5    1    4    4    0  502  0.41496408809E+02  0.31971047675E+02  0.17071044787E+03  0.17862879623E+03  0.47000000000E+01 0. -1.
<mgrwt>
<rscale>  0 0.10009720E+04</rscale>
<asrwt>0</asrwt>
<pdfrwt beam="1">  1        1 0.33321375E+00 0.10009720E+04</pdfrwt>
<pdfrwt beam="2">  1       -1 0.17792386E-01 0.10009720E+04</pdfrwt>
<totfact> 0.59057564E+01</totfact>
</mgrwt>
</event>
<event>
 9    1  0.4236486E-036  0.1000576E+04  0.7818608E-02  0.8680489E-01
          1   -1    0    0  501    0  0.00000000000E+00  0.00000000000E+00  0.30640976884E+03  0.30640976884E+03  0.00000000000E+00 0.  1.
         -1   -1    0    0    0  501 -0.00000000000E+00 -0.00000000000E+00 -0.81684135841E+03  0.81684135841E+03  0.00000000000E+00 0.  1.
         36    2    1    2    0    0 -0.14210854715E-13  0.00000000000E+00 -0.51043158956E+03  0.11232511273E+04  0.10005761776E+04 0.  0.
         25    2    3    3    0    0  0.88688935412E+02 -0.10315363394E+03 -0.57249051475E+02  0.19412758290E+03  0.12610180446E+03 0.  0.
         35    2    3    3    0    0 -0.88688935412E+02  0.10315363394E+03 -0.45318253809E+03  0.92912354435E+03  0.79961850178E+03 0.  0.
         22    1    5    5    0    0 -0.22308560126E+03  0.20612949763E+03 -0.62064631598E+03  0.69098365018E+03  0.00000000000E+00 0. -1.
         22    1    5    5    0    0  0.13439666584E+03 -0.10297586369E+03  0.16746377789E+03  0.23813989417E+03  0.00000000000E+00 0. -1.
          5    1    4    4  502    0  0.64621912436E+02 -0.11468754872E+03 -0.10413853217E+01  0.13172850823E+03  0.47000000000E+01 0.  1.
         -5    1    4    4    0  502  0.24067022977E+02  0.11533914774E+02 -0.56207666153E+02  0.62399074667E+02  0.47000000000E+01 0.  1.
<mgrwt>
<rscale>  0 0.10005762E+04</rscale>
<asrwt>0</asrwt>
<pdfrwt beam="1">  1        1 0.47139965E-01 0.10005762E+04</pdfrwt>
<pdfrwt beam="2">  1       -1 0.12566790E+00 0.10005762E+04</pdfrwt>
<totfact> 0.56514421E+01</totfact>
</mgrwt>
</event>
<event>
 9    1  0.4236486E-036  0.1000138E+04  0.7818608E-02  0.8680906E-01
          1   -1    0    0  501    0  0.00000000000E+00  0.00000000000E+00  0.37202298682E+04  0.37202298682E+04  0.00000000000E+00 0. -1.
         -1   -1    0    0    0  501 -0.00000000000E+00 -0.00000000000E+00 -0.67218740732E+02  0.67218740732E+02  0.00000000000E+00 0. -1.
         36    2    1    2    0    0 -0.28421709430E-13  0.00000000000E+00  0.36530111275E+04  0.37874486089E+04  0.10001383244E+04 0.  0.
         25    2    3    3    0    0 -0.12970102541E+02  0.11122861587E+03  0.36952142442E+03  0.40622053701E+03  0.12621019387E+03 0.  0.
         35    2    3    3    0    0  0.12970102541E+02 -0.11122861587E+03  0.32834897031E+04  0.33812280719E+04  0.79928631651E+03 0.  0.
         22    1    5    5    0    0 -0.30290702533E+03 -0.10420833495E+02  0.55240462330E+03  0.63008898388E+03  0.00000000000E+00 0. -1.
         22    1    5    5    0    0  0.31587712787E+03 -0.10080778238E+03  0.27310850798E+04  0.27511390880E+04  0.00000000000E+00 0. -1.
          5    1    4    4  502    0 -0.17580722586E+02  0.13783643430E+03  0.28035341330E+03  0.31293464298E+03  0.47000000000E+01 0. -1.
         -5    1    4    4    0  502  0.46106200458E+01 -0.26607818426E+02  0.89168011121E+02  0.93285894035E+02  0.47000000000E+01 0. -1.
<mgrwt>
<rscale>  0 0.10001383E+04</rscale>
<asrwt>0</asrwt>
<pdfrwt beam="1">  1        1 0.57234290E+00 0.10001383E+04</pdfrwt>
<pdfrwt beam="2">  1       -1 0.10341348E-01 0.10001383E+04</pdfrwt>
<totfact> 0.10714155E+01</totfact>
</mgrwt>
</event>
<event>
 9    1  0.4236486E-036  0.1000255E+04  0.7818608E-02  0.8680795E-01
          2   -1    0    0  501    0  0.00000000000E+00  0.00000000000E+00  0.74016069634E+03  0.74016069634E+03  0.00000000000E+00 0. -1.
         -2   -1    0    0    0  501 -0.00000000000E+00 -0.00000000000E+00 -0.33793705524E+03  0.33793705524E+03  0.00000000000E+00 0. -1.
         36    2    1    2    0    0  0.00000000000E+00  0.00000000000E+00  0.40222364110E+03  0.10780977516E+04  0.10002554196E+04 0.  0.
         25    2    3    3    0    0 -0.10268836079E+03  0.66380647322E+02  0.14967643999E+03  0.22998212895E+03  0.12464932075E+03 0.  0.
         35    2    3    3    0    0  0.10268836079E+03 -0.66380647322E+02  0.25254720110E+03  0.84811562264E+03  0.80035537781E+03 0.  0.
         22    1    5    5    0    0  0.11129111053E+03  0.29130298734E+03  0.35832886664E+03  0.47501865056E+03  0.00000000000E+00 0.  1.
         22    1    5    5    0    0 -0.86027497413E+01 -0.35768363466E+03 -0.10578166554E+03  0.37309697207E+03  0.00000000000E+00 0.  1.
          5    1    4    4  502    0 -0.26783398780E+02  0.40848365899E+02  0.14099677161E+03  0.14929205957E+03  0.47000000000E+01 0. -1.
         -5    1    4    4    0  502 -0.75904962013E+02  0.25532281423E+02  0.86796683891E+01  0.80690069378E+02  0.47000000000E+01 0. -1.
<mgrwt>
<rscale>  0 0.10002554E+04</rscale>
<asrwt>0</asrwt>
<pdfrwt beam="1">  1        2 0.11387088E+00 0.10002554E+04</pdfrwt>
<pdfrwt beam="2">  1       -2 0.51990316E-01 0.10002554E+04</pdfrwt>
<totfact> 0.16129201E+02</totfact>
</mgrwt>
</event>
<event>
 9    1  0.4236486E-036  0.1001336E+04  0.7818608E-02  0.8679766E-01
         -1   -1    0    0    0  501 -0.00000000000E+00  0.00000000000E+00  0.12629833240E+03  0.12629833240E+03  0.00000000000E+00 0.  1.
          1   -1    0    0  501    0  0.00000000000E+00 -0.00000000000E+00 -0.19847347365E+04  0.19847347365E+04  0.00000000000E+00 0.  1.
         36    2    1    2    0    0 -0.14210854715E-13  0.00000000000E+00 -0.18584364041E+04  0.21110330689E+04  0.10013364819E+04 0.  0.
         25    2    3    3    0    0  0.62080035792E+02  0.88777089936E+02 -0.15551628739E+03  0.22696852995E+03  0.12487632043E+03 0.  0.
         35    2    3    3    0    0 -0.62080035792E+02 -0.88777089936E+02 -0.17029201168E+04  0.18840645390E+04  0.79876589842E+03 0.  0.
         22    1    5    5    0    0 -0.29401528575E+03  0.12559189239E+02 -0.19038541144E+03  0.35049868242E+03  0.00000000000E+00 0. -1.
         22    1    5    5    0    0  0.23193524996E+03 -0.10133627918E+03 -0.15125347053E+04  0.15335658566E+04  0.00000000000E+00 0. -1.
          5    1    4    4  502    0 -0.33695753398E+02  0.52845662010E+02 -0.62223355693E+02  0.88441527486E+02  0.47000000000E+01 0.  1.
         -5    1    4    4    0  502  0.95775789190E+02  0.35931427927E+02 -0.93292931694E+02  0.13852700246E+03  0.47000000000E+01 0.  1.
<mgrwt>
<rscale>  0 0.10013365E+04</rscale>
<asrwt>0</asrwt>
<pdfrwt beam="1">  1        1 0.30534382E+00 0.10013365E+04</pdfrwt>
<pdfrwt beam="2">  1       -1 0.19430512E-01 0.10013365E+04</pdfrwt>
<totfact> 0.68466699E+01</totfact>
</mgrwt>
</event>
<event>
 9    1  0.4236486E-036  0.1000260E+04  0.7818608E-02  0.8680791E-01
          1   -1    0    0  501    0  0.00000000000E+00  0.00000000000E+00  0.23119612144E+04  0.23119612144E+04  0.00000000000E+00 0. -1.
         -1   -1    0    0    0  501 -0.00000000000E+00 -0.00000000000E+00 -0.10818947979E+03  0.10818947979E+03  0.00000000000E+00 0. -1.
         36    2    1    2    0    0 -0.14210854715E-13  0.00000000000E+00  0.22037717346E+04  0.24201506942E+04  0.10002597284E+04 0.  0.
         25    2    3    3    0    0  0.32967996392E+02 -0.80898902211E+02  0.14806963238E+03  0.21247420690E+03  0.12485652326E+03 0.  0.
         35    2    3    3    0    0 -0.32967996392E+02  0.80898902211E+02  0.20557021022E+04  0.22076764873E+04  0.80018299049E+03 0.  0.
         22    1    5    5    0    0  0.31909912687E+02  0.63616722125E+02 -0.58671562797E+02  0.92237097432E+02  0.00000000000E+00 0. -1.
         22    1    5    5    0    0 -0.64877909079E+02  0.17282180086E+02  0.21143736650E+04  0.21154393898E+04  0.00000000000E+00 0. -1.
          5    1    4    4  502    0 -0.22086673546E+02 -0.25458759419E+02 -0.10520695099E+02  0.35619441388E+02  0.47000000000E+01 0.  1.
         -5    1    4    4    0  502  0.55054669938E+02 -0.55440142793E+02  0.15859032748E+03  0.17685476551E+03  0.47000000000E+01 0.  1.
<mgrwt>
<rscale>  0 0.10002597E+04</rscale>
<asrwt>0</asrwt>
<pdfrwt beam="1">  1        1 0.35568630E+00 0.10002597E+04</pdfrwt>
<pdfrwt beam="2">  1       -1 0.16644537E-01 0.10002597E+04</pdfrwt>
<totfact> 0.51994513E+01</totfact>
</mgrwt>
</event>
<event>
 9    1  0.4236486E-036  0.9991899E+03  0.7818608E-02  0.8681810E-01
         -1   -1    0    0    0  501 -0.00000000000E+00  0.00000000000E+00  0.15204822999E+03  0.15204822999E+03  0.00000000000E+00 0.  1.
          1   -1    0    0  501    0  0.00000000000E+00 -0.00000000000E+00 -0.16415521147E+04  0.16415521147E+04  0.00000000000E+00 0.  1.
         36    2    1    2    0    0 -0.14210854715E-13  0.28421709430E-13 -0.14895038847E+04  0.17936003446E+04  0.99918985877E+03 0.  0.
         25    2    3    3    0    0 -0.48834524757E+02  0.10857585258E+03 -0.39401140348E+03  0.43081411372E+03  0.12720962200E+03 0.  0.
         35    2    3    3    0    0  0.48834524757E+02 -0.10857585258E+03 -0.10954924812E+04  0.13627862309E+04  0.80181606888E+03 0.  0.
         22    1    5    5    0    0  0.26866298707E+03  0.26466619145E+03 -0.52861431250E+03  0.64935436004E+03  0.00000000000E+00 0. -1.
         22    1    5    5    0    0 -0.21982846231E+03 -0.37324204404E+03 -0.56687816868E+03  0.71343187089E+03  0.00000000000E+00 0. -1.
          5    1    4    4  502    0 -0.46988723594E+02  0.11558913261E+03 -0.40081607238E+03  0.41981472294E+03  0.47000000000E+01 0. -1.
         -5    1    4    4    0  502 -0.18458011628E+01 -0.70132800222E+01  0.68046688960E+01  0.10999390773E+02  0.47000000000E+01 0. -1.
<mgrwt>
<rscale>  0 0.99918986E+03</rscale>
<asrwt>0</asrwt>
<pdfrwt beam="1">  1        1 0.25254650E+00 0.99918986E+03</pdfrwt>
<pdfrwt beam="2">  1       -1 0.23392034E-01 0.99918986E+03</pdfrwt>
<totfact> 0.87683540E+01</totfact>
</mgrwt>
</event>
<event>
 9    1  0.4236486E-036  0.9998035E+03  0.7818608E-02  0.8681225E-01
         -2   -1    0    0    0  501 -0.00000000000E+00  0.00000000000E+00  0.12888515426E+03  0.12888515426E+03  0.00000000000E+00 0. -1.
          2   -1    0    0  501    0  0.00000000000E+00 -0.00000000000E+00 -0.19389491627E+04  0.19389491627E+04  0.00000000000E+00 0. -1.
         36    2    1    2    0    0  0.00000000000E+00  0.00000000000E+00 -0.18100640085E+04  0.20678343170E+04  0.99980350456E+03 0.  0.
         25    2    3    3    0    0 -0.43534511239E+02 -0.13159442879E+03 -0.32794746657E+03  0.37775030435E+03  0.12622758908E+03 0.  0.
         35    2    3    3    0    0  0.43534511239E+02  0.13159442879E+03 -0.14821165419E+04  0.16900840126E+04  0.80031380011E+03 0.  0.
         22    1    5    5    0    0 -0.58477109640E+02 -0.73077949814E+02 -0.14570226097E+04  0.14600256314E+04  0.00000000000E+00 0. -1.
         22    1    5    5    0    0  0.10201162088E+03  0.20467237861E+03 -0.25093932202E+02  0.23005838127E+03  0.00000000000E+00 0. -1.
          5    1    4    4  502    0  0.38627306145E+02 -0.27718259615E+02 -0.46529503700E+02  0.66689245090E+02  0.47000000000E+01 0.  1.
         -5    1    4    4    0  502 -0.82161817384E+02 -0.10387616918E+03 -0.28141796287E+03  0.31106105926E+03  0.47000000000E+01 0.  1.
<mgrwt>
<rscale>  0 0.99980350E+03</rscale>
<asrwt>0</asrwt>
<pdfrwt beam="1">  1        2 0.29829986E+00 0.99980350E+03</pdfrwt>
<pdfrwt beam="2">  1       -2 0.19828486E-01 0.99980350E+03</pdfrwt>
<totfact> 0.18430148E+02</totfact>
</mgrwt>
</event>
<event>
 9    1  0.4236486E-036  0.1000248E+04  0.7818608E-02  0.8680802E-01
         -2   -1    0    0    0  501 -0.00000000000E+00  0.00000000000E+00  0.17474893580E+03  0.17474893580E+03  0.00000000000E+00 0. -1.
          2   -1    0    0  501    0  0.00000000000E+00 -0.00000000000E+00 -0.14313344548E+04  0.14313344548E+04  0.00000000000E+00 0. -1.
         36    2    1    2    0    0  0.00000000000E+00 -0.14210854715E-13 -0.12565855190E+04  0.16060833906E+04  0.10002483147E+04 0.  0.
         25    2    3    3    0    0 -0.97966394726E+02  0.85812044727E+02 -0.32435806588E+03  0.37106824502E+03  0.12458878780E+03 0.  0.
         35    2    3    3    0    0  0.97966394726E+02 -0.85812044727E+02 -0.93222745312E+03  0.12350151456E+04  0.79953315375E+03 0.  0.
         22    1    5    5    0    0  0.29147013295E+03  0.25205551877E+03 -0.28341810872E+03  0.47834364978E+03  0.00000000000E+00 0.  1.
         22    1    5    5    0    0 -0.19350373822E+03 -0.33786756349E+03 -0.64880934440E+03  0.75667149579E+03  0.00000000000E+00 0.  1.
          5    1    4    4  502    0 -0.79372395957E+02  0.63022092465E+02 -0.92471465672E+02  0.13727644861E+03  0.47000000000E+01 0. -1.
         -5    1    4    4    0  502 -0.18593998769E+02  0.22789952262E+02 -0.23188660021E+03  0.23379179641E+03  0.47000000000E+01 0. -1.
<mgrwt>
<rscale>  0 0.10002483E+04</rscale>
<asrwt>0</asrwt>
<pdfrwt beam="1">  1        2 0.22020531E+00 0.10002483E+04</pdfrwt>
<pdfrwt beam="2">  1       -2 0.26884450E-01 0.10002483E+04</pdfrwt>
<totfact> 0.20885493E+02</totfact>
</mgrwt>
</event>
<event>
 9    1  0.4236486E-036  0.1000538E+04  0.7818608E-02  0.8680526E-01
          2   -1    0    0  501    0  0.00000000000E+00  0.00000000000E+00  0.24406332985E+03  0.24406332985E+03  0.00000000000E+00 0.  1.
         -2   -1    0    0    0  501 -0.00000000000E+00 -0.00000000000E+00 -0.10254264583E+04  0.10254264583E+04  0.00000000000E+00 0.  1.
         36    2    1    2    0    0  0.71054273576E-14  0.00000000000E+00 -0.78136312841E+03  0.12694897881E+04  0.10005378472E+04 0.  0.
         25    2    3    3    0    0  0.25160599291E+02  0.13834164364E+03 -0.13606270584E+03  0.23258531656E+03  0.12574340316E+03 0.  0.
         35    2    3    3    0    0 -0.25160599291E+02 -0.13834164364E+03 -0.64530042257E+03  0.10369044715E+04  0.79936648767E+03 0.  0.
         22    1    5    5    0    0 -0.38612006615E+03 -0.19017092153E+03 -0.45212705997E+03  0.62423758557E+03  0.00000000000E+00 0.  1.
         22    1    5    5    0    0  0.36095946686E+03  0.51829277888E+02 -0.19317336259E+03  0.41266688597E+03  0.00000000000E+00 0.  1.
          5    1    4    4  502    0 -0.50572091430E+02  0.42667308219E+02 -0.42953939920E+02  0.79026366340E+02  0.47000000000E+01 0. -1.
         -5    1    4    4    0  502  0.75732690720E+02  0.95674335421E+02 -0.93108765920E+02  0.15355895022E+03  0.47000000000E+01 0. -1.
<mgrwt>
<rscale>  0 0.10005378E+04</rscale>
<asrwt>0</asrwt>
<pdfrwt beam="1">  1        2 0.37548205E-01 0.10005378E+04</pdfrwt>
<pdfrwt beam="2">  1       -2 0.15775791E+00 0.10005378E+04</pdfrwt>
<totfact> 0.40679549E+01</totfact>
</mgrwt>
</event>
<event>
 9    1  0.4236486E-036  0.1000318E+04  0.7818608E-02  0.8680735E-01
          2   -1    0    0  501    0  0.00000000000E+00  0.00000000000E+00  0.21333996276E+04  0.21333996276E+04  0.00000000000E+00 0.  1.
         -2   -1    0    0    0  501 -0.00000000000E+00 -0.00000000000E+00 -0.11725841299E+03  0.11725841299E+03  0.00000000000E+00 0.  1.
         36    2    1    2    0    0 -0.14210854715E-13  0.28421709430E-13  0.20161412146E+04  0.22506580406E+04  0.10003180586E+04 0.  0.
         25    2    3    3    0    0 -0.82139057278E+02  0.10268837215E+03  0.49962875598E+03  0.53141757109E+03  0.12443478032E+03 0.  0.
         35    2    3    3    0    0  0.82139057278E+02 -0.10268837215E+03  0.15165124586E+04  0.17192404695E+04  0.79917834574E+03 0.  0.
         22    1    5    5    0    0 -0.80191128589E+02 -0.36064412348E+03  0.12834319691E+04  0.13355494825E+04  0.00000000000E+00 0. -1.
         22    1    5    5    0    0  0.16233018587E+03  0.25795575133E+03  0.23308048947E+03  0.38369098694E+03  0.00000000000E+00 0. -1.
          5    1    4    4  502    0 -0.42767571581E+02 -0.21672785615E+02  0.17553219526E+03  0.18202312048E+03  0.47000000000E+01 0. -1.
         -5    1    4    4    0  502 -0.39371485697E+02  0.12436115777E+03  0.32409656072E+03  0.34939445061E+03  0.47000000000E+01 0. -1.
<mgrwt>
<rscale>  0 0.10003181E+04</rscale>
<asrwt>0</asrwt>
<pdfrwt beam="1">  1        2 0.32821530E+00 0.10003181E+04</pdfrwt>
<pdfrwt beam="2">  1       -2 0.18039757E-01 0.10003181E+04</pdfrwt>
<totfact> 0.16787291E+02</totfact>
</mgrwt>
</event>
<event>
 9    1  0.4236486E-036  0.1000580E+04  0.7818608E-02  0.8680486E-01
         -1   -1    0    0    0  501 -0.00000000000E+00  0.00000000000E+00  0.59675692222E+03  0.59675692222E+03  0.00000000000E+00 0. -1.
          1   -1    0    0  501    0  0.00000000000E+00 -0.00000000000E+00 -0.41941696537E+03  0.41941696537E+03  0.00000000000E+00 0. -1.
         36    2    1    2    0    0  0.00000000000E+00  0.00000000000E+00  0.17733995686E+03  0.10161738876E+04  0.10005797867E+04 0.  0.
         25    2    3    3    0    0 -0.82690945359E+02 -0.10850124604E+03  0.76348707600E+02  0.20039222595E+03  0.12536987769E+03 0.  0.
         35    2    3    3    0    0  0.82690945359E+02  0.10850124604E+03  0.10099124926E+03  0.81578166164E+03  0.79792867739E+03 0.  0.
         22    1    5    5    0    0  0.24402739219E+03  0.19266848878E+02  0.39738220635E+03  0.46672604120E+03  0.00000000000E+00 0.  1.
         22    1    5    5    0    0 -0.16133644684E+03  0.89234397166E+02 -0.29639095709E+03  0.34905562044E+03  0.00000000000E+00 0.  1.
          5    1    4    4  502    0  0.12863500492E+02 -0.74043200440E+02  0.36426772204E+01  0.75387162526E+02  0.47000000000E+01 0. -1.
         -5    1    4    4    0  502 -0.95554445851E+02 -0.34458045604E+02  0.72706030380E+02  0.12500506343E+03  0.47000000000E+01 0. -1.
<mgrwt>
<rscale>  0 0.10005798E+04</rscale>
<asrwt>0</asrwt>
<pdfrwt beam="1">  1        1 0.64525687E-01 0.10005798E+04</pdfrwt>
<pdfrwt beam="2">  1       -1 0.91808757E-01 0.10005798E+04</pdfrwt>
<totfact> 0.77555652E+01</totfact>
</mgrwt>
</event>
<event>
 9    1  0.4236486E-036  0.1003124E+04  0.7818608E-02  0.8678069E-01
         -1   -1    0    0    0  501 -0.00000000000E+00  0.00000000000E+00  0.85935135793E+03  0.85935135793E+03  0.00000000000E+00 0. -1.
          1   -1    0    0  501    0  0.00000000000E+00 -0.00000000000E+00 -0.29273733803E+03  0.29273733803E+03  0.00000000000E+00 0. -1.
         36    2    1    2    0    0 -0.56843418861E-13  0.00000000000E+00  0.56661401990E+03  0.11520886960E+04  0.10031235795E+04 0.  0.
         25    2    3    3    0    0 -0.93376052694E+02  0.64115274119E+02  0.78299889121E+01  0.16828548351E+03  0.12421288034E+03 0.  0.
         35    2    3    3    0    0  0.93376052694E+02 -0.64115274119E+02  0.55878403099E+03  0.98380321244E+03  0.80174766101E+03 0.  0.
         22    1    5    5    0    0 -0.28514963404E+03  0.30891165107E+01  0.52554015696E+03  0.59792333373E+03  0.00000000000E+00 0.  1.
         22    1    5    5    0    0  0.37852568674E+03 -0.67204390630E+02  0.33243874027E+02  0.38587987872E+03  0.00000000000E+00 0.  1.
          5    1    4    4  502    0 -0.10024202867E+03  0.36841831390E+00  0.21332653688E+02  0.10259518584E+03  0.47000000000E+01 0. -1.
         -5    1    4    4    0  502  0.68659759812E+01  0.63746855805E+02 -0.13502664776E+02  0.65690297664E+02  0.47000000000E+01 0. -1.
<mgrwt>
<rscale>  0 0.10031236E+04</rscale>
<asrwt>0</asrwt>
<pdfrwt beam="1">  1        1 0.45036514E-01 0.10031236E+04</pdfrwt>
<pdfrwt beam="2">  1       -1 0.13220790E+00 0.10031236E+04</pdfrwt>
<totfact> 0.52586563E+01</totfact>
</mgrwt>
</event>
<event>
 9    1  0.4236486E-036  0.9995433E+03  0.7818608E-02  0.8681473E-01
          1   -1    0    0  501    0  0.00000000000E+00  0.00000000000E+00  0.36177035428E+03  0.36177035428E+03  0.00000000000E+00 0. -1.
         -1   -1    0    0    0  501 -0.00000000000E+00 -0.00000000000E+00 -0.69041504056E+03  0.69041504056E+03  0.00000000000E+00 0. -1.
         36    2    1    2    0    0  0.14210854715E-13  0.71054273576E-14 -0.32864468628E+03  0.10521853948E+04  0.99954328335E+03 0.  0.
         25    2    3    3    0    0  0.58038483694E+02 -0.53508550598E+02 -0.18302846407E+03  0.23467891178E+03  0.12386743881E+03 0.  0.
         35    2    3    3    0    0 -0.58038483694E+02  0.53508550598E+02 -0.14561622221E+03  0.81750648305E+03  0.80055052001E+03 0.  0.
         22    1    5    5    0    0 -0.22241323024E+03  0.23011898703E+03  0.21361246166E+03  0.38477613875E+03  0.00000000000E+00 0. -1.
         22    1    5    5    0    0  0.16437474654E+03 -0.17661043643E+03 -0.35922868388E+03  0.43273034430E+03  0.00000000000E+00 0. -1.
          5    1    4    4  502    0  0.26365661245E+02 -0.20479999965E+02  0.10850304673E+02  0.35417475954E+02  0.47000000000E+01 0. -1.
         -5    1    4    4    0  502  0.31672822449E+02 -0.33028550633E+02 -0.19387876874E+03  0.19926143583E+03  0.47000000000E+01 0. -1.
<mgrwt>
<rscale>  0 0.99954328E+03</rscale>
<asrwt>0</asrwt>
<pdfrwt beam="1">  1        1 0.55656978E-01 0.99954328E+03</pdfrwt>
<pdfrwt beam="2">  1       -1 0.10621770E+00 0.99954328E+03</pdfrwt>
<totfact> 0.68263960E+01</totfact>
</mgrwt>
</event>
<event>
 9    1  0.4236486E-036  0.1000414E+04  0.7818608E-02  0.8680644E-01
         -1   -1    0    0    0  501 -0.00000000000E+00  0.00000000000E+00  0.16753873076E+03  0.16753873076E+03  0.00000000000E+00 0.  1.
          1   -1    0    0  501    0  0.00000000000E+00 -0.00000000000E+00 -0.14934275178E+04  0.14934275178E+04  0.00000000000E+00 0.  1.
         36    2    1    2    0    0 -0.28421709430E-13  0.00000000000E+00 -0.13258887870E+04  0.16609662485E+04  0.10004138160E+04 0.  0.
         25    2    3    3    0    0  0.88244698168E+02 -0.98787187399E+02 -0.33066197159E+03  0.37743897285E+03  0.12480706557E+03 0.  0.
         35    2    3    3    0    0 -0.88244698168E+02  0.98787187399E+02 -0.99522681541E+03  0.12835272757E+04  0.79963730413E+03 0.  0.
         22    1    5    5    0    0 -0.22253646456E+03 -0.24516340340E+03 -0.80009863213E+03  0.86590149183E+03  0.00000000000E+00 0.  1.
         22    1    5    5    0    0  0.13429176639E+03  0.34395059079E+03 -0.19512818329E+03  0.41762578386E+03  0.00000000000E+00 0.  1.
          5    1    4    4  502    0  0.26652153288E+02 -0.10218972258E+03 -0.27345778585E+03  0.29317968436E+03  0.47000000000E+01 0. -1.
         -5    1    4    4    0  502  0.61592544881E+02  0.34025351789E+01 -0.57204185741E+02  0.84259288490E+02  0.47000000000E+01 0. -1.
<mgrwt>
<rscale>  0 0.10004138E+04</rscale>
<asrwt>0</asrwt>
<pdfrwt beam="1">  1        1 0.22975808E+00 0.10004138E+04</pdfrwt>
<pdfrwt beam="2">  1       -1 0.25775190E-01 0.10004138E+04</pdfrwt>
<totfact> 0.94897863E+01</totfact>
</mgrwt>
</event>
<event>
 9    1  0.4236486E-036  0.9998569E+03  0.7818608E-02  0.8681174E-01
         -2   -1    0    0    0  501 -0.00000000000E+00  0.00000000000E+00  0.52844102062E+03  0.52844102062E+03  0.00000000000E+00 0. -1.
          2   -1    0    0  501    0  0.00000000000E+00 -0.00000000000E+00 -0.47295431177E+03  0.47295431177E+03  0.00000000000E+00 0. -1.
         36    2    1    2    0    0 -0.71054273576E-14  0.14210854715E-13  0.55486708854E+02  0.10013953324E+04  0.99985690820E+03 0.  0.
         25    2    3    3    0    0 -0.51764877910E+02 -0.14564284393E+02 -0.11883697052E+03  0.18079265282E+03  0.12518800577E+03 0.  0.
         35    2    3    3    0    0  0.51764877910E+02  0.14564284393E+02  0.17432367937E+03  0.82060267956E+03  0.80006767936E+03 0.  0.
         22    1    5    5    0    0  0.15493575174E+03  0.37753964189E+03  0.78760338768E+01  0.40817067542E+03  0.00000000000E+00 0. -1.
         22    1    5    5    0    0 -0.10317087383E+03 -0.36297535749E+03  0.16644764549E+03  0.41243200415E+03  0.00000000000E+00 0. -1.
          5    1    4    4  502    0 -0.48719760172E+02  0.35642311906E+02 -0.11520153230E+03  0.13014404509E+03  0.47000000000E+01 0.  1.
         -5    1    4    4    0  502 -0.30451177378E+01 -0.50206596299E+02 -0.36354382160E+01  0.50648607730E+02  0.47000000000E+01 0.  1.
<mgrwt>
<rscale>  0 0.99985691E+03</rscale>
<asrwt>0</asrwt>
<pdfrwt beam="1">  1        2 0.72762202E-01 0.99985691E+03</pdfrwt>
<pdfrwt beam="2">  1       -2 0.81298618E-01 0.99985691E+03</pdfrwt>
<totfact> 0.10537056E+02</totfact>
</mgrwt>
</event>
<event>
 9    1  0.4236486E-036  0.9998983E+03  0.7818608E-02  0.8681135E-01
         -2   -1    0    0    0  501 -0.00000000000E+00  0.00000000000E+00  0.13031856215E+03  0.13031856215E+03  0.00000000000E+00 0.  1.
          2   -1    0    0  501    0  0.00000000000E+00 -0.00000000000E+00 -0.19179856990E+04  0.19179856990E+04  0.00000000000E+00 0.  1.
         36    2    1    2    0    0 -0.14210854715E-13 -0.28421709430E-13 -0.17876671368E+04  0.20483042611E+04  0.99989827187E+03 0.  0.
         25    2    3    3    0    0  0.13317839101E+02  0.79388374820E+02 -0.10035836017E+03  0.17898346962E+03  0.12443232315E+03 0.  0.
         35    2    3    3    0    0 -0.13317839101E+02 -0.79388374820E+02 -0.16873087767E+04  0.18693207915E+04  0.80054321240E+03 0.  0.
         22    1    5    5    0    0 -0.23156545399E+03  0.21740520147E+03 -0.31089570995E+03  0.44445891101E+03  0.00000000000E+00 0.  1.
         22    1    5    5    0    0  0.21824761489E+03 -0.29679357629E+03 -0.13764130667E+04  0.14248618805E+04  0.00000000000E+00 0.  1.
          5    1    4    4  502    0  0.61118982935E+02  0.79086344275E+02 -0.70954896149E+02  0.12266567251E+03  0.47000000000E+01 0. -1.
         -5    1    4    4    0  502 -0.47801143833E+02  0.30203054504E+00 -0.29403464026E+02  0.56317797107E+02  0.47000000000E+01 0. -1.
<mgrwt>
<rscale>  0 0.99989827E+03</rscale>
<asrwt>0</asrwt>
<pdfrwt beam="1">  1        2 0.29507470E+00 0.99989827E+03</pdfrwt>
<pdfrwt beam="2">  1       -2 0.20049011E-01 0.99989827E+03</pdfrwt>
<totfact> 0.18583004E+02</totfact>
</mgrwt>
</event>
<event>
 9    1  0.4236486E-036  0.9997032E+03  0.7818608E-02  0.8681321E-01
          1   -1    0    0  501    0  0.00000000000E+00  0.00000000000E+00  0.90220694949E+03  0.90220694949E+03  0.00000000000E+00 0. -1.
         -1   -1    0    0    0  501 -0.00000000000E+00 -0.00000000000E+00 -0.27693380412E+03  0.27693380412E+03  0.00000000000E+00 0. -1.
         36    2    1    2    0    0  0.35527136788E-14 -0.28421709430E-13  0.62527314537E+03  0.11791407536E+04  0.99970316119E+03 0.  0.
         25    2    3    3    0    0 -0.23234529747E+02 -0.11286021920E+03  0.24111156731E+02  0.17217752607E+03  0.12564426033E+03 0.  0.
         35    2    3    3    0    0  0.23234529747E+02  0.11286021920E+03  0.60116198864E+03  0.10069632275E+04  0.79956358883E+03 0.  0.
         22    1    5    5    0    0 -0.24540600036E+02  0.29411427688E+03  0.72468442556E+03  0.78247873170E+03  0.00000000000E+00 0. -1.
         22    1    5    5    0    0  0.47775129783E+02 -0.18125405768E+03 -0.12352243692E+03  0.22448449584E+03  0.00000000000E+00 0. -1.
          5    1    4    4  502    0 -0.68375606414E+02 -0.69209617053E+02 -0.14255376171E+02  0.98440339266E+02  0.47000000000E+01 0. -1.
         -5    1    4    4    0  502  0.45141076667E+02 -0.43650602147E+02  0.38366532902E+02  0.73737186801E+02  0.47000000000E+01 0. -1.
<mgrwt>
<rscale>  0 0.99970316E+03</rscale>
<asrwt>0</asrwt>
<pdfrwt beam="1">  1        1 0.13880107E+00 0.99970316E+03</pdfrwt>
<pdfrwt beam="2">  1       -1 0.42605201E-01 0.99970316E+03</pdfrwt>
<totfact> 0.11086676E+02</totfact>
</mgrwt>
</event>
<event>
 9    1  0.4236486E-036  0.1000271E+04  0.7818608E-02  0.8680780E-01
         -2   -1    0    0    0  501 -0.00000000000E+00  0.00000000000E+00  0.27471107440E+03  0.27471107440E+03  0.00000000000E+00 0.  1.
          2   -1    0    0  501    0  0.00000000000E+00 -0.00000000000E+00 -0.91054025619E+03  0.91054025619E+03  0.00000000000E+00 0.  1.
         36    2    1    2    0    0 -0.14210854715E-13  0.00000000000E+00 -0.63582918180E+03  0.11852513306E+04  0.10002709474E+04 0.  0.
         25    2    3    3    0    0  0.84572464571E+02  0.90702191980E+02 -0.41078191099E+02  0.18075647731E+03  0.12492436477E+03 0.  0.
         35    2    3    3    0    0 -0.84572464571E+02 -0.90702191980E+02 -0.59475099070E+03  0.10044948533E+04  0.79993861010E+03 0.  0.
         22    1    5    5    0    0  0.11317104799E+03  0.22212542616E+02 -0.73039530280E+03  0.73944464397E+03  0.00000000000E+00 0. -1.
         22    1    5    5    0    0 -0.19774351256E+03 -0.11291473460E+03  0.13564431210E+03  0.26505020930E+03  0.00000000000E+00 0. -1.
          5    1    4    4  502    0  0.26869255172E+02  0.78297340138E+02 -0.75612196760E+02  0.11221285419E+03  0.47000000000E+01 0. -1.
         -5    1    4    4    0  502  0.57703209399E+02  0.12404851842E+02  0.34534005661E+02  0.68543623126E+02  0.47000000000E+01 0. -1.
<mgrwt>
<rscale>  0 0.10002709E+04</rscale>
<asrwt>0</asrwt>
<pdfrwt beam="1">  1        2 0.14008312E+00 0.10002709E+04</pdfrwt>
<pdfrwt beam="2">  1       -2 0.42263242E-01 0.10002709E+04</pdfrwt>
<totfact> 0.18516112E+02</totfact>
</mgrwt>
</event>
<event>
 9    1  0.4236486E-036  0.9998627E+03  0.7818608E-02  0.8681169E-01
          1   -1    0    0  501    0  0.00000000000E+00  0.00000000000E+00  0.89849671895E+03  0.89849671895E+03  0.00000000000E+00 0. -1.
         -1   -1    0    0    0  501 -0.00000000000E+00 -0.00000000000E+00 -0.27816612975E+03  0.27816612975E+03  0.00000000000E+00 0. -1.
         36    2    1    2    0    0  0.00000000000E+00  0.21316282073E-13  0.62033058920E+03  0.11766628487E+04  0.99986270037E+03 0.  0.
         25    2    3    3    0    0 -0.13279939341E+03  0.36818929984E+02  0.14351690337E+03  0.23526521731E+03  0.12554404975E+03 0.  0.
         35    2    3    3    0    0  0.13279939341E+03 -0.36818929984E+02  0.47681368584E+03  0.94139763139E+03  0.79992930743E+03 0.  0.
         22    1    5    5    0    0 -0.27818115622E+03  0.19075107731E+03  0.24926972015E+03  0.41941163855E+03  0.00000000000E+00 0.  1.
         22    1    5    5    0    0  0.41098054963E+03 -0.22757000729E+03  0.22754396569E+03  0.52198599284E+03  0.00000000000E+00 0.  1.
          5    1    4    4  502    0 -0.70222209649E+01  0.10021625346E+02 -0.21999550826E+02  0.25608881240E+02  0.47000000000E+01 0.  1.
         -5    1    4    4    0  502 -0.12577717245E+03  0.26797304638E+02  0.16551645419E+03  0.20965633607E+03  0.47000000000E+01 0.  1.
<mgrwt>
<rscale>  0 0.99986270E+03</rscale>
<asrwt>0</asrwt>
<pdfrwt beam="1">  1        1 0.13823026E+00 0.99986270E+03</pdfrwt>
<pdfrwt beam="2">  1       -1 0.42794789E-01 0.99986270E+03</pdfrwt>
<totfact> 0.11076770E+02</totfact>
</mgrwt>
</event>
<event>
 9    1  0.4236486E-036  0.9987912E+03  0.7818608E-02  0.8682190E-01
          1   -1    0    0  501    0  0.00000000000E+00  0.00000000000E+00  0.34739894928E+03  0.34739894928E+03  0.00000000000E+00 0.  1.
         -1   -1    0    0    0  501 -0.00000000000E+00 -0.00000000000E+00 -0.71789496537E+03  0.71789496537E+03  0.00000000000E+00 0.  1.
         36    2    1    2    0    0 -0.14210854715E-13 -0.28421709430E-13 -0.37049601610E+03  0.10652939146E+04  0.99879118270E+03 0.  0.
         25    2    3    3    0    0  0.81205145834E+01  0.76596269713E+02  0.54637840068E+02  0.15597652592E+03  0.12413884073E+03 0.  0.
         35    2    3    3    0    0 -0.81205145834E+01 -0.76596269713E+02 -0.42513385616E+03  0.90931738873E+03  0.80011648308E+03 0.  0.
         22    1    5    5    0    0 -0.19551646181E+03 -0.38912424058E+03 -0.18654986183E+03  0.47375649061E+03  0.00000000000E+00 0.  1.
         22    1    5    5    0    0  0.18739594723E+03  0.31252797087E+03 -0.23858399433E+03  0.43556089812E+03  0.00000000000E+00 0.  1.
          5    1    4    4  502    0  0.29233539002E+02  0.82466556173E+02 -0.94059896637E+01  0.88124317479E+02  0.47000000000E+01 0.  1.
         -5    1    4    4    0  502 -0.21113024419E+02 -0.58702864597E+01  0.64043829732E+02  0.67852208438E+02  0.47000000000E+01 0.  1.
<mgrwt>
<rscale>  0 0.99879118E+03</rscale>
<asrwt>0</asrwt>
<pdfrwt beam="1">  1        1 0.53445993E-01 0.99879118E+03</pdfrwt>
<pdfrwt beam="2">  1       -1 0.11044538E+00 0.99879118E+03</pdfrwt>
<totfact> 0.65765536E+01</totfact>
</mgrwt>
</event>
<event>
 9    1  0.4236486E-036  0.1003464E+04  0.7818608E-02  0.8677747E-01
         -1   -1    0    0    0  501 -0.00000000000E+00  0.00000000000E+00  0.21053555415E+03  0.21053555415E+03  0.00000000000E+00 0. -1.
          1   -1    0    0  501    0  0.00000000000E+00 -0.00000000000E+00 -0.11956879672E+04  0.11956879672E+04  0.00000000000E+00 0. -1.
         36    2    1    2    0    0 -0.21316282073E-13 -0.56843418861E-13 -0.98515241306E+03  0.14062235214E+04  0.10034636591E+04 0.  0.
         25    2    3    3    0    0  0.31647413558E+02 -0.13594216482E+03 -0.24089029338E+03  0.30491177585E+03  0.12434318093E+03 0.  0.
         35    2    3    3    0    0 -0.31647413558E+02  0.13594216482E+03 -0.74426211968E+03  0.11013117455E+04  0.79967470078E+03 0.  0.
         22    1    5    5    0    0  0.30152145866E+03 -0.13765430497E+03 -0.14186022658E+03  0.36053879346E+03  0.00000000000E+00 0. -1.
         22    1    5    5    0    0 -0.33316887221E+03  0.27359646979E+03 -0.60240189310E+03  0.74077295206E+03  0.00000000000E+00 0. -1.
          5    1    4    4  502    0 -0.28673534913E+02  0.64170723485E+01 -0.59477141228E+02  0.66505418956E+02  0.47000000000E+01 0.  1.
         -5    1    4    4    0  502  0.60320948471E+02 -0.14235923717E+03 -0.18141315216E+03  0.23840635689E+03  0.47000000000E+01 0.  1.
<mgrwt>
<rscale>  0 0.10034637E+04</rscale>
<asrwt>0</asrwt>
<pdfrwt beam="1">  1        1 0.18395199E+00 0.10034637E+04</pdfrwt>
<pdfrwt beam="2">  1       -1 0.32390085E-01 0.10034637E+04</pdfrwt>
<totfact> 0.10577655E+02</totfact>
</mgrwt>
</event>
<event>
 9    1  0.4236486E-036  0.9999187E+03  0.7818608E-02  0.8681115E-01
         -2   -1    0    0    0  501 -0.00000000000E+00  0.00000000000E+00  0.19661826320E+03  0.19661826320E+03  0.00000000000E+00 0. -1.
          2   -1    0    0  501    0  0.00000000000E+00 -0.00000000000E+00 -0.12712926505E+04  0.12712926505E+04  0.00000000000E+00 0. -1.
         36    2    1    2    0    0  0.00000000000E+00  0.28421709430E-13 -0.10746743873E+04  0.14679109137E+04  0.99991870263E+03 0.  0.
         25    2    3    3    0    0  0.64621908447E+02  0.79134420161E+02 -0.34317718754E+03  0.37929433459E+03  0.12512139185E+03 0.  0.
         35    2    3    3    0    0 -0.64621908447E+02 -0.79134420161E+02 -0.73149719980E+03  0.10886165791E+04  0.79972473738E+03 0.  0.
         22    1    5    5    0    0  0.17473284423E+03 -0.23136850635E+03 -0.75025768475E+03  0.80433173885E+03  0.00000000000E+00 0. -1.
         22    1    5    5    0    0 -0.23935475268E+03  0.15223408619E+03  0.18760484955E+02  0.28428484030E+03  0.00000000000E+00 0. -1.
          5    1    4    4  502    0  0.68614625798E+02 -0.12182406188E+02 -0.14010980203E+03  0.15655422229E+03  0.47000000000E+01 0.  1.
         -5    1    4    4    0  502 -0.39927173514E+01  0.91316826349E+02 -0.20306738551E+03  0.22274011229E+03  0.47000000000E+01 0.  1.
<mgrwt>
<rscale>  0 0.99991870E+03</rscale>
<asrwt>0</asrwt>
<pdfrwt beam="1">  1        2 0.19558348E+00 0.99991870E+03</pdfrwt>
<pdfrwt beam="2">  1       -2 0.30248964E-01 0.99991870E+03</pdfrwt>
<totfact> 0.20860516E+02</totfact>
</mgrwt>
</event>
<event>
 9    1  0.4236486E-036  0.9997350E+03  0.7818608E-02  0.8681290E-01
          2   -1    0    0  501    0  0.00000000000E+00  0.00000000000E+00  0.19902083837E+04  0.19902083837E+04  0.00000000000E+00 0. -1.
         -2   -1    0    0    0  501 -0.00000000000E+00 -0.00000000000E+00 -0.12554841668E+03  0.12554841668E+03  0.00000000000E+00 0. -1.
         36    2    1    2    0    0  0.14210854715E-13 -0.71054273576E-14  0.18646599670E+04  0.21157568004E+04  0.99973498774E+03 0.  0.
         25    2    3    3    0    0  0.97728029011E+02  0.41363344851E+02  0.52502618807E+03  0.55013643130E+03  0.12544281940E+03 0.  0.
         35    2    3    3    0    0 -0.97728029011E+02 -0.41363344851E+02  0.13396337790E+04  0.15656203691E+04  0.80329744453E+03 0.  0.
         22    1    5    5    0    0  0.32416421671E+02  0.20251649093E+03  0.76317220133E+01  0.20523644090E+03  0.00000000000E+00 0.  1.
         22    1    5    5    0    0 -0.13014445068E+03 -0.24387983578E+03  0.13320020569E+04  0.13603839282E+04  0.00000000000E+00 0.  1.
          5    1    4    4  502    0  0.48236874599E+02  0.58310276808E+02  0.46160240634E+03  0.46778815290E+03  0.47000000000E+01 0. -1.
         -5    1    4    4    0  502  0.49491154411E+02 -0.16946931957E+02  0.63423781724E+02  0.82348278403E+02  0.47000000000E+01 0. -1.
<mgrwt>
<rscale>  0 0.99973499E+03</rscale>
<asrwt>0</asrwt>
<pdfrwt beam="1">  1        2 0.30618588E+00 0.99973499E+03</pdfrwt>
<pdfrwt beam="2">  1       -2 0.19315143E-01 0.99973499E+03</pdfrwt>
<totfact> 0.18032981E+02</totfact>
</mgrwt>
</event>
<event>
 9    1  0.4236486E-036  0.1002056E+04  0.7818608E-02  0.8679083E-01
          1   -1    0    0  501    0  0.00000000000E+00  0.00000000000E+00  0.11823017235E+04  0.11823017235E+04  0.00000000000E+00 0.  1.
         -1   -1    0    0    0  501 -0.00000000000E+00 -0.00000000000E+00 -0.21232220564E+03  0.21232220564E+03  0.00000000000E+00 0.  1.
         36    2    1    2    0    0  0.26645352591E-14  0.56843418861E-13  0.96997951789E+03  0.13946239292E+04  0.10020557064E+04 0.  0.
         25    2    3    3    0    0 -0.55598121718E+01 -0.14518306236E+03  0.20804074820E+03  0.28293775946E+03  0.12515506265E+03 0.  0.
         35    2    3    3    0    0  0.55598121718E+01  0.14518306236E+03  0.76193876969E+03  0.11116861697E+04  0.79635822219E+03 0.  0.
         22    1    5    5    0    0  0.58341170299E+00  0.39606651231E+03  0.10691688355E+03  0.41024412553E+03  0.00000000000E+00 0.  1.
         22    1    5    5    0    0  0.49764004689E+01 -0.25088344995E+03  0.65502188613E+03  0.70144204417E+03  0.00000000000E+00 0.  1.
          5    1    4    4  502    0 -0.22085219966E+02 -0.13297748171E+03  0.87973110873E+02  0.16103454853E+03  0.47000000000E+01 0.  1.
         -5    1    4    4    0  502  0.16525407794E+02 -0.12205580652E+02  0.12006763733E+03  0.12190321093E+03  0.47000000000E+01 0.  1.
<mgrwt>
<rscale>  0 0.10020557E+04</rscale>
<asrwt>0</asrwt>
<pdfrwt beam="1">  1        1 0.18189257E+00 0.10020557E+04</pdfrwt>
<pdfrwt beam="2">  1       -1 0.32664955E-01 0.10020557E+04</pdfrwt>
<totfact> 0.10669193E+02</totfact>
</mgrwt>
</event>
<event>
 9    1  0.4236486E-036  0.9992379E+03  0.7818608E-02  0.8681764E-01
         -2   -1    0    0    0  501 -0.00000000000E+00  0.00000000000E+00  0.93055851942E+02  0.93055851942E+02  0.00000000000E+00 0.  1.
          2   -1    0    0  501    0  0.00000000000E+00 -0.00000000000E+00 -0.26824652982E+04  0.26824652982E+04  0.00000000000E+00 0.  1.
         36    2    1    2    0    0 -0.14210854715E-13 -0.42632564146E-13 -0.25894094463E+04  0.27755211502E+04  0.99923789686E+03 0.  0.
         25    2    3    3    0    0 -0.60049562715E+02 -0.11381318158E+03 -0.63170625743E+03  0.65665311656E+03  0.12482439476E+03 0.  0.
         35    2    3    3    0    0  0.60049562715E+02  0.11381318158E+03 -0.19577031889E+04  0.21188680336E+04  0.80027531383E+03 0.  0.
         22    1    5    5    0    0 -0.19790852993E+03 -0.25875737081E+03 -0.11204526364E+04  0.11668492934E+04  0.00000000000E+00 0.  1.
         22    1    5    5    0    0  0.25795809265E+03  0.37257055239E+03 -0.83725055248E+03  0.95201874021E+03  0.00000000000E+00 0.  1.
          5    1    4    4  502    0  0.28980946358E+02 -0.56506854500E+02 -0.14223353355E+03  0.15583769738E+03  0.47000000000E+01 0. -1.
         -5    1    4    4    0  502 -0.89030509073E+02 -0.57306327082E+02 -0.48947272388E+03  0.50081541918E+03  0.47000000000E+01 0. -1.
<mgrwt>
<rscale>  0 0.99923790E+03</rscale>
<asrwt>0</asrwt>
<pdfrwt beam="1">  1        2 0.41268702E+00 0.99923790E+03</pdfrwt>
<pdfrwt beam="2">  1       -2 0.14316283E-01 0.99923790E+03</pdfrwt>
<totfact> 0.11612391E+02</totfact>
</mgrwt>
</event>
<event>
 9    1  0.4236486E-036  0.1000273E+04  0.7818608E-02  0.8680778E-01
          2   -1    0    0  501    0  0.00000000000E+00  0.00000000000E+00  0.16188215344E+04  0.16188215344E+04  0.00000000000E+00 0. -1.
         -2   -1    0    0    0  501 -0.00000000000E+00 -0.00000000000E+00 -0.15451765679E+03  0.15451765679E+03  0.00000000000E+00 0. -1.
         36    2    1    2    0    0  0.00000000000E+00 -0.14210854715E-13  0.14643038777E+04  0.17733391912E+04  0.10002729833E+04 0.  0.
         25    2    3    3    0    0 -0.11544205987E+03 -0.76984102656E+02  0.32616220056E+03  0.37519003960E+03  0.12301367199E+03 0.  0.
         35    2    3    3    0    0  0.11544205987E+03  0.76984102656E+02  0.11381416771E+04  0.13981491516E+04  0.80012571001E+03 0.  0.
         22    1    5    5    0    0  0.43220636685E+03  0.76604624944E+02  0.90172932824E+03  0.10028890235E+04  0.00000000000E+00 0.  1.
         22    1    5    5    0    0 -0.31676430698E+03  0.37947771265E+00  0.23641234886E+03  0.39526012811E+03  0.00000000000E+00 0.  1.
          5    1    4    4  502    0 -0.15121008276E+01  0.64912103437E+01  0.14594968196E+03  0.14617736461E+03  0.47000000000E+01 0.  1.
         -5    1    4    4    0  502 -0.11392995904E+03 -0.83475313000E+02  0.18021251860E+03  0.22901267499E+03  0.47000000000E+01 0.  1.
<mgrwt>
<rscale>  0 0.10002730E+04</rscale>
<asrwt>0</asrwt>
<pdfrwt beam="1">  1        2 0.24904946E+00 0.10002730E+04</pdfrwt>
<pdfrwt beam="2">  1       -2 0.23771948E-01 0.10002730E+04</pdfrwt>
<totfact> 0.20357729E+02</totfact>
</mgrwt>
</event>
<event>
 9    1  0.4236486E-036  0.9994403E+03  0.7818608E-02  0.8681571E-01
          1   -1    0    0  501    0  0.00000000000E+00  0.00000000000E+00  0.23825945060E+03  0.23825945060E+03  0.00000000000E+00 0. -1.
         -1   -1    0    0    0  501 -0.00000000000E+00 -0.00000000000E+00 -0.10481021482E+04  0.10481021482E+04  0.00000000000E+00 0. -1.
         36    2    1    2    0    0  0.71054273576E-14 -0.28421709430E-13 -0.80984269764E+03  0.12863615988E+04  0.99944032741E+03 0.  0.
         25    2    3    3    0    0  0.56326962884E+02  0.10749772680E+03 -0.64090343211E+02  0.18634445802E+03  0.12604839121E+03 0.  0.
         35    2    3    3    0    0 -0.56326962884E+02 -0.10749772680E+03 -0.74575235443E+03  0.11000171408E+04  0.79947648367E+03 0.  0.
         22    1    5    5    0    0  0.79440429241E+01 -0.43313852902E+03 -0.59363441803E+03  0.73489721418E+03  0.00000000000E+00 0.  1.
         22    1    5    5    0    0 -0.64271005808E+02  0.32564080221E+03 -0.15211793640E+03  0.36511992664E+03  0.00000000000E+00 0.  1.
          5    1    4    4  502    0  0.23333347985E+02  0.59166251312E+02 -0.99205694487E+02  0.11793621259E+03  0.47000000000E+01 0.  1.
         -5    1    4    4    0  502  0.32993614899E+02  0.48331475490E+02  0.35115351276E+02  0.68408245427E+02  0.47000000000E+01 0.  1.
<mgrwt>
<rscale>  0 0.99944033E+03</rscale>
<asrwt>0</asrwt>
<pdfrwt beam="1">  1        1 0.36655301E-01 0.99944033E+03</pdfrwt>
<pdfrwt beam="2">  1       -1 0.16124648E+00 0.99944033E+03</pdfrwt>
<totfact> 0.39053780E+01</totfact>
</mgrwt>
</event>
<event>
 9    1  0.4236486E-036  0.1000435E+04  0.7818608E-02  0.8680624E-01
          1   -1    0    0  501    0  0.00000000000E+00  0.00000000000E+00  0.86621097750E+03  0.86621097750E+03  0.00000000000E+00 0.  1.
         -1   -1    0    0    0  501 -0.00000000000E+00 -0.00000000000E+00 -0.28886457149E+03  0.28886457149E+03  0.00000000000E+00 0.  1.
         36    2    1    2    0    0  0.00000000000E+00  0.14210854715E-13  0.57734640601E+03  0.11550755490E+04  0.10004352310E+04 0.  0.
         25    2    3    3    0    0 -0.31076829551E+02  0.91005145169E+02 -0.11033255223E+02  0.15850481863E+03  0.12551628989E+03 0.  0.
         35    2    3    3    0    0  0.31076829551E+02 -0.91005145169E+02  0.58837966123E+03  0.99657073036E+03  0.79857052855E+03 0.  0.
         22    1    5    5    0    0 -0.16377451277E+03 -0.38026797935E+03  0.15929865829E+03  0.44362359009E+03  0.00000000000E+00 0.  1.
         22    1    5    5    0    0  0.19485134232E+03  0.28926283418E+03  0.42908100294E+03  0.55294714026E+03  0.00000000000E+00 0.  1.
          5    1    4    4  502    0 -0.38852783871E+02  0.43088828794E+02 -0.63995306087E+02  0.86508237657E+02  0.47000000000E+01 0.  1.
         -5    1    4    4    0  502  0.77759543200E+01  0.47916316375E+02  0.52962050864E+02  0.71996580976E+02  0.47000000000E+01 0.  1.
<mgrwt>
<rscale>  0 0.10004352E+04</rscale>
<asrwt>0</asrwt>
<pdfrwt beam="1">  1        1 0.13326323E+00 0.10004352E+04</pdfrwt>
<pdfrwt beam="2">  1       -1 0.44440704E-01 0.10004352E+04</pdfrwt>
<totfact> 0.11013389E+02</totfact>
</mgrwt>
</event>
<event>
 9    1  0.4236486E-036  0.1001704E+04  0.7818608E-02  0.8679417E-01
          2   -1    0    0  501    0  0.00000000000E+00  0.00000000000E+00  0.39414739139E+03  0.39414739139E+03  0.00000000000E+00 0. -1.
         -2   -1    0    0    0  501 -0.00000000000E+00 -0.00000000000E+00 -0.63644392078E+03  0.63644392078E+03  0.00000000000E+00 0. -1.
         36    2    1    2    0    0 -0.21316282073E-13  0.00000000000E+00 -0.24229652939E+03  0.10305913122E+04  0.10017039705E+04 0.  0.
         25    2    3    3    0    0  0.56752072632E+02  0.87330148880E+02 -0.14200407080E+03  0.21767271948E+03  0.12794101778E+03 0.  0.
         35    2    3    3    0    0 -0.56752072632E+02 -0.87330148880E+02 -0.10029245859E+03  0.81291859268E+03  0.79995669160E+03 0.  0.
         22    1    5    5    0    0  0.11322005311E+03  0.51921430690E+02 -0.41263764457E+03  0.43102719300E+03  0.00000000000E+00 0.  1.
         22    1    5    5    0    0 -0.16997212574E+03 -0.13925157957E+03  0.31234518598E+03  0.38189139968E+03  0.00000000000E+00 0.  1.
          5    1    4    4  502    0 -0.40491737402E+02  0.32725075682E+02 -0.34055520434E+02  0.62388940112E+02  0.47000000000E+01 0. -1.
         -5    1    4    4    0  502  0.97243810034E+02  0.54605073198E+02 -0.10794855037E+03  0.15528377937E+03  0.47000000000E+01 0. -1.
<mgrwt>
<rscale>  0 0.10017040E+04</rscale>
<asrwt>0</asrwt>
<pdfrwt beam="1">  1        2 0.60638061E-01 0.10017040E+04</pdfrwt>
<pdfrwt beam="2">  1       -2 0.97914449E-01 0.10017040E+04</pdfrwt>
<totfact> 0.83507771E+01</totfact>
</mgrwt>
</event>
<event>
 9    1  0.4236486E-036  0.1000508E+04  0.7818608E-02  0.8680554E-01
          1   -1    0    0  501    0  0.00000000000E+00  0.00000000000E+00  0.26475078879E+03  0.26475078879E+03  0.00000000000E+00 0. -1.
         -1   -1    0    0    0  501 -0.00000000000E+00 -0.00000000000E+00 -0.94524376308E+03  0.94524376308E+03  0.00000000000E+00 0. -1.
         36    2    1    2    0    0  0.28421709430E-13 -0.28421709430E-13 -0.68049297429E+03  0.12099945519E+04  0.10005079348E+04 0.  0.
         25    2    3    3    0    0  0.10556391631E+03 -0.79016677784E+02 -0.70008964460E+02  0.19461173313E+03  0.12484028106E+03 0.  0.
         35    2    3    3    0    0 -0.10556391631E+03  0.79016677784E+02 -0.61048400983E+03  0.10153828187E+04  0.80057739572E+03 0.  0.
         22    1    5    5    0    0  0.12158025953E+03 -0.67354634053E+02 -0.71296166134E+03  0.72638332634E+03  0.00000000000E+00 0.  1.
         22    1    5    5    0    0 -0.22714417584E+03  0.14637131184E+03  0.10247765151E+03  0.28899949240E+03  0.00000000000E+00 0.  1.
          5    1    4    4  502    0  0.78737913041E+02  0.17718741893E+02 -0.36228482015E+02  0.88590099184E+02  0.47000000000E+01 0.  1.
         -5    1    4    4    0  502  0.26826003267E+02 -0.96735419677E+02 -0.33780482444E+02  0.10602163395E+03  0.47000000000E+01 0.  1.
<mgrwt>
<rscale>  0 0.10005079E+04</rscale>
<asrwt>0</asrwt>
<pdfrwt beam="1">  1        1 0.40730891E-01 0.10005079E+04</pdfrwt>
<pdfrwt beam="2">  1       -1 0.14542212E+00 0.10005079E+04</pdfrwt>
<totfact> 0.46226812E+01</totfact>
</mgrwt>
</event>
<event>
 9    1  0.4236486E-036  0.9999619E+03  0.7818608E-02  0.8681074E-01
         -1   -1    0    0    0  501 -0.00000000000E+00  0.00000000000E+00  0.38709643636E+03  0.38709643636E+03  0.00000000000E+00 0. -1.
          1   -1    0    0  501    0  0.00000000000E+00 -0.00000000000E+00 -0.64578462240E+03  0.64578462240E+03  0.00000000000E+00 0. -1.
         36    2    1    2    0    0  0.00000000000E+00  0.14210854715E-13 -0.25868818603E+03  0.10328810588E+04  0.99996185125E+03 0.  0.
         25    2    3    3    0    0  0.66792515520E+02 -0.83943961180E+02  0.38400452141E+02  0.16911517672E+03  0.12497007452E+03 0.  0.
         35    2    3    3    0    0 -0.66792515520E+02  0.83943961180E+02 -0.29708863817E+03  0.86376588203E+03  0.80394154718E+03 0.  0.
         22    1    5    5    0    0  0.38583699390E+02  0.27243880446E+03  0.18768217783E+03  0.33307086919E+03  0.00000000000E+00 0. -1.
         22    1    5    5    0    0 -0.10537621491E+03 -0.18849484328E+03 -0.48477081600E+03  0.53069501284E+03  0.00000000000E+00 0. -1.
          5    1    4    4  502    0  0.25635951098E+02  0.27926128917E+02 -0.11370991848E+02  0.39855490470E+02  0.47000000000E+01 0.  1.
         -5    1    4    4    0  502  0.41156564422E+02 -0.11187009010E+03  0.49771443989E+02  0.12925968625E+03  0.47000000000E+01 0.  1.
<mgrwt>
<rscale>  0 0.99996185E+03</rscale>
<asrwt>0</asrwt>
<pdfrwt beam="1">  1        1 0.99351481E-01 0.99996185E+03</pdfrwt>
<pdfrwt beam="2">  1       -1 0.59553298E-01 0.99996185E+03</pdfrwt>
<totfact> 0.10170538E+02</totfact>
</mgrwt>
</event>
<event>
 9    1  0.4236486E-036  0.9998231E+03  0.7818608E-02  0.8681206E-01
          2   -1    0    0  501    0  0.00000000000E+00  0.00000000000E+00  0.59435402555E+03  0.59435402555E+03  0.00000000000E+00 0.  1.
         -2   -1    0    0    0  501 -0.00000000000E+00 -0.00000000000E+00 -0.42047592565E+03  0.42047592565E+03  0.00000000000E+00 0.  1.
         36    2    1    2    0    0  0.00000000000E+00  0.21316282073E-13  0.17387809990E+03  0.10148299512E+04  0.99982310246E+03 0.  0.
         25    2    3    3    0    0 -0.41652193543E+02 -0.60029130658E+02 -0.89554772908E+02  0.16970371781E+03  0.12426138874E+03 0.  0.
         35    2    3    3    0    0  0.41652193543E+02  0.60029130658E+02  0.26343287281E+03  0.84512623339E+03  0.79968935852E+03 0.  0.
         22    1    5    5    0    0 -0.24350678163E+03 -0.19115397933E+03 -0.93898009437E+02  0.32349997325E+03  0.00000000000E+00 0.  1.
         22    1    5    5    0    0  0.28515897517E+03  0.25118310999E+03  0.35733088224E+03  0.52162626014E+03  0.00000000000E+00 0.  1.
          5    1    4    4  502    0  0.22758457227E+02 -0.17441269764E+02  0.20227317960E+02  0.35403102381E+02  0.47000000000E+01 0. -1.
         -5    1    4    4    0  502 -0.64410650770E+02 -0.42587860894E+02 -0.10978209087E+03  0.13430061542E+03  0.47000000000E+01 0. -1.
<mgrwt>
<rscale>  0 0.99982310E+03</rscale>
<asrwt>0</asrwt>
<pdfrwt beam="1">  1        2 0.91439081E-01 0.99982310E+03</pdfrwt>
<pdfrwt beam="2">  1       -2 0.64688604E-01 0.99982310E+03</pdfrwt>
<totfact> 0.13388927E+02</totfact>
</mgrwt>
</event>
<event>
 9    1  0.4236486E-036  0.1000529E+04  0.7818608E-02  0.8680534E-01
          1   -1    0    0  501    0  0.00000000000E+00  0.00000000000E+00  0.14579694407E+04  0.14579694407E+04  0.00000000000E+00 0.  1.
         -1   -1    0    0    0  501 -0.00000000000E+00 -0.00000000000E+00 -0.17165286076E+03  0.17165286076E+03  0.00000000000E+00 0.  1.
         36    2    1    2    0    0 -0.14210854715E-13 -0.28421709430E-13  0.12863165799E+04  0.16296223014E+04  0.10005291108E+04 0.  0.
         25    2    3    3    0    0 -0.50876202278E+02  0.88037607173E+02  0.39048729221E+03  0.42241611908E+03  0.12496417103E+03 0.  0.
         35    2    3    3    0    0  0.50876202278E+02 -0.88037607173E+02  0.89582928768E+03  0.12072061823E+04  0.80280610721E+03 0.  0.
         22    1    5    5    0    0  0.18714632671E+03 -0.40069643562E+03  0.35180040966E+03  0.56510610451E+03  0.00000000000E+00 0. -1.
         22    1    5    5    0    0 -0.13627012443E+03  0.31265882845E+03  0.54402887802E+03  0.64210007782E+03  0.00000000000E+00 0. -1.
          5    1    4    4  502    0  0.36521222907E+02  0.53292120563E+02  0.12619890733E+03  0.14185240234E+03  0.47000000000E+01 0.  1.
         -5    1    4    4    0  502 -0.87397425185E+02  0.34745486611E+02  0.26428838488E+03  0.28056371674E+03  0.47000000000E+01 0.  1.
<mgrwt>
<rscale>  0 0.10005291E+04</rscale>
<asrwt>0</asrwt>
<pdfrwt beam="1">  1        1 0.22430298E+00 0.10005291E+04</pdfrwt>
<pdfrwt beam="2">  1       -1 0.26408133E-01 0.10005291E+04</pdfrwt>
<totfact> 0.96555388E+01</totfact>
</mgrwt>
</event>
<event>
 9    1  0.4236486E-036  0.1000907E+04  0.7818608E-02  0.8680175E-01
          2   -1    0    0  501    0  0.00000000000E+00  0.00000000000E+00  0.19187612730E+04  0.19187612730E+04  0.00000000000E+00 0. -1.
         -2   -1    0    0    0  501 -0.00000000000E+00 -0.00000000000E+00 -0.13052873360E+03  0.13052873360E+03  0.00000000000E+00 0. -1.
         36    2    1    2    0    0  0.28421709430E-13  0.14210854715E-13  0.17882325394E+04  0.20492900066E+04  0.10009065472E+04 0.  0.
         25    2    3    3    0    0 -0.88001762371E+02 -0.56194830966E+02  0.52946564677E+03  0.55393928353E+03  0.12495074839E+03 0.  0.
         35    2    3    3    0    0  0.88001762371E+02  0.56194830966E+02  0.12587668926E+04  0.14953507231E+04  0.80042334163E+03 0.  0.
         22    1    5    5    0    0  0.23555554107E+03 -0.29343280638E+03  0.36442689107E+03  0.52382839148E+03  0.00000000000E+00 0.  1.
         22    1    5    5    0    0 -0.14755377870E+03  0.34962763734E+03  0.89434000157E+03  0.97152233161E+03  0.00000000000E+00 0.  1.
          5    1    4    4  502    0 -0.79624479669E+02 -0.94314840956E+02  0.40255296524E+03  0.42107757813E+03  0.47000000000E+01 0.  1.
         -5    1    4    4    0  502 -0.83772827016E+01  0.38120009990E+02  0.12691268154E+03  0.13286170540E+03  0.47000000000E+01 0.  1.
<mgrwt>
<rscale>  0 0.10009065E+04</rscale>
<asrwt>0</asrwt>
<pdfrwt beam="1">  1        2 0.29519402E+00 0.10009065E+04</pdfrwt>
<pdfrwt beam="2">  1       -2 0.20081345E-01 0.10009065E+04</pdfrwt>
<totfact> 0.18512424E+02</totfact>
</mgrwt>
</event>
<event>
 9    1  0.4236486E-036  0.9996172E+03  0.7818608E-02  0.8681403E-01
          2   -1    0    0  501    0  0.00000000000E+00  0.00000000000E+00  0.20587566068E+04  0.20587566068E+04  0.00000000000E+00 0. -1.
         -2   -1    0    0    0  501 -0.00000000000E+00 -0.00000000000E+00 -0.12133957135E+03  0.12133957135E+03  0.00000000000E+00 0. -1.
         36    2    1    2    0    0 -0.14210854715E-13  0.14210854715E-13  0.19374170355E+04  0.21800961782E+04  0.99961721512E+03 0.  0.
         25    2    3    3    0    0 -0.16374853633E+02 -0.50266672854E+02  0.75154759226E+02  0.15428572683E+03  0.12393939421E+03 0.  0.
         35    2    3    3    0    0  0.16374853633E+02  0.50266672854E+02  0.18622622763E+04  0.20258104514E+04  0.79567099044E+03 0.  0.
         22    1    5    5    0    0 -0.19659232040E+03  0.36639581963E+03  0.10054211974E+04  0.10880102119E+04  0.00000000000E+00 0.  1.
         22    1    5    5    0    0  0.21296717403E+03 -0.31612914678E+03  0.85684107884E+03  0.93780023942E+03  0.00000000000E+00 0.  1.
          5    1    4    4  502    0  0.34490254124E+02 -0.64515196143E+02  0.69392946396E+02  0.10094186036E+03  0.47000000000E+01 0. -1.
         -5    1    4    4    0  502 -0.50865107757E+02  0.14248523288E+02  0.57618128302E+01  0.53343866471E+02  0.47000000000E+01 0. -1.
<mgrwt>
<rscale>  0 0.99961722E+03</rscale>
<asrwt>0</asrwt>
<pdfrwt beam="1">  1        2 0.31673176E+00 0.99961722E+03</pdfrwt>
<pdfrwt beam="2">  1       -2 0.18667628E-01 0.99961722E+03</pdfrwt>
<totfact> 0.17474449E+02</totfact>
</mgrwt>
</event>
<event>
 9    1  0.4236486E-036  0.9992041E+03  0.7818608E-02  0.8681796E-01
          1   -1    0    0  501    0  0.00000000000E+00  0.00000000000E+00  0.92402108450E+03  0.92402108450E+03  0.00000000000E+00 0.  1.
         -1   -1    0    0    0  501 -0.00000000000E+00 -0.00000000000E+00 -0.27012607842E+03  0.27012607842E+03  0.00000000000E+00 0.  1.
         36    2    1    2    0    0  0.00000000000E+00  0.00000000000E+00  0.65389500608E+03  0.11941471629E+04  0.99920406710E+03 0.  0.
         25    2    3    3    0    0  0.60420705724E+02 -0.40298335537E+02 -0.32015182094E+02  0.13736079259E+03  0.11210886641E+03 0.  0.
         35    2    3    3    0    0 -0.60420705724E+02  0.40298335537E+02  0.68591018818E+03  0.10567863703E+04  0.80065599900E+03 0.  0.
         22    1    5    5    0    0 -0.28598988055E+03 -0.20690242443E+03  0.75962416659E+02  0.36106663341E+03  0.00000000000E+00 0. -1.
         22    1    5    5    0    0  0.22556917483E+03  0.24720075996E+03  0.60994777152E+03  0.69571973692E+03  0.00000000000E+00 0. -1.
          5    1    4    4  502    0  0.18808840918E+02 -0.17802446651E+02  0.41898812714E+02  0.49480300224E+02  0.47000000000E+01 0.  1.
         -5    1    4    4    0  502  0.41611864806E+02 -0.22495888886E+02 -0.73913994808E+02  0.87880492363E+02  0.47000000000E+01 0.  1.
<mgrwt>
<rscale>  0 0.99920407E+03</rscale>
<asrwt>0</asrwt>
<pdfrwt beam="1">  1        1 0.14215709E+00 0.99920407E+03</pdfrwt>
<pdfrwt beam="2">  1       -1 0.41557859E-01 0.99920407E+03</pdfrwt>
<totfact> 0.11121979E+02</totfact>
</mgrwt>
</event>
<event>
 9    1  0.4236486E-036  0.9994232E+03  0.7818608E-02  0.8681587E-01
         -3   -1    0    0    0  501 -0.00000000000E+00  0.00000000000E+00  0.23788143531E+03  0.23788143531E+03  0.00000000000E+00 0.  1.
          3   -1    0    0  501    0  0.00000000000E+00 -0.00000000000E+00 -0.10497317719E+04  0.10497317719E+04  0.00000000000E+00 0.  1.
         36    2    1    2    0    0  0.56843418861E-13  0.00000000000E+00 -0.81185033660E+03  0.12876132072E+04  0.99942323486E+03 0.  0.
         25    2    3    3    0    0 -0.10541775486E+03 -0.59612492960E+02 -0.63739991324E+02  0.18544707908E+03  0.12514503701E+03 0.  0.
         35    2    3    3    0    0  0.10541775486E+03  0.59612492960E+02 -0.74811034528E+03  0.11021661281E+04  0.80027153702E+03 0.  0.
         22    1    5    5    0    0  0.37895095740E+03 -0.20313842327E+03 -0.38752503019E+03  0.57883045544E+03  0.00000000000E+00 0. -1.
         22    1    5    5    0    0 -0.27353320254E+03  0.26275091623E+03 -0.36058531508E+03  0.52333567271E+03  0.00000000000E+00 0. -1.
          5    1    4    4  502    0 -0.11291201684E+03 -0.23140147621E+02 -0.46524826987E+01  0.11544836757E+03  0.47000000000E+01 0.  1.
         -5    1    4    4    0  502  0.74942619818E+01 -0.36472345339E+02 -0.59087508625E+02  0.69998711507E+02  0.47000000000E+01 0.  1.
<mgrwt>
<rscale>  0 0.99942323E+03</rscale>
<asrwt>0</asrwt>
<pdfrwt beam="1">  1        3 0.16149719E+00 0.99942323E+03</pdfrwt>
<pdfrwt beam="2">  1       -3 0.36597144E-01 0.99942323E+03</pdfrwt>
<totfact> 0.81471441E+00</totfact>
</mgrwt>
</event>
<event>
 9    1  0.4236486E-036  0.9988960E+03  0.7818608E-02  0.8682090E-01
          2   -1    0    0  501    0  0.00000000000E+00  0.00000000000E+00  0.64626829568E+03  0.64626829568E+03  0.00000000000E+00 0. -1.
         -2   -1    0    0    0  501 -0.00000000000E+00 -0.00000000000E+00 -0.38598258116E+03  0.38598258116E+03  0.00000000000E+00 0. -1.
         36    2    1    2    0    0 -0.28421709430E-13 -0.14210854715E-13  0.26028571451E+03  0.10322508768E+04  0.99889600037E+03 0.  0.
         25    2    3    3    0    0  0.13657097391E+03  0.34242969687E+02  0.45467140949E+02  0.19286483846E+03  0.12371488642E+03 0.  0.
         35    2    3    3    0    0 -0.13657097391E+03 -0.34242969687E+02  0.21481857356E+03  0.83938603838E+03  0.79912307562E+03 0.  0.
         22    1    5    5    0    0 -0.17501691699E+03  0.25991825875E+03  0.38576579396E+03  0.49699463805E+03  0.00000000000E+00 0. -1.
         22    1    5    5    0    0  0.38445943075E+02 -0.29416122843E+03 -0.17094722040E+03  0.34239140032E+03  0.00000000000E+00 0. -1.
          5    1    4    4  502    0  0.15160692349E+03  0.39209019705E+02  0.62926009613E+02  0.16883062270E+03  0.47000000000E+01 0.  1.
         -5    1    4    4    0  502 -0.15035949573E+02 -0.49660500175E+01 -0.17458868664E+02  0.24034215764E+02  0.47000000000E+01 0.  1.
<mgrwt>
<rscale>  0 0.99889600E+03</rscale>
<asrwt>0</asrwt>
<pdfrwt beam="1">  1        2 0.99425892E-01 0.99889600E+03</pdfrwt>
<pdfrwt beam="2">  1       -2 0.59381935E-01 0.99889600E+03</pdfrwt>
<totfact> 0.14504245E+02</totfact>
</mgrwt>
</event>
<event>
 9    1  0.4236486E-036  0.9997444E+03  0.7818608E-02  0.8681281E-01
         -1   -1    0    0    0  501 -0.00000000000E+00  0.00000000000E+00  0.49734462894E+03  0.49734462894E+03  0.00000000000E+00 0. -1.
          1   -1    0    0  501    0  0.00000000000E+00 -0.00000000000E+00 -0.50241261628E+03  0.50241261628E+03  0.00000000000E+00 0. -1.
         36    2    1    2    0    0  0.14210854715E-13  0.00000000000E+00 -0.50679873420E+01  0.99975724523E+03  0.99974439978E+03 0.  0.
         25    2    3    3    0    0  0.58463813771E+02 -0.25959735355E+02 -0.12830634341E+03  0.19051454811E+03  0.12546453644E+03 0.  0.
         35    2    3    3    0    0 -0.58463813771E+02  0.25959735355E+02  0.12323835606E+03  0.80924269711E+03  0.79724157258E+03 0.  0.
         22    1    5    5    0    0  0.30890479696E+03 -0.10432441776E+03  0.23712971105E+03  0.40315785691E+03  0.00000000000E+00 0. -1.
         22    1    5    5    0    0 -0.36736861073E+03  0.13028415311E+03 -0.11389135498E+03  0.40608484021E+03  0.00000000000E+00 0. -1.
          5    1    4    4  502    0  0.78470882466E+02  0.59911111519E+01 -0.13049485889E+03  0.15246170340E+03  0.47000000000E+01 0.  1.
         -5    1    4    4    0  502 -0.20007068695E+02 -0.31950846507E+02  0.21885154863E+01  0.38052844707E+02  0.47000000000E+01 0.  1.
<mgrwt>
<rscale>  0 0.99974440E+03</rscale>
<asrwt>0</asrwt>
<pdfrwt beam="1">  1        1 0.77294249E-01 0.99974440E+03</pdfrwt>
<pdfrwt beam="2">  1       -1 0.76514558E-01 0.99974440E+03</pdfrwt>
<totfact> 0.89060142E+01</totfact>
</mgrwt>
</event>
<event>
 9    1  0.4236486E-036  0.9996670E+03  0.7818608E-02  0.8681355E-01
          1   -1    0    0  501    0  0.00000000000E+00  0.00000000000E+00  0.91344186988E+03  0.91344186988E+03  0.00000000000E+00 0. -1.
         -1   -1    0    0    0  501 -0.00000000000E+00 -0.00000000000E+00 -0.27350783484E+03  0.27350783484E+03  0.00000000000E+00 0. -1.
         36    2    1    2    0    0 -0.35527136788E-13  0.00000000000E+00  0.63993403504E+03  0.11869497047E+04  0.99966696071E+03 0.  0.
         25    2    3    3    0    0  0.38614252391E+02 -0.11438247267E+03  0.37548616773E+02  0.17795428153E+03  0.12523345060E+03 0.  0.
         35    2    3    3    0    0 -0.38614252391E+02  0.11438247267E+03  0.60238541827E+03  0.10089954232E+04  0.80039312925E+03 0.  0.
         22    1    5    5    0    0 -0.38934036249E+03 -0.62213088964E+01  0.13454597875E+03  0.41197966327E+03  0.00000000000E+00 0.  1.
         22    1    5    5    0    0  0.35072611010E+03  0.12060378157E+03  0.46783943952E+03  0.59701575993E+03  0.00000000000E+00 0.  1.
          5    1    4    4  502    0 -0.39347081821E+02 -0.37357804577E+02  0.41059230283E+02  0.68203730118E+02  0.47000000000E+01 0.  1.
         -5    1    4    4    0  502  0.77961334212E+02 -0.77024668094E+02 -0.35106135094E+01  0.10975055141E+03  0.47000000000E+01 0.  1.
<mgrwt>
<rscale>  0 0.99966696E+03</rscale>
<asrwt>0</asrwt>
<pdfrwt beam="1">  1        1 0.14052952E+00 0.99966696E+03</pdfrwt>
<pdfrwt beam="2">  1       -1 0.42078129E-01 0.99966696E+03</pdfrwt>
<totfact> 0.11096887E+02</totfact>
</mgrwt>
</event>
<event>
 9    1  0.4236486E-036  0.1000049E+04  0.7818608E-02  0.8680991E-01
         -2   -1    0    0    0  501 -0.00000000000E+00  0.00000000000E+00  0.13898561420E+03  0.13898561420E+03  0.00000000000E+00 0. -1.
          2   -1    0    0  501    0  0.00000000000E+00 -0.00000000000E+00 -0.17989246891E+04  0.17989246891E+04  0.00000000000E+00 0. -1.
         36    2    1    2    0    0  0.00000000000E+00  0.00000000000E+00 -0.16599390749E+04  0.19379103033E+04  0.10000493044E+04 0.  0.
         25    2    3    3    0    0 -0.12482202973E+03  0.27491515151E+02 -0.41808479057E+03  0.45470756575E+03  0.12501102244E+03 0.  0.
         35    2    3    3    0    0  0.12482202973E+03 -0.27491515151E+02 -0.12418542843E+04  0.14832027375E+04  0.80084453837E+03 0.  0.
         22    1    5    5    0    0  0.17789419703E+03 -0.46103811405E+01  0.54072601839E+02  0.18598776094E+03  0.00000000000E+00 0.  1.
         22    1    5    5    0    0 -0.53072167293E+02 -0.22881134011E+02 -0.12959268861E+04  0.12972149766E+04  0.00000000000E+00 0.  1.
          5    1    4    4  502    0 -0.12046237980E+03 -0.24633818385E+02 -0.32950212776E+03  0.35172681466E+03  0.47000000000E+01 0.  1.
         -5    1    4    4    0  502 -0.43596499399E+01  0.52125333537E+02 -0.88582662811E+02  0.10298075109E+03  0.47000000000E+01 0.  1.
<mgrwt>
<rscale>  0 0.10000493E+04</rscale>
<asrwt>0</asrwt>
<pdfrwt beam="1">  1        2 0.27675761E+00 0.10000493E+04</pdfrwt>
<pdfrwt beam="2">  1       -2 0.21382405E-01 0.10000493E+04</pdfrwt>
<totfact> 0.19403142E+02</totfact>
</mgrwt>
</event>
<event>
 9    1  0.4236486E-036  0.9973843E+03  0.7818608E-02  0.8683533E-01
         -2   -1    0    0    0  501 -0.00000000000E+00  0.00000000000E+00  0.17643749448E+03  0.17643749448E+03  0.00000000000E+00 0.  1.
          2   -1    0    0  501    0  0.00000000000E+00 -0.00000000000E+00 -0.14095295986E+04  0.14095295986E+04  0.00000000000E+00 0.  1.
         36    2    1    2    0    0  0.14210854715E-13 -0.14210854715E-13 -0.12330921042E+04  0.15859670931E+04  0.99738432065E+03 0.  0.
         25    2    3    3    0    0  0.71760679093E+02 -0.23798806231E+02 -0.45388142562E+02  0.15274646094E+03  0.12472136787E+03 0.  0.
         35    2    3    3    0    0 -0.71760679093E+02  0.23798806231E+02 -0.11877039616E+04  0.14332206322E+04  0.79860171665E+03 0.  0.
         22    1    5    5    0    0  0.25488269161E+03 -0.21126817423E+03 -0.25656407922E+03  0.41883714576E+03  0.00000000000E+00 0.  1.
         22    1    5    5    0    0 -0.32664337071E+03  0.23506698046E+03 -0.93113988238E+03  0.10143834864E+04  0.00000000000E+00 0.  1.
          5    1    4    4  502    0  0.32302873621E+02  0.49609390174E+02 -0.34192610273E+02  0.68525847933E+02  0.47000000000E+01 0. -1.
         -5    1    4    4    0  502  0.39457805472E+02 -0.73408196405E+02 -0.11195532289E+02  0.84220613007E+02  0.47000000000E+01 0. -1.
<mgrwt>
<rscale>  0 0.99738432E+03</rscale>
<asrwt>0</asrwt>
<pdfrwt beam="1">  1        2 0.21685071E+00 0.99738432E+03</pdfrwt>
<pdfrwt beam="2">  1       -2 0.27144230E-01 0.99738432E+03</pdfrwt>
<totfact> 0.21125004E+02</totfact>
</mgrwt>
</event>
<event>
 9    1  0.4236486E-036  0.9997431E+03  0.7818608E-02  0.8681283E-01
         -2   -1    0    0    0  501 -0.00000000000E+00  0.00000000000E+00  0.27468844552E+03  0.27468844552E+03  0.00000000000E+00 0. -1.
          2   -1    0    0  501    0  0.00000000000E+00 -0.00000000000E+00 -0.90965444454E+03  0.90965444454E+03  0.00000000000E+00 0. -1.
         36    2    1    2    0    0 -0.14210854715E-13  0.14210854715E-13 -0.63496599903E+03  0.11843428901E+04  0.99974309766E+03 0.  0.
         25    2    3    3    0    0 -0.10179161318E+03  0.38171609588E+02 -0.22384127307E+03  0.27851425358E+03  0.12508664847E+03 0.  0.
         35    2    3    3    0    0  0.10179161318E+03 -0.38171609588E+02 -0.41112472596E+03  0.90582863648E+03  0.79980208432E+03 0.  0.
         22    1    5    5    0    0 -0.55857642252E+01  0.33155612147E+03 -0.40146079939E+03  0.52070282877E+03  0.00000000000E+00 0. -1.
         22    1    5    5    0    0  0.10737737740E+03 -0.36972773106E+03 -0.96639265749E+01  0.38512580771E+03  0.00000000000E+00 0. -1.
          5    1    4    4  502    0 -0.79090716352E+02 -0.34551069309E+02 -0.14478702966E+03  0.16862529988E+03  0.47000000000E+01 0.  1.
         -5    1    4    4    0  502 -0.22700896827E+02  0.72722678898E+02 -0.79054243411E+02  0.10988895369E+03  0.47000000000E+01 0.  1.
<mgrwt>
<rscale>  0 0.99974310E+03</rscale>
<asrwt>0</asrwt>
<pdfrwt beam="1">  1        2 0.13994684E+00 0.99974310E+03</pdfrwt>
<pdfrwt beam="2">  1       -2 0.42259760E-01 0.99974310E+03</pdfrwt>
<totfact> 0.18543954E+02</totfact>
</mgrwt>
</event>
<event>
 9    1  0.4236486E-036  0.1000089E+04  0.7818608E-02  0.8680953E-01
         -1   -1    0    0    0  501 -0.00000000000E+00  0.00000000000E+00  0.83922185188E+02  0.83922185188E+02  0.00000000000E+00 0.  1.
          1   -1    0    0  501    0  0.00000000000E+00 -0.00000000000E+00 -0.29794800197E+04  0.29794800197E+04  0.00000000000E+00 0.  1.
         36    2    1    2    0    0  0.14210854715E-13 -0.42632564146E-13 -0.28955578345E+04  0.30634022049E+04  0.10000889440E+04 0.  0.
         25    2    3    3    0    0  0.56086318632E+02  0.92673028195E+02 -0.27393092782E+03  0.32004431887E+03  0.12512492771E+03 0.  0.
         35    2    3    3    0    0 -0.56086318632E+02 -0.92673028195E+02 -0.26216269067E+04  0.27433578860E+04  0.80084385966E+03 0.  0.
         22    1    5    5    0    0 -0.20278337388E+03  0.30402641631E+03 -0.91931179572E+03  0.98928627620E+03  0.00000000000E+00 0.  1.
         22    1    5    5    0    0  0.14669705525E+03 -0.39669944450E+03 -0.17023151110E+04  0.17540716098E+04  0.00000000000E+00 0.  1.
          5    1    4    4  502    0  0.14987928992E+02 -0.12759062847E+02 -0.15310406593E+03  0.15443567174E+03  0.47000000000E+01 0. -1.
         -5    1    4    4    0  502  0.41098389640E+02  0.10543209104E+03 -0.12082686188E+03  0.16560864713E+03  0.47000000000E+01 0. -1.
<mgrwt>
<rscale>  0 0.10000889E+04</rscale>
<asrwt>0</asrwt>
<pdfrwt beam="1">  1        1 0.45838149E+00 0.10000889E+04</pdfrwt>
<pdfrwt beam="2">  1       -1 0.12911107E-01 0.10000889E+04</pdfrwt>
<totfact> 0.26374377E+01</totfact>
</mgrwt>
</event>
<event>
 9    1  0.4236486E-036  0.1001082E+04  0.7818608E-02  0.8680009E-01
          2   -1    0    0  501    0  0.00000000000E+00  0.00000000000E+00  0.42024293831E+03  0.42024293831E+03  0.00000000000E+00 0.  1.
         -2   -1    0    0    0  501 -0.00000000000E+00 -0.00000000000E+00 -0.59618153338E+03  0.59618153338E+03  0.00000000000E+00 0.  1.
         36    2    1    2    0    0 -0.71054273576E-14  0.14210854715E-13 -0.17593859507E+03  0.10164244717E+04  0.10010815738E+04 0.  0.
         25    2    3    3    0    0  0.43679367899E+02 -0.10766463084E+03  0.51037626387E+02  0.17786721772E+03  0.12462884063E+03 0.  0.
         35    2    3    3    0    0 -0.43679367899E+02  0.10766463084E+03 -0.22697622146E+03  0.83855725397E+03  0.79884948718E+03 0.  0.
         22    1    5    5    0    0  0.29867560206E+03  0.13362270153E+03  0.12180534390E+03  0.34913991956E+03  0.00000000000E+00 0. -1.
         22    1    5    5    0    0 -0.34235496996E+03 -0.25958070693E+02 -0.34878156535E+03  0.48941733441E+03  0.00000000000E+00 0. -1.
          5    1    4    4  502    0  0.48878932625E+02 -0.13320133067E+03  0.32772357556E+02  0.14569784476E+03  0.47000000000E+01 0.  1.
         -5    1    4    4    0  502 -0.51995647255E+01  0.25536699828E+02  0.18265268831E+02  0.32169372964E+02  0.47000000000E+01 0.  1.
<mgrwt>
<rscale>  0 0.10010816E+04</rscale>
<asrwt>0</asrwt>
<pdfrwt beam="1">  1        2 0.64652760E-01 0.10010816E+04</pdfrwt>
<pdfrwt beam="2">  1       -2 0.91720236E-01 0.10010816E+04</pdfrwt>
<totfact> 0.90811086E+01</totfact>
</mgrwt>
</event>
<event>
 9    1  0.4236486E-036  0.9997449E+03  0.7818608E-02  0.8681281E-01
         -2   -1    0    0    0  501 -0.00000000000E+00  0.00000000000E+00  0.43285826775E+03  0.43285826775E+03  0.00000000000E+00 0.  1.
          2   -1    0    0  501    0  0.00000000000E+00 -0.00000000000E+00 -0.57726157317E+03  0.57726157317E+03  0.00000000000E+00 0.  1.
         36    2    1    2    0    0  0.71054273576E-14 -0.14210854715E-13 -0.14440330541E+03  0.10101198409E+04  0.99974485666E+03 0.  0.
         25    2    3    3    0    0 -0.30294887957E+02 -0.38815089886E+02 -0.16008481197E+03  0.20935681788E+03  0.12561344963E+03 0.  0.
         35    2    3    3    0    0  0.30294887957E+02  0.38815089886E+02  0.15681506562E+02  0.80076302304E+03  0.79909393564E+03 0.  0.
         22    1    5    5    0    0 -0.96415595760E+02 -0.13660752527E+03 -0.34315617314E+03  0.38172469429E+03  0.00000000000E+00 0. -1.
         22    1    5    5    0    0  0.12671048372E+03  0.17542261516E+03  0.35883767970E+03  0.41903832875E+03  0.00000000000E+00 0. -1.
          5    1    4    4  502    0  0.21561433213E+02  0.28766159157E+02 -0.11525702551E+02  0.38043647750E+02  0.47000000000E+01 0.  1.
         -5    1    4    4    0  502 -0.51856321170E+02 -0.67581249043E+02 -0.14855910942E+03  0.17131317013E+03  0.47000000000E+01 0.  1.
<mgrwt>
<rscale>  0 0.99974486E+03</rscale>
<asrwt>0</asrwt>
<pdfrwt beam="1">  1        2 0.88809472E-01 0.99974486E+03</pdfrwt>
<pdfrwt beam="2">  1       -2 0.66593581E-01 0.99974486E+03</pdfrwt>
<totfact> 0.13025685E+02</totfact>
</mgrwt>
</event>
<event>
 9    1  0.4236486E-036  0.9998573E+03  0.7818608E-02  0.8681174E-01
          2   -1    0    0  501    0  0.00000000000E+00  0.00000000000E+00  0.59502815577E+03  0.59502815577E+03  0.00000000000E+00 0. -1.
         -2   -1    0    0    0  501 -0.00000000000E+00 -0.00000000000E+00 -0.42002827952E+03  0.42002827952E+03  0.00000000000E+00 0. -1.
         36    2    1    2    0    0  0.31974423109E-13  0.00000000000E+00  0.17499987626E+03  0.10150564353E+04  0.99985729489E+03 0.  0.
         25    2    3    3    0    0  0.18315799551E+02  0.13315235127E+03 -0.92551593148E+01  0.18308116560E+03  0.12396789126E+03 0.  0.
         35    2    3    3    0    0 -0.18315799551E+02 -0.13315235127E+03  0.18425503557E+03  0.83197526969E+03  0.80010493942E+03 0.  0.
         22    1    5    5    0    0  0.36780253600E+03  0.69492451125E+02  0.10509570558E+03  0.38878401920E+03  0.00000000000E+00 0.  1.
         22    1    5    5    0    0 -0.38611833555E+03 -0.20264480240E+03  0.79159329987E+02  0.44319125049E+03  0.00000000000E+00 0.  1.
          5    1    4    4  502    0  0.99819599011E+01  0.71982311796E+02  0.56942115063E+02  0.92442345290E+02  0.47000000000E+01 0. -1.
         -5    1    4    4    0  502  0.83338396496E+01  0.61170039477E+02 -0.66197274378E+02  0.90638820314E+02  0.47000000000E+01 0. -1.
<mgrwt>
<rscale>  0 0.99985729E+03</rscale>
<asrwt>0</asrwt>
<pdfrwt beam="1">  1        2 0.91542793E-01 0.99985729E+03</pdfrwt>
<pdfrwt beam="2">  1       -2 0.64619736E-01 0.99985729E+03</pdfrwt>
<totfact> 0.13401270E+02</totfact>
</mgrwt>
</event>
<event>
 9    1  0.4236486E-036  0.1000240E+04  0.7818608E-02  0.8680809E-01
          1   -1    0    0  501    0  0.00000000000E+00  0.00000000000E+00  0.39010889562E+04  0.39010889562E+04  0.00000000000E+00 0. -1.
         -1   -1    0    0    0  501 -0.00000000000E+00 -0.00000000000E+00 -0.64115496591E+02  0.64115496591E+02  0.00000000000E+00 0. -1.
         36    2    1    2    0    0  0.00000000000E+00 -0.28421709430E-13  0.38369734596E+04  0.39652044528E+04  0.10002404824E+04 0.  0.
         25    2    3    3    0    0 -0.51296829762E+02 -0.10317138763E+03  0.99713667694E+03  0.10124440275E+04  0.13223334090E+03 0.  0.
         35    2    3    3    0    0  0.51296829762E+02  0.10317138763E+03  0.28398367826E+04  0.29527604252E+04  0.80052824855E+03 0.  0.
         22    1    5    5    0    0 -0.54518305227E+02 -0.26595625886E+03  0.40338689182E+03  0.48623652858E+03  0.00000000000E+00 0.  1.
         22    1    5    5    0    0  0.10581513499E+03  0.36912764650E+03  0.24364498908E+04  0.24665238967E+04  0.00000000000E+00 0.  1.
          5    1    4    4  502    0  0.31043388372E+02 -0.85396173578E+02  0.50711783582E+03  0.51521528299E+03  0.47000000000E+01 0.  1.
         -5    1    4    4    0  502 -0.82340218134E+02 -0.17775214055E+02  0.49001884113E+03  0.49722874456E+03  0.47000000000E+01 0.  1.
<mgrwt>
<rscale>  0 0.10002405E+04</rscale>
<asrwt>0</asrwt>
<pdfrwt beam="1">  1        1 0.60016735E+00 0.10002405E+04</pdfrwt>
<pdfrwt beam="2">  1       -1 0.98639256E-02 0.10002405E+04</pdfrwt>
<totfact> 0.84564119E+00</totfact>
</mgrwt>
</event>
<event>
 9    1  0.4236486E-036  0.9984086E+03  0.7818608E-02  0.8682555E-01
         -1   -1    0    0    0  501 -0.00000000000E+00  0.00000000000E+00  0.95149673054E+02  0.95149673054E+02  0.00000000000E+00 0.  1.
          1   -1    0    0  501    0  0.00000000000E+00 -0.00000000000E+00 -0.26190833296E+04  0.26190833296E+04  0.00000000000E+00 0.  1.
         36    2    1    2    0    0 -0.71054273576E-14 -0.14210854715E-13 -0.25239336565E+04  0.27142330026E+04  0.99840857871E+03 0.  0.
         25    2    3    3    0    0  0.49224220200E+02 -0.75262161174E+02 -0.74909057824E+03  0.76504336119E+03  0.12675659094E+03 0.  0.
         35    2    3    3    0    0 -0.49224220200E+02  0.75262161174E+02 -0.17748430783E+04  0.19491896414E+04  0.80074021317E+03 0.  0.
         22    1    5    5    0    0 -0.97856786981E+02 -0.33762974493E+03 -0.52335308147E+03  0.63045082544E+03  0.00000000000E+00 0. -1.
         22    1    5    5    0    0  0.48632566781E+02  0.41289190610E+03 -0.12514899968E+04  0.13187388160E+04  0.00000000000E+00 0. -1.
          5    1    4    4  502    0 -0.37572811092E+02 -0.51345949921E+02 -0.25998648426E+03  0.26769980333E+03  0.47000000000E+01 0. -1.
         -5    1    4    4    0  502  0.86797031293E+02 -0.23916211253E+02 -0.48910409397E+03  0.49734355786E+03  0.47000000000E+01 0. -1.
<mgrwt>
<rscale>  0 0.99840858E+03</rscale>
<asrwt>0</asrwt>
<pdfrwt beam="1">  1        1 0.40293596E+00 0.99840858E+03</pdfrwt>
<pdfrwt beam="2">  1       -1 0.14638409E-01 0.99840858E+03</pdfrwt>
<totfact> 0.38959464E+01</totfact>
</mgrwt>
</event>
<event>
 9    1  0.4236486E-036  0.9993251E+03  0.7818608E-02  0.8681681E-01
          1   -1    0    0  501    0  0.00000000000E+00  0.00000000000E+00  0.85504377688E+03  0.85504377688E+03  0.00000000000E+00 0.  1.
         -1   -1    0    0    0  501 -0.00000000000E+00 -0.00000000000E+00 -0.29198816225E+03  0.29198816225E+03  0.00000000000E+00 0.  1.
         36    2    1    2    0    0  0.21316282073E-13 -0.28421709430E-13  0.56305561463E+03  0.11470319391E+04  0.99932509436E+03 0.  0.
         25    2    3    3    0    0  0.58932463290E+02 -0.12111689902E+03  0.63046349757E+02  0.19418230391E+03  0.12485826555E+03 0.  0.
         35    2    3    3    0    0 -0.58932463290E+02  0.12111689902E+03  0.50000926487E+03  0.95284963522E+03  0.79985675213E+03 0.  0.
         22    1    5    5    0    0 -0.13268772558E+03 -0.32508777963E+03  0.28425677514E+03  0.45176322471E+03  0.00000000000E+00 0.  1.
         22    1    5    5    0    0  0.73755262294E+02  0.44620467866E+03  0.21575248973E+03  0.50108641051E+03  0.00000000000E+00 0.  1.
          5    1    4    4  502    0 -0.12051520404E+02  0.93964123264E+01  0.40881275042E+02  0.43896473181E+02  0.47000000000E+01 0.  1.
         -5    1    4    4    0  502  0.70983983694E+02 -0.13051331135E+03  0.22165074716E+02  0.15028583073E+03  0.47000000000E+01 0.  1.
<mgrwt>
<rscale>  0 0.99932509E+03</rscale>
<asrwt>0</asrwt>
<pdfrwt beam="1">  1        1 0.13154520E+00 0.99932509E+03</pdfrwt>
<pdfrwt beam="2">  1       -1 0.44921256E-01 0.99932509E+03</pdfrwt>
<totfact> 0.11040706E+02</totfact>
</mgrwt>
</event>
<event>
 9    1  0.4236486E-036  0.9995872E+03  0.7818608E-02  0.8681431E-01
          2   -1    0    0  501    0  0.00000000000E+00  0.00000000000E+00  0.11825428349E+04  0.11825428349E+04  0.00000000000E+00 0. -1.
         -2   -1    0    0    0  501 -0.00000000000E+00 -0.00000000000E+00 -0.21123433929E+03  0.21123433929E+03  0.00000000000E+00 0. -1.
         36    2    1    2    0    0  0.00000000000E+00 -0.28421709430E-13  0.97130849560E+03  0.13937771742E+04  0.99958722363E+03 0.  0.
         25    2    3    3    0    0  0.72421777606E+02 -0.85357199906E+02  0.29905043881E+03  0.34291405298E+03  0.12501246872E+03 0.  0.
         35    2    3    3    0    0 -0.72421777606E+02  0.85357199906E+02  0.67225805679E+03  0.10508631212E+04  0.79990726908E+03 0.  0.
         22    1    5    5    0    0 -0.34898122540E+03 -0.20589230165E+03  0.31315233209E+03  0.51209756751E+03  0.00000000000E+00 0.  1.
         22    1    5    5    0    0  0.27655944780E+03  0.29124950155E+03  0.35910572470E+03  0.53876555368E+03  0.00000000000E+00 0.  1.
          5    1    4    4  502    0  0.27663023574E+02  0.23701153340E+02  0.24674779323E+02  0.44248415537E+02  0.47000000000E+01 0.  1.
         -5    1    4    4    0  502  0.44758754032E+02 -0.10905835325E+03  0.27437565948E+03  0.29866563745E+03  0.47000000000E+01 0.  1.
<mgrwt>
<rscale>  0 0.99958722E+03</rscale>
<asrwt>0</asrwt>
<pdfrwt beam="1">  1        2 0.18192966E+00 0.99958722E+03</pdfrwt>
<pdfrwt beam="2">  1       -2 0.32497591E-01 0.99958722E+03</pdfrwt>
<totfact> 0.20623692E+02</totfact>
</mgrwt>
</event>
<event>
 9    1  0.4236486E-036  0.9998303E+03  0.7818608E-02  0.8681200E-01
          1   -1    0    0  501    0  0.00000000000E+00  0.00000000000E+00  0.14698671951E+04  0.14698671951E+04  0.00000000000E+00 0.  1.
         -1   -1    0    0    0  501 -0.00000000000E+00 -0.00000000000E+00 -0.17002566718E+03  0.17002566718E+03  0.00000000000E+00 0.  1.
         36    2    1    2    0    0 -0.14210854715E-13  0.28421709430E-13  0.12998415280E+04  0.16398928623E+04  0.99983028663E+03 0.  0.
         25    2    3    3    0    0  0.34904308151E+02 -0.92372694823E+02  0.82447370476E+02  0.17959234449E+03  0.12531885663E+03 0.  0.
         35    2    3    3    0    0 -0.34904308151E+02  0.92372694823E+02  0.12173941575E+04  0.14603005178E+04  0.80042366419E+03 0.  0.
         22    1    5    5    0    0  0.19001413297E+03  0.35415102514E+03  0.37392539588E+03  0.54895220285E+03  0.00000000000E+00 0. -1.
         22    1    5    5    0    0 -0.22491844113E+03 -0.26177833031E+03  0.84346876162E+03  0.91134831498E+03  0.00000000000E+00 0. -1.
          5    1    4    4  502    0  0.46563293579E+02 -0.30452317841E+02  0.99546279638E+02  0.11413604059E+03  0.47000000000E+01 0.  1.
         -5    1    4    4    0  502 -0.11658985428E+02 -0.61920376982E+02 -0.17098909162E+02  0.65456303909E+02  0.47000000000E+01 0.  1.
<mgrwt>
<rscale>  0 0.99983029E+03</rscale>
<asrwt>0</asrwt>
<pdfrwt beam="1">  1        1 0.22613341E+00 0.99983029E+03</pdfrwt>
<pdfrwt beam="2">  1       -1 0.26157796E-01 0.99983029E+03</pdfrwt>
<totfact> 0.96224083E+01</totfact>
</mgrwt>
</event>
<event>
 9    1  0.4236486E-036  0.1000540E+04  0.7818608E-02  0.8680523E-01
          2   -1    0    0  501    0  0.00000000000E+00  0.00000000000E+00  0.24148941425E+04  0.24148941425E+04  0.00000000000E+00 0. -1.
         -2   -1    0    0    0  501 -0.00000000000E+00 -0.00000000000E+00 -0.10363612654E+03  0.10363612654E+03  0.00000000000E+00 0. -1.
         36    2    1    2    0    0  0.00000000000E+00  0.14210854715E-13  0.23112580159E+04  0.25185302690E+04  0.10005404039E+04 0.  0.
         25    2    3    3    0    0  0.65644854076E+02  0.12244422144E+03  0.48759217508E+03  0.52235769365E+03  0.12573621867E+03 0.  0.
         35    2    3    3    0    0 -0.65644854076E+02 -0.12244422144E+03  0.18236658408E+04  0.19961725754E+04  0.79977873024E+03 0.  0.
         22    1    5    5    0    0 -0.83832944440E+02 -0.37569315510E+03  0.16353898437E+04  0.16800813225E+04  0.00000000000E+00 0.  1.
         22    1    5    5    0    0  0.18188090364E+02  0.25324893366E+03  0.18827599714E+03  0.31609125285E+03  0.00000000000E+00 0.  1.
          5    1    4    4  502    0  0.43166344183E+02  0.96099563813E+02  0.15227871102E+03  0.18522784689E+03  0.47000000000E+01 0.  1.
         -5    1    4    4    0  502  0.22478509893E+02  0.26344657625E+02  0.33531346407E+03  0.33712984676E+03  0.47000000000E+01 0.  1.
<mgrwt>
<rscale>  0 0.10005404E+04</rscale>
<asrwt>0</asrwt>
<pdfrwt beam="1">  1        2 0.37152213E+00 0.10005404E+04</pdfrwt>
<pdfrwt beam="2">  1       -2 0.15944021E-01 0.10005404E+04</pdfrwt>
<totfact> 0.14146093E+02</totfact>
</mgrwt>
</event>
<event>
 9    1  0.4236486E-036  0.1007721E+04  0.7818608E-02  0.8673720E-01
          2   -1    0    0  501    0  0.00000000000E+00  0.00000000000E+00  0.15562703013E+04  0.15562703013E+04  0.00000000000E+00 0. -1.
         -2   -1    0    0    0  501 -0.00000000000E+00 -0.00000000000E+00 -0.16313074239E+03  0.16313074239E+03  0.00000000000E+00 0. -1.
         36    2    1    2    0    0 -0.56843418861E-13 -0.71054273576E-14  0.13931395589E+04  0.17194010437E+04  0.10077212504E+04 0.  0.
         25    2    3    3    0    0  0.14634629179E+03 -0.45645072157E+01  0.22044290366E+03  0.29282706644E+03  0.12535766916E+03 0.  0.
         35    2    3    3    0    0 -0.14634629179E+03  0.45645072157E+01  0.11726966553E+04  0.14265739773E+04  0.79903554081E+03 0.  0.
         22    1    5    5    0    0  0.15508806315E+02  0.28675966823E+03  0.10336240271E+04  0.10727768919E+04  0.00000000000E+00 0. -1.
         22    1    5    5    0    0 -0.16185509810E+03 -0.28219516102E+03  0.13907262811E+03  0.35379708531E+03  0.00000000000E+00 0. -1.
          5    1    4    4  502    0  0.71208088173E+02 -0.54348271894E+02  0.57476734189E+02  0.10653633865E+03  0.47000000000E+01 0.  1.
         -5    1    4    4    0  502  0.75138203617E+02  0.49783764679E+02  0.16296616947E+03  0.18629072779E+03  0.47000000000E+01 0.  1.
<mgrwt>
<rscale>  0 0.10077213E+04</rscale>
<asrwt>0</asrwt>
<pdfrwt beam="1">  1        2 0.23942619E+00 0.10077213E+04</pdfrwt>
<pdfrwt beam="2">  1       -2 0.25097038E-01 0.10077213E+04</pdfrwt>
<totfact> 0.20059330E+02</totfact>
</mgrwt>
</event>
<event>
 9    1  0.4236486E-036  0.1000302E+04  0.7818608E-02  0.8680750E-01
          2   -1    0    0  501    0  0.00000000000E+00  0.00000000000E+00  0.74054553992E+03  0.74054553992E+03  0.00000000000E+00 0.  1.
         -2   -1    0    0    0  501 -0.00000000000E+00 -0.00000000000E+00 -0.33779283524E+03  0.33779283524E+03  0.00000000000E+00 0.  1.
         36    2    1    2    0    0 -0.28421709430E-13  0.00000000000E+00  0.40275270468E+03  0.10783383752E+04  0.10003019095E+04 0.  0.
         25    2    3    3    0    0  0.80933410440E+02 -0.10035439579E+03  0.18889934057E+02  0.18038035290E+03  0.12473580249E+03 0.  0.
         35    2    3    3    0    0 -0.80933410440E+02  0.10035439579E+03  0.38386277062E+03  0.89795802225E+03  0.80147162231E+03 0.  0.
         22    1    5    5    0    0  0.32052353327E+03  0.17883140311E+03  0.50958765984E+02  0.37055742059E+03  0.00000000000E+00 0.  1.
         22    1    5    5    0    0 -0.40145694371E+03 -0.78477007321E+02  0.33290400464E+03  0.52740060167E+03  0.00000000000E+00 0.  1.
          5    1    4    4  502    0 -0.23165475073E+02 -0.21788555234E+02 -0.27063039514E+02  0.42022356934E+02  0.47000000000E+01 0.  1.
         -5    1    4    4    0  502  0.10409888551E+03 -0.78565840558E+02  0.45952973572E+02  0.13835799597E+03  0.47000000000E+01 0.  1.
<mgrwt>
<rscale>  0 0.10003019E+04</rscale>
<asrwt>0</asrwt>
<pdfrwt beam="1">  1        2 0.11393008E+00 0.10003019E+04</pdfrwt>
<pdfrwt beam="2">  1       -2 0.51968129E-01 0.10003019E+04</pdfrwt>
<totfact> 0.16132579E+02</totfact>
</mgrwt>
</event>
<event>
 9    1  0.4236486E-036  0.9993999E+03  0.7818608E-02  0.8681610E-01
         -1   -1    0    0    0  501 -0.00000000000E+00  0.00000000000E+00  0.35081250271E+03  0.35081250271E+03  0.00000000000E+00 0. -1.
          1   -1    0    0  501    0  0.00000000000E+00 -0.00000000000E+00 -0.71177640698E+03  0.71177640698E+03  0.00000000000E+00 0. -1.
         36    2    1    2    0    0  0.14210854715E-13 -0.14210854715E-13 -0.36096390427E+03  0.10625889097E+04  0.99939994537E+03 0.  0.
         25    2    3    3    0    0 -0.79643969590E+02 -0.11346293056E+03 -0.84079187125E+02  0.20459672828E+03  0.12479388211E+03 0.  0.
         35    2    3    3    0    0  0.79643969590E+02  0.11346293056E+03 -0.27688471715E+03  0.85799218141E+03  0.80016775633E+03 0.  0.
         22    1    5    5    0    0  0.37787754613E+03 -0.57888713926E+02  0.47471392087E+02  0.38522211273E+03  0.00000000000E+00 0.  1.
         22    1    5    5    0    0 -0.29823357654E+03  0.17135164449E+03 -0.32435610923E+03  0.47277006868E+03  0.00000000000E+00 0.  1.
          5    1    4    4  502    0 -0.16445831005E+01  0.13883808470E+02 -0.48935022444E+02  0.51109600006E+02  0.47000000000E+01 0.  1.
         -5    1    4    4    0  502 -0.77999386490E+02 -0.12734673903E+03 -0.35144164681E+02  0.15348712828E+03  0.47000000000E+01 0.  1.
<mgrwt>
<rscale>  0 0.99939995E+03</rscale>
<asrwt>0</asrwt>
<pdfrwt beam="1">  1        1 0.10950406E+00 0.99939995E+03</pdfrwt>
<pdfrwt beam="2">  1       -1 0.53971155E-01 0.99939995E+03</pdfrwt>
<totfact> 0.10574078E+02</totfact>
</mgrwt>
</event>
<event>
 9    1  0.4236486E-036  0.9978645E+03  0.7818608E-02  0.8683074E-01
         -2   -1    0    0    0  501 -0.00000000000E+00  0.00000000000E+00  0.11302323111E+03  0.11302323111E+03  0.00000000000E+00 0. -1.
          2   -1    0    0  501    0  0.00000000000E+00 -0.00000000000E+00 -0.22024976486E+04  0.22024976486E+04  0.00000000000E+00 0. -1.
         36    2    1    2    0    0  0.14210854715E-13 -0.14210854715E-13 -0.20894744175E+04  0.23155208797E+04  0.99786452136E+03 0.  0.
         25    2    3    3    0    0 -0.28136685978E+02 -0.11170720029E+03 -0.56028822954E+03  0.58560145846E+03  0.12544319949E+03 0.  0.
         35    2    3    3    0    0  0.28136685978E+02  0.11170720029E+03 -0.15291861879E+04  0.17299194212E+04  0.80058768094E+03 0.  0.
         22    1    5    5    0    0  0.14635339157E+03 -0.31952542310E+03 -0.81152661042E+03  0.88435923167E+03  0.00000000000E+00 0. -1.
         22    1    5    5    0    0 -0.11821670560E+03  0.43123262338E+03 -0.71765957751E+03  0.84556018954E+03  0.00000000000E+00 0. -1.
          5    1    4    4  502    0 -0.76245910905E+02 -0.68119010293E+02 -0.39265443709E+03  0.40577485809E+03  0.47000000000E+01 0.  1.
         -5    1    4    4    0  502  0.48109224927E+02 -0.43588189992E+02 -0.16763379245E+03  0.17982660037E+03  0.47000000000E+01 0.  1.
<mgrwt>
<rscale>  0 0.99786452E+03</rscale>
<asrwt>0</asrwt>
<pdfrwt beam="1">  1        2 0.33884580E+00 0.99786452E+03</pdfrwt>
<pdfrwt beam="2">  1       -2 0.17388189E-01 0.99786452E+03</pdfrwt>
<totfact> 0.16301487E+02</totfact>
</mgrwt>
</event>
<event>
 9    1  0.4236486E-036  0.9984363E+03  0.7818608E-02  0.8682529E-01
          1   -1    0    0  501    0  0.00000000000E+00  0.00000000000E+00  0.59072028916E+03  0.59072028916E+03  0.00000000000E+00 0.  1.
         -1   -1    0    0    0  501 -0.00000000000E+00 -0.00000000000E+00 -0.42188958811E+03  0.42188958811E+03  0.00000000000E+00 0.  1.
         36    2    1    2    0    0 -0.35527136788E-14 -0.28421709430E-13  0.16883070106E+03  0.10126098773E+04  0.99843625631E+03 0.  0.
         25    2    3    3    0    0 -0.14017919655E+02 -0.22001392191E+02  0.16633125847E+03  0.21001603720E+03  0.12553917719E+03 0.  0.
         35    2    3    3    0    0  0.14017919655E+02  0.22001392191E+02  0.24994425874E+01  0.80259384007E+03  0.80216585665E+03 0.  0.
         22    1    5    5    0    0  0.10782941183E+03  0.30210592627E+03  0.25829372217E+03  0.41183834165E+03  0.00000000000E+00 0.  1.
         22    1    5    5    0    0 -0.93811492177E+02 -0.28010453408E+03 -0.25579427958E+03  0.39075549842E+03  0.00000000000E+00 0.  1.
          5    1    4    4  502    0  0.31623096364E+02 -0.60411667344E+02  0.91090014632E+02  0.11388182709E+03  0.47000000000E+01 0.  1.
         -5    1    4    4    0  502 -0.45641016019E+02  0.38410275153E+02  0.75241243835E+02  0.96134210115E+02  0.47000000000E+01 0.  1.
<mgrwt>
<rscale>  0 0.99843626E+03</rscale>
<asrwt>0</asrwt>
<pdfrwt beam="1">  1        1 0.90880045E-01 0.99843626E+03</pdfrwt>
<pdfrwt beam="2">  1       -1 0.64906090E-01 0.99843626E+03</pdfrwt>
<totfact> 0.98232557E+01</totfact>
</mgrwt>
</event>
<event>
 9    1  0.4236486E-036  0.9989322E+03  0.7818608E-02  0.8682055E-01
          2   -1    0    0  501    0  0.00000000000E+00  0.00000000000E+00  0.90048927351E+03  0.90048927351E+03  0.00000000000E+00 0.  1.
         -2   -1    0    0    0  501 -0.00000000000E+00 -0.00000000000E+00 -0.27703426927E+03  0.27703426927E+03  0.00000000000E+00 0.  1.
         36    2    1    2    0    0  0.00000000000E+00  0.28421709430E-13  0.62345500424E+03  0.11775235428E+04  0.99893220566E+03 0.  0.
         25    2    3    3    0    0 -0.11415083123E+03  0.29178457843E+01  0.24272920406E+02  0.17170023810E+03  0.12590818482E+03 0.  0.
         35    2    3    3    0    0  0.11415083123E+03 -0.29178457843E+01  0.59918208384E+03  0.10058233047E+04  0.79976398053E+03 0.  0.
         22    1    5    5    0    0 -0.25398886804E+03  0.25378829242E+03  0.26965005070E+03  0.44903228425E+03  0.00000000000E+00 0. -1.
         22    1    5    5    0    0  0.36813969927E+03 -0.25670613821E+03  0.32953203314E+03  0.55679102043E+03  0.00000000000E+00 0. -1.
          5    1    4    4  502    0 -0.12405888532E+03 -0.34179930350E+02  0.30972658056E+02  0.13243968519E+03  0.47000000000E+01 0.  1.
         -5    1    4    4    0  502  0.99080540947E+01  0.37097776134E+02 -0.66997376498E+01  0.39260552908E+02  0.47000000000E+01 0.  1.
<mgrwt>
<rscale>  0 0.99893221E+03</rscale>
<asrwt>0</asrwt>
<pdfrwt beam="1">  1        2 0.13853681E+00 0.99893221E+03</pdfrwt>
<pdfrwt beam="2">  1       -2 0.42620657E-01 0.99893221E+03</pdfrwt>
<totfact> 0.18496046E+02</totfact>
</mgrwt>
</event>
<event>
 9    1  0.4236486E-036  0.9993441E+03  0.7818608E-02  0.8681663E-01
         -1   -1    0    0    0  501 -0.00000000000E+00  0.00000000000E+00  0.78953531698E+03  0.78953531698E+03  0.00000000000E+00 0. -1.
          1   -1    0    0  501    0  0.00000000000E+00 -0.00000000000E+00 -0.31622672437E+03  0.31622672437E+03  0.00000000000E+00 0. -1.
         36    2    1    2    0    0  0.28421709430E-13  0.00000000000E+00  0.47330859261E+03  0.11057620414E+04  0.99934411904E+03 0.  0.
         25    2    3    3    0    0 -0.91774081773E+02 -0.68533671601E+02  0.19354749138E+03  0.25740240491E+03  0.12520391530E+03 0.  0.
         35    2    3    3    0    0  0.91774081773E+02  0.68533671601E+02  0.27976110123E+03  0.84835963644E+03  0.79267171815E+03 0.  0.
         22    1    5    5    0    0  0.30640584107E+03  0.10778214730E+03  0.46153478876E+03  0.56437212189E+03  0.00000000000E+00 0.  1.
         22    1    5    5    0    0 -0.21463175930E+03 -0.39248475701E+02 -0.18177368753E+03  0.28398751456E+03  0.00000000000E+00 0.  1.
          5    1    4    4  502    0 -0.35089332932E+02 -0.85617135038E+02  0.57715587719E+02  0.10915463418E+03  0.47000000000E+01 0. -1.
         -5    1    4    4    0  502 -0.56684748841E+02  0.17083463437E+02  0.13583190366E+03  0.14824777073E+03  0.47000000000E+01 0. -1.
<mgrwt>
<rscale>  0 0.99934412E+03</rscale>
<asrwt>0</asrwt>
<pdfrwt beam="1">  1        1 0.48650265E-01 0.99934412E+03</pdfrwt>
<pdfrwt beam="2">  1       -1 0.12146697E+00 0.99934412E+03</pdfrwt>
<totfact> 0.59088357E+01</totfact>
</mgrwt>
</event>
<event>
 9    1  0.4236486E-036  0.9997443E+03  0.7818608E-02  0.8681282E-01
         -2   -1    0    0    0  501 -0.00000000000E+00  0.00000000000E+00  0.99880270481E+02  0.99880270481E+02  0.00000000000E+00 0.  1.
          2   -1    0    0  501    0  0.00000000000E+00 -0.00000000000E+00 -0.25017167512E+04  0.25017167512E+04  0.00000000000E+00 0.  1.
         36    2    1    2    0    0 -0.14210854715E-13  0.14210854715E-13 -0.24018364807E+04  0.26015970217E+04  0.99974425885E+03 0.  0.
         25    2    3    3    0    0  0.11762904350E+03  0.35932293874E+02 -0.62322415608E+03  0.64737587508E+03  0.12473753765E+03 0.  0.
         35    2    3    3    0    0 -0.11762904350E+03 -0.35932293874E+02 -0.17786123247E+04  0.19542211466E+04  0.80024419201E+03 0.  0.
         22    1    5    5    0    0 -0.34932273972E+02 -0.39855791428E+03 -0.12129959577E+04  0.12772736074E+04  0.00000000000E+00 0. -1.
         22    1    5    5    0    0 -0.82696769524E+02  0.36262562041E+03 -0.56561636698E+03  0.67694753923E+03  0.00000000000E+00 0. -1.
          5    1    4    4  502    0  0.45832402548E+02  0.44525953069E+02 -0.50254574668E+03  0.50661374550E+03  0.47000000000E+01 0.  1.
         -5    1    4    4    0  502  0.71796640947E+02 -0.85936591945E+01 -0.12067840939E+03  0.14076212958E+03  0.47000000000E+01 0.  1.
<mgrwt>
<rscale>  0 0.99974426E+03</rscale>
<asrwt>0</asrwt>
<pdfrwt beam="1">  1        2 0.38487948E+00 0.99974426E+03</pdfrwt>
<pdfrwt beam="2">  1       -2 0.15366196E-01 0.99974426E+03</pdfrwt>
<totfact> 0.13340958E+02</totfact>
</mgrwt>
</event>
<event>
 9    1  0.4236486E-036  0.9971141E+03  0.7818608E-02  0.8683791E-01
         -3   -1    0    0    0  501 -0.00000000000E+00  0.00000000000E+00  0.95368562107E+03  0.95368562107E+03  0.00000000000E+00 0. -1.
          3   -1    0    0  501    0  0.00000000000E+00 -0.00000000000E+00 -0.26063002610E+03  0.26063002610E+03  0.00000000000E+00 0. -1.
         36    2    1    2    0    0  0.71054273576E-14  0.42632564146E-13  0.69305559497E+03  0.12143156472E+04  0.99711405228E+03 0.  0.
         25    2    3    3    0    0  0.31436113766E+02 -0.28801909380E+02 -0.16711582105E+02  0.14449697482E+03  0.13704860278E+03 0.  0.
         35    2    3    3    0    0 -0.31436113766E+02  0.28801909380E+02  0.70976717707E+03  0.10698186724E+04  0.79932769677E+03 0.  0.
         22    1    5    5    0    0  0.26227358502E+03 -0.23788484873E+03  0.15194654366E+03  0.38531076650E+03  0.00000000000E+00 0.  1.
         22    1    5    5    0    0 -0.29370969878E+03  0.26668675811E+03  0.55782063341E+03  0.68450790585E+03  0.00000000000E+00 0.  1.
          5    1    4    4  502    0 -0.51202034790E+01 -0.64726192045E+02 -0.50962271629E+02  0.82673693215E+02  0.47000000000E+01 0.  1.
         -5    1    4    4    0  502  0.36556317245E+02  0.35924282665E+02  0.34250689524E+02  0.61823281605E+02  0.47000000000E+01 0.  1.
<mgrwt>
<rscale>  0 0.99711405E+03</rscale>
<asrwt>0</asrwt>
<pdfrwt beam="1">  1        3 0.40096928E-01 0.99711405E+03</pdfrwt>
<pdfrwt beam="2">  1       -3 0.14672086E+00 0.99711405E+03</pdfrwt>
<totfact> 0.68434257E+00</totfact>
</mgrwt>
</event>
<event>
 9    1  0.4236486E-036  0.9999636E+03  0.7818608E-02  0.8681073E-01
         -2   -1    0    0    0  501 -0.00000000000E+00  0.00000000000E+00  0.15737792093E+03  0.15737792093E+03  0.00000000000E+00 0. -1.
          2   -1    0    0  501    0  0.00000000000E+00 -0.00000000000E+00 -0.15884172254E+04  0.15884172254E+04  0.00000000000E+00 0. -1.
         36    2    1    2    0    0  0.71054273576E-14  0.21316282073E-13 -0.14310393045E+04  0.17457951463E+04  0.99996360033E+03 0.  0.
         25    2    3    3    0    0 -0.37261950622E+02 -0.55125531835E+02 -0.46713666675E+03  0.48813335633E+03  0.12502092190E+03 0.  0.
         35    2    3    3    0    0  0.37261950622E+02  0.55125531835E+02 -0.96390263774E+03  0.12576617900E+04  0.80509478063E+03 0.  0.
         22    1    5    5    0    0 -0.12254854438E+03 -0.33969566156E+03 -0.58551990991E+03  0.68792794181E+03  0.00000000000E+00 0.  1.
         22    1    5    5    0    0  0.15981049501E+03  0.39482119340E+03 -0.37838272783E+03  0.56973384820E+03  0.00000000000E+00 0.  1.
          5    1    4    4  502    0  0.16051334889E+02 -0.45105516854E+02 -0.57841259930E+02  0.75232003514E+02  0.47000000000E+01 0. -1.
         -5    1    4    4    0  502 -0.53313285511E+02 -0.10020014981E+02 -0.40929540682E+03  0.41290135281E+03  0.47000000000E+01 0. -1.
<mgrwt>
<rscale>  0 0.99996360E+03</rscale>
<asrwt>0</asrwt>
<pdfrwt beam="1">  1        2 0.24437188E+00 0.99996360E+03</pdfrwt>
<pdfrwt beam="2">  1       -2 0.24211987E-01 0.99996360E+03</pdfrwt>
<totfact> 0.20502111E+02</totfact>
</mgrwt>
</event>
<event>
 9    1  0.4236486E-036  0.1004271E+04  0.7818608E-02  0.8676981E-01
         -2   -1    0    0    0  501 -0.00000000000E+00  0.00000000000E+00  0.16372266273E+04  0.16372266273E+04  0.00000000000E+00 0.  1.
          2   -1    0    0  501    0  0.00000000000E+00 -0.00000000000E+00 -0.15400439337E+03  0.15400439337E+03  0.00000000000E+00 0.  1.
         36    2    1    2    0    0 -0.71054273576E-14 -0.24868995752E-13  0.14832222340E+04  0.17912310207E+04  0.10042710661E+04 0.  0.
         25    2    3    3    0    0 -0.63879272049E+02 -0.13154220588E+02  0.51270246005E+03  0.53162569282E+03  0.12453300690E+03 0.  0.
         35    2    3    3    0    0  0.63879272049E+02  0.13154220588E+02  0.97051977394E+03  0.12596053279E+04  0.80027704925E+03 0.  0.
         22    1    5    5    0    0  0.44267750442E+02 -0.21391418213E+03 -0.41401387954E+02  0.22233530077E+03  0.00000000000E+00 0. -1.
         22    1    5    5    0    0  0.19611521607E+02  0.22706840272E+03  0.10119211619E+04  0.10372700271E+04  0.00000000000E+00 0. -1.
          5    1    4    4  502    0 -0.86292688251E+01 -0.13592900965E+02  0.86676179252E+00  0.16795014531E+02  0.47000000000E+01 0. -1.
         -5    1    4    4    0  502 -0.55250003224E+02  0.43868037745E+00  0.51183569825E+03  0.51483067828E+03  0.47000000000E+01 0. -1.
<mgrwt>
<rscale>  0 0.10042711E+04</rscale>
<asrwt>0</asrwt>
<pdfrwt beam="1">  1        2 0.23692985E-01 0.10042711E+04</pdfrwt>
<pdfrwt beam="2">  1       -2 0.25188101E+00 0.10042711E+04</pdfrwt>
<totfact> 0.15627597E+01</totfact>
</mgrwt>
</event>
<event>
 9    1  0.4236486E-036  0.9998406E+03  0.7818608E-02  0.8681190E-01
          2   -1    0    0  501    0  0.00000000000E+00  0.00000000000E+00  0.12056225171E+04  0.12056225171E+04  0.00000000000E+00 0.  1.
         -2   -1    0    0    0  501 -0.00000000000E+00 -0.00000000000E+00 -0.20729563940E+03  0.20729563940E+03  0.00000000000E+00 0.  1.
         36    2    1    2    0    0 -0.14210854715E-13  0.28421709430E-13  0.99832687772E+03  0.14129181565E+04  0.99984056841E+03 0.  0.
         25    2    3    3    0    0  0.11765453353E+03  0.66919321333E+02  0.24242802115E+03  0.30430004186E+03  0.12452463696E+03 0.  0.
         35    2    3    3    0    0 -0.11765453353E+03 -0.66919321333E+02  0.75589885656E+03  0.11086181147E+04  0.79958130165E+03 0.  0.
         22    1    5    5    0    0 -0.22623102579E+02  0.80761124075E+02 -0.15752754616E+03  0.17846313830E+03  0.00000000000E+00 0.  1.
         22    1    5    5    0    0 -0.95031430949E+02 -0.14768044541E+03  0.91342640273E+03  0.93015497635E+03  0.00000000000E+00 0.  1.
          5    1    4    4  502    0  0.46115454486E+02  0.70945784540E+02  0.48815412921E+02  0.97800685198E+02  0.47000000000E+01 0. -1.
         -5    1    4    4    0  502  0.71539079042E+02 -0.40264632072E+01  0.19361260823E+03  0.20649935666E+03  0.47000000000E+01 0. -1.
<mgrwt>
<rscale>  0 0.99984057E+03</rscale>
<asrwt>0</asrwt>
<pdfrwt beam="1">  1        2 0.18548038E+00 0.99984057E+03</pdfrwt>
<pdfrwt beam="2">  1       -2 0.31891637E-01 0.99984057E+03</pdfrwt>
<totfact> 0.20689634E+02</totfact>
</mgrwt>
</event>
<event>
 9    1  0.4236486E-036  0.9986459E+03  0.7818608E-02  0.8682329E-01
          2   -1    0    0  501    0  0.00000000000E+00  0.00000000000E+00  0.52544783409E+03  0.52544783409E+03  0.00000000000E+00 0. -1.
         -2   -1    0    0    0  501 -0.00000000000E+00 -0.00000000000E+00 -0.47449696860E+03  0.47449696860E+03  0.00000000000E+00 0. -1.
         36    2    1    2    0    0  0.14210854715E-13  0.00000000000E+00  0.50950865491E+02  0.99994480268E+03  0.99864589205E+03 0.  0.
         25    2    3    3    0    0  0.14961905695E+02  0.13339783552E+03  0.17497278056E+02  0.18500879595E+03  0.12610812304E+03 0.  0.
         35    2    3    3    0    0 -0.14961905695E+02 -0.13339783552E+03  0.33453587434E+02  0.81493600673E+03  0.80310815673E+03 0.  0.
         22    1    5    5    0    0  0.15021576706E+03  0.16146235745E+03  0.30847816042E+03  0.37920132516E+03  0.00000000000E+00 0. -1.
         22    1    5    5    0    0 -0.16517767276E+03 -0.29486019297E+03 -0.27502457299E+03  0.43573468157E+03  0.00000000000E+00 0. -1.
          5    1    4    4  502    0  0.59335289719E+02  0.12487765131E+03  0.18507739612E+02  0.13956980629E+03  0.47000000000E+01 0. -1.
         -5    1    4    4    0  502 -0.44373384023E+02  0.85201842043E+01 -0.10104615552E+01  0.45438989658E+02  0.47000000000E+01 0. -1.
<mgrwt>
<rscale>  0 0.99864589E+03</rscale>
<asrwt>0</asrwt>
<pdfrwt beam="1">  1        2 0.80838128E-01 0.99864589E+03</pdfrwt>
<pdfrwt beam="2">  1       -2 0.72999534E-01 0.99864589E+03</pdfrwt>
<totfact> 0.11906987E+02</totfact>
</mgrwt>
</event>
<event>
 9    1  0.4236486E-036  0.9996894E+03  0.7818608E-02  0.8681334E-01
         -2   -1    0    0    0  501 -0.00000000000E+00  0.00000000000E+00  0.28353258327E+03  0.28353258327E+03  0.00000000000E+00 0. -1.
          2   -1    0    0  501    0  0.00000000000E+00 -0.00000000000E+00 -0.88118519424E+03  0.88118519424E+03  0.00000000000E+00 0. -1.
         36    2    1    2    0    0  0.00000000000E+00  0.00000000000E+00 -0.59765261096E+03  0.11647177775E+04  0.99968938069E+03 0.  0.
         25    2    3    3    0    0 -0.92482890629E+02 -0.54638670789E+02 -0.94139637472E+01  0.16598449817E+03  0.12618938749E+03 0.  0.
         35    2    3    3    0    0  0.92482890629E+02  0.54638670789E+02 -0.58823864722E+03  0.99873327934E+03  0.79994061516E+03 0.  0.
         22    1    5    5    0    0  0.15262893007E+03  0.11191306982E+03 -0.77317563011E+03  0.79600294000E+03  0.00000000000E+00 0. -1.
         22    1    5    5    0    0 -0.60146039436E+02 -0.57274399032E+02  0.18493698290E+03  0.20273033934E+03  0.00000000000E+00 0. -1.
          5    1    4    4  502    0  0.14056511837E+02  0.20240047512E+02  0.20373686515E+02  0.32317520797E+02  0.47000000000E+01 0. -1.
         -5    1    4    4    0  502 -0.10653940247E+03 -0.74878718300E+02 -0.29787650262E+02  0.13366697737E+03  0.47000000000E+01 0. -1.
<mgrwt>
<rscale>  0 0.99968938E+03</rscale>
<asrwt>0</asrwt>
<pdfrwt beam="1">  1        2 0.13556695E+00 0.99968938E+03</pdfrwt>
<pdfrwt beam="2">  1       -2 0.43620397E-01 0.99968938E+03</pdfrwt>
<totfact> 0.18209673E+02</totfact>
</mgrwt>
</event>
<event>
 9    1  0.4236486E-036  0.1000448E+04  0.7818608E-02  0.8680611E-01
          1   -1    0    0  501    0  0.00000000000E+00  0.00000000000E+00  0.19795608217E+03  0.19795608217E+03  0.00000000000E+00 0.  1.
         -1   -1    0    0    0  501 -0.00000000000E+00 -0.00000000000E+00 -0.12640381720E+04  0.12640381720E+04  0.00000000000E+00 0.  1.
         36    2    1    2    0    0 -0.35527136788E-14  0.00000000000E+00 -0.10660820898E+04  0.14619942542E+04  0.10004479881E+04 0.  0.
         25    2    3    3    0    0 -0.27200119135E+02 -0.13517104269E+03 -0.26102541435E+03  0.31848279673E+03  0.11952392068E+03 0.  0.
         35    2    3    3    0    0  0.27200119135E+02  0.13517104269E+03 -0.80505667548E+03  0.11435114574E+04  0.80030690693E+03 0.  0.
         22    1    5    5    0    0  0.13512993503E+03  0.44433810061E+03 -0.34381021430E+03  0.57784246163E+03  0.00000000000E+00 0.  1.
         22    1    5    5    0    0 -0.10792981590E+03 -0.30916705793E+03 -0.46124646118E+03  0.56566899581E+03  0.00000000000E+00 0.  1.
          5    1    4    4  502    0 -0.25966390224E+02  0.16123956435E+02 -0.39176668273E+02  0.49911288596E+02  0.47000000000E+01 0. -1.
         -5    1    4    4    0  502 -0.12337289117E+01 -0.15129499912E+03 -0.22184874607E+03  0.26857150813E+03  0.47000000000E+01 0. -1.
<mgrwt>
<rscale>  0 0.10004480E+04</rscale>
<asrwt>0</asrwt>
<pdfrwt beam="1">  1        1 0.30454782E-01 0.10004480E+04</pdfrwt>
<pdfrwt beam="2">  1       -1 0.19446741E+00 0.10004480E+04</pdfrwt>
<totfact> 0.26151460E+01</totfact>
</mgrwt>
</event>
<event>
 9    1  0.4236486E-036  0.1001750E+04  0.7818608E-02  0.8679373E-01
         -1   -1    0    0    0  501 -0.00000000000E+00  0.00000000000E+00  0.79653309879E+02  0.79653309879E+02  0.00000000000E+00 0. -1.
          1   -1    0    0  501    0  0.00000000000E+00 -0.00000000000E+00 -0.31495963299E+04  0.31495963299E+04  0.00000000000E+00 0. -1.
         36    2    1    2    0    0 -0.40856207306E-13  0.00000000000E+00 -0.30699430200E+04  0.32292496398E+04  0.10017500136E+04 0.  0.
         25    2    3    3    0    0  0.94966672209E+01  0.38675637688E+02 -0.10190615861E+04  0.10274199954E+04  0.12457663922E+03 0.  0.
         35    2    3    3    0    0 -0.94966672209E+01 -0.38675637688E+02 -0.20508814339E+04  0.22018296444E+04  0.80022067909E+03 0.  0.
         22    1    5    5    0    0 -0.31383110791E+03 -0.24181207010E+03 -0.72273025554E+03  0.82419783051E+03  0.00000000000E+00 0. -1.
         22    1    5    5    0    0  0.30433444069E+03  0.20313643241E+03 -0.13281511784E+04  0.13776318139E+04  0.00000000000E+00 0. -1.
          5    1    4    4  502    0  0.34743162422E+01 -0.38880829939E+02 -0.15720605901E+03  0.16204821751E+03  0.47000000000E+01 0.  1.
         -5    1    4    4    0  502  0.60223509787E+01  0.77556467626E+02 -0.86185552709E+03  0.86537177788E+03  0.47000000000E+01 0.  1.
<mgrwt>
<rscale>  0 0.10017500E+04</rscale>
<asrwt>0</asrwt>
<pdfrwt beam="1">  1        1 0.48455319E+00 0.10017500E+04</pdfrwt>
<pdfrwt beam="2">  1       -1 0.12254358E-01 0.10017500E+04</pdfrwt>
<totfact> 0.21540027E+01</totfact>
</mgrwt>
</event>
<event>
 9    1  0.4236486E-036  0.9995486E+03  0.7818608E-02  0.8681468E-01
         -2   -1    0    0    0  501 -0.00000000000E+00  0.00000000000E+00  0.33328043239E+03  0.33328043239E+03  0.00000000000E+00 0.  1.
          2   -1    0    0  501    0  0.00000000000E+00 -0.00000000000E+00 -0.74944193450E+03  0.74944193450E+03  0.00000000000E+00 0.  1.
         36    2    1    2    0    0 -0.71054273576E-14  0.00000000000E+00 -0.41616150211E+03  0.10827223669E+04  0.99954856207E+03 0.  0.
         25    2    3    3    0    0 -0.24735691940E+02  0.13611552150E+03 -0.75801725528E+02  0.20142336946E+03  0.12524449099E+03 0.  0.
         35    2    3    3    0    0  0.24735691940E+02 -0.13611552150E+03 -0.34035977658E+03  0.88129899743E+03  0.80106420199E+03 0.  0.
         22    1    5    5    0    0  0.58788947905E+02  0.19783500522E+03  0.17207183797E+03  0.26870717726E+03  0.00000000000E+00 0.  1.
         22    1    5    5    0    0 -0.34053255965E+02 -0.33395052673E+03 -0.51243161455E+03  0.61259182017E+03  0.00000000000E+00 0.  1.
          5    1    4    4  502    0 -0.19001661942E+02  0.28464405875E+02  0.33293870609E+02  0.47977675835E+02  0.47000000000E+01 0.  1.
         -5    1    4    4    0  502 -0.57340299976E+01  0.10765111563E+03 -0.10909559614E+03  0.15344569363E+03  0.47000000000E+01 0.  1.
<mgrwt>
<rscale>  0 0.99954856E+03</rscale>
<asrwt>0</asrwt>
<pdfrwt beam="1">  1        2 0.11529876E+00 0.99954856E+03</pdfrwt>
<pdfrwt beam="2">  1       -2 0.51273912E-01 0.99954856E+03</pdfrwt>
<totfact> 0.16329491E+02</totfact>
</mgrwt>
</event>
<event>
 9    1  0.4236486E-036  0.1000178E+04  0.7818608E-02  0.8680869E-01
          1   -1    0    0  501    0  0.00000000000E+00  0.00000000000E+00  0.14796544950E+04  0.14796544950E+04  0.00000000000E+00 0.  1.
         -1   -1    0    0    0  501 -0.00000000000E+00 -0.00000000000E+00 -0.16901846756E+03  0.16901846756E+03  0.00000000000E+00 0.  1.
         36    2    1    2    0    0  0.35527136788E-14  0.00000000000E+00  0.13106360274E+04  0.16486729625E+04  0.10001778547E+04 0.  0.
         25    2    3    3    0    0 -0.56839545342E+01  0.13879619105E+03  0.19105114034E+03  0.26761586250E+03  0.12578164274E+03 0.  0.
         35    2    3    3    0    0  0.56839545342E+01 -0.13879619105E+03  0.11195848871E+04  0.13810571000E+04  0.79658753705E+03 0.  0.
         22    1    5    5    0    0  0.19816960676E+03 -0.38429363033E+03  0.90330825440E+03  0.10014582317E+04  0.00000000000E+00 0.  1.
         22    1    5    5    0    0 -0.19248565223E+03  0.24549743927E+03  0.21627663268E+03  0.37959886834E+03  0.00000000000E+00 0.  1.
          5    1    4    4  502    0 -0.73269772052E+01  0.10854233017E+03  0.44069923926E+02  0.11747072073E+03  0.47000000000E+01 0. -1.
         -5    1    4    4    0  502  0.16430226709E+01  0.30253860882E+02  0.14698121641E+03  0.15014514178E+03  0.47000000000E+01 0. -1.
<mgrwt>
<rscale>  0 0.10001779E+04</rscale>
<asrwt>0</asrwt>
<pdfrwt beam="1">  1        1 0.22763914E+00 0.10001779E+04</pdfrwt>
<pdfrwt beam="2">  1       -1 0.26002842E-01 0.10001779E+04</pdfrwt>
<totfact> 0.95640323E+01</totfact>
</mgrwt>
</event>
<event>
 9    1  0.4236486E-036  0.1000180E+04  0.7818608E-02  0.8680866E-01
          1   -1    0    0  501    0  0.00000000000E+00  0.00000000000E+00  0.56509299762E+03  0.56509299762E+03  0.00000000000E+00 0. -1.
         -1   -1    0    0    0  501 -0.00000000000E+00 -0.00000000000E+00 -0.44256472922E+03  0.44256472922E+03  0.00000000000E+00 0. -1.
         36    2    1    2    0    0  0.21316282073E-13 -0.14210854715E-13  0.12252826840E+03  0.10076577268E+04  0.10001804427E+04 0.  0.
         25    2    3    3    0    0 -0.27344025355E+02 -0.11916023123E+03  0.93482535562E+02  0.19865148030E+03  0.12560481576E+03 0.  0.
         35    2    3    3    0    0  0.27344025355E+02  0.11916023123E+03  0.29045732839E+02  0.80900624654E+03  0.79918745981E+03 0.  0.
         22    1    5    5    0    0  0.31397087175E+03  0.20929514947E+03  0.23518347033E+03  0.44462729630E+03  0.00000000000E+00 0.  1.
         22    1    5    5    0    0 -0.28662684639E+03 -0.90134918234E+02 -0.20613773749E+03  0.36437895024E+03  0.00000000000E+00 0.  1.
          5    1    4    4  502    0 -0.61754046547E+02 -0.29556032981E+02  0.63238050981E+01  0.68914453212E+02  0.47000000000E+01 0. -1.
         -5    1    4    4    0  502  0.34410021192E+02 -0.89604198251E+02  0.87158730464E+02  0.12973702709E+03  0.47000000000E+01 0. -1.
<mgrwt>
<rscale>  0 0.10001804E+04</rscale>
<asrwt>0</asrwt>
<pdfrwt beam="1">  1        1 0.86937385E-01 0.10001804E+04</pdfrwt>
<pdfrwt beam="2">  1       -1 0.68086881E-01 0.10001804E+04</pdfrwt>
<totfact> 0.95341267E+01</totfact>
</mgrwt>
</event>
<event>
 9    1  0.4236486E-036  0.1000275E+04  0.7818608E-02  0.8680776E-01
         -2   -1    0    0    0  501 -0.00000000000E+00  0.00000000000E+00  0.32528187172E+03  0.32528187172E+03  0.00000000000E+00 0.  1.
          2   -1    0    0  501    0  0.00000000000E+00 -0.00000000000E+00 -0.76898758798E+03  0.76898758798E+03  0.00000000000E+00 0.  1.
         36    2    1    2    0    0  0.00000000000E+00  0.28421709430E-13 -0.44370571626E+03  0.10942694597E+04  0.10002754060E+04 0.  0.
         25    2    3    3    0    0  0.70730012805E+02  0.90051874673E+02 -0.17087709630E+03  0.24075673001E+03  0.12511093542E+03 0.  0.
         35    2    3    3    0    0 -0.70730012805E+02 -0.90051874673E+02 -0.27282861996E+03  0.85351272970E+03  0.80058506671E+03 0.  0.
         22    1    5    5    0    0 -0.24101046337E+03 -0.32956535167E+03  0.56443416260E+02  0.41217135237E+03  0.00000000000E+00 0. -1.
         22    1    5    5    0    0  0.17028045056E+03  0.23951347700E+03 -0.32927203622E+03  0.44134137733E+03  0.00000000000E+00 0. -1.
          5    1    4    4  502    0  0.93255273281E+02  0.23775668584E+02 -0.75788562194E+02  0.12258802784E+03  0.47000000000E+01 0. -1.
         -5    1    4    4    0  502 -0.22525260476E+02  0.66276206089E+02 -0.95088534102E+02  0.11816870216E+03  0.47000000000E+01 0. -1.
<mgrwt>
<rscale>  0 0.10002754E+04</rscale>
<asrwt>0</asrwt>
<pdfrwt beam="1">  1        2 0.11830578E+00 0.10002754E+04</pdfrwt>
<pdfrwt beam="2">  1       -2 0.50043365E-01 0.10002754E+04</pdfrwt>
<totfact> 0.16595670E+02</totfact>
</mgrwt>
</event>
<event>
 9    1  0.4236486E-036  0.1000067E+04  0.7818608E-02  0.8680975E-01
         -3   -1    0    0    0  501 -0.00000000000E+00  0.00000000000E+00  0.23829083703E+03  0.23829083703E+03  0.00000000000E+00 0. -1.
          3   -1    0    0  501    0  0.00000000000E+00 -0.00000000000E+00 -0.10492777551E+04  0.10492777551E+04  0.00000000000E+00 0. -1.
         36    2    1    2    0    0 -0.14210854715E-13 -0.28421709430E-13 -0.81098691805E+03  0.12875685921E+04  0.10000665469E+04 0.  0.
         25    2    3    3    0    0  0.21392284779E+02  0.62280436780E+02 -0.31284536844E+03  0.34316411080E+03  0.12471126547E+03 0.  0.
         35    2    3    3    0    0 -0.21392284779E+02 -0.62280436780E+02 -0.49814154962E+03  0.94440448132E+03  0.79963637875E+03 0.  0.
         22    1    5    5    0    0  0.91328948600E+02 -0.37915980188E+03 -0.46431628562E+03  0.60637673546E+03  0.00000000000E+00 0. -1.
         22    1    5    5    0    0 -0.11272123338E+03  0.31687936510E+03 -0.33825263998E+02  0.33802774586E+03  0.00000000000E+00 0. -1.
          5    1    4    4  502    0  0.50783070415E+02  0.86733606066E+02 -0.19922224293E+03  0.22318877825E+03  0.47000000000E+01 0.  1.
         -5    1    4    4    0  502 -0.29390785636E+02 -0.24453169286E+02 -0.11362312551E+03  0.11997533255E+03  0.47000000000E+01 0.  1.
<mgrwt>
<rscale>  0 0.10000665E+04</rscale>
<asrwt>0</asrwt>
<pdfrwt beam="1">  1        3 0.16142735E+00 0.10000665E+04</pdfrwt>
<pdfrwt beam="2">  1       -3 0.36660128E-01 0.10000665E+04</pdfrwt>
<totfact> 0.81284673E+00</totfact>
</mgrwt>
</event>
<event>
 9    1  0.4236486E-036  0.9997019E+03  0.7818608E-02  0.8681322E-01
         -2   -1    0    0    0  501 -0.00000000000E+00  0.00000000000E+00  0.13478167009E+03  0.13478167009E+03  0.00000000000E+00 0. -1.
          2   -1    0    0  501    0  0.00000000000E+00 -0.00000000000E+00 -0.18537460511E+04  0.18537460511E+04  0.00000000000E+00 0. -1.
         36    2    1    2    0    0  0.14210854715E-13  0.56843418861E-13 -0.17189643810E+04  0.19885277212E+04  0.99970193296E+03 0.  0.
         25    2    3    3    0    0 -0.10813530560E+03 -0.76062302159E+02 -0.41193943717E+03  0.45050317742E+03  0.12561964354E+03 0.  0.
         35    2    3    3    0    0  0.10813530560E+03  0.76062302159E+02 -0.13070249438E+04  0.15380245437E+04  0.79982909130E+03 0.  0.
         22    1    5    5    0    0  0.32495392439E+03  0.28682378344E+03 -0.10679508105E+04  0.11525544974E+04  0.00000000000E+00 0.  1.
         22    1    5    5    0    0 -0.21681861879E+03 -0.21076148128E+03 -0.23907413329E+03  0.38547004637E+03  0.00000000000E+00 0.  1.
          5    1    4    4  502    0 -0.11381903040E+03 -0.10209656059E+03 -0.32033729392E+03  0.35498810014E+03  0.47000000000E+01 0. -1.
         -5    1    4    4    0  502  0.56837247960E+01  0.26034258435E+02 -0.91602143246E+02  0.95515077277E+02  0.47000000000E+01 0. -1.
<mgrwt>
<rscale>  0 0.99970193E+03</rscale>
<asrwt>0</asrwt>
<pdfrwt beam="1">  1        2 0.28519173E+00 0.99970193E+03</pdfrwt>
<pdfrwt beam="2">  1       -2 0.20735640E-01 0.99970193E+03</pdfrwt>
<totfact> 0.19060452E+02</totfact>
</mgrwt>
</event>
<event>
 9    1  0.4236486E-036  0.1000011E+04  0.7818608E-02  0.8681028E-01
         -2   -1    0    0    0  501 -0.00000000000E+00  0.00000000000E+00  0.12674566545E+03  0.12674566545E+03  0.00000000000E+00 0. -1.
          2   -1    0    0  501    0  0.00000000000E+00 -0.00000000000E+00 -0.19724971742E+04  0.19724971742E+04  0.00000000000E+00 0. -1.
         36    2    1    2    0    0  0.00000000000E+00  0.14210854715E-13 -0.18457515088E+04  0.20992428397E+04  0.10000109338E+04 0.  0.
         25    2    3    3    0    0  0.11917390027E+03 -0.42975839018E+02 -0.21518398701E+03  0.27844154078E+03  0.12319172911E+03 0.  0.
         35    2    3    3    0    0 -0.11917390027E+03  0.42975839018E+02 -0.16305675217E+04  0.18208012989E+04  0.80032342573E+03 0.  0.
         22    1    5    5    0    0 -0.18799035692E+03 -0.10824586645E+03 -0.38779976758E+02  0.22036657753E+03  0.00000000000E+00 0.  1.
         22    1    5    5    0    0  0.68816456646E+02  0.15122170546E+03 -0.15917875450E+04  0.16004347213E+04  0.00000000000E+00 0.  1.
          5    1    4    4  502    0  0.11254057175E+03 -0.43900633618E+02 -0.23095088724E+03  0.26067805477E+03  0.47000000000E+01 0.  1.
         -5    1    4    4    0  502  0.66333285177E+01  0.92479460050E+00  0.15766900231E+02  0.17763486008E+02  0.47000000000E+01 0.  1.
<mgrwt>
<rscale>  0 0.10000109E+04</rscale>
<asrwt>0</asrwt>
<pdfrwt beam="1">  1        2 0.30346110E+00 0.10000109E+04</pdfrwt>
<pdfrwt beam="2">  1       -2 0.19499333E-01 0.10000109E+04</pdfrwt>
<totfact> 0.18156590E+02</totfact>
</mgrwt>
</event>
<event>
 9    1  0.4236486E-036  0.1000496E+04  0.7818608E-02  0.8680565E-01
         -1   -1    0    0    0  501 -0.00000000000E+00  0.00000000000E+00  0.30855793513E+03  0.30855793513E+03  0.00000000000E+00 0. -1.
          1   -1    0    0  501    0  0.00000000000E+00 -0.00000000000E+00 -0.81102509331E+03  0.81102509331E+03  0.00000000000E+00 0. -1.
         36    2    1    2    0    0  0.28421709430E-13 -0.28421709430E-13 -0.50246715818E+03  0.11195830284E+04  0.10004963331E+04 0.  0.
         25    2    3    3    0    0  0.34991098663E+02 -0.13219759967E+03 -0.56119426240E+02  0.19340174439E+03  0.12471672859E+03 0.  0.
         35    2    3    3    0    0 -0.34991098663E+02  0.13219759967E+03 -0.44634773194E+03  0.92618128405E+03  0.79992805350E+03 0.  0.
         22    1    5    5    0    0  0.25143695914E+03  0.27956718087E+03 -0.47151971241E+03  0.60308307242E+03  0.00000000000E+00 0. -1.
         22    1    5    5    0    0 -0.28642805780E+03 -0.14736958120E+03  0.25171980476E+02  0.32309821163E+03  0.00000000000E+00 0. -1.
          5    1    4    4  502    0  0.41905523954E+02 -0.81895349823E+02  0.26909735637E+02  0.95964290924E+02  0.47000000000E+01 0.  1.
         -5    1    4    4    0  502 -0.69144252907E+01 -0.50302249846E+02 -0.83029161877E+02  0.97437453470E+02  0.47000000000E+01 0.  1.
<mgrwt>
<rscale>  0 0.10004963E+04</rscale>
<asrwt>0</asrwt>
<pdfrwt beam="1">  1        1 0.12477309E+00 0.10004963E+04</pdfrwt>
<pdfrwt beam="2">  1       -1 0.47470452E-01 0.10004963E+04</pdfrwt>
<totfact> 0.10898029E+02</totfact>
</mgrwt>
</event>
<event>
 9    1  0.4236486E-036  0.9980232E+03  0.7818608E-02  0.8682923E-01
         -1   -1    0    0    0  501 -0.00000000000E+00  0.00000000000E+00  0.32299690539E+03  0.32299690539E+03  0.00000000000E+00 0. -1.
          1   -1    0    0  501    0  0.00000000000E+00 -0.00000000000E+00 -0.77094418880E+03  0.77094418880E+03  0.00000000000E+00 0. -1.
         36    2    1    2    0    0 -0.71054273576E-14  0.00000000000E+00 -0.44794728341E+03  0.10939410942E+04  0.99802322059E+03 0.  0.
         25    2    3    3    0    0 -0.26656481896E+01  0.79699713314E+02 -0.21236286176E+03  0.25916708481E+03  0.12534130529E+03 0.  0.
         35    2    3    3    0    0  0.26656481896E+01 -0.79699713314E+02 -0.23558442166E+03  0.83477400938E+03  0.79686164234E+03 0.  0.
         22    1    5    5    0    0 -0.27798140746E+03 -0.23199714887E+03 -0.34214374704E+03  0.49815528063E+03  0.00000000000E+00 0.  1.
         22    1    5    5    0    0  0.28064705565E+03  0.15229743556E+03  0.10655932539E+03  0.33661872875E+03  0.00000000000E+00 0.  1.
          5    1    4    4  502    0 -0.26777265345E+02 -0.27439605127E+02 -0.56669125421E+02  0.68581583861E+02  0.47000000000E+01 0.  1.
         -5    1    4    4    0  502  0.24111617156E+02  0.10713931844E+03 -0.15569373633E+03  0.19058550095E+03  0.47000000000E+01 0.  1.
<mgrwt>
<rscale>  0 0.99802322E+03</rscale>
<asrwt>0</asrwt>
<pdfrwt beam="1">  1        1 0.11860680E+00 0.99802322E+03</pdfrwt>
<pdfrwt beam="2">  1       -1 0.49691832E-01 0.99802322E+03</pdfrwt>
<totfact> 0.10877971E+02</totfact>
</mgrwt>
</event>
<event>
 9    1  0.4236486E-036  0.9997855E+03  0.7818608E-02  0.8681242E-01
          1   -1    0    0  501    0  0.00000000000E+00  0.00000000000E+00  0.15876462872E+03  0.15876462872E+03  0.00000000000E+00 0. -1.
         -1   -1    0    0    0  501 -0.00000000000E+00 -0.00000000000E+00 -0.15739825831E+04  0.15739825831E+04  0.00000000000E+00 0. -1.
         36    2    1    2    0    0  0.00000000000E+00  0.00000000000E+00 -0.14152179544E+04  0.17327472118E+04  0.99978549785E+03 0.  0.
         25    2    3    3    0    0 -0.27279596057E+02 -0.13507439598E+03 -0.24864821648E+03  0.31023531840E+03  0.12422056358E+03 0.  0.
         35    2    3    3    0    0  0.27279596057E+02  0.13507439598E+03 -0.11665697379E+04  0.14225118934E+04  0.80228789393E+03 0.  0.
         22    1    5    5    0    0 -0.23385835341E+03  0.27825197147E+03 -0.20808039520E+03  0.41882136998E+03  0.00000000000E+00 0. -1.
         22    1    5    5    0    0  0.26113794947E+03 -0.14317757550E+03 -0.95848934271E+03  0.10036905235E+04  0.00000000000E+00 0. -1.
          5    1    4    4  502    0  0.43351039284E+02 -0.17594720287E+02 -0.48049483061E+02  0.67228934332E+02  0.47000000000E+01 0. -1.
         -5    1    4    4    0  502 -0.70630635342E+02 -0.11747967569E+03 -0.20059873342E+03  0.24300638407E+03  0.47000000000E+01 0. -1.
<mgrwt>
<rscale>  0 0.99978550E+03</rscale>
<asrwt>0</asrwt>
<pdfrwt beam="1">  1        1 0.24425329E-01 0.99978550E+03</pdfrwt>
<pdfrwt beam="2">  1       -1 0.24215116E+00 0.99978550E+03</pdfrwt>
<totfact> 0.13371419E+01</totfact>
</mgrwt>
</event>
<event>
 9    1  0.4236486E-036  0.9993703E+03  0.7818608E-02  0.8681638E-01
          2   -1    0    0  501    0  0.00000000000E+00  0.00000000000E+00  0.28448763767E+04  0.28448763767E+04  0.00000000000E+00 0.  1.
         -2   -1    0    0    0  501 -0.00000000000E+00 -0.00000000000E+00 -0.87766639910E+02  0.87766639910E+02  0.00000000000E+00 0.  1.
         36    2    1    2    0    0 -0.28421709430E-13  0.00000000000E+00  0.27571097368E+04  0.29326430166E+04  0.99937028282E+03 0.  0.
         25    2    3    3    0    0 -0.13610226738E+03  0.30035081150E+02  0.43220228848E+03  0.47081492776E+03  0.12426562172E+03 0.  0.
         35    2    3    3    0    0  0.13610226738E+03 -0.30035081150E+02  0.23249074483E+04  0.24618280889E+04  0.79748163779E+03 0.  0.
         22    1    5    5    0    0  0.38707044338E+03 -0.26084472434E+03  0.14247039453E+04  0.14992147379E+04  0.00000000000E+00 0. -1.
         22    1    5    5    0    0 -0.25096817600E+03  0.23080964319E+03  0.90020350300E+03  0.96261335103E+03  0.00000000000E+00 0. -1.
          5    1    4    4  502    0 -0.10175097046E+02 -0.29596269975E+02  0.24761484339E+02  0.40183241569E+02  0.47000000000E+01 0.  1.
         -5    1    4    4    0  502 -0.12592717033E+03  0.59631351125E+02  0.40744080415E+03  0.43063168619E+03  0.47000000000E+01 0.  1.
<mgrwt>
<rscale>  0 0.99937028E+03</rscale>
<asrwt>0</asrwt>
<pdfrwt beam="1">  1        2 0.43767322E+00 0.99937028E+03</pdfrwt>
<pdfrwt beam="2">  1       -2 0.13502562E-01 0.99937028E+03</pdfrwt>
<totfact> 0.10086300E+02</totfact>
</mgrwt>
</event>
<event>
 9    1  0.4236486E-036  0.9992704E+03  0.7818608E-02  0.8681733E-01
          2   -1    0    0  501    0  0.00000000000E+00  0.00000000000E+00  0.10808856825E+04  0.10808856825E+04  0.00000000000E+00 0. -1.
         -2   -1    0    0    0  501 -0.00000000000E+00 -0.00000000000E+00 -0.23095442300E+03  0.23095442300E+03  0.00000000000E+00 0. -1.
         36    2    1    2    0    0  0.28421709430E-13  0.00000000000E+00  0.84993125953E+03  0.13118401055E+04  0.99927039210E+03 0.  0.
         25    2    3    3    0    0  0.11322640592E+03  0.32227252099E+02  0.23474017600E+03  0.29464341740E+03  0.13361503811E+03 0.  0.
         35    2    3    3    0    0 -0.11322640592E+03 -0.32227252099E+02  0.61519108352E+03  0.10171966881E+04  0.80148001741E+03 0.  0.
         22    1    5    5    0    0  0.28164203437E+03 -0.12357974935E+03  0.35119625111E+02  0.30956029791E+03  0.00000000000E+00 0. -1.
         22    1    5    5    0    0 -0.39486844029E+03  0.91352497247E+02  0.58007145841E+03  0.70763639022E+03  0.00000000000E+00 0. -1.
          5    1    4    4  502    0  0.54967136942E+02 -0.22664485533E+02  0.19736053483E+03  0.20617549747E+03  0.47000000000E+01 0. -1.
         -5    1    4    4    0  502  0.58259268982E+02  0.54891737633E+02  0.37379641175E+02  0.88467919931E+02  0.47000000000E+01 0. -1.
<mgrwt>
<rscale>  0 0.99927039E+03</rscale>
<asrwt>0</asrwt>
<pdfrwt beam="1">  1        2 0.16629010E+00 0.99927039E+03</pdfrwt>
<pdfrwt beam="2">  1       -2 0.35531450E-01 0.99927039E+03</pdfrwt>
<totfact> 0.20113926E+02</totfact>
</mgrwt>
</event>
<event>
 9    1  0.4236486E-036  0.1000658E+04  0.7818608E-02  0.8680412E-01
         -1   -1    0    0    0  501 -0.00000000000E+00  0.00000000000E+00  0.36792891564E+03  0.36792891564E+03  0.00000000000E+00 0. -1.
          1   -1    0    0  501    0  0.00000000000E+00 -0.00000000000E+00 -0.68037360377E+03  0.68037360377E+03  0.00000000000E+00 0. -1.
         36    2    1    2    0    0  0.56843418861E-13 -0.28421709430E-13 -0.31244468813E+03  0.10483025194E+04  0.10006580280E+04 0.  0.
         25    2    3    3    0    0  0.12018776870E+03 -0.76124326872E+02 -0.64512444654E+02  0.19959592420E+03  0.12424437435E+03 0.  0.
         35    2    3    3    0    0 -0.12018776870E+03  0.76124326872E+02 -0.24793224348E+03  0.84870659521E+03  0.79911981236E+03 0.  0.
         22    1    5    5    0    0  0.21676734894E+03 -0.59052094012E+02 -0.39705935087E+03  0.45621416187E+03  0.00000000000E+00 0.  1.
         22    1    5    5    0    0 -0.33695511764E+03  0.13517642088E+03  0.14912710740E+03  0.39249243334E+03  0.00000000000E+00 0.  1.
          5    1    4    4  502    0  0.47635673906E+02  0.14172588830E+02 -0.67106368572E+02  0.83638354872E+02  0.47000000000E+01 0.  1.
         -5    1    4    4    0  502  0.72552094793E+02 -0.90296915702E+02  0.25939239179E+01  0.11595756933E+03  0.47000000000E+01 0.  1.
<mgrwt>
<rscale>  0 0.10006580E+04</rscale>
<asrwt>0</asrwt>
<pdfrwt beam="1">  1        1 0.10467286E+00 0.10006580E+04</pdfrwt>
<pdfrwt beam="2">  1       -1 0.56604449E-01 0.10006580E+04</pdfrwt>
<totfact> 0.10356405E+02</totfact>
</mgrwt>
</event>
<event>
 9    1  0.4236486E-036  0.9996494E+03  0.7818608E-02  0.8681372E-01
          2   -1    0    0  501    0  0.00000000000E+00  0.00000000000E+00  0.31074391906E+03  0.31074391906E+03  0.00000000000E+00 0. -1.
         -2   -1    0    0    0  501 -0.00000000000E+00 -0.00000000000E+00 -0.80395699370E+03  0.80395699370E+03  0.00000000000E+00 0. -1.
         36    2    1    2    0    0  0.00000000000E+00  0.00000000000E+00 -0.49321307464E+03  0.11147009128E+04  0.99964943251E+03 0.  0.
         25    2    3    3    0    0 -0.89231859114E+02  0.19670714968E+02  0.25611263022E+02  0.15662109680E+03  0.12459923540E+03 0.  0.
         35    2    3    3    0    0  0.89231859114E+02 -0.19670714968E+02 -0.51882433766E+03  0.95807981596E+03  0.80024307476E+03 0.  0.
         22    1    5    5    0    0 -0.20316155158E+03 -0.23966774635E+03  0.10764518539E+02  0.31437417124E+03  0.00000000000E+00 0.  1.
         22    1    5    5    0    0  0.29239341070E+03  0.21999703138E+03 -0.52958885620E+03  0.64370564472E+03  0.00000000000E+00 0.  1.
          5    1    4    4  502    0 -0.62838063347E+02  0.69508489992E+02  0.33206246770E+02  0.99522847681E+02  0.47000000000E+01 0.  1.
         -5    1    4    4    0  502 -0.26393795767E+02 -0.49837775024E+02 -0.75949837476E+01  0.57098249119E+02  0.47000000000E+01 0.  1.
<mgrwt>
<rscale>  0 0.99964943E+03</rscale>
<asrwt>0</asrwt>
<pdfrwt beam="1">  1        2 0.47806758E-01 0.99964943E+03</pdfrwt>
<pdfrwt beam="2">  1       -2 0.12368569E+00 0.99964943E+03</pdfrwt>
<totfact> 0.60387792E+01</totfact>
</mgrwt>
</event>
<event>
 9    1  0.4236486E-036  0.9877931E+03  0.7818608E-02  0.8692750E-01
         -1   -1    0    0    0  501 -0.00000000000E+00  0.00000000000E+00  0.55009260129E+03  0.55009260129E+03  0.00000000000E+00 0.  1.
          1   -1    0    0  501    0  0.00000000000E+00 -0.00000000000E+00 -0.44344132570E+03  0.44344132570E+03  0.00000000000E+00 0.  1.
         36    2    1    2    0    0  0.35527136788E-14 -0.21316282073E-13  0.10665127559E+03  0.99353392699E+03  0.98779308030E+03 0.  0.
         25    2    3    3    0    0  0.97141733261E+01  0.44918606134E+02 -0.99772599106E+02  0.16601884317E+03  0.12448147821E+03 0.  0.
         35    2    3    3    0    0 -0.97141733261E+01 -0.44918606134E+02  0.20642387470E+03  0.82751508381E+03  0.80003646889E+03 0.  0.
         22    1    5    5    0    0 -0.31686159037E+02 -0.27777246460E+03 -0.21016609985E+03  0.34975898029E+03  0.00000000000E+00 0. -1.
         22    1    5    5    0    0  0.21971985711E+02  0.23285385847E+03  0.41658997455E+03  0.47775610352E+03  0.00000000000E+00 0. -1.
          5    1    4    4  502    0  0.51413945075E+02 -0.19926369172E+02 -0.45066975240E+02  0.71369294475E+02  0.47000000000E+01 0. -1.
         -5    1    4    4    0  502 -0.41699771749E+02  0.64844975306E+02 -0.54705623866E+02  0.94649548700E+02  0.47000000000E+01 0. -1.
<mgrwt>
<rscale>  0 0.98779308E+03</rscale>
<asrwt>0</asrwt>
<pdfrwt beam="1">  1        1 0.68221743E-01 0.98779308E+03</pdfrwt>
<pdfrwt beam="2">  1       -1 0.84629631E-01 0.98779308E+03</pdfrwt>
<totfact> 0.85729878E+01</totfact>
</mgrwt>
</event>
<event>
 9    1  0.4236486E-036  0.9996637E+03  0.7818608E-02  0.8681358E-01
          1   -1    0    0  501    0  0.00000000000E+00  0.00000000000E+00  0.42551086919E+03  0.42551086919E+03  0.00000000000E+00 0.  1.
         -1   -1    0    0    0  501 -0.00000000000E+00 -0.00000000000E+00 -0.58713400056E+03  0.58713400056E+03  0.00000000000E+00 0.  1.
         36    2    1    2    0    0  0.00000000000E+00 -0.21316282073E-13 -0.16162313137E+03  0.10126448698E+04  0.99966374129E+03 0.  0.
         25    2    3    3    0    0  0.87782177002E+02  0.24838821234E+02  0.66537654362E+02  0.16849437750E+03  0.12506165744E+03 0.  0.
         35    2    3    3    0    0 -0.87782177002E+02 -0.24838821234E+02 -0.22816078573E+03  0.84415049225E+03  0.80759521531E+03 0.  0.
         22    1    5    5    0    0 -0.14978227295E+02  0.34961693265E+03 -0.29399437399E+03  0.45704380405E+03  0.00000000000E+00 0.  1.
         22    1    5    5    0    0 -0.72803949707E+02 -0.37445575388E+03  0.65833588257E+02  0.38710668820E+03  0.00000000000E+00 0.  1.
          5    1    4    4  502    0  0.68858027163E+02 -0.95386312731E+01 -0.20731244158E+02  0.72693107484E+02  0.47000000000E+01 0. -1.
         -5    1    4    4    0  502  0.18924149839E+02  0.34377452507E+02  0.87268898520E+02  0.95801270017E+02  0.47000000000E+01 0. -1.
<mgrwt>
<rscale>  0 0.99966374E+03</rscale>
<asrwt>0</asrwt>
<pdfrwt beam="1">  1        1 0.65463210E-01 0.99966374E+03</pdfrwt>
<pdfrwt beam="2">  1       -1 0.90328308E-01 0.99966374E+03</pdfrwt>
<totfact> 0.78781370E+01</totfact>
</mgrwt>
</event>
<event>
 9    1  0.4236486E-036  0.1001218E+04  0.7818608E-02  0.8679879E-01
          2   -1    0    0  501    0  0.00000000000E+00  0.00000000000E+00  0.48428675898E+03  0.48428675898E+03  0.00000000000E+00 0.  1.
         -2   -1    0    0    0  501 -0.00000000000E+00 -0.00000000000E+00 -0.51748167749E+03  0.51748167749E+03  0.00000000000E+00 0.  1.
         36    2    1    2    0    0  0.24868995752E-13  0.00000000000E+00 -0.33194918505E+02  0.10017684365E+04  0.10012183067E+04 0.  0.
         25    2    3    3    0    0  0.21681659469E+02  0.13371604253E+03  0.36902360088E+02  0.18752957968E+03  0.12432008964E+03 0.  0.
         35    2    3    3    0    0 -0.21681659469E+02 -0.13371604253E+03 -0.70097278593E+02  0.81423885678E+03  0.79982573917E+03 0.  0.
         22    1    5    5    0    0 -0.40591194059E+03 -0.13225910485E+03 -0.42126876141E+02  0.42898910012E+03  0.00000000000E+00 0. -1.
         22    1    5    5    0    0  0.38423028112E+03 -0.14569376878E+01 -0.27970402452E+02  0.38524975666E+03  0.00000000000E+00 0. -1.
          5    1    4    4  502    0 -0.65764338643E+01  0.88449506946E+02 -0.37031238983E+02  0.96228724516E+02  0.47000000000E+01 0. -1.
         -5    1    4    4    0  502  0.28258093334E+02  0.45266535587E+02  0.73933599071E+02  0.91300855168E+02  0.47000000000E+01 0. -1.
<mgrwt>
<rscale>  0 0.10012183E+04</rscale>
<asrwt>0</asrwt>
<pdfrwt beam="1">  1        2 0.74505655E-01 0.10012183E+04</pdfrwt>
<pdfrwt beam="2">  1       -2 0.79612566E-01 0.10012183E+04</pdfrwt>
<totfact> 0.10762373E+02</totfact>
</mgrwt>
</event>
<event>
 9    1  0.4236486E-036  0.1001365E+04  0.7818608E-02  0.8679739E-01
          1   -1    0    0  501    0  0.00000000000E+00  0.00000000000E+00  0.48731807117E+03  0.48731807117E+03  0.00000000000E+00 0. -1.
         -1   -1    0    0    0  501 -0.00000000000E+00 -0.00000000000E+00 -0.51441338395E+03  0.51441338395E+03  0.00000000000E+00 0. -1.
         36    2    1    2    0    0  0.00000000000E+00  0.00000000000E+00 -0.27095312782E+02  0.10017314551E+04  0.10013649446E+04 0.  0.
         25    2    3    3    0    0  0.50972773756E+02 -0.55508098139E+02  0.11592704194E+03  0.18655266024E+03  0.12523355527E+03 0.  0.
         35    2    3    3    0    0 -0.50972773756E+02  0.55508098139E+02 -0.14302235472E+03  0.81517879489E+03  0.79898792297E+03 0.  0.
         22    1    5    5    0    0  0.17291340612E+03  0.30574008208E+03 -0.28332512671E+03  0.45127505053E+03  0.00000000000E+00 0. -1.
         22    1    5    5    0    0 -0.22388617988E+03 -0.25023198394E+03  0.14030277198E+03  0.36390374435E+03  0.00000000000E+00 0. -1.
          5    1    4    4  502    0  0.31980423619E+02 -0.18833456798E+02  0.13552755062E+03  0.14059606526E+03  0.47000000000E+01 0. -1.
         -5    1    4    4    0  502  0.18992350138E+02 -0.36674641340E+02 -0.19600508682E+02  0.45956594976E+02  0.47000000000E+01 0. -1.
<mgrwt>
<rscale>  0 0.10013649E+04</rscale>
<asrwt>0</asrwt>
<pdfrwt beam="1">  1        1 0.74972011E-01 0.10013649E+04</pdfrwt>
<pdfrwt beam="2">  1       -1 0.79140521E-01 0.10013649E+04</pdfrwt>
<totfact> 0.86650353E+01</totfact>
</mgrwt>
</event>
<event>
 9    1  0.4236486E-036  0.9998473E+03  0.7818608E-02  0.8681183E-01
          2   -1    0    0  501    0  0.00000000000E+00  0.00000000000E+00  0.17431021464E+04  0.17431021464E+04  0.00000000000E+00 0. -1.
         -2   -1    0    0    0  501 -0.00000000000E+00 -0.00000000000E+00 -0.14337865758E+03  0.14337865758E+03  0.00000000000E+00 0. -1.
         36    2    1    2    0    0  0.14210854715E-13  0.14210854715E-13  0.15997234888E+04  0.18864808040E+04  0.99984727988E+03 0.  0.
         25    2    3    3    0    0  0.96287532953E+02  0.85070059647E+02  0.39985479075E+03  0.43814220106E+03  0.12480597187E+03 0.  0.
         35    2    3    3    0    0 -0.96287532953E+02 -0.85070059647E+02  0.11998686981E+04  0.14483386029E+04  0.80093171497E+03 0.  0.
         22    1    5    5    0    0 -0.43929788981E+03  0.54849182788E+01  0.51415726996E+03  0.67629166679E+03  0.00000000000E+00 0. -1.
         22    1    5    5    0    0  0.34301035686E+03 -0.90554977926E+02  0.68571142811E+03  0.77204693613E+03  0.00000000000E+00 0. -1.
          5    1    4    4  502    0 -0.23796432909E+02  0.46920562855E+02  0.12808281104E+03  0.13854640349E+03  0.47000000000E+01 0. -1.
         -5    1    4    4    0  502  0.12008396586E+03  0.38149496792E+02  0.27177197972E+03  0.29959579757E+03  0.47000000000E+01 0. -1.
<mgrwt>
<rscale>  0 0.99984728E+03</rscale>
<asrwt>0</asrwt>
<pdfrwt beam="1">  1        2 0.26816955E+00 0.99984728E+03</pdfrwt>
<pdfrwt beam="2">  1       -2 0.22058256E-01 0.99984728E+03</pdfrwt>
<totfact> 0.19759003E+02</totfact>
</mgrwt>
</event>
<event>
 9    1  0.4236486E-036  0.9999990E+03  0.7818608E-02  0.8681039E-01
          1   -1    0    0  501    0  0.00000000000E+00  0.00000000000E+00  0.38762770674E+03  0.38762770674E+03  0.00000000000E+00 0.  1.
         -1   -1    0    0    0  501 -0.00000000000E+00 -0.00000000000E+00 -0.64494746665E+03  0.64494746665E+03  0.00000000000E+00 0.  1.
         36    2    1    2    0    0  0.00000000000E+00 -0.14210854715E-13 -0.25731975992E+03  0.10325751734E+04  0.99999901493E+03 0.  0.
         25    2    3    3    0    0  0.65474703716E+02 -0.13501220386E+02 -0.17241210726E+03  0.22544126437E+03  0.12895196459E+03 0.  0.
         35    2    3    3    0    0 -0.65474703716E+02  0.13501220386E+02 -0.84907652659E+02  0.80713390902E+03  0.79986662503E+03 0.  0.
         22    1    5    5    0    0  0.62839510121E+02  0.13114416225E+03 -0.41183058202E+03  0.43675167270E+03  0.00000000000E+00 0.  1.
         22    1    5    5    0    0 -0.12831421384E+03 -0.11764294186E+03  0.32692292936E+03  0.37038223632E+03  0.00000000000E+00 0.  1.
          5    1    4    4  502    0  0.84140013252E+02  0.27287167281E+01 -0.18031384445E+03  0.19905315929E+03  0.47000000000E+01 0. -1.
         -5    1    4    4    0  502 -0.18665309536E+02 -0.16229937114E+02  0.79017371877E+01  0.26388105074E+02  0.47000000000E+01 0. -1.
<mgrwt>
<rscale>  0 0.99999901E+03</rscale>
<asrwt>0</asrwt>
<pdfrwt beam="1">  1        1 0.59635032E-01 0.99999901E+03</pdfrwt>
<pdfrwt beam="2">  1       -1 0.99222687E-01 0.99999901E+03</pdfrwt>
<totfact> 0.72696414E+01</totfact>
</mgrwt>
</event>
<event>
 9    1  0.4236486E-036  0.1000622E+04  0.7818608E-02  0.8680445E-01
         -1   -1    0    0    0  501 -0.00000000000E+00  0.00000000000E+00  0.16249451493E+03  0.16249451493E+03  0.00000000000E+00 0. -1.
          1   -1    0    0  501    0  0.00000000000E+00 -0.00000000000E+00 -0.15404292076E+04  0.15404292076E+04  0.00000000000E+00 0. -1.
         36    2    1    2    0    0  0.14210854715E-13  0.24868995752E-13 -0.13779346927E+04  0.17029237226E+04  0.10006224001E+04 0.  0.
         25    2    3    3    0    0 -0.77211496517E+02  0.24477966590E+02 -0.45412562127E+03  0.47796386416E+03  0.12513428586E+03 0.  0.
         35    2    3    3    0    0  0.77211496517E+02 -0.24477966590E+02 -0.92380907144E+03  0.12249598584E+04  0.80033909576E+03 0.  0.
         22    1    5    5    0    0 -0.18077170067E+03  0.23911220157E+03 -0.76826771598E+03  0.82467468502E+03  0.00000000000E+00 0.  1.
         22    1    5    5    0    0  0.25798319718E+03 -0.26359016815E+03 -0.15554135546E+03  0.40028517339E+03  0.00000000000E+00 0.  1.
          5    1    4    4  502    0  0.26671796377E+02 -0.22255027693E+02 -0.10697958114E+03  0.11257615983E+03  0.47000000000E+01 0. -1.
         -5    1    4    4    0  502 -0.10388329289E+03  0.46732994282E+02 -0.34714604013E+03  0.36538770433E+03  0.47000000000E+01 0. -1.
<mgrwt>
<rscale>  0 0.10006224E+04</rscale>
<asrwt>0</asrwt>
<pdfrwt beam="1">  1        1 0.23698912E+00 0.10006224E+04</pdfrwt>
<pdfrwt beam="2">  1       -1 0.24999155E-01 0.10006224E+04</pdfrwt>
<totfact> 0.92499599E+01</totfact>
</mgrwt>
</event>
<event>
 9    1  0.4236486E-036  0.9997857E+03  0.7818608E-02  0.8681242E-01
         -1   -1    0    0    0  501 -0.00000000000E+00  0.00000000000E+00  0.28564286518E+03  0.28564286518E+03  0.00000000000E+00 0. -1.
          1   -1    0    0  501    0  0.00000000000E+00 -0.00000000000E+00 -0.87484368256E+03  0.87484368256E+03  0.00000000000E+00 0. -1.
         36    2    1    2    0    0 -0.28421709430E-13  0.00000000000E+00 -0.58920081738E+03  0.11604865477E+04  0.99978568918E+03 0.  0.
         25    2    3    3    0    0  0.39833134475E+02  0.13485846021E+03 -0.10017041078E+03  0.21261910731E+03  0.12409387860E+03 0.  0.
         35    2    3    3    0    0 -0.39833134475E+02 -0.13485846021E+03 -0.48903040660E+03  0.94786744043E+03  0.79970523517E+03 0.  0.
         22    1    5    5    0    0  0.29133452724E+03 -0.30320241847E+03 -0.36322790597E+03  0.55564559299E+03  0.00000000000E+00 0.  1.
         22    1    5    5    0    0 -0.33116766172E+03  0.16834395825E+03 -0.12580250063E+03  0.39222184744E+03  0.00000000000E+00 0.  1.
          5    1    4    4  502    0 -0.54525366083E+01  0.54570657098E+02  0.22192728488E+02  0.59348917170E+02  0.47000000000E+01 0. -1.
         -5    1    4    4    0  502  0.45285671084E+02  0.80287803115E+02 -0.12236313926E+03  0.15327019014E+03  0.47000000000E+01 0. -1.
<mgrwt>
<rscale>  0 0.99978569E+03</rscale>
<asrwt>0</asrwt>
<pdfrwt beam="1">  1        1 0.13459133E+00 0.99978569E+03</pdfrwt>
<pdfrwt beam="2">  1       -1 0.43945057E-01 0.99978569E+03</pdfrwt>
<totfact> 0.11052432E+02</totfact>
</mgrwt>
</event>
<event>
 9    1  0.4236486E-036  0.9999515E+03  0.7818608E-02  0.8681084E-01
          2   -1    0    0  501    0  0.00000000000E+00  0.00000000000E+00  0.96904939312E+03  0.96904939312E+03  0.00000000000E+00 0. -1.
         -2   -1    0    0    0  501 -0.00000000000E+00 -0.00000000000E+00 -0.25795975897E+03  0.25795975897E+03  0.00000000000E+00 0. -1.
         36    2    1    2    0    0 -0.71054273576E-14  0.00000000000E+00  0.71108963415E+03  0.12270091521E+04  0.99995149459E+03 0.  0.
         25    2    3    3    0    0  0.11091822663E+02  0.13881074952E+03  0.11722020662E+03  0.22117458071E+03  0.12564300855E+03 0.  0.
         35    2    3    3    0    0 -0.11091822663E+02 -0.13881074952E+03  0.59386942753E+03  0.10058345714E+04  0.79976923880E+03 0.  0.
         22    1    5    5    0    0 -0.33551171988E+03 -0.70000972032E+02  0.58025659846E+03  0.67391837066E+03  0.00000000000E+00 0. -1.
         22    1    5    5    0    0  0.32441989722E+03 -0.68809777491E+02  0.13612829067E+02  0.33191620072E+03  0.00000000000E+00 0. -1.
          5    1    4    4  502    0 -0.38859897142E+02  0.61120361006E+02  0.92100843878E+00  0.72586006860E+02  0.47000000000E+01 0.  1.
         -5    1    4    4    0  502  0.49951719805E+02  0.77690388517E+02  0.11629919818E+03  0.14858857384E+03  0.47000000000E+01 0.  1.
<mgrwt>
<rscale>  0 0.99995149E+03</rscale>
<asrwt>0</asrwt>
<pdfrwt beam="1">  1        2 0.14908452E+00 0.99995149E+03</pdfrwt>
<pdfrwt beam="2">  1       -2 0.39686117E-01 0.99995149E+03</pdfrwt>
<totfact> 0.19156586E+02</totfact>
</mgrwt>
</event>
<event>
 9    1  0.4236486E-036  0.1000269E+04  0.7818608E-02  0.8680782E-01
         -2   -1    0    0    0  501 -0.00000000000E+00  0.00000000000E+00  0.91375182855E+02  0.91375182855E+02  0.00000000000E+00 0. -1.
          2   -1    0    0  501    0  0.00000000000E+00 -0.00000000000E+00 -0.27374457257E+04  0.27374457257E+04  0.00000000000E+00 0. -1.
         36    2    1    2    0    0  0.71054273576E-14  0.00000000000E+00 -0.26460705429E+04  0.28288209086E+04  0.10002691713E+04 0.  0.
         25    2    3    3    0    0  0.40635043731E+02  0.20376990412E+02 -0.12712988810E+03  0.18572102954E+03  0.12752985473E+03 0.  0.
         35    2    3    3    0    0 -0.40635043731E+02 -0.20376990412E+02 -0.25189406548E+04  0.26430998791E+04  0.79928000088E+03 0.  0.
         22    1    5    5    0    0 -0.23486836874E+03 -0.10285566831E+03 -0.22997674418E+03  0.34442958932E+03  0.00000000000E+00 0. -1.
         22    1    5    5    0    0  0.19423332500E+03  0.82478677899E+02 -0.22889639106E+04  0.22986702897E+04  0.00000000000E+00 0. -1.
          5    1    4    4  502    0  0.35227128803E+01  0.47961384748E+02 -0.13046186028E+03  0.13912257516E+03  0.47000000000E+01 0. -1.
         -5    1    4    4    0  502  0.37112330851E+02 -0.27584394336E+02  0.33319721745E+01  0.46598454381E+02  0.47000000000E+01 0. -1.
<mgrwt>
<rscale>  0 0.10002692E+04</rscale>
<asrwt>0</asrwt>
<pdfrwt beam="1">  1        2 0.42114549E+00 0.10002692E+04</pdfrwt>
<pdfrwt beam="2">  1       -2 0.14057721E-01 0.10002692E+04</pdfrwt>
<totfact> 0.11051344E+02</totfact>
</mgrwt>
</event>
<event>
 9    1  0.4236486E-036  0.1000759E+04  0.7818608E-02  0.8680315E-01
          1   -1    0    0  501    0  0.00000000000E+00  0.00000000000E+00  0.39111828379E+03  0.39111828379E+03  0.00000000000E+00 0. -1.
         -1   -1    0    0    0  501 -0.00000000000E+00 -0.00000000000E+00 -0.64016400655E+03  0.64016400655E+03  0.00000000000E+00 0. -1.
         36    2    1    2    0    0  0.00000000000E+00  0.00000000000E+00 -0.24904572277E+03  0.10312822903E+04  0.10007594068E+04 0.  0.
         25    2    3    3    0    0 -0.13868070352E+03 -0.33959401190E+02 -0.55523177642E+02  0.19588389185E+03  0.12207414703E+03 0.  0.
         35    2    3    3    0    0  0.13868070352E+03  0.33959401190E+02 -0.19352254512E+03  0.83539839849E+03  0.80003370571E+03 0.  0.
         22    1    5    5    0    0  0.50121314716E+02  0.90707670926E+01  0.31476201211E+03  0.31885662808E+03  0.00000000000E+00 0.  1.
         22    1    5    5    0    0  0.88559388808E+02  0.24888634097E+02 -0.50828455723E+03  0.51654177041E+03  0.00000000000E+00 0.  1.
          5    1    4    4  502    0 -0.12360959406E+03  0.92985735225E+01 -0.38843833084E+00  0.12404852315E+03  0.47000000000E+01 0. -1.
         -5    1    4    4    0  502 -0.15071109467E+02 -0.43257974712E+02 -0.55134739311E+02  0.71835368696E+02  0.47000000000E+01 0. -1.
<mgrwt>
<rscale>  0 0.10007594E+04</rscale>
<asrwt>0</asrwt>
<pdfrwt beam="1">  1        1 0.60172045E-01 0.10007594E+04</pdfrwt>
<pdfrwt beam="2">  1       -1 0.98486769E-01 0.10007594E+04</pdfrwt>
<totfact> 0.73028966E+01</totfact>
</mgrwt>
</event>
<event>
 9    1  0.4236486E-036  0.9988628E+03  0.7818608E-02  0.8682122E-01
          1   -1    0    0  501    0  0.00000000000E+00  0.00000000000E+00  0.28097526722E+03  0.28097526722E+03  0.00000000000E+00 0.  1.
         -1   -1    0    0    0  501 -0.00000000000E+00 -0.00000000000E+00 -0.88773547010E+03  0.88773547010E+03  0.00000000000E+00 0.  1.
         36    2    1    2    0    0  0.14210854715E-13  0.28421709430E-13 -0.60676020288E+03  0.11687107373E+04  0.99886277523E+03 0.  0.
         25    2    3    3    0    0 -0.10206566702E+03 -0.35554001155E+01 -0.40722240367E+01  0.16104810666E+03  0.12445829983E+03 0.  0.
         35    2    3    3    0    0  0.10206566702E+03  0.35554001155E+01 -0.60268797884E+03  0.10076626307E+04  0.80107498784E+03 0.  0.
         22    1    5    5    0    0  0.32692558994E+03 -0.25295199336E+03 -0.50547037292E+03  0.65296657664E+03  0.00000000000E+00 0.  1.
         22    1    5    5    0    0 -0.22485992292E+03  0.25650739347E+03 -0.97217605922E+02  0.35469605403E+03  0.00000000000E+00 0.  1.
          5    1    4    4  502    0 -0.12185888837E+03  0.20763088049E+02 -0.20415998064E+02  0.12537781892E+03  0.47000000000E+01 0.  1.
         -5    1    4    4    0  502  0.19793221349E+02 -0.24318488164E+02  0.16343774027E+02  0.35670287740E+02  0.47000000000E+01 0.  1.
<mgrwt>
<rscale>  0 0.99886278E+03</rscale>
<asrwt>0</asrwt>
<pdfrwt beam="1">  1        1 0.43226965E-01 0.99886278E+03</pdfrwt>
<pdfrwt beam="2">  1       -1 0.13657468E+00 0.99886278E+03</pdfrwt>
<totfact> 0.50895324E+01</totfact>
</mgrwt>
</event>
<event>
 9    1  0.4236486E-036  0.9992190E+03  0.7818608E-02  0.8681782E-01
         -2   -1    0    0    0  501 -0.00000000000E+00  0.00000000000E+00  0.16635844337E+03  0.16635844337E+03  0.00000000000E+00 0.  1.
          2   -1    0    0  501    0  0.00000000000E+00 -0.00000000000E+00 -0.15004326621E+04  0.15004326621E+04  0.00000000000E+00 0.  1.
         36    2    1    2    0    0  0.71054273576E-14 -0.28421709430E-13 -0.13340742188E+04  0.16667911055E+04  0.99921897911E+03 0.  0.
         25    2    3    3    0    0 -0.18954011109E+02  0.13495249858E+03 -0.20081759375E+03  0.27238113741E+03  0.12366222806E+03 0.  0.
         35    2    3    3    0    0  0.18954011109E+02 -0.13495249858E+03 -0.11332566250E+04  0.13944099681E+04  0.80096014231E+03 0.  0.
         22    1    5    5    0    0  0.26864396774E+03 -0.32702500367E+03 -0.92374900878E+03  0.10160842316E+04  0.00000000000E+00 0.  1.
         22    1    5    5    0    0 -0.24968995663E+03  0.19207250509E+03 -0.20950761624E+03  0.37832573652E+03  0.00000000000E+00 0.  1.
          5    1    4    4  502    0 -0.71597575771E+02  0.84127402562E+02 -0.11578873095E+03  0.16010232020E+03  0.47000000000E+01 0.  1.
         -5    1    4    4    0  502  0.52643564662E+02  0.50825096016E+02 -0.85028862806E+02  0.11227881722E+03  0.47000000000E+01 0.  1.
<mgrwt>
<rscale>  0 0.99921898E+03</rscale>
<asrwt>0</asrwt>
<pdfrwt beam="1">  1        2 0.23083580E+00 0.99921898E+03</pdfrwt>
<pdfrwt beam="2">  1       -2 0.25593606E-01 0.99921898E+03</pdfrwt>
<totfact> 0.20834828E+02</totfact>
</mgrwt>
</event>
<event>
 9    1  0.4236486E-036  0.1000129E+04  0.7818608E-02  0.8680915E-01
         -2   -1    0    0    0  501 -0.00000000000E+00  0.00000000000E+00  0.11915687061E+03  0.11915687061E+03  0.00000000000E+00 0. -1.
          2   -1    0    0  501    0  0.00000000000E+00 -0.00000000000E+00 -0.20986155521E+04  0.20986155521E+04  0.00000000000E+00 0. -1.
         36    2    1    2    0    0  0.28421709430E-13 -0.14210854715E-13 -0.19794586815E+04  0.22177724227E+04  0.10001289153E+04 0.  0.
         25    2    3    3    0    0 -0.55834000647E+01 -0.85355015394E+02 -0.13099166045E+03  0.20045287845E+03  0.12532313579E+03 0.  0.
         35    2    3    3    0    0  0.55834000647E+01  0.85355015394E+02 -0.18484670211E+04  0.20173195443E+04  0.80338730559E+03 0.  0.
         22    1    5    5    0    0 -0.27903022195E+03  0.22320364469E+03 -0.15197113077E+04  0.15611534808E+04  0.00000000000E+00 0. -1.
         22    1    5    5    0    0  0.28461362202E+03 -0.13784862930E+03 -0.32875571338E+03  0.45616606353E+03  0.00000000000E+00 0. -1.
          5    1    4    4  502    0 -0.51843469439E+02 -0.15149599401E+02 -0.13447517629E+02  0.55858584084E+02  0.47000000000E+01 0. -1.
         -5    1    4    4    0  502  0.46260069374E+02 -0.70205415993E+02 -0.11754414282E+03  0.14459429437E+03  0.47000000000E+01 0. -1.
<mgrwt>
<rscale>  0 0.10001289E+04</rscale>
<asrwt>0</asrwt>
<pdfrwt beam="1">  1        2 0.32286392E+00 0.10001289E+04</pdfrwt>
<pdfrwt beam="2">  1       -2 0.18331827E-01 0.10001289E+04</pdfrwt>
<totfact> 0.17103076E+02</totfact>
</mgrwt>
</event>
<event>
 9    1  0.4236486E-036  0.9998507E+03  0.7818608E-02  0.8681180E-01
          2   -1    0    0  501    0  0.00000000000E+00  0.00000000000E+00  0.11040795565E+04  0.11040795565E+04  0.00000000000E+00 0.  1.
         -2   -1    0    0    0  501 -0.00000000000E+00 -0.00000000000E+00 -0.22636534101E+03  0.22636534101E+03  0.00000000000E+00 0.  1.
         36    2    1    2    0    0 -0.28421709430E-13 -0.71054273576E-14  0.87771421551E+03  0.13304448975E+04  0.99985067948E+03 0.  0.
         25    2    3    3    0    0 -0.13296348927E+03 -0.86574367369E+01  0.22492930621E+03  0.28940107702E+03  0.12411909562E+03 0.  0.
         35    2    3    3    0    0  0.13296348927E+03  0.86574367369E+01  0.65278490930E+03  0.10410438205E+04  0.79993115812E+03 0.  0.
         22    1    5    5    0    0  0.36775539112E+03  0.10058703291E+03  0.46091762580E+02  0.38403935926E+03  0.00000000000E+00 0.  1.
         22    1    5    5    0    0 -0.23479190185E+03 -0.91929596175E+02  0.60669314672E+03  0.65700446125E+03  0.00000000000E+00 0.  1.
          5    1    4    4  502    0 -0.61796148525E+02  0.45850223919E+02  0.47482711224E+02  0.90541177765E+02  0.47000000000E+01 0.  1.
         -5    1    4    4    0  502 -0.71167340742E+02 -0.54507660656E+02  0.17744659499E+03  0.19885989926E+03  0.47000000000E+01 0.  1.
<mgrwt>
<rscale>  0 0.99985068E+03</rscale>
<asrwt>0</asrwt>
<pdfrwt beam="1">  1        2 0.16985839E+00 0.99985068E+03</pdfrwt>
<pdfrwt beam="2">  1       -2 0.34825438E-01 0.99985068E+03</pdfrwt>
<totfact> 0.20215045E+02</totfact>
</mgrwt>
</event>
<event>
 9    1  0.4236486E-036  0.9997295E+03  0.7818608E-02  0.8681296E-01
          1   -1    0    0  501    0  0.00000000000E+00  0.00000000000E+00  0.14523506694E+04  0.14523506694E+04  0.00000000000E+00 0.  1.
         -1   -1    0    0    0  501 -0.00000000000E+00 -0.00000000000E+00 -0.17204161384E+03  0.17204161384E+03  0.00000000000E+00 0.  1.
         36    2    1    2    0    0  0.00000000000E+00 -0.71054273576E-14  0.12803090556E+04  0.16243922833E+04  0.99972946947E+03 0.  0.
         25    2    3    3    0    0 -0.13006397209E+03  0.13556889786E+02  0.16313877556E+03  0.24393121071E+03  0.12564931106E+03 0.  0.
         35    2    3    3    0    0  0.13006397209E+03 -0.13556889786E+02  0.11171702800E+04  0.13804610726E+04  0.80031425838E+03 0.  0.
         22    1    5    5    0    0 -0.53702800415E+02  0.72310781229E+02 -0.10684942484E+03  0.13974848637E+03  0.00000000000E+00 0. -1.
         22    1    5    5    0    0  0.18376677251E+03 -0.85867671015E+02  0.12240197049E+04  0.12407125862E+04  0.00000000000E+00 0. -1.
          5    1    4    4  502    0  0.24743654656E+01  0.41610819780E+02  0.18958769658E+02  0.46033767543E+02  0.47000000000E+01 0.  1.
         -5    1    4    4    0  502 -0.13253833756E+03 -0.28053929994E+02  0.14418000590E+03  0.19789744317E+03  0.47000000000E+01 0.  1.
<mgrwt>
<rscale>  0 0.99972947E+03</rscale>
<asrwt>0</asrwt>
<pdfrwt beam="1">  1        1 0.22343856E+00 0.99972947E+03</pdfrwt>
<pdfrwt beam="2">  1       -1 0.26467941E-01 0.99972947E+03</pdfrwt>
<totfact> 0.97087744E+01</totfact>
</mgrwt>
</event>
<event>
 9    1  0.4236486E-036  0.9988771E+03  0.7818608E-02  0.8682108E-01
          2   -1    0    0  501    0  0.00000000000E+00  0.00000000000E+00  0.90591021696E+03  0.90591021696E+03  0.00000000000E+00 0. -1.
         -2   -1    0    0    0  501 -0.00000000000E+00 -0.00000000000E+00 -0.27534612482E+03  0.27534612482E+03  0.00000000000E+00 0. -1.
         36    2    1    2    0    0  0.00000000000E+00 -0.14210854715E-13  0.63056409213E+03  0.11812563418E+04  0.99887710491E+03 0.  0.
         25    2    3    3    0    0 -0.36771916034E+02 -0.11303428348E+03  0.32575765307E+02  0.17542758149E+03  0.12483882733E+03 0.  0.
         35    2    3    3    0    0  0.36771916034E+02  0.11303428348E+03  0.59798832683E+03  0.10058287603E+04  0.79998283292E+03 0.  0.
         22    1    5    5    0    0 -0.83937776419E+02 -0.31301270551E+03  0.99368514469E+02  0.33896401842E+03  0.00000000000E+00 0. -1.
         22    1    5    5    0    0  0.12070969245E+03  0.42604698899E+03  0.49861981236E+03  0.66686474187E+03  0.00000000000E+00 0. -1.
          5    1    4    4  502    0  0.25166110440E+02 -0.10165720049E+03  0.10278498338E+01  0.10483637728E+03  0.47000000000E+01 0.  1.
         -5    1    4    4    0  502 -0.61938026474E+02 -0.11377082998E+02  0.31547915473E+02  0.70591204209E+02  0.47000000000E+01 0.  1.
<mgrwt>
<rscale>  0 0.99887710E+03</rscale>
<asrwt>0</asrwt>
<pdfrwt beam="1">  1        2 0.13937080E+00 0.99887710E+03</pdfrwt>
<pdfrwt beam="2">  1       -2 0.42360943E-01 0.99887710E+03</pdfrwt>
<totfact> 0.18563255E+02</totfact>
</mgrwt>
</event>
<event>
 9    1  0.4236486E-036  0.1001262E+04  0.7818608E-02  0.8679837E-01
          2   -1    0    0  501    0  0.00000000000E+00  0.00000000000E+00  0.19899228992E+04  0.19899228992E+04  0.00000000000E+00 0.  1.
         -2   -1    0    0    0  501 -0.00000000000E+00 -0.00000000000E+00 -0.12595030168E+03  0.12595030168E+03  0.00000000000E+00 0.  1.
         36    2    1    2    0    0  0.00000000000E+00  0.00000000000E+00  0.18639725975E+04  0.21158732008E+04  0.10012619826E+04 0.  0.
         25    2    3    3    0    0  0.86848575680E+02  0.61265425082E+02  0.54903622868E+03  0.57308035229E+03  0.12523650575E+03 0.  0.
         35    2    3    3    0    0 -0.86848575680E+02 -0.61265425082E+02  0.13149363688E+04  0.15427928486E+04  0.79990999001E+03 0.  0.
         22    1    5    5    0    0  0.19574440561E+03 -0.31923895060E+02  0.83805039539E+00  0.19833232146E+03  0.00000000000E+00 0. -1.
         22    1    5    5    0    0 -0.28259298130E+03 -0.29341530022E+02  0.13140983184E+04  0.13444605271E+04  0.00000000000E+00 0. -1.
          5    1    4    4  502    0  0.39861975828E+02  0.40533659057E+01  0.43608447578E+03  0.43794653431E+03  0.47000000000E+01 0.  1.
         -5    1    4    4    0  502  0.46986599853E+02  0.57212059176E+02  0.11295175289E+03  0.13513381798E+03  0.47000000000E+01 0.  1.
<mgrwt>
<rscale>  0 0.10012620E+04</rscale>
<asrwt>0</asrwt>
<pdfrwt beam="1">  1        2 0.30614196E+00 0.10012620E+04</pdfrwt>
<pdfrwt beam="2">  1       -2 0.19376971E-01 0.10012620E+04</pdfrwt>
<totfact> 0.17940440E+02</totfact>
</mgrwt>
</event>
<event>
 9    1  0.4236486E-036  0.9957918E+03  0.7818608E-02  0.8685056E-01
          1   -1    0    0  501    0  0.00000000000E+00  0.00000000000E+00  0.27720563127E+04  0.27720563127E+04  0.00000000000E+00 0. -1.
         -1   -1    0    0    0  501 -0.00000000000E+00 -0.00000000000E+00 -0.89428313207E+02  0.89428313207E+02  0.00000000000E+00 0. -1.
         36    2    1    2    0    0  0.28421709430E-13  0.00000000000E+00  0.26826279995E+04  0.28614846259E+04  0.99579178579E+03 0.  0.
         25    2    3    3    0    0 -0.12748417106E+03  0.32107250042E+02  0.59304572430E+03  0.62012105073E+03  0.12475494811E+03 0.  0.
         35    2    3    3    0    0  0.12748417106E+03 -0.32107250042E+02  0.20895822752E+04  0.22413635752E+04  0.80004593739E+03 0.  0.
         22    1    5    5    0    0 -0.85665291606E+02 -0.37452926660E+03  0.12871038775E+04  0.13432226566E+04  0.00000000000E+00 0. -1.
         22    1    5    5    0    0  0.21314946266E+03  0.34242201655E+03  0.80247839769E+03  0.89814091857E+03  0.00000000000E+00 0. -1.
          5    1    4    4  502    0 -0.14782046495E+01  0.12286859693E+01  0.29483232421E+03  0.29487604880E+03  0.47000000000E+01 0.  1.
         -5    1    4    4    0  502 -0.12600596641E+03  0.30878564073E+02  0.29821340009E+03  0.32524500194E+03  0.47000000000E+01 0.  1.
<mgrwt>
<rscale>  0 0.99579179E+03</rscale>
<asrwt>0</asrwt>
<pdfrwt beam="1">  1        1 0.42647014E+00 0.99579179E+03</pdfrwt>
<pdfrwt beam="2">  1       -1 0.13758204E-01 0.99579179E+03</pdfrwt>
<totfact> 0.33568894E+01</totfact>
</mgrwt>
</event>
<event>
 9    1  0.4236486E-036  0.1002078E+04  0.7818608E-02  0.8679061E-01
         -1   -1    0    0    0  501 -0.00000000000E+00  0.00000000000E+00  0.91135097430E+03  0.91135097430E+03  0.00000000000E+00 0.  1.
          1   -1    0    0  501    0  0.00000000000E+00 -0.00000000000E+00 -0.27545944860E+03  0.27545944860E+03  0.00000000000E+00 0.  1.
         36    2    1    2    0    0  0.14210854715E-13  0.00000000000E+00  0.63589152571E+03  0.11868104229E+04  0.10020783140E+04 0.  0.
         25    2    3    3    0    0 -0.18404227451E+02  0.34082553841E+02  0.28283306383E+03  0.31141867205E+03  0.12444561560E+03 0.  0.
         35    2    3    3    0    0  0.18404227451E+02 -0.34082553841E+02  0.35305846188E+03  0.87539175085E+03  0.80010005867E+03 0.  0.
         22    1    5    5    0    0 -0.13166628600E+03 -0.99598642856E+02  0.57576400762E+03  0.59896585294E+03  0.00000000000E+00 0. -1.
         22    1    5    5    0    0  0.15007051345E+03  0.65516089014E+02 -0.22270554574E+03  0.27642589790E+03  0.00000000000E+00 0. -1.
          5    1    4    4  502    0  0.42144953524E+02  0.23174429506E+02  0.21218598866E+03  0.21761947310E+03  0.47000000000E+01 0. -1.
         -5    1    4    4    0  502 -0.60549180975E+02  0.10908124335E+02  0.70647075173E+02  0.93799198950E+02  0.47000000000E+01 0. -1.
<mgrwt>
<rscale>  0 0.10020783E+04</rscale>
<asrwt>0</asrwt>
<pdfrwt beam="1">  1        1 0.42378377E-01 0.10020783E+04</pdfrwt>
<pdfrwt beam="2">  1       -1 0.14020784E+00 0.10020783E+04</pdfrwt>
<totfact> 0.48600731E+01</totfact>
</mgrwt>
</event>
<event>
 9    1  0.4236486E-036  0.9998821E+03  0.7818608E-02  0.8681150E-01
         -2   -1    0    0    0  501 -0.00000000000E+00  0.00000000000E+00  0.18852275891E+03  0.18852275891E+03  0.00000000000E+00 0. -1.
          2   -1    0    0  501    0  0.00000000000E+00 -0.00000000000E+00 -0.13257870334E+04  0.13257870334E+04  0.00000000000E+00 0. -1.
         36    2    1    2    0    0  0.00000000000E+00  0.00000000000E+00 -0.11372642744E+04  0.15143097923E+04  0.99988205157E+03 0.  0.
         25    2    3    3    0    0  0.91274736291E+02 -0.10878545071E+03 -0.20491525790E+03  0.27883802349E+03  0.12488005705E+03 0.  0.
         35    2    3    3    0    0 -0.91274736291E+02  0.10878545071E+03 -0.93234901654E+03  0.12354717688E+04  0.79809175604E+03 0.  0.
         22    1    5    5    0    0  0.11944139904E+03  0.41517731274E+03 -0.57983702759E+03  0.72308327832E+03  0.00000000000E+00 0. -1.
         22    1    5    5    0    0 -0.21071613533E+03 -0.30639186204E+03 -0.35251198895E+03  0.51238849047E+03  0.00000000000E+00 0. -1.
          5    1    4    4  502    0  0.12011983685E+03 -0.81371455313E+02 -0.18156322956E+03  0.23245942716E+03  0.47000000000E+01 0.  1.
         -5    1    4    4    0  502 -0.28845100560E+02 -0.27413995393E+02 -0.23352028339E+02  0.46378596327E+02  0.47000000000E+01 0.  1.
<mgrwt>
<rscale>  0 0.99988205E+03</rscale>
<asrwt>0</asrwt>
<pdfrwt beam="1">  1        2 0.20396724E+00 0.99988205E+03</pdfrwt>
<pdfrwt beam="2">  1       -2 0.29003501E-01 0.99988205E+03</pdfrwt>
<totfact> 0.20937309E+02</totfact>
</mgrwt>
</event>
<event>
 9    1  0.4236486E-036  0.1000277E+04  0.7818608E-02  0.8680774E-01
          2   -1    0    0  501    0  0.00000000000E+00  0.00000000000E+00  0.57626256561E+03  0.57626256561E+03  0.00000000000E+00 0.  1.
         -2   -1    0    0    0  501 -0.00000000000E+00 -0.00000000000E+00 -0.43407051583E+03  0.43407051583E+03  0.00000000000E+00 0.  1.
         36    2    1    2    0    0  0.00000000000E+00 -0.71054273576E-14  0.14219204977E+03  0.10103330814E+04  0.10002771398E+04 0.  0.
         25    2    3    3    0    0  0.13337779423E+03  0.40995528472E+02  0.37550818521E+02  0.18945095017E+03  0.12252072967E+03 0.  0.
         35    2    3    3    0    0 -0.13337779423E+03 -0.40995528472E+02  0.10464123125E+03  0.82088213127E+03  0.80213927520E+03 0.  0.
         22    1    5    5    0    0 -0.33999182628E+03  0.17309737307E+03 -0.16842094852E+03  0.41704047573E+03  0.00000000000E+00 0. -1.
         22    1    5    5    0    0  0.20661403205E+03 -0.21409290154E+03  0.27306217977E+03  0.40384165554E+03  0.00000000000E+00 0. -1.
          5    1    4    4  502    0  0.13187599158E+03  0.74569338034E+02  0.27376727709E+02  0.15402414925E+03  0.47000000000E+01 0. -1.
         -5    1    4    4    0  502  0.15018026479E+01 -0.33573809562E+02  0.10174090812E+02  0.35426800922E+02  0.47000000000E+01 0. -1.
<mgrwt>
<rscale>  0 0.10002771E+04</rscale>
<asrwt>0</asrwt>
<pdfrwt beam="1">  1        2 0.88655779E-01 0.10002771E+04</pdfrwt>
<pdfrwt beam="2">  1       -2 0.66780080E-01 0.10002771E+04</pdfrwt>
<totfact> 0.12974069E+02</totfact>
</mgrwt>
</event>
<event>
 9    1  0.4236486E-036  0.9997901E+03  0.7818608E-02  0.8681238E-01
          2   -1    0    0  501    0  0.00000000000E+00  0.00000000000E+00  0.13178460261E+04  0.13178460261E+04  0.00000000000E+00 0. -1.
         -2   -1    0    0    0  501 -0.00000000000E+00 -0.00000000000E+00 -0.18962385022E+03  0.18962385022E+03  0.00000000000E+00 0. -1.
         36    2    1    2    0    0 -0.14210854715E-13 -0.71054273576E-14  0.11282221759E+04  0.15074698763E+04  0.99979005288E+03 0.  0.
         25    2    3    3    0    0  0.42052972441E+02 -0.39890835052E+02  0.17242601648E+02  0.13736534140E+03  0.12333774157E+03 0.  0.
         35    2    3    3    0    0 -0.42052972441E+02  0.39890835052E+02  0.11109795742E+04  0.13701045349E+04  0.79971938267E+03 0.  0.
         22    1    5    5    0    0  0.19604878275E+03 -0.77365075919E+02  0.10828954158E+04  0.11032148303E+04  0.00000000000E+00 0.  1.
         22    1    5    5    0    0 -0.23810175519E+03  0.11725591097E+03  0.28084158425E+02  0.26688970463E+03  0.00000000000E+00 0.  1.
          5    1    4    4  502    0  0.62900263255E+01 -0.13674692814E+02  0.67999165356E+02  0.69803568275E+02  0.47000000000E+01 0.  1.
         -5    1    4    4    0  502  0.35762946115E+02 -0.26216142238E+02 -0.50756563709E+02  0.67561773128E+02  0.47000000000E+01 0.  1.
<mgrwt>
<rscale>  0 0.99979005E+03</rscale>
<asrwt>0</asrwt>
<pdfrwt beam="1">  1        2 0.20274554E+00 0.99979005E+03</pdfrwt>
<pdfrwt beam="2">  1       -2 0.29172901E-01 0.99979005E+03</pdfrwt>
<totfact> 0.20937387E+02</totfact>
</mgrwt>
</event>
<event>
 9    1  0.4236486E-036  0.1000323E+04  0.7818608E-02  0.8680730E-01
         -2   -1    0    0    0  501 -0.00000000000E+00  0.00000000000E+00  0.14215097216E+03  0.14215097216E+03  0.00000000000E+00 0. -1.
          2   -1    0    0  501    0  0.00000000000E+00 -0.00000000000E+00 -0.17598312642E+04  0.17598312642E+04  0.00000000000E+00 0. -1.
         36    2    1    2    0    0  0.00000000000E+00  0.14210854715E-13 -0.16176802921E+04  0.19019822364E+04  0.10003233978E+04 0.  0.
         25    2    3    3    0    0  0.13836198202E+03 -0.17849706949E+02 -0.25465230580E+03  0.31718461130E+03  0.12765434067E+03 0.  0.
         35    2    3    3    0    0 -0.13836198202E+03  0.17849706949E+02 -0.13630279863E+04  0.15847976251E+04  0.79641419566E+03 0.  0.
         22    1    5    5    0    0  0.11235651448E+03 -0.69121792173E+02  0.54435859266E+02  0.14270624118E+03  0.00000000000E+00 0.  1.
         22    1    5    5    0    0 -0.25071849650E+03  0.86971499122E+02 -0.14174638455E+04  0.14420913839E+04  0.00000000000E+00 0.  1.
          5    1    4    4  502    0  0.14148452120E+03  0.27589937767E+00 -0.26120701826E+03  0.29710123233E+03  0.47000000000E+01 0.  1.
         -5    1    4    4    0  502 -0.31225391803E+01 -0.18125606327E+02  0.65547124633E+01  0.20083378977E+02  0.47000000000E+01 0.  1.
<mgrwt>
<rscale>  0 0.10003234E+04</rscale>
<asrwt>0</asrwt>
<pdfrwt beam="1">  1        2 0.27074327E+00 0.10003234E+04</pdfrwt>
<pdfrwt beam="2">  1       -2 0.21869380E-01 0.10003234E+04</pdfrwt>
<totfact> 0.19627438E+02</totfact>
</mgrwt>
</event>
<event>
 9    1  0.4236486E-036  0.9962815E+03  0.7818608E-02  0.8684587E-01
         -2   -1    0    0    0  501 -0.00000000000E+00  0.00000000000E+00  0.27756764668E+03  0.27756764668E+03  0.00000000000E+00 0. -1.
          2   -1    0    0  501    0  0.00000000000E+00 -0.00000000000E+00 -0.89399541295E+03  0.89399541295E+03  0.00000000000E+00 0. -1.
         36    2    1    2    0    0  0.00000000000E+00  0.00000000000E+00 -0.61642776626E+03  0.11715630596E+04  0.99628149219E+03 0.  0.
         25    2    3    3    0    0 -0.10702575305E+03 -0.66693098407E+02 -0.18391784107E+03  0.25389694772E+03  0.12138948310E+03 0.  0.
         35    2    3    3    0    0  0.10702575305E+03  0.66693098407E+02 -0.43250992519E+03  0.91766611191E+03  0.79946468112E+03 0.  0.
         22    1    5    5    0    0  0.35493647058E+03 -0.18510938811E+03 -0.60971266557E+02  0.40492330022E+03  0.00000000000E+00 0.  1.
         22    1    5    5    0    0 -0.24791071753E+03  0.25180248652E+03 -0.37153865863E+03  0.51274281169E+03  0.00000000000E+00 0.  1.
          5    1    4    4  502    0 -0.22909287905E+02 -0.82418722940E+02 -0.66113062993E+02  0.10821602682E+03  0.47000000000E+01 0.  1.
         -5    1    4    4    0  502 -0.84116465146E+02  0.15725624533E+02 -0.11780477808E+03  0.14568092090E+03  0.47000000000E+01 0.  1.
<mgrwt>
<rscale>  0 0.99628149E+03</rscale>
<asrwt>0</asrwt>
<pdfrwt beam="1">  1        2 0.13753775E+00 0.99628149E+03</pdfrwt>
<pdfrwt beam="2">  1       -2 0.42702715E-01 0.99628149E+03</pdfrwt>
<totfact> 0.18610571E+02</totfact>
</mgrwt>
</event>
<event>
 9    1  0.4236486E-036  0.1003567E+04  0.7818608E-02  0.8677648E-01
          2   -1    0    0  501    0  0.00000000000E+00  0.00000000000E+00  0.20077858587E+04  0.20077858587E+04  0.00000000000E+00 0. -1.
         -2   -1    0    0    0  501 -0.00000000000E+00 -0.00000000000E+00 -0.12540520426E+03  0.12540520426E+03  0.00000000000E+00 0. -1.
         36    2    1    2    0    0  0.28421709430E-13  0.00000000000E+00  0.18823806545E+04  0.21331910630E+04  0.10035672289E+04 0.  0.
         25    2    3    3    0    0 -0.12054203578E+03 -0.71889484069E+02  0.43233401270E+03  0.47164229080E+03  0.12583827570E+03 0.  0.
         35    2    3    3    0    0  0.12054203578E+03  0.71889484069E+02  0.14500466418E+04  0.16615487722E+04  0.79900599419E+03 0.  0.
         22    1    5    5    0    0 -0.44867557153E+02  0.11768660027E+03  0.14816816930E+04  0.14870251756E+04  0.00000000000E+00 0.  1.
         22    1    5    5    0    0  0.16540959293E+03 -0.45797116198E+02 -0.31635051244E+02  0.17452359655E+03  0.00000000000E+00 0.  1.
          5    1    4    4  502    0 -0.10279597531E+03  0.10499322730E+02  0.21833915804E+03  0.24160158578E+03  0.47000000000E+01 0.  1.
         -5    1    4    4    0  502 -0.17746060467E+02 -0.82388806799E+02  0.21399485466E+03  0.23004070502E+03  0.47000000000E+01 0.  1.
<mgrwt>
<rscale>  0 0.10035672E+04</rscale>
<asrwt>0</asrwt>
<pdfrwt beam="1">  1        2 0.30889011E+00 0.10035672E+04</pdfrwt>
<pdfrwt beam="2">  1       -2 0.19293110E-01 0.10035672E+04</pdfrwt>
<totfact> 0.17656028E+02</totfact>
</mgrwt>
</event>
<event>
 9    1  0.4236486E-036  0.9995571E+03  0.7818608E-02  0.8681460E-01
          2   -1    0    0  501    0  0.00000000000E+00  0.00000000000E+00  0.18807389966E+03  0.18807389966E+03  0.00000000000E+00 0.  1.
         -2   -1    0    0    0  501 -0.00000000000E+00 -0.00000000000E+00 -0.13280876164E+04  0.13280876164E+04  0.00000000000E+00 0.  1.
         36    2    1    2    0    0  0.28421709430E-13  0.00000000000E+00 -0.11400137167E+04  0.15161615161E+04  0.99955713616E+03 0.  0.
         25    2    3    3    0    0 -0.28688676484E+02  0.34276309451E+02 -0.12464023139E+02  0.13288742681E+03  0.12452233046E+03 0.  0.
         35    2    3    3    0    0  0.28688676484E+02 -0.34276309451E+02 -0.11275496936E+04  0.13832740893E+04  0.80005061648E+03 0.  0.
         22    1    5    5    0    0  0.26890784522E+03  0.19219988154E+03 -0.17263989150E+03  0.37290314536E+03  0.00000000000E+00 0.  1.
         22    1    5    5    0    0 -0.24021916874E+03 -0.22647619099E+03 -0.95490980210E+03  0.10103709439E+04  0.00000000000E+00 0.  1.
          5    1    4    4  502    0  0.60160405484E+01 -0.20437757302E+02 -0.52310631273E+02  0.56677921729E+02  0.47000000000E+01 0.  1.
         -5    1    4    4    0  502 -0.34704717033E+02  0.54714066754E+02  0.39846608133E+02  0.76209505081E+02  0.47000000000E+01 0.  1.
<mgrwt>
<rscale>  0 0.99955714E+03</rscale>
<asrwt>0</asrwt>
<pdfrwt beam="1">  1        2 0.28934446E-01 0.99955714E+03</pdfrwt>
<pdfrwt beam="2">  1       -2 0.20432117E+00 0.99955714E+03</pdfrwt>
<totfact> 0.25126741E+01</totfact>
</mgrwt>
</event>
<event>
 9    1  0.4236486E-036  0.9997068E+03  0.7818608E-02  0.8681317E-01
          2   -1    0    0  501    0  0.00000000000E+00  0.00000000000E+00  0.15524511539E+04  0.15524511539E+04  0.00000000000E+00 0.  1.
         -2   -1    0    0    0  501 -0.00000000000E+00 -0.00000000000E+00 -0.16094123034E+03  0.16094123034E+03  0.00000000000E+00 0.  1.
         36    2    1    2    0    0 -0.28421709430E-13  0.14210854715E-13  0.13915099236E+04  0.17133923843E+04  0.99970675451E+03 0.  0.
         25    2    3    3    0    0 -0.77157074691E+02 -0.11071872051E+03  0.33611526878E+03  0.38335154209E+03  0.12559092986E+03 0.  0.
         35    2    3    3    0    0  0.77157074691E+02  0.11071872051E+03  0.10553946548E+04  0.13300408422E+04  0.79808452887E+03 0.  0.
         22    1    5    5    0    0  0.13870875584E+03 -0.94054500908E+02  0.10990935790E+04  0.11117972223E+04  0.00000000000E+00 0. -1.
         22    1    5    5    0    0 -0.61551681150E+02  0.20477322141E+03 -0.43698924168E+02  0.21824361992E+03  0.00000000000E+00 0. -1.
          5    1    4    4  502    0 -0.28841584043E+02  0.19727440321E+02  0.27206965866E+02  0.44534457035E+02  0.47000000000E+01 0.  1.
         -5    1    4    4    0  502 -0.48315490648E+02 -0.13044616083E+03  0.30890830292E+03  0.33881708505E+03  0.47000000000E+01 0.  1.
<mgrwt>
<rscale>  0 0.99970675E+03</rscale>
<asrwt>0</asrwt>
<pdfrwt beam="1">  1        2 0.23883863E+00 0.99970675E+03</pdfrwt>
<pdfrwt beam="2">  1       -2 0.24760190E-01 0.99970675E+03</pdfrwt>
<totfact> 0.20648838E+02</totfact>
</mgrwt>
</event>
<event>
 9    1  0.4236486E-036  0.9999062E+03  0.7818608E-02  0.8681127E-01
         -1   -1    0    0    0  501 -0.00000000000E+00  0.00000000000E+00  0.29842629369E+03  0.29842629369E+03  0.00000000000E+00 0. -1.
          1   -1    0    0  501    0  0.00000000000E+00 -0.00000000000E+00 -0.83757068723E+03  0.83757068723E+03  0.00000000000E+00 0. -1.
         36    2    1    2    0    0  0.00000000000E+00  0.00000000000E+00 -0.53914439354E+03  0.11359969809E+04  0.99990622739E+03 0.  0.
         25    2    3    3    0    0  0.66166737582E+02  0.29935626732E+02 -0.23739669632E+03  0.27810667634E+03  0.12534732982E+03 0.  0.
         35    2    3    3    0    0 -0.66166737582E+02 -0.29935626732E+02 -0.30174769722E+03  0.85789030458E+03  0.79978117195E+03 0.  0.
         22    1    5    5    0    0 -0.91306416355E+02  0.10920220507E+03  0.25034302872E+03  0.28798197042E+03  0.00000000000E+00 0.  1.
         22    1    5    5    0    0  0.25139678773E+02 -0.13913783180E+03 -0.55209072593E+03  0.56990833416E+03  0.00000000000E+00 0.  1.
          5    1    4    4  502    0  0.33397243383E+02 -0.43520091687E+02 -0.14722062698E+03  0.15717944285E+03  0.47000000000E+01 0.  1.
         -5    1    4    4    0  502  0.32769494199E+02  0.73455718419E+02 -0.90176069338E+02  0.12092723349E+03  0.47000000000E+01 0.  1.
<mgrwt>
<rscale>  0 0.99990623E+03</rscale>
<asrwt>0</asrwt>
<pdfrwt beam="1">  1        1 0.12885703E+00 0.99990623E+03</pdfrwt>
<pdfrwt beam="2">  1       -1 0.45911738E-01 0.99990623E+03</pdfrwt>
<totfact> 0.10983835E+02</totfact>
</mgrwt>
</event>
<event>
 9    1  0.4236486E-036  0.1000849E+04  0.7818608E-02  0.8680230E-01
         -2   -1    0    0    0  501 -0.00000000000E+00  0.00000000000E+00  0.62753039079E+03  0.62753039079E+03  0.00000000000E+00 0.  1.
          2   -1    0    0  501    0  0.00000000000E+00 -0.00000000000E+00 -0.39906349482E+03  0.39906349482E+03  0.00000000000E+00 0.  1.
         36    2    1    2    0    0 -0.14210854715E-13  0.00000000000E+00  0.22846689597E+03  0.10265938856E+04  0.10008485817E+04 0.  0.
         25    2    3    3    0    0 -0.66038121139E+02 -0.84127298064E+02  0.13758609127E+03  0.21456301297E+03  0.12517554994E+03 0.  0.
         35    2    3    3    0    0  0.66038121139E+02  0.84127298064E+02  0.90880804705E+02  0.81203087264E+03  0.79981021607E+03 0.  0.
         22    1    5    5    0    0 -0.24120795329E+03  0.32895320453E+03 -0.37701986302E+01  0.40792855000E+03  0.00000000000E+00 0.  1.
         22    1    5    5    0    0  0.30724607443E+03 -0.24482590647E+03  0.94651003335E+02  0.40410232264E+03  0.00000000000E+00 0.  1.
          5    1    4    4  502    0  0.15411473301E+02  0.11598224897E+02  0.67963071031E+02  0.70803258075E+02  0.47000000000E+01 0. -1.
         -5    1    4    4    0  502 -0.81449594441E+02 -0.95725522962E+02  0.69623020238E+02  0.14375975490E+03  0.47000000000E+01 0. -1.
<mgrwt>
<rscale>  0 0.10008486E+04</rscale>
<asrwt>0</asrwt>
<pdfrwt beam="1">  1        2 0.61394383E-01 0.10008486E+04</pdfrwt>
<pdfrwt beam="2">  1       -2 0.96543138E-01 0.10008486E+04</pdfrwt>
<totfact> 0.85204238E+01</totfact>
</mgrwt>
</event>
<event>
 9    1  0.4236486E-036  0.1000887E+04  0.7818608E-02  0.8680194E-01
         -2   -1    0    0    0  501 -0.00000000000E+00  0.00000000000E+00  0.16835071841E+03  0.16835071841E+03  0.00000000000E+00 0. -1.
          2   -1    0    0  501    0  0.00000000000E+00 -0.00000000000E+00 -0.14876294850E+04  0.14876294850E+04  0.00000000000E+00 0. -1.
         36    2    1    2    0    0  0.00000000000E+00  0.00000000000E+00 -0.13192787666E+04  0.16559802034E+04  0.10008865920E+04 0.  0.
         25    2    3    3    0    0  0.91050152879E+02  0.34550032887E+02 -0.80426600975E+02  0.17790948008E+03  0.12529768492E+03 0.  0.
         35    2    3    3    0    0 -0.91050152879E+02 -0.34550032887E+02 -0.12388521656E+04  0.14780707233E+04  0.80028403693E+03 0.  0.
         22    1    5    5    0    0  0.34557836515E+03 -0.11048562836E+03 -0.54153256396E+03  0.65183510059E+03  0.00000000000E+00 0. -1.
         22    1    5    5    0    0 -0.43662851803E+03  0.75935595473E+02 -0.69731960164E+03  0.82623562272E+03  0.00000000000E+00 0. -1.
          5    1    4    4  502    0  0.43927437495E+02 -0.44321965685E+02 -0.13171220938E+02  0.63950195215E+02  0.47000000000E+01 0.  1.
         -5    1    4    4    0  502  0.47122715384E+02  0.78871998572E+02 -0.67255380037E+02  0.11395928487E+03  0.47000000000E+01 0.  1.
<mgrwt>
<rscale>  0 0.10008866E+04</rscale>
<asrwt>0</asrwt>
<pdfrwt beam="1">  1        2 0.22886608E+00 0.10008866E+04</pdfrwt>
<pdfrwt beam="2">  1       -2 0.25900110E-01 0.10008866E+04</pdfrwt>
<totfact> 0.20740829E+02</totfact>
</mgrwt>
</event>
<event>
 9    1  0.4236486E-036  0.9978925E+03  0.7818608E-02  0.8683048E-01
         -1   -1    0    0    0  501 -0.00000000000E+00  0.00000000000E+00  0.59245830161E+03  0.59245830161E+03  0.00000000000E+00 0.  1.
          1   -1    0    0  501    0  0.00000000000E+00 -0.00000000000E+00 -0.42019385972E+03  0.42019385972E+03  0.00000000000E+00 0.  1.
         36    2    1    2    0    0  0.00000000000E+00  0.49737991503E-13  0.17226444189E+03  0.10126521613E+04  0.99789246008E+03 0.  0.
         25    2    3    3    0    0 -0.77038049677E+02  0.60751375795E+02 -0.68705581657E+02  0.17218265261E+03  0.12369647590E+03 0.  0.
         35    2    3    3    0    0  0.77038049677E+02 -0.60751375795E+02  0.24097002355E+03  0.84046950871E+03  0.79918511752E+03 0.  0.
         22    1    5    5    0    0 -0.20096309368E+03 -0.33054342158E+03  0.23580308969E+03  0.45304328234E+03  0.00000000000E+00 0.  1.
         22    1    5    5    0    0  0.27800114335E+03  0.26979204578E+03  0.51669338556E+01  0.38742622637E+03  0.00000000000E+00 0.  1.
          5    1    4    4  502    0  0.27802708770E+02  0.41334542607E+02 -0.31648401923E+02  0.59205121162E+02  0.47000000000E+01 0.  1.
         -5    1    4    4    0  502 -0.10484075845E+03  0.19416833188E+02 -0.37057179734E+02  0.11297753145E+03  0.47000000000E+01 0.  1.
<mgrwt>
<rscale>  0 0.99789246E+03</rscale>
<asrwt>0</asrwt>
<pdfrwt beam="1">  1        1 0.64645209E-01 0.99789246E+03</pdfrwt>
<pdfrwt beam="2">  1       -1 0.91147431E-01 0.99789246E+03</pdfrwt>
<totfact> 0.78601473E+01</totfact>
</mgrwt>
</event>
<event>
 9    1  0.4236486E-036  0.9999144E+03  0.7818608E-02  0.8681120E-01
         -2   -1    0    0    0  501 -0.00000000000E+00  0.00000000000E+00  0.12025560658E+03  0.12025560658E+03  0.00000000000E+00 0. -1.
          2   -1    0    0  501    0  0.00000000000E+00 -0.00000000000E+00 -0.20785490849E+04  0.20785490849E+04  0.00000000000E+00 0. -1.
         36    2    1    2    0    0 -0.14210854715E-13 -0.14210854715E-13 -0.19582934783E+04  0.21988046915E+04  0.99991435836E+03 0.  0.
         25    2    3    3    0    0  0.15580775405E+02 -0.12659043520E+03 -0.40768351252E+03  0.44536827618E+03  0.12601252398E+03 0.  0.
         35    2    3    3    0    0 -0.15580775405E+02  0.12659043520E+03 -0.15506099658E+04  0.17534364153E+04  0.80862852883E+03 0.  0.
         22    1    5    5    0    0  0.27048812398E+03  0.14785392075E+03 -0.13918476191E+04  0.14255751127E+04  0.00000000000E+00 0.  1.
         22    1    5    5    0    0 -0.28606889938E+03 -0.21263485555E+02 -0.15876234664E+03  0.32786130257E+03  0.00000000000E+00 0.  1.
          5    1    4    4  502    0  0.31335861608E+02 -0.23691255454E+02 -0.20802520414E+02  0.44699515247E+02  0.47000000000E+01 0.  1.
         -5    1    4    4    0  502 -0.15755086203E+02 -0.10289917974E+03 -0.38688099211E+03  0.40066876093E+03  0.47000000000E+01 0.  1.
<mgrwt>
<rscale>  0 0.99991436E+03</rscale>
<asrwt>0</asrwt>
<pdfrwt beam="1">  1        2 0.31977677E+00 0.99991436E+03</pdfrwt>
<pdfrwt beam="2">  1       -2 0.18500863E-01 0.99991436E+03</pdfrwt>
<totfact> 0.17288379E+02</totfact>
</mgrwt>
</event>
<event>
 9    1  0.4236486E-036  0.9997311E+03  0.7818608E-02  0.8681294E-01
         -2   -1    0    0    0  501 -0.00000000000E+00  0.00000000000E+00  0.27099150128E+03  0.27099150128E+03  0.00000000000E+00 0.  1.
          2   -1    0    0  501    0  0.00000000000E+00 -0.00000000000E+00 -0.92204200149E+03  0.92204200149E+03  0.00000000000E+00 0.  1.
         36    2    1    2    0    0  0.00000000000E+00  0.00000000000E+00 -0.65105050021E+03  0.11930335028E+04  0.99973105630E+03 0.  0.
         25    2    3    3    0    0  0.31885840048E+02 -0.72873007922E+01  0.40085755190E+02  0.13529329767E+03  0.12501038787E+03 0.  0.
         35    2    3    3    0    0 -0.31885840048E+02  0.72873007922E+01 -0.69113625540E+03  0.10577402051E+04  0.80004700264E+03 0.  0.
         22    1    5    5    0    0  0.30994977048E+02 -0.23159844128E+03  0.80802933781E+02  0.24724004674E+03  0.00000000000E+00 0. -1.
         22    1    5    5    0    0 -0.62880817096E+02  0.23888574207E+03 -0.77193918918E+03  0.81050015837E+03  0.00000000000E+00 0. -1.
          5    1    4    4  502    0  0.25382680388E+02 -0.61511581895E+02  0.44675674169E+02  0.80286742575E+02  0.47000000000E+01 0. -1.
         -5    1    4    4    0  502  0.65031596602E+01  0.54224281103E+02 -0.45899189795E+01  0.55006555091E+02  0.47000000000E+01 0. -1.
<mgrwt>
<rscale>  0 0.99973106E+03</rscale>
<asrwt>0</asrwt>
<pdfrwt beam="1">  1        2 0.14185262E+00 0.99973106E+03</pdfrwt>
<pdfrwt beam="2">  1       -2 0.41691000E-01 0.99973106E+03</pdfrwt>
<totfact> 0.18684351E+02</totfact>
</mgrwt>
</event>
<event>
 9    1  0.4236486E-036  0.9988418E+03  0.7818608E-02  0.8682142E-01
          1   -1    0    0  501    0  0.00000000000E+00  0.00000000000E+00  0.23870861703E+03  0.23870861703E+03  0.00000000000E+00 0. -1.
         -1   -1    0    0    0  501 -0.00000000000E+00 -0.00000000000E+00 -0.10448773374E+04  0.10448773374E+04  0.00000000000E+00 0. -1.
         36    2    1    2    0    0  0.00000000000E+00  0.26645352591E-13 -0.80616872041E+03  0.12835859545E+04  0.99884177764E+03 0.  0.
         25    2    3    3    0    0 -0.11313072637E+03  0.97146116771E+00 -0.48027324037E+02  0.17541005278E+03  0.12515014094E+03 0.  0.
         35    2    3    3    0    0  0.11313072637E+03 -0.97146116771E+00 -0.75814139638E+03  0.11081759017E+04  0.80029741173E+03 0.  0.
         22    1    5    5    0    0  0.10486100197E+02  0.39585560255E+03 -0.33015479865E+03  0.51557134078E+03  0.00000000000E+00 0.  1.
         22    1    5    5    0    0  0.10264462618E+03 -0.39682706372E+03 -0.42798659773E+03  0.59260456091E+03  0.00000000000E+00 0.  1.
          5    1    4    4  502    0  0.16154617212E+02  0.11390111024E+02  0.20310944554E+02  0.28728570363E+02  0.47000000000E+01 0.  1.
         -5    1    4    4    0  502 -0.12928534358E+03 -0.10418649856E+02 -0.68338268591E+02  0.14668148242E+03  0.47000000000E+01 0.  1.
<mgrwt>
<rscale>  0 0.99884178E+03</rscale>
<asrwt>0</asrwt>
<pdfrwt beam="1">  1        1 0.36724403E-01 0.99884178E+03</pdfrwt>
<pdfrwt beam="2">  1       -1 0.16075036E+00 0.99884178E+03</pdfrwt>
<totfact> 0.39335541E+01</totfact>
</mgrwt>
</event>
<event>
 9    1  0.4236486E-036  0.9998048E+03  0.7818608E-02  0.8681224E-01
         -1   -1    0    0    0  501 -0.00000000000E+00  0.00000000000E+00  0.17480453257E+03  0.17480453257E+03  0.00000000000E+00 0. -1.
          1   -1    0    0  501    0  0.00000000000E+00 -0.00000000000E+00 -0.14296106600E+04  0.14296106600E+04  0.00000000000E+00 0. -1.
         36    2    1    2    0    0  0.21316282073E-13  0.00000000000E+00 -0.12548061275E+04  0.16044151926E+04  0.99980482732E+03 0.  0.
         25    2    3    3    0    0  0.50832264593E+02 -0.58913470646E+02 -0.42100975376E+03  0.44599561044E+03  0.12493260432E+03 0.  0.
         35    2    3    3    0    0 -0.50832264593E+02  0.58913470646E+02 -0.83379637369E+03  0.11584195822E+04  0.80041540427E+03 0.  0.
         22    1    5    5    0    0 -0.21373607484E+03 -0.23119030637E+02  0.77897201696E+02  0.22866038857E+03  0.00000000000E+00 0. -1.
         22    1    5    5    0    0  0.16290381025E+03  0.82032501283E+02 -0.91169357539E+03  0.92975919359E+03  0.00000000000E+00 0. -1.
          5    1    4    4  502    0  0.90144024730E+02 -0.32211725140E+02 -0.32385055031E+03  0.33773482108E+03  0.47000000000E+01 0.  1.
         -5    1    4    4    0  502 -0.39311760137E+02 -0.26701745506E+02 -0.97159203445E+02  0.10826078936E+03  0.47000000000E+01 0.  1.
<mgrwt>
<rscale>  0 0.99980483E+03</rscale>
<asrwt>0</asrwt>
<pdfrwt beam="1">  1        1 0.21994009E+00 0.99980483E+03</pdfrwt>
<pdfrwt beam="2">  1       -1 0.26893006E-01 0.99980483E+03</pdfrwt>
<totfact> 0.98119506E+01</totfact>
</mgrwt>
</event>
<event>
 9    1  0.4236486E-036  0.9996853E+03  0.7818608E-02  0.8681338E-01
          1   -1    0    0  501    0  0.00000000000E+00  0.00000000000E+00  0.42589083169E+03  0.42589083169E+03  0.00000000000E+00 0. -1.
         -1   -1    0    0    0  501 -0.00000000000E+00 -0.00000000000E+00 -0.58663547239E+03  0.58663547239E+03  0.00000000000E+00 0. -1.
         36    2    1    2    0    0  0.00000000000E+00 -0.56843418861E-13 -0.16074464070E+03  0.10125263041E+04  0.99968528895E+03 0.  0.
         25    2    3    3    0    0  0.12770378147E+03 -0.53760614563E+02 -0.87324471485E+01  0.18713903735E+03  0.12548427863E+03 0.  0.
         35    2    3    3    0    0 -0.12770378147E+03  0.53760614563E+02 -0.15201219355E+03  0.82538726673E+03  0.79934846820E+03 0.  0.
         22    1    5    5    0    0  0.51351263498E+02 -0.35800179326E+03 -0.83521680582E+02  0.37118473482E+03  0.00000000000E+00 0.  1.
         22    1    5    5    0    0 -0.17905504497E+03  0.41176240782E+03 -0.68490512970E+02  0.45420253191E+03  0.00000000000E+00 0.  1.
          5    1    4    4  502    0  0.50150828441E+01 -0.45752422179E+01  0.43987006746E+02  0.44755230529E+02  0.47000000000E+01 0.  1.
         -5    1    4    4    0  502  0.12268869863E+03 -0.49185372345E+02 -0.52719453894E+02  0.14238380682E+03  0.47000000000E+01 0.  1.
<mgrwt>
<rscale>  0 0.99968529E+03</rscale>
<asrwt>0</asrwt>
<pdfrwt beam="1">  1        1 0.65521666E-01 0.99968529E+03</pdfrwt>
<pdfrwt beam="2">  1       -1 0.90251611E-01 0.99968529E+03</pdfrwt>
<totfact> 0.78830156E+01</totfact>
</mgrwt>
</event>
<event>
 9    1  0.4236486E-036  0.1000709E+04  0.7818608E-02  0.8680363E-01
         -2   -1    0    0    0  501 -0.00000000000E+00  0.00000000000E+00  0.64945250741E+02  0.64945250741E+02  0.00000000000E+00 0.  1.
          2   -1    0    0  501    0  0.00000000000E+00 -0.00000000000E+00 -0.38548565664E+04  0.38548565664E+04  0.00000000000E+00 0.  1.
         36    2    1    2    0    0  0.00000000000E+00 -0.28421709430E-13 -0.37899113156E+04  0.39198018171E+04  0.10007090012E+04 0.  0.
         25    2    3    3    0    0  0.69870305202E+02 -0.12190476627E+03 -0.68135675024E+03  0.70683156853E+03  0.12498485345E+03 0.  0.
         35    2    3    3    0    0 -0.69870305202E+02  0.12190476627E+03 -0.31085545654E+04  0.32129702486E+04  0.80020228733E+03 0.  0.
         22    1    5    5    0    0 -0.92598345801E+02  0.45359736662E+03 -0.14757947616E+04  0.15467046270E+04  0.00000000000E+00 0.  1.
         22    1    5    5    0    0  0.22728040599E+02 -0.33169260035E+03 -0.16327598038E+04  0.16662656216E+04  0.00000000000E+00 0.  1.
          5    1    4    4  502    0  0.84864922191E+02 -0.11121816994E+03 -0.38143058748E+03  0.40630397415E+03  0.47000000000E+01 0.  1.
         -5    1    4    4    0  502 -0.14994616989E+02 -0.10686596326E+02 -0.29992616276E+03  0.30052759438E+03  0.47000000000E+01 0.  1.
<mgrwt>
<rscale>  0 0.10007090E+04</rscale>
<asrwt>0</asrwt>
<pdfrwt beam="1">  1        2 0.59305470E+00 0.10007090E+04</pdfrwt>
<pdfrwt beam="2">  1       -2 0.99915797E-02 0.10007090E+04</pdfrwt>
<totfact> 0.30209668E+01</totfact>
</mgrwt>
</event>
<event>
 9    1  0.4236486E-036  0.9995759E+03  0.7818608E-02  0.8681442E-01
         -1   -1    0    0    0  501 -0.00000000000E+00  0.00000000000E+00  0.39921083514E+03  0.39921083514E+03  0.00000000000E+00 0. -1.
          1   -1    0    0  501    0  0.00000000000E+00 -0.00000000000E+00 -0.62570440456E+03  0.62570440456E+03  0.00000000000E+00 0. -1.
         36    2    1    2    0    0  0.14210854715E-13  0.71054273576E-14 -0.22649356942E+03  0.10249152397E+04  0.99957586585E+03 0.  0.
         25    2    3    3    0    0 -0.85052277188E+02  0.30010188572E+02  0.77294364914E+02  0.17744526601E+03  0.13182527189E+03 0.  0.
         35    2    3    3    0    0  0.85052277188E+02 -0.30010188572E+02 -0.30378793433E+03  0.84746997369E+03  0.78599220479E+03 0.  0.
         22    1    5    5    0    0 -0.26863782181E+03  0.21257573628E+03 -0.42344386793E+02  0.34517788176E+03  0.00000000000E+00 0. -1.
         22    1    5    5    0    0  0.35369009900E+03 -0.24258592485E+03 -0.26144354754E+03  0.50229209193E+03  0.00000000000E+00 0. -1.
          5    1    4    4  502    0 -0.11532985569E+03  0.32682356418E+02  0.83378148506E+02  0.14609283926E+03  0.47000000000E+01 0. -1.
         -5    1    4    4    0  502  0.30277578498E+02 -0.26721678466E+01 -0.60837835921E+01  0.31352426757E+02  0.47000000000E+01 0. -1.
<mgrwt>
<rscale>  0 0.99957587E+03</rscale>
<asrwt>0</asrwt>
<pdfrwt beam="1">  1        1 0.96262216E-01 0.99957587E+03</pdfrwt>
<pdfrwt beam="2">  1       -1 0.61417051E-01 0.99957587E+03</pdfrwt>
<totfact> 0.10047426E+02</totfact>
</mgrwt>
</event>
<event>
 9    1  0.4236486E-036  0.1000240E+04  0.7818608E-02  0.8680809E-01
          2   -1    0    0  501    0  0.00000000000E+00  0.00000000000E+00  0.66704292391E+03  0.66704292391E+03  0.00000000000E+00 0. -1.
         -2   -1    0    0    0  501 -0.00000000000E+00 -0.00000000000E+00 -0.37496841260E+03  0.37496841260E+03  0.00000000000E+00 0. -1.
         36    2    1    2    0    0  0.28421709430E-13  0.00000000000E+00  0.29207451131E+03  0.10420113365E+04  0.10002400238E+04 0.  0.
         25    2    3    3    0    0  0.13319763299E+03 -0.33644010021E+02  0.92541110309E+02  0.20567634101E+03  0.12192362900E+03 0.  0.
         35    2    3    3    0    0 -0.13319763299E+03  0.33644010021E+02  0.19953340100E+03  0.83633499551E+03  0.80048055426E+03 0.  0.
         22    1    5    5    0    0  0.44107792071E+02  0.39474326848E+03  0.17282055714E+03  0.43316820094E+03  0.00000000000E+00 0. -1.
         22    1    5    5    0    0 -0.17730542506E+03 -0.36109925846E+03  0.26712843858E+02  0.40316679457E+03  0.00000000000E+00 0. -1.
          5    1    4    4  502    0  0.13870481644E+02  0.29324934173E+02 -0.12022972021E+02  0.34913949669E+02  0.47000000000E+01 0. -1.
         -5    1    4    4    0  502  0.11932715135E+03 -0.62968944194E+02  0.10456408233E+03  0.17076239134E+03  0.47000000000E+01 0. -1.
<mgrwt>
<rscale>  0 0.10002400E+04</rscale>
<asrwt>0</asrwt>
<pdfrwt beam="1">  1        2 0.10262199E+00 0.10002400E+04</pdfrwt>
<pdfrwt beam="2">  1       -2 0.57687448E-01 0.10002400E+04</pdfrwt>
<totfact> 0.14823181E+02</totfact>
</mgrwt>
</event>
<event>
 9    1  0.4236486E-036  0.9997576E+03  0.7818608E-02  0.8681269E-01
         -1   -1    0    0    0  501 -0.00000000000E+00  0.00000000000E+00  0.92756920863E+03  0.92756920863E+03  0.00000000000E+00 0. -1.
          1   -1    0    0  501    0  0.00000000000E+00 -0.00000000000E+00 -0.26939100530E+03  0.26939100530E+03  0.00000000000E+00 0. -1.
         36    2    1    2    0    0  0.30198066270E-13  0.00000000000E+00  0.65817820333E+03  0.11969602139E+04  0.99975757380E+03 0.  0.
         25    2    3    3    0    0  0.15379937929E+02 -0.42870129085E+02  0.27836696630E+03  0.30899573728E+03  0.12615786647E+03 0.  0.
         35    2    3    3    0    0 -0.15379937929E+02  0.42870129085E+02  0.37981123703E+03  0.88796447664E+03  0.80134258937E+03 0.  0.
         22    1    5    5    0    0 -0.31260479733E+03 -0.11871418743E+03  0.43132005167E+03  0.54575800918E+03  0.00000000000E+00 0. -1.
         22    1    5    5    0    0  0.29722485940E+03  0.16158431652E+03 -0.51508814635E+02  0.34220646746E+03  0.00000000000E+00 0. -1.
          5    1    4    4  502    0  0.17967624426E+02  0.42179745156E+02  0.69281819638E+02  0.83210738257E+02  0.47000000000E+01 0.  1.
         -5    1    4    4    0  502 -0.25876864968E+01 -0.85049874241E+02  0.20908514666E+03  0.22578499902E+03  0.47000000000E+01 0.  1.
<mgrwt>
<rscale>  0 0.99975757E+03</rscale>
<asrwt>0</asrwt>
<pdfrwt beam="1">  1        1 0.41444771E-01 0.99975757E+03</pdfrwt>
<pdfrwt beam="2">  1       -1 0.14270295E+00 0.99975757E+03</pdfrwt>
<totfact> 0.47658726E+01</totfact>
</mgrwt>
</event>
<event>
 9    1  0.4236486E-036  0.9992093E+03  0.7818608E-02  0.8681791E-01
          2   -1    0    0  501    0  0.00000000000E+00  0.00000000000E+00  0.66036567087E+03  0.66036567087E+03  0.00000000000E+00 0. -1.
         -2   -1    0    0    0  501 -0.00000000000E+00 -0.00000000000E+00 -0.37797965192E+03  0.37797965192E+03  0.00000000000E+00 0. -1.
         36    2    1    2    0    0 -0.28421709430E-13 -0.71054273576E-14  0.28238601895E+03  0.10383453228E+04  0.99920926020E+03 0.  0.
         25    2    3    3    0    0 -0.13645837194E+03  0.16238627557E+02  0.42125512658E+02  0.19042125756E+03  0.12490442832E+03 0.  0.
         35    2    3    3    0    0  0.13645837194E+03 -0.16238627557E+02  0.24026050630E+03  0.84792406523E+03  0.80147709213E+03 0.  0.
         22    1    5    5    0    0  0.18562683926E+03 -0.12198977863E+03 -0.25554438530E+03  0.33858789465E+03  0.00000000000E+00 0. -1.
         22    1    5    5    0    0 -0.49168467318E+02  0.10575115107E+03  0.49580489160E+03  0.50933617058E+03  0.00000000000E+00 0. -1.
          5    1    4    4  502    0 -0.84466649076E+02 -0.43260064131E+02  0.55659646072E+02  0.11011872754E+03  0.47000000000E+01 0.  1.
         -5    1    4    4    0  502 -0.51991722869E+02  0.59498691689E+02 -0.13534133415E+02  0.80302530015E+02  0.47000000000E+01 0.  1.
<mgrwt>
<rscale>  0 0.99920926E+03</rscale>
<asrwt>0</asrwt>
<pdfrwt beam="1">  1        2 0.10159472E+00 0.99920926E+03</pdfrwt>
<pdfrwt beam="2">  1       -2 0.58150716E-01 0.99920926E+03</pdfrwt>
<totfact> 0.14759089E+02</totfact>
</mgrwt>
</event>
<event>
 9    1  0.4236486E-036  0.9992846E+03  0.7818608E-02  0.8681720E-01
         -2   -1    0    0    0  501 -0.00000000000E+00  0.00000000000E+00  0.18671184375E+03  0.18671184375E+03  0.00000000000E+00 0. -1.
          2   -1    0    0  501    0  0.00000000000E+00 -0.00000000000E+00 -0.13370465230E+04  0.13370465230E+04  0.00000000000E+00 0. -1.
         36    2    1    2    0    0  0.00000000000E+00 -0.28421709430E-13 -0.11503346792E+04  0.15237583667E+04  0.99928458705E+03 0.  0.
         25    2    3    3    0    0  0.44680203032E+02  0.47990036111E+02 -0.39137813367E+03  0.41642423666E+03  0.12622573927E+03 0.  0.
         35    2    3    3    0    0 -0.44680203032E+02 -0.47990036111E+02 -0.75895654553E+03  0.11073341300E+04  0.80366315919E+03 0.  0.
         22    1    5    5    0    0 -0.27358660227E+03 -0.26069985605E+03 -0.69094310723E+03  0.78753820308E+03  0.00000000000E+00 0.  1.
         22    1    5    5    0    0  0.22890639924E+03  0.21270981994E+03 -0.68013438300E+02  0.31979592696E+03  0.00000000000E+00 0.  1.
          5    1    4    4  502    0  0.22346074489E+02 -0.35450152922E+02 -0.22483206642E+03  0.22875228628E+03  0.47000000000E+01 0. -1.
         -5    1    4    4    0  502  0.22334128544E+02  0.83440189033E+02 -0.16654606725E+03  0.18767195038E+03  0.47000000000E+01 0. -1.
<mgrwt>
<rscale>  0 0.99928459E+03</rscale>
<asrwt>0</asrwt>
<pdfrwt beam="1">  1        2 0.20569946E+00 0.99928459E+03</pdfrwt>
<pdfrwt beam="2">  1       -2 0.28724900E-01 0.99928459E+03</pdfrwt>
<totfact> 0.20990412E+02</totfact>
</mgrwt>
</event>
<event>
 9    1  0.4236486E-036  0.1000836E+04  0.7818608E-02  0.8680242E-01
         -2   -1    0    0    0  501 -0.00000000000E+00  0.00000000000E+00  0.23192159201E+03  0.23192159201E+03  0.00000000000E+00 0. -1.
          2   -1    0    0  501    0  0.00000000000E+00 -0.00000000000E+00 -0.10797544116E+04  0.10797544116E+04  0.00000000000E+00 0. -1.
         36    2    1    2    0    0 -0.21316282073E-13  0.00000000000E+00 -0.84783281961E+03  0.13116760036E+04  0.10008363745E+04 0.  0.
         25    2    3    3    0    0  0.52164822592E+02  0.12327573334E+03 -0.85892463022E+02  0.20198736529E+03  0.12451227002E+03 0.  0.
         35    2    3    3    0    0 -0.52164822592E+02 -0.12327573334E+03 -0.76194035659E+03  0.11096886383E+04  0.79557381300E+03 0.  0.
         22    1    5    5    0    0  0.32869494776E+03 -0.33552223227E+02 -0.10796755823E+03  0.34759619387E+03  0.00000000000E+00 0. -1.
         22    1    5    5    0    0 -0.38085977035E+03 -0.89723510110E+02 -0.65397279835E+03  0.76209244447E+03  0.00000000000E+00 0. -1.
          5    1    4    4  502    0 -0.16524084079E+02  0.11163439437E+03 -0.51024948703E+02  0.12393917359E+03  0.47000000000E+01 0.  1.
         -5    1    4    4    0  502  0.68688906671E+02  0.11641338972E+02 -0.34867514319E+02  0.78048191699E+02  0.47000000000E+01 0.  1.
<mgrwt>
<rscale>  0 0.10008364E+04</rscale>
<asrwt>0</asrwt>
<pdfrwt beam="1">  1        2 0.16611606E+00 0.10008364E+04</pdfrwt>
<pdfrwt beam="2">  1       -2 0.35680245E-01 0.10008364E+04</pdfrwt>
<totfact> 0.19988708E+02</totfact>
</mgrwt>
</event>
<event>
 9    1  0.4236486E-036  0.9997787E+03  0.7818608E-02  0.8681249E-01
          1   -1    0    0  501    0  0.00000000000E+00  0.00000000000E+00  0.56013070732E+03  0.56013070732E+03  0.00000000000E+00 0.  1.
         -1   -1    0    0    0  501 -0.00000000000E+00 -0.00000000000E+00 -0.44612683799E+03  0.44612683799E+03  0.00000000000E+00 0.  1.
         36    2    1    2    0    0  0.71054273576E-14  0.35527136788E-14  0.11400386933E+03  0.10062575453E+04  0.99977865813E+03 0.  0.
         25    2    3    3    0    0  0.33039810745E+02  0.28175685363E+02 -0.11205542428E+03  0.17393673508E+03  0.12574605902E+03 0.  0.
         35    2    3    3    0    0 -0.33039810745E+02 -0.28175685363E+02  0.22605929361E+03  0.83232081023E+03  0.79985600490E+03 0.  0.
         22    1    5    5    0    0  0.37116582099E+03 -0.10205275403E+03  0.62108041324E+02  0.38991824793E+03  0.00000000000E+00 0. -1.
         22    1    5    5    0    0 -0.40420563173E+03  0.73877068671E+02  0.16395125228E+03  0.44240256229E+03  0.00000000000E+00 0. -1.
          5    1    4    4  502    0  0.34207890606E+02  0.13901192262E+02 -0.13854529744E+03  0.14345839943E+03  0.47000000000E+01 0.  1.
         -5    1    4    4    0  502 -0.11680798614E+01  0.14274493102E+02  0.26489873156E+02  0.30478335645E+02  0.47000000000E+01 0.  1.
<mgrwt>
<rscale>  0 0.99977866E+03</rscale>
<asrwt>0</asrwt>
<pdfrwt beam="1">  1        1 0.86173956E-01 0.99977866E+03</pdfrwt>
<pdfrwt beam="2">  1       -1 0.68634898E-01 0.99977866E+03</pdfrwt>
<totfact> 0.95041567E+01</totfact>
</mgrwt>
</event>
<event>
 9    1  0.4236486E-036  0.1005676E+04  0.7818608E-02  0.8675652E-01
         -1   -1    0    0    0  501 -0.00000000000E+00  0.00000000000E+00  0.50505538636E+03  0.50505538636E+03  0.00000000000E+00 0.  1.
          1   -1    0    0  501    0  0.00000000000E+00 -0.00000000000E+00 -0.50063012274E+03  0.50063012274E+03  0.00000000000E+00 0.  1.
         36    2    1    2    0    0  0.14210854715E-13  0.00000000000E+00  0.44252636269E+01  0.10056855091E+04  0.10056757729E+04 0.  0.
         25    2    3    3    0    0 -0.39764786515E+02 -0.53273643429E+02  0.13136083540E+03  0.19330869457E+03  0.12527275436E+03 0.  0.
         35    2    3    3    0    0  0.39764786515E+02  0.53273643429E+02 -0.12693557178E+03  0.81237681453E+03  0.79964000030E+03 0.  0.
         22    1    5    5    0    0  0.17969477327E+03  0.38111852526E+03 -0.16789041276E+03  0.45357329345E+03  0.00000000000E+00 0. -1.
         22    1    5    5    0    0 -0.13992998676E+03 -0.32784488183E+03  0.40954840985E+02  0.35880352108E+03  0.00000000000E+00 0. -1.
          5    1    4    4  502    0  0.27398768201E+02 -0.52492151058E+02  0.10571139174E+03  0.12125636794E+03  0.47000000000E+01 0. -1.
         -5    1    4    4    0  502 -0.67163554716E+02 -0.78149237062E+00  0.25649443663E+02  0.72052326629E+02  0.47000000000E+01 0. -1.
<mgrwt>
<rscale>  0 0.10056758E+04</rscale>
<asrwt>0</asrwt>
<pdfrwt beam="1">  1        1 0.77020019E-01 0.10056758E+04</pdfrwt>
<pdfrwt beam="2">  1       -1 0.77700829E-01 0.10056758E+04</pdfrwt>
<totfact> 0.86668345E+01</totfact>
</mgrwt>
</event>
<event>
 9    1  0.4236486E-036  0.1000134E+04  0.7818608E-02  0.8680911E-01
         -1   -1    0    0    0  501 -0.00000000000E+00  0.00000000000E+00  0.32146314476E+03  0.32146314476E+03  0.00000000000E+00 0.  1.
          1   -1    0    0  501    0  0.00000000000E+00 -0.00000000000E+00 -0.77790216197E+03  0.77790216197E+03  0.00000000000E+00 0.  1.
         36    2    1    2    0    0  0.00000000000E+00 -0.21316282073E-13 -0.45643901721E+03  0.10993653067E+04  0.10001337417E+04 0.  0.
         25    2    3    3    0    0  0.14638290444E+02  0.16508328718E+02  0.66263436006E+02  0.14325494517E+03  0.12507730370E+03 0.  0.
         35    2    3    3    0    0 -0.14638290444E+02 -0.16508328718E+02 -0.52270245321E+03  0.95611036156E+03  0.80027643001E+03 0.  0.
         22    1    5    5    0    0 -0.10380160102E+03  0.21190304266E+03  0.12251625749E+03  0.26587197146E+03  0.00000000000E+00 0.  1.
         22    1    5    5    0    0  0.89163310571E+02 -0.22841137137E+03 -0.64521871070E+03  0.69023839010E+03  0.00000000000E+00 0.  1.
          5    1    4    4  502    0  0.60069296350E+02  0.32748944572E+02  0.10515915497E+02  0.69379306809E+02  0.47000000000E+01 0. -1.
         -5    1    4    4    0  502 -0.45431005906E+02 -0.16240615853E+02  0.55747520509E+02  0.73875638365E+02  0.47000000000E+01 0. -1.
<mgrwt>
<rscale>  0 0.10001337E+04</rscale>
<asrwt>0</asrwt>
<pdfrwt beam="1">  1        1 0.11967726E+00 0.10001337E+04</pdfrwt>
<pdfrwt beam="2">  1       -1 0.49455868E-01 0.10001337E+04</pdfrwt>
<totfact> 0.10815058E+02</totfact>
</mgrwt>
</event>
<event>
 9    1  0.4236486E-036  0.9927665E+03  0.7818608E-02  0.8687957E-01
          1   -1    0    0  501    0  0.00000000000E+00  0.00000000000E+00  0.17245307756E+04  0.17245307756E+04  0.00000000000E+00 0.  1.
         -1   -1    0    0    0  501 -0.00000000000E+00 -0.00000000000E+00 -0.14287732472E+03  0.14287732472E+03  0.00000000000E+00 0.  1.
         36    2    1    2    0    0  0.00000000000E+00  0.00000000000E+00  0.15816534509E+04  0.18674081003E+04  0.99276652567E+03 0.  0.
         25    2    3    3    0    0 -0.25302204873E+02 -0.93815693404E+02  0.12620743052E+03  0.20365762574E+03  0.12691149319E+03 0.  0.
         35    2    3    3    0    0  0.25302204873E+02  0.93815693404E+02  0.14554460204E+04  0.16637504746E+04  0.80018806390E+03 0.  0.
         22    1    5    5    0    0  0.11312416618E+02 -0.16161679249E+03  0.13903838002E+04  0.13997910809E+04  0.00000000000E+00 0. -1.
         22    1    5    5    0    0  0.13989788255E+02  0.25543248590E+03  0.65062220200E+02  0.26395939370E+03  0.00000000000E+00 0. -1.
          5    1    4    4  502    0 -0.34339778644E+02 -0.33155928979E+02 -0.14487398703E+02  0.50104997206E+02  0.47000000000E+01 0.  1.
         -5    1    4    4    0  502  0.90375737706E+01 -0.60659764425E+02  0.14069482923E+03  0.15355262854E+03  0.47000000000E+01 0.  1.
<mgrwt>
<rscale>  0 0.99276653E+03</rscale>
<asrwt>0</asrwt>
<pdfrwt beam="1">  1        1 0.26531241E+00 0.99276653E+03</pdfrwt>
<pdfrwt beam="2">  1       -1 0.21981128E-01 0.99276653E+03</pdfrwt>
<totfact> 0.85038694E+01</totfact>
</mgrwt>
</event>
<event>
 9    1  0.4236486E-036  0.9997048E+03  0.7818608E-02  0.8681319E-01
         -2   -1    0    0    0  501 -0.00000000000E+00  0.00000000000E+00  0.18259497884E+03  0.18259497884E+03  0.00000000000E+00 0.  1.
          2   -1    0    0  501    0  0.00000000000E+00 -0.00000000000E+00 -0.13683421178E+04  0.13683421178E+04  0.00000000000E+00 0.  1.
         36    2    1    2    0    0 -0.14210854715E-13  0.00000000000E+00 -0.11857471390E+04  0.15509370966E+04  0.99970475651E+03 0.  0.
         25    2    3    3    0    0 -0.94266128571E+02 -0.89444750140E+02 -0.29835601939E+03  0.34895372074E+03  0.12595998806E+03 0.  0.
         35    2    3    3    0    0  0.94266128571E+02  0.89444750140E+02 -0.88739111958E+03  0.12019833759E+04  0.80025906462E+03 0.  0.
         22    1    5    5    0    0  0.84886163504E+02  0.44579080493E+03 -0.51726217218E+03  0.68810991657E+03  0.00000000000E+00 0. -1.
         22    1    5    5    0    0  0.93799650675E+01 -0.35634605479E+03 -0.37012894740E+03  0.51387345934E+03  0.00000000000E+00 0. -1.
          5    1    4    4  502    0 -0.15356990223E+02 -0.87944996242E+02 -0.93461112192E+02  0.12933378911E+03  0.47000000000E+01 0.  1.
         -5    1    4    4    0  502 -0.78909138349E+02 -0.14997538984E+01 -0.20489490720E+03  0.21961993164E+03  0.47000000000E+01 0.  1.
<mgrwt>
<rscale>  0 0.99970476E+03</rscale>
<asrwt>0</asrwt>
<pdfrwt beam="1">  1        2 0.21051417E+00 0.99970476E+03</pdfrwt>
<pdfrwt beam="2">  1       -2 0.28091536E-01 0.99970476E+03</pdfrwt>
<totfact> 0.20967082E+02</totfact>
</mgrwt>
</event>
<event>
 9    1  0.4236486E-036  0.1000565E+04  0.7818608E-02  0.8680500E-01
          2   -1    0    0  501    0  0.00000000000E+00  0.00000000000E+00  0.21286453516E+04  0.21286453516E+04  0.00000000000E+00 0.  1.
         -2   -1    0    0    0  501 -0.00000000000E+00 -0.00000000000E+00 -0.11757831158E+03  0.11757831158E+03  0.00000000000E+00 0.  1.
         36    2    1    2    0    0 -0.88817841970E-14  0.14210854715E-13  0.20110670400E+04  0.22462236631E+04  0.10005648932E+04 0.  0.
         25    2    3    3    0    0 -0.11450719069E+02 -0.12253965192E+03  0.23200140586E+03  0.29076276388E+03  0.12478480389E+03 0.  0.
         35    2    3    3    0    0  0.11450719069E+02  0.12253965192E+03  0.17790656341E+04  0.19554608993E+04  0.80225040527E+03 0.  0.
         22    1    5    5    0    0 -0.14867831360E+03  0.18158071352E+03  0.80148632123E+02  0.24799314444E+03  0.00000000000E+00 0. -1.
         22    1    5    5    0    0  0.16012903267E+03 -0.59041061602E+02  0.16989170020E+04  0.17074677548E+04  0.00000000000E+00 0. -1.
          5    1    4    4  502    0 -0.78509539810E+01 -0.13367580754E+03  0.24067331955E+03  0.27545706697E+03  0.47000000000E+01 0. -1.
         -5    1    4    4    0  502 -0.35997650882E+01  0.11136155622E+02 -0.86719136963E+01  0.15305696910E+02  0.47000000000E+01 0. -1.
<mgrwt>
<rscale>  0 0.10005649E+04</rscale>
<asrwt>0</asrwt>
<pdfrwt beam="1">  1        2 0.32748387E+00 0.10005649E+04</pdfrwt>
<pdfrwt beam="2">  1       -2 0.18088973E-01 0.10005649E+04</pdfrwt>
<totfact> 0.16815087E+02</totfact>
</mgrwt>
</event>
<event>
 9    1  0.4236486E-036  0.1000542E+04  0.7818608E-02  0.8680522E-01
         -2   -1    0    0    0  501 -0.00000000000E+00  0.00000000000E+00  0.62216704918E+03  0.62216704918E+03  0.00000000000E+00 0. -1.
          2   -1    0    0  501    0  0.00000000000E+00 -0.00000000000E+00 -0.40225739199E+03  0.40225739199E+03  0.00000000000E+00 0. -1.
         36    2    1    2    0    0 -0.14210854715E-13  0.00000000000E+00  0.21990965718E+03  0.10244244412E+04  0.10005424421E+04 0.  0.
         25    2    3    3    0    0 -0.12724083427E+03 -0.54682938077E+02  0.77176373464E+02  0.20113047962E+03  0.12376115541E+03 0.  0.
         35    2    3    3    0    0  0.12724083427E+03  0.54682938077E+02  0.14273328372E+03  0.82329396155E+03  0.79891157409E+03 0.  0.
         22    1    5    5    0    0  0.15392794825E+03 -0.12434760431E+03 -0.29180042879E+03  0.35256719954E+03  0.00000000000E+00 0. -1.
         22    1    5    5    0    0 -0.26687113978E+02  0.17903054239E+03  0.43453371251E+03  0.47072676201E+03  0.00000000000E+00 0. -1.
          5    1    4    4  502    0 -0.43427234388E+02  0.32658171742E+02 -0.49666995317E+01  0.54765308110E+02  0.47000000000E+01 0. -1.
         -5    1    4    4    0  502 -0.83813599884E+02 -0.87341109819E+02  0.82143072996E+02  0.14636517151E+03  0.47000000000E+01 0. -1.
<mgrwt>
<rscale>  0 0.10005424E+04</rscale>
<asrwt>0</asrwt>
<pdfrwt beam="1">  1        2 0.61885752E-01 0.10005424E+04</pdfrwt>
<pdfrwt beam="2">  1       -2 0.95718008E-01 0.10005424E+04</pdfrwt>
<totfact> 0.86201479E+01</totfact>
</mgrwt>
</event>
<event>
 9    1  0.4236486E-036  0.1000057E+04  0.7818608E-02  0.8680983E-01
          2   -1    0    0  501    0  0.00000000000E+00  0.00000000000E+00  0.89704998223E+03  0.89704998223E+03  0.00000000000E+00 0. -1.
         -2   -1    0    0    0  501 -0.00000000000E+00 -0.00000000000E+00 -0.27872326918E+03  0.27872326918E+03  0.00000000000E+00 0. -1.
         36    2    1    2    0    0 -0.56843418861E-13  0.35527136788E-14  0.61832671305E+03  0.11757732514E+04  0.10000574057E+04 0.  0.
         25    2    3    3    0    0  0.14048096874E+03  0.14541878425E+00  0.13020047851E+03  0.22862506002E+03  0.12482920227E+03 0.  0.
         35    2    3    3    0    0 -0.14048096874E+03 -0.14541878425E+00  0.48812623454E+03  0.94714819139E+03  0.79942951652E+03 0.  0.
         22    1    5    5    0    0 -0.42820333365E+03 -0.13347339073E+03  0.12617704644E+03  0.46593335149E+03  0.00000000000E+00 0.  1.
         22    1    5    5    0    0  0.28772236491E+03  0.13332797194E+03  0.36194918810E+03  0.48121483990E+03  0.00000000000E+00 0.  1.
          5    1    4    4  502    0  0.31747559184E+02  0.92658678253E+01  0.11328390492E+03  0.11810629507E+03  0.47000000000E+01 0.  1.
         -5    1    4    4    0  502  0.10873340956E+03 -0.91204490410E+01  0.16916573591E+02  0.11051876495E+03  0.47000000000E+01 0.  1.
<mgrwt>
<rscale>  0 0.10000574E+04</rscale>
<asrwt>0</asrwt>
<pdfrwt beam="1">  1        2 0.13800769E+00 0.10000574E+04</pdfrwt>
<pdfrwt beam="2">  1       -2 0.42880503E-01 0.10000574E+04</pdfrwt>
<totfact> 0.18374781E+02</totfact>
</mgrwt>
</event>
<event>
 9    1  0.4236486E-036  0.1000142E+04  0.7818608E-02  0.8680903E-01
         -1   -1    0    0    0  501 -0.00000000000E+00  0.00000000000E+00  0.34866286940E+03  0.34866286940E+03  0.00000000000E+00 0.  1.
          1   -1    0    0  501    0  0.00000000000E+00 -0.00000000000E+00 -0.71722901246E+03  0.71722901246E+03  0.00000000000E+00 0.  1.
         36    2    1    2    0    0 -0.14210854715E-13  0.00000000000E+00 -0.36856614306E+03  0.10658918819E+04  0.10001422409E+04 0.  0.
         25    2    3    3    0    0 -0.91170443351E+02  0.54605969703E+02 -0.16813539024E+03  0.23546895736E+03  0.12602483390E+03 0.  0.
         35    2    3    3    0    0  0.91170443351E+02 -0.54605969703E+02 -0.20043075282E+03  0.83042292450E+03  0.79883407864E+03 0.  0.
         22    1    5    5    0    0 -0.11427959432E+03  0.25860154375E+03  0.14775774322E+03  0.31900930204E+03  0.00000000000E+00 0.  1.
         22    1    5    5    0    0  0.20545003767E+03 -0.31320751345E+03 -0.34818849604E+03  0.51141362246E+03  0.00000000000E+00 0.  1.
          5    1    4    4  502    0 -0.28278898584E+02 -0.24770492723E+02 -0.11485050543E+03  0.12093800896E+03  0.47000000000E+01 0.  1.
         -5    1    4    4    0  502 -0.62891544767E+02  0.79376462425E+02 -0.53284884815E+02  0.11453094839E+03  0.47000000000E+01 0.  1.
<mgrwt>
<rscale>  0 0.10001422E+04</rscale>
<asrwt>0</asrwt>
<pdfrwt beam="1">  1        1 0.11034292E+00 0.10001422E+04</pdfrwt>
<pdfrwt beam="2">  1       -1 0.53640442E-01 0.10001422E+04</pdfrwt>
<totfact> 0.10570259E+02</totfact>
</mgrwt>
</event>
<event>
 9    1  0.4236486E-036  0.9998665E+03  0.7818608E-02  0.8681165E-01
         -2   -1    0    0    0  501 -0.00000000000E+00  0.00000000000E+00  0.73151975780E+02  0.73151975780E+02  0.00000000000E+00 0. -1.
          2   -1    0    0  501    0  0.00000000000E+00 -0.00000000000E+00 -0.34166303359E+04  0.34166303359E+04  0.00000000000E+00 0. -1.
         36    2    1    2    0    0  0.00000000000E+00 -0.21316282073E-13 -0.33434783601E+04  0.34897823117E+04  0.99986651025E+03 0.  0.
         25    2    3    3    0    0  0.83215297827E+02  0.24967385320E+02 -0.10155423799E+04  0.10268261806E+04  0.12448905049E+03 0.  0.
         35    2    3    3    0    0 -0.83215297827E+02 -0.24967385320E+02 -0.23279359802E+04  0.24629561310E+04  0.79957414881E+03 0.  0.
         22    1    5    5    0    0 -0.87069213713E+02  0.29468640402E+03 -0.19212522398E+04  0.19456698830E+04  0.00000000000E+00 0. -1.
         22    1    5    5    0    0  0.38539158854E+01 -0.31965378934E+03 -0.40668374037E+03  0.51728624801E+03  0.00000000000E+00 0. -1.
          5    1    4    4  502    0  0.62584299655E+02  0.74687973993E+02 -0.62688797168E+03  0.63443337480E+03  0.47000000000E+01 0.  1.
         -5    1    4    4    0  502  0.20630998172E+02 -0.49720588673E+02 -0.38865440823E+03  0.39239280582E+03  0.47000000000E+01 0.  1.
<mgrwt>
<rscale>  0 0.99986651E+03</rscale>
<asrwt>0</asrwt>
<pdfrwt beam="1">  1        2 0.52563552E+00 0.99986651E+03</pdfrwt>
<pdfrwt beam="2">  1       -2 0.11254148E-01 0.99986651E+03</pdfrwt>
<totfact> 0.54945207E+01</totfact>
</mgrwt>
</event>
<event>
 9    1  0.4236486E-036  0.9977066E+03  0.7818608E-02  0.8683225E-01
          1   -1    0    0  501    0  0.00000000000E+00  0.00000000000E+00  0.30229644167E+03  0.30229644167E+03  0.00000000000E+00 0.  1.
         -1   -1    0    0    0  501 -0.00000000000E+00 -0.00000000000E+00 -0.82321388267E+03  0.82321388267E+03  0.00000000000E+00 0.  1.
         36    2    1    2    0    0 -0.28421709430E-13  0.00000000000E+00 -0.52091744099E+03  0.11255103243E+04  0.99770662515E+03 0.  0.
         25    2    3    3    0    0 -0.99747628247E+02 -0.23412300997E+02  0.63916148048E+01  0.16171850194E+03  0.12495717647E+03 0.  0.
         35    2    3    3    0    0  0.99747628247E+02  0.23412300997E+02 -0.52730905580E+03  0.96379182240E+03  0.80021379107E+03 0.  0.
         22    1    5    5    0    0 -0.18384490579E+03  0.22558917414E+03  0.44368779112E+02  0.29437733173E+03  0.00000000000E+00 0.  1.
         22    1    5    5    0    0  0.28359253404E+03 -0.20217687314E+03 -0.57167783491E+03  0.66941449067E+03  0.00000000000E+00 0.  1.
          5    1    4    4  502    0 -0.87057407599E+02 -0.70791217118E+02  0.53937061422E+01  0.11243473976E+03  0.47000000000E+01 0. -1.
         -5    1    4    4    0  502 -0.12690220648E+02  0.47378916120E+02  0.99790866253E+00  0.49283762179E+02  0.47000000000E+01 0. -1.
<mgrwt>
<rscale>  0 0.99770663E+03</rscale>
<asrwt>0</asrwt>
<pdfrwt beam="1">  1        1 0.46507145E-01 0.99770663E+03</pdfrwt>
<pdfrwt beam="2">  1       -1 0.12664829E+00 0.99770663E+03</pdfrwt>
<totfact> 0.56410250E+01</totfact>
</mgrwt>
</event>
<event>
 9    1  0.4236486E-036  0.1003448E+04  0.7818608E-02  0.8677761E-01
         -2   -1    0    0    0  501 -0.00000000000E+00  0.00000000000E+00  0.11868600412E+03  0.11868600412E+03  0.00000000000E+00 0.  1.
          2   -1    0    0  501    0  0.00000000000E+00 -0.00000000000E+00 -0.21209484598E+04  0.21209484598E+04  0.00000000000E+00 0.  1.
         36    2    1    2    0    0  0.14210854715E-13  0.00000000000E+00 -0.20022624557E+04  0.22396344639E+04  0.10034478514E+04 0.  0.
         25    2    3    3    0    0 -0.21064488508E+02  0.11924362313E+03 -0.55023177971E+03  0.57722139237E+03  0.12556579980E+03 0.  0.
         35    2    3    3    0    0  0.21064488508E+02 -0.11924362313E+03 -0.14520306760E+04  0.16624130715E+04  0.80035078692E+03 0.  0.
         22    1    5    5    0    0  0.16183646850E+03  0.48689863790E+02 -0.14324763995E+04  0.14424113077E+04  0.00000000000E+00 0.  1.
         22    1    5    5    0    0 -0.14077198000E+03 -0.16793348692E+03 -0.19554276483E+02  0.22000176388E+03  0.00000000000E+00 0.  1.
          5    1    4    4  502    0 -0.60305295133E+02  0.43245884724E+02 -0.14409266353E+03  0.16214721968E+03  0.47000000000E+01 0. -1.
         -5    1    4    4    0  502  0.39240806625E+02  0.75997738406E+02 -0.40613911618E+03  0.41507417270E+03  0.47000000000E+01 0. -1.
<mgrwt>
<rscale>  0 0.10034479E+04</rscale>
<asrwt>0</asrwt>
<pdfrwt beam="1">  1        2 0.32629974E+00 0.10034479E+04</pdfrwt>
<pdfrwt beam="2">  1       -2 0.18259387E-01 0.10034479E+04</pdfrwt>
<totfact> 0.16716841E+02</totfact>
</mgrwt>
</event>
<event>
 9    1  0.4236486E-036  0.1000148E+04  0.7818608E-02  0.8680897E-01
          2   -1    0    0  501    0  0.00000000000E+00  0.00000000000E+00  0.13138131188E+04  0.13138131188E+04  0.00000000000E+00 0. -1.
         -2   -1    0    0    0  501 -0.00000000000E+00 -0.00000000000E+00 -0.19034216972E+03  0.19034216972E+03  0.00000000000E+00 0. -1.
         36    2    1    2    0    0 -0.28421709430E-13  0.00000000000E+00  0.11234709491E+04  0.15041552886E+04  0.10001480683E+04 0.  0.
         25    2    3    3    0    0  0.11242361458E+03 -0.75776973826E+02  0.15676124737E+03  0.24191426877E+03  0.12476860936E+03 0.  0.
         35    2    3    3    0    0 -0.11242361458E+03  0.75776973826E+02  0.96670970174E+03  0.12622410198E+04  0.80021467476E+03 0.  0.
         22    1    5    5    0    0 -0.13903249750E+03  0.82339870759E+02 -0.10336320615E+03  0.19181721003E+03  0.00000000000E+00 0.  1.
         22    1    5    5    0    0  0.26608882921E+02 -0.65628969330E+01  0.10700729079E+04  0.10704238098E+04  0.00000000000E+00 0.  1.
          5    1    4    4  502    0  0.11865953370E+03 -0.87915826256E+02  0.88688655176E+02  0.17232830586E+03  0.47000000000E+01 0.  1.
         -5    1    4    4    0  502 -0.62359191291E+01  0.12138852430E+02  0.68072592195E+02  0.69585962909E+02  0.47000000000E+01 0.  1.
<mgrwt>
<rscale>  0 0.10001481E+04</rscale>
<asrwt>0</asrwt>
<pdfrwt beam="1">  1        2 0.20212509E+00 0.10001481E+04</pdfrwt>
<pdfrwt beam="2">  1       -2 0.29283412E-01 0.10001481E+04</pdfrwt>
<totfact> 0.20906165E+02</totfact>
</mgrwt>
</event>
<event>
 9    1  0.4236486E-036  0.1001953E+04  0.7818608E-02  0.8679180E-01
         -1   -1    0    0    0  501 -0.00000000000E+00  0.00000000000E+00  0.12193834388E+03  0.12193834388E+03  0.00000000000E+00 0. -1.
          1   -1    0    0  501    0  0.00000000000E+00 -0.00000000000E+00 -0.20582336262E+04  0.20582336262E+04  0.00000000000E+00 0. -1.
         36    2    1    2    0    0 -0.49737991503E-13  0.00000000000E+00 -0.19362952823E+04  0.21801719701E+04  0.10019532917E+04 0.  0.
         25    2    3    3    0    0  0.16864956940E+02  0.12208146321E+03 -0.52460438974E+03  0.55307969407E+03  0.12449526828E+03 0.  0.
         35    2    3    3    0    0 -0.16864956940E+02 -0.12208146321E+03 -0.14116908926E+04  0.16270922760E+04  0.79960602053E+03 0.  0.
         22    1    5    5    0    0 -0.34158919269E+03 -0.12979516005E+03 -0.11599395332E+04  0.12161371966E+04  0.00000000000E+00 0. -1.
         22    1    5    5    0    0  0.32472423575E+03  0.77136968391E+01 -0.25175135940E+03  0.41095507949E+03  0.00000000000E+00 0. -1.
          5    1    4    4  502    0 -0.40063728912E+02  0.87438533875E+02 -0.40287318666E+03  0.41422155196E+03  0.47000000000E+01 0.  1.
         -5    1    4    4    0  502  0.56928685852E+02  0.34642929340E+02 -0.12173120308E+03  0.13885814211E+03  0.47000000000E+01 0.  1.
<mgrwt>
<rscale>  0 0.10019533E+04</rscale>
<asrwt>0</asrwt>
<pdfrwt beam="1">  1        1 0.31665133E+00 0.10019533E+04</pdfrwt>
<pdfrwt beam="2">  1       -1 0.18759745E-01 0.10019533E+04</pdfrwt>
<totfact> 0.64425147E+01</totfact>
</mgrwt>
</event>
<event>
 9    1  0.4236486E-036  0.1000137E+04  0.7818608E-02  0.8680908E-01
         -2   -1    0    0    0  501 -0.00000000000E+00  0.00000000000E+00  0.98587564340E+02  0.98587564340E+02  0.00000000000E+00 0. -1.
          2   -1    0    0  501    0  0.00000000000E+00 -0.00000000000E+00 -0.25365113647E+04  0.25365113647E+04  0.00000000000E+00 0. -1.
         36    2    1    2    0    0  0.00000000000E+00  0.28421709430E-13 -0.24379238004E+04  0.26350989291E+04  0.10001369454E+04 0.  0.
         25    2    3    3    0    0  0.35134283484E+02  0.80733151191E+02 -0.74854854007E+03  0.76396418947E+03  0.12475618774E+03 0.  0.
         35    2    3    3    0    0 -0.35134283484E+02 -0.80733151191E+02 -0.16893752603E+04  0.18711347396E+04  0.79962752827E+03 0.  0.
         22    1    5    5    0    0 -0.24622935766E+03 -0.34290084705E+03 -0.12385658893E+04  0.13085317534E+04  0.00000000000E+00 0.  1.
         22    1    5    5    0    0  0.21109507418E+03  0.26216769586E+03 -0.45080937100E+03  0.56260298620E+03  0.00000000000E+00 0.  1.
          5    1    4    4  502    0 -0.28797761786E+02  0.83553922362E+02 -0.44114121687E+03  0.44993136393E+03  0.47000000000E+01 0.  1.
         -5    1    4    4    0  502  0.63932045269E+02 -0.28207711710E+01 -0.30740732320E+03  0.31403282554E+03  0.47000000000E+01 0.  1.
<mgrwt>
<rscale>  0 0.10001369E+04</rscale>
<asrwt>0</asrwt>
<pdfrwt beam="1">  1        2 0.39023249E+00 0.10001369E+04</pdfrwt>
<pdfrwt beam="2">  1       -2 0.15167319E-01 0.10001369E+04</pdfrwt>
<totfact> 0.12984938E+02</totfact>
</mgrwt>
</event>
<event>
 9    1  0.4236486E-036  0.1000433E+04  0.7818608E-02  0.8680626E-01
         -1   -1    0    0    0  501 -0.00000000000E+00  0.00000000000E+00  0.38627550518E+03  0.38627550518E+03  0.00000000000E+00 0. -1.
          1   -1    0    0  501    0  0.00000000000E+00 -0.00000000000E+00 -0.64776678586E+03  0.64776678586E+03  0.00000000000E+00 0. -1.
         36    2    1    2    0    0 -0.14210854715E-13  0.14210854715E-13 -0.26149128068E+03  0.10340422910E+04  0.10004327912E+04 0.  0.
         25    2    3    3    0    0  0.61212429917E+02 -0.72776179456E+02 -0.15668433114E+03  0.22191616734E+03  0.12511383549E+03 0.  0.
         35    2    3    3    0    0 -0.61212429917E+02  0.72776179456E+02 -0.10480694954E+03  0.81212612371E+03  0.79970057538E+03 0.  0.
         22    1    5    5    0    0 -0.75687256688E+02 -0.28065152895E+03  0.19367921798E+03  0.34929282988E+03  0.00000000000E+00 0. -1.
         22    1    5    5    0    0  0.14474826771E+02  0.35342770841E+03 -0.29848616751E+03  0.46283329383E+03  0.00000000000E+00 0. -1.
          5    1    4    4  502    0 -0.25541957638E+02 -0.63606911250E+02 -0.56189495203E+02  0.88755732941E+02  0.47000000000E+01 0. -1.
         -5    1    4    4    0  502  0.86754387556E+02 -0.91692682063E+01 -0.10049483594E+03  0.13316043440E+03  0.47000000000E+01 0. -1.
<mgrwt>
<rscale>  0 0.10004328E+04</rscale>
<asrwt>0</asrwt>
<pdfrwt beam="1">  1        1 0.99656428E-01 0.10004328E+04</pdfrwt>
<pdfrwt beam="2">  1       -1 0.59427001E-01 0.10004328E+04</pdfrwt>
<totfact> 0.10164844E+02</totfact>
</mgrwt>
</event>
<event>
 9    1  0.4236486E-036  0.9997584E+03  0.7818608E-02  0.8681268E-01
          2   -1    0    0  501    0  0.00000000000E+00  0.00000000000E+00  0.21731890772E+03  0.21731890772E+03  0.00000000000E+00 0.  1.
         -2   -1    0    0    0  501 -0.00000000000E+00 -0.00000000000E+00 -0.11498272549E+04  0.11498272549E+04  0.00000000000E+00 0.  1.
         36    2    1    2    0    0  0.00000000000E+00  0.71054273576E-14 -0.93250834715E+03  0.13671461626E+04  0.99975837699E+03 0.  0.
         25    2    3    3    0    0 -0.73676149185E+02  0.37178233492E+02 -0.13791196441E+02  0.15016519784E+03  0.12469560352E+03 0.  0.
         35    2    3    3    0    0  0.73676149185E+02 -0.37178233492E+02 -0.91871715071E+03  0.12169809647E+04  0.79384574669E+03 0.  0.
         22    1    5    5    0    0  0.59795854496E+02 -0.37268699707E+03 -0.20809724550E+03  0.43101694350E+03  0.00000000000E+00 0. -1.
         22    1    5    5    0    0  0.13880294689E+02  0.33550876357E+03 -0.71061990521E+03  0.78596402124E+03  0.00000000000E+00 0. -1.
          5    1    4    4  502    0  0.31365370532E+02  0.16399433263E+02 -0.23188796815E+02  0.42573914287E+02  0.47000000000E+01 0.  1.
         -5    1    4    4    0  502 -0.10504151972E+03  0.20778800229E+02  0.93976003736E+01  0.10759128355E+03  0.47000000000E+01 0.  1.
<mgrwt>
<rscale>  0 0.99975838E+03</rscale>
<asrwt>0</asrwt>
<pdfrwt beam="1">  1        2 0.33433678E-01 0.99975838E+03</pdfrwt>
<pdfrwt beam="2">  1       -2 0.17689650E+00 0.99975838E+03</pdfrwt>
<totfact> 0.33208288E+01</totfact>
</mgrwt>
</event>
<event>
 9    1  0.4236486E-036  0.1000290E+04  0.7818608E-02  0.8680762E-01
          1   -1    0    0  501    0  0.00000000000E+00  0.00000000000E+00  0.21324064420E+04  0.21324064420E+04  0.00000000000E+00 0.  1.
         -1   -1    0    0    0  501 -0.00000000000E+00 -0.00000000000E+00 -0.11730637038E+03  0.11730637038E+03  0.00000000000E+00 0.  1.
         36    2    1    2    0    0 -0.14210854715E-13  0.28421709430E-13  0.20151000717E+04  0.22497128124E+04  0.10002896778E+04 0.  0.
         25    2    3    3    0    0 -0.75332234314E+02  0.11315478027E+03  0.31125311058E+03  0.36119871570E+03  0.12291079509E+03 0.  0.
         35    2    3    3    0    0  0.75332234314E+02 -0.11315478027E+03  0.17038469611E+04  0.18885140967E+04  0.80306417982E+03 0.  0.
         22    1    5    5    0    0  0.91140421960E+02  0.17637342251E+03  0.15453752419E+04  0.15580753508E+04  0.00000000000E+00 0.  1.
         22    1    5    5    0    0 -0.15808187646E+02 -0.28952820278E+03  0.15847171922E+03  0.33043874590E+03  0.00000000000E+00 0.  1.
          5    1    4    4  502    0 -0.25305016465E+02 -0.24245057138E+01  0.49428753322E+00  0.25856457732E+02  0.47000000000E+01 0. -1.
         -5    1    4    4    0  502 -0.50027217849E+02  0.11557928598E+03  0.31075882305E+03  0.33534225797E+03  0.47000000000E+01 0. -1.
<mgrwt>
<rscale>  0 0.10002897E+04</rscale>
<asrwt>0</asrwt>
<pdfrwt beam="1">  1        1 0.32806250E+00 0.10002897E+04</pdfrwt>
<pdfrwt beam="2">  1       -1 0.18047135E-01 0.10002897E+04</pdfrwt>
<totfact> 0.60910339E+01</totfact>
</mgrwt>
</event>
<event>
 9    1  0.4236486E-036  0.1000190E+04  0.7818608E-02  0.8680857E-01
         -1   -1    0    0    0  501 -0.00000000000E+00  0.00000000000E+00  0.96267547295E+03  0.96267547295E+03  0.00000000000E+00 0. -1.
          1   -1    0    0  501    0  0.00000000000E+00 -0.00000000000E+00 -0.25979160103E+03  0.25979160103E+03  0.00000000000E+00 0. -1.
         36    2    1    2    0    0  0.00000000000E+00  0.00000000000E+00  0.70288387192E+03  0.12224670740E+04  0.10001899867E+04 0.  0.
         25    2    3    3    0    0  0.97237573109E+01  0.39187932639E+02  0.29634262101E+03  0.32412464080E+03  0.12493033348E+03 0.  0.
         35    2    3    3    0    0 -0.97237573109E+01 -0.39187932639E+02  0.40654125091E+03  0.89834243318E+03  0.80007068003E+03 0.  0.
         22    1    5    5    0    0 -0.96275055134E+01 -0.40843939076E+02  0.65176429326E+03  0.65311378044E+03  0.00000000000E+00 0. -1.
         22    1    5    5    0    0 -0.96251797465E-01  0.16560064368E+01 -0.24522304236E+03  0.24522865274E+03  0.00000000000E+00 0. -1.
          5    1    4    4  502    0 -0.14091410855E+02  0.57061052581E+02  0.54124730547E+02  0.80038166135E+02  0.47000000000E+01 0.  1.
         -5    1    4    4    0  502  0.23815168166E+02 -0.17873119942E+02  0.24221789046E+03  0.24408647466E+03  0.47000000000E+01 0.  1.
<mgrwt>
<rscale>  0 0.10001900E+04</rscale>
<asrwt>0</asrwt>
<pdfrwt beam="1">  1        1 0.39967939E-01 0.10001900E+04</pdfrwt>
<pdfrwt beam="2">  1       -1 0.14810392E+00 0.10001900E+04</pdfrwt>
<totfact> 0.44975272E+01</totfact>
</mgrwt>
</event>
<event>
 9    1  0.4236486E-036  0.1004801E+04  0.7818608E-02  0.8676479E-01
         -1   -1    0    0    0  501 -0.00000000000E+00  0.00000000000E+00  0.11387926841E+04  0.11387926841E+04  0.00000000000E+00 0. -1.
          1   -1    0    0  501    0  0.00000000000E+00 -0.00000000000E+00 -0.22164384038E+03  0.22164384038E+03  0.00000000000E+00 0. -1.
         36    2    1    2    0    0  0.00000000000E+00  0.00000000000E+00  0.91714884371E+03  0.13604365245E+04  0.10048012418E+04 0.  0.
         25    2    3    3    0    0  0.12627751548E+03  0.58717510041E+01  0.80934749104E+02  0.19557073711E+03  0.12536742490E+03 0.  0.
         35    2    3    3    0    0 -0.12627751548E+03 -0.58717510041E+01  0.83621409461E+03  0.11648657874E+04  0.80104794001E+03 0.  0.
         22    1    5    5    0    0 -0.39183130032E+03 -0.52945389065E+02  0.80049119530E+03  0.89281640660E+03  0.00000000000E+00 0. -1.
         22    1    5    5    0    0  0.26555378484E+03  0.47073638061E+02  0.35722899305E+02  0.27204938077E+03  0.00000000000E+00 0. -1.
          5    1    4    4  502    0  0.53522327531E+02 -0.57188956900E+02  0.54753914341E+02  0.95683318668E+02  0.47000000000E+01 0.  1.
         -5    1    4    4    0  502  0.72755187946E+02  0.63060707905E+02  0.26180834763E+02  0.99887418443E+02  0.47000000000E+01 0.  1.
<mgrwt>
<rscale>  0 0.10048012E+04</rscale>
<asrwt>0</asrwt>
<pdfrwt beam="1">  1        1 0.34099053E-01 0.10048012E+04</pdfrwt>
<pdfrwt beam="2">  1       -1 0.17519887E+00 0.10048012E+04</pdfrwt>
<totfact> 0.32769306E+01</totfact>
</mgrwt>
</event>
<event>
 9    1  0.4236486E-036  0.9998447E+03  0.7818608E-02  0.8681186E-01
          2   -1    0    0  501    0  0.00000000000E+00  0.00000000000E+00  0.17238432226E+04  0.17238432226E+04  0.00000000000E+00 0.  1.
         -2   -1    0    0    0  501 -0.00000000000E+00 -0.00000000000E+00 -0.14497973376E+03  0.14497973376E+03  0.00000000000E+00 0.  1.
         36    2    1    2    0    0  0.14210854715E-13  0.71054273576E-14  0.15788634888E+04  0.18688229563E+04  0.99984465084E+03 0.  0.
         25    2    3    3    0    0 -0.89172595004E+02  0.48990399532E+02  0.50411089731E+03  0.52915597378E+03  0.12460512372E+03 0.  0.
         35    2    3    3    0    0  0.89172595004E+02 -0.48990399532E+02  0.10747525915E+04  0.13396669826E+04  0.79326078956E+03 0.  0.
         22    1    5    5    0    0  0.18999485776E+03 -0.70499446571E+02 -0.51187163291E+02  0.20901756775E+03  0.00000000000E+00 0. -1.
         22    1    5    5    0    0 -0.10082226275E+03  0.21509047038E+02  0.11259397548E+04  0.11306494148E+04  0.00000000000E+00 0. -1.
          5    1    4    4  502    0 -0.45784096309E+02  0.48630297770E+02  0.87071443558E+02  0.10983904415E+03  0.47000000000E+01 0.  1.
         -5    1    4    4    0  502 -0.43388498695E+02  0.36010176256E+00  0.41703945375E+03  0.41931692964E+03  0.47000000000E+01 0.  1.
<mgrwt>
<rscale>  0 0.99984465E+03</rscale>
<asrwt>0</asrwt>
<pdfrwt beam="1">  1        2 0.26520664E+00 0.99984465E+03</pdfrwt>
<pdfrwt beam="2">  1       -2 0.22304576E-01 0.99984465E+03</pdfrwt>
<totfact> 0.19868759E+02</totfact>
</mgrwt>
</event>
<event>
 9    1  0.4236486E-036  0.9993575E+03  0.7818608E-02  0.8681650E-01
          2   -1    0    0  501    0  0.00000000000E+00  0.00000000000E+00  0.32668088348E+03  0.32668088348E+03  0.00000000000E+00 0. -1.
         -2   -1    0    0    0  501 -0.00000000000E+00 -0.00000000000E+00 -0.76428970924E+03  0.76428970924E+03  0.00000000000E+00 0. -1.
         36    2    1    2    0    0  0.00000000000E+00 -0.71054273576E-14 -0.43760882577E+03  0.10909705927E+04  0.99935746847E+03 0.  0.
         25    2    3    3    0    0  0.12481011041E+03 -0.46303247209E+01 -0.90130736035E+01  0.17733124739E+03  0.12556325991E+03 0.  0.
         35    2    3    3    0    0 -0.12481011041E+03  0.46303247209E+01 -0.42859575216E+03  0.91363934532E+03  0.79714712004E+03 0.  0.
         22    1    5    5    0    0 -0.37152704756E+03  0.94029516998E+02  0.30906497011E+02  0.38448551168E+03  0.00000000000E+00 0.  1.
         22    1    5    5    0    0  0.24671693716E+03 -0.89399192277E+02 -0.45950224917E+03  0.52915383364E+03  0.00000000000E+00 0.  1.
          5    1    4    4  502    0  0.57615612734E+02 -0.38437835305E+02 -0.55415105092E+02  0.88825389872E+02  0.47000000000E+01 0.  1.
         -5    1    4    4    0  502  0.67194497674E+02  0.33807510584E+02  0.46402031488E+02  0.88505857522E+02  0.47000000000E+01 0.  1.
<mgrwt>
<rscale>  0 0.99935747E+03</rscale>
<asrwt>0</asrwt>
<pdfrwt beam="1">  1        2 0.50258598E-01 0.99935747E+03</pdfrwt>
<pdfrwt beam="2">  1       -2 0.11758303E+00 0.99935747E+03</pdfrwt>
<totfact> 0.65171340E+01</totfact>
</mgrwt>
</event>
<event>
 9    1  0.4236486E-036  0.1000934E+04  0.7818608E-02  0.8680149E-01
          1   -1    0    0  501    0  0.00000000000E+00  0.00000000000E+00  0.43987428778E+03  0.43987428778E+03  0.00000000000E+00 0.  1.
         -1   -1    0    0    0  501 -0.00000000000E+00 -0.00000000000E+00 -0.56940606736E+03  0.56940606736E+03  0.00000000000E+00 0.  1.
         36    2    1    2    0    0  0.00000000000E+00  0.44408920985E-14 -0.12953177958E+03  0.10092803551E+04  0.10009337407E+04 0.  0.
         25    2    3    3    0    0 -0.91167061430E+02 -0.42698878743E+01 -0.13100479123E+03  0.20361522378E+03  0.12636154082E+03 0.  0.
         35    2    3    3    0    0  0.91167061430E+02  0.42698878743E+01  0.14730116534E+01  0.80566513135E+03  0.80047765058E+03 0.  0.
         22    1    5    5    0    0  0.14431102004E+03  0.38405716018E+03  0.69706760245E+02  0.41615454487E+03  0.00000000000E+00 0.  1.
         22    1    5    5    0    0 -0.53143958612E+02 -0.37978727230E+03 -0.68233748592E+02  0.38951058649E+03  0.00000000000E+00 0.  1.
          5    1    4    4  502    0 -0.22731977894E+02 -0.53389191117E+01 -0.13286723710E+03  0.13498533095E+03  0.47000000000E+01 0. -1.
         -5    1    4    4    0  502 -0.68435083536E+02  0.10690312374E+01  0.18624458665E+01  0.68629892838E+02  0.47000000000E+01 0. -1.
<mgrwt>
<rscale>  0 0.10009337E+04</rscale>
<asrwt>0</asrwt>
<pdfrwt beam="1">  1        1 0.67672968E-01 0.10009337E+04</pdfrwt>
<pdfrwt beam="2">  1       -1 0.87600932E-01 0.10009337E+04</pdfrwt>
<totfact> 0.80423857E+01</totfact>
</mgrwt>
</event>
<event>
 9    1  0.4236486E-036  0.9987863E+03  0.7818608E-02  0.8682195E-01
          3   -1    0    0  501    0  0.00000000000E+00  0.00000000000E+00  0.91673370287E+03  0.91673370287E+03  0.00000000000E+00 0.  1.
         -3   -1    0    0    0  501 -0.00000000000E+00 -0.00000000000E+00 -0.27204578113E+03  0.27204578113E+03  0.00000000000E+00 0.  1.
         36    2    1    2    0    0 -0.14210854715E-13  0.00000000000E+00  0.64468792173E+03  0.11887794840E+04  0.99878633609E+03 0.  0.
         25    2    3    3    0    0 -0.91570371092E+02 -0.52871329303E+02  0.18037464194E+02  0.16581124532E+03  0.12644172031E+03 0.  0.
         35    2    3    3    0    0  0.91570371092E+02  0.52871329303E+02  0.62665045754E+03  0.10229682387E+04  0.80161880660E+03 0.  0.
         22    1    5    5    0    0  0.12740653256E+03  0.15090839042E+03  0.79813829244E+03  0.82221073984E+03  0.00000000000E+00 0.  1.
         22    1    5    5    0    0 -0.35836161469E+02 -0.98037061121E+02 -0.17148783491E+03  0.20075749884E+03  0.00000000000E+00 0.  1.
          5    1    4    4  502    0 -0.17503495527E+02 -0.61020138317E+02 -0.36477003548E+02  0.73365464789E+02  0.47000000000E+01 0.  1.
         -5    1    4    4    0  502 -0.74066875565E+02  0.81488090134E+01  0.54514467742E+02  0.92445780529E+02  0.47000000000E+01 0.  1.
<mgrwt>
<rscale>  0 0.99878634E+03</rscale>
<asrwt>0</asrwt>
<pdfrwt beam="1">  1        3 0.14103595E+00 0.99878634E+03</pdfrwt>
<pdfrwt beam="2">  1       -3 0.41853198E-01 0.99878634E+03</pdfrwt>
<totfact> 0.90007394E+00</totfact>
</mgrwt>
</event>
<event>
 9    1  0.4236486E-036  0.9979959E+03  0.7818608E-02  0.8682949E-01
          2   -1    0    0  501    0  0.00000000000E+00  0.00000000000E+00  0.15479416024E+03  0.15479416024E+03  0.00000000000E+00 0. -1.
         -2   -1    0    0    0  501 -0.00000000000E+00 -0.00000000000E+00 -0.16085809567E+04  0.16085809567E+04  0.00000000000E+00 0. -1.
         36    2    1    2    0    0  0.00000000000E+00  0.00000000000E+00 -0.14537867965E+04  0.17633751169E+04  0.99799586848E+03 0.  0.
         25    2    3    3    0    0  0.36798998619E+02  0.13296750702E+03 -0.22589023438E+03  0.29184760491E+03  0.12293942525E+03 0.  0.
         35    2    3    3    0    0 -0.36798998619E+02 -0.13296750702E+03 -0.12278965621E+04  0.14715275120E+04  0.79914249498E+03 0.  0.
         22    1    5    5    0    0 -0.66461515202E+02  0.61027964407E+02 -0.12680128804E+04  0.12712191827E+04  0.00000000000E+00 0. -1.
         22    1    5    5    0    0  0.29662516583E+02 -0.19399547143E+03  0.40116318330E+02  0.20030832939E+03  0.00000000000E+00 0. -1.
          5    1    4    4  502    0  0.30711677370E+02  0.35751445928E+02 -0.17608800799E+03  0.18234705802E+03  0.47000000000E+01 0.  1.
         -5    1    4    4    0  502  0.60873212491E+01  0.97216061095E+02 -0.49802226390E+02  0.10950054689E+03  0.47000000000E+01 0.  1.
<mgrwt>
<rscale>  0 0.99799587E+03</rscale>
<asrwt>0</asrwt>
<pdfrwt beam="1">  1        2 0.23814486E-01 0.99799587E+03</pdfrwt>
<pdfrwt beam="2">  1       -2 0.24747400E+00 0.99799587E+03</pdfrwt>
<totfact> 0.16555633E+01</totfact>
</mgrwt>
</event>
<event>
 9    1  0.4236486E-036  0.9995816E+03  0.7818608E-02  0.8681436E-01
         -3   -1    0    0    0  501 -0.00000000000E+00  0.00000000000E+00  0.38519237292E+03  0.38519237292E+03  0.00000000000E+00 0. -1.
          3   -1    0    0  501    0  0.00000000000E+00 -0.00000000000E+00 -0.64848338387E+03  0.64848338387E+03  0.00000000000E+00 0. -1.
         36    2    1    2    0    0 -0.14210854715E-13 -0.71054273576E-14 -0.26329101095E+03  0.10336757568E+04  0.99958161934E+03 0.  0.
         25    2    3    3    0    0 -0.52926258014E+02  0.12259947398E+02 -0.18201684008E+03  0.22750774298E+03  0.12521241130E+03 0.  0.
         35    2    3    3    0    0  0.52926258014E+02 -0.12259947398E+02 -0.81274170864E+02  0.80616801381E+03  0.80021864546E+03 0.  0.
         22    1    5    5    0    0  0.38979656054E+03 -0.48418622508E+02 -0.20796639453E+03  0.44444993291E+03  0.00000000000E+00 0.  1.
         22    1    5    5    0    0 -0.33687030252E+03  0.36158675110E+02  0.12669222367E+03  0.36171808090E+03  0.00000000000E+00 0.  1.
          5    1    4    4  502    0 -0.75187807388E+02 -0.27248547793E+02 -0.69322599241E+02  0.10594056118E+03  0.47000000000E+01 0.  1.
         -5    1    4    4    0  502  0.22261549373E+02  0.39508495191E+02 -0.11269424084E+03  0.12156718180E+03  0.47000000000E+01 0.  1.
<mgrwt>
<rscale>  0 0.99958162E+03</rscale>
<asrwt>0</asrwt>
<pdfrwt beam="1">  1        3 0.99766675E-01 0.99958162E+03</pdfrwt>
<pdfrwt beam="2">  1       -3 0.59260365E-01 0.99958162E+03</pdfrwt>
<totfact> 0.10134683E+01</totfact>
</mgrwt>
</event>
<event>
 9    1  0.4236486E-036  0.9935816E+03  0.7818608E-02  0.8687174E-01
          1   -1    0    0  501    0  0.00000000000E+00  0.00000000000E+00  0.34123898785E+04  0.34123898785E+04  0.00000000000E+00 0. -1.
         -1   -1    0    0    0  501 -0.00000000000E+00 -0.00000000000E+00 -0.72325003864E+02  0.72325003864E+02  0.00000000000E+00 0. -1.
         36    2    1    2    0    0  0.28421709430E-13  0.00000000000E+00  0.33400648747E+04  0.34847148824E+04  0.99358162453E+03 0.  0.
         25    2    3    3    0    0  0.12298047461E+03  0.10611011829E+02  0.78978100139E+03  0.80896914693E+03  0.12425884204E+03 0.  0.
         35    2    3    3    0    0 -0.12298047461E+03 -0.10611011829E+02  0.25502838733E+04  0.26757457355E+04  0.80026908965E+03 0.  0.
         22    1    5    5    0    0 -0.32178447639E+03 -0.69670373463E+01  0.24124043583E+04  0.24337807167E+04  0.00000000000E+00 0. -1.
         22    1    5    5    0    0  0.19880400179E+03 -0.36439744829E+01  0.13787951500E+03  0.24196501882E+03  0.00000000000E+00 0. -1.
          5    1    4    4  502    0  0.10026617215E+03  0.49081738127E+02  0.69683936475E+03  0.70574040026E+03  0.47000000000E+01 0. -1.
         -5    1    4    4    0  502  0.22714302461E+02 -0.38470726298E+02  0.92941636636E+02  0.10322874667E+03  0.47000000000E+01 0. -1.
<mgrwt>
<rscale>  0 0.99358162E+03</rscale>
<asrwt>0</asrwt>
<pdfrwt beam="1">  1        1 0.52498293E+00 0.99358162E+03</pdfrwt>
<pdfrwt beam="2">  1       -1 0.11126926E-01 0.99358162E+03</pdfrwt>
<totfact> 0.16093015E+01</totfact>
</mgrwt>
</event>
<event>
 9    1  0.4236486E-036  0.9997234E+03  0.7818608E-02  0.8681301E-01
         -2   -1    0    0    0  501 -0.00000000000E+00  0.00000000000E+00  0.92203127245E+02  0.92203127245E+02  0.00000000000E+00 0.  1.
          2   -1    0    0  501    0  0.00000000000E+00 -0.00000000000E+00 -0.27099051520E+04  0.27099051520E+04  0.00000000000E+00 0.  1.
         36    2    1    2    0    0  0.00000000000E+00  0.00000000000E+00 -0.26177020248E+04  0.28021082792E+04  0.99972342086E+03 0.  0.
         25    2    3    3    0    0 -0.67894328905E+02  0.99001470200E+02 -0.57632815022E+03  0.60191410055E+03  0.12544128789E+03 0.  0.
         35    2    3    3    0    0  0.67894328905E+02 -0.99001470200E+02 -0.20413738745E+04  0.22001941787E+04  0.81193361633E+03 0.  0.
         22    1    5    5    0    0 -0.58170143071E+02 -0.40979185109E+03 -0.15567683530E+04  0.16108509650E+04  0.00000000000E+00 0. -1.
         22    1    5    5    0    0  0.12606447198E+03  0.31079038089E+03 -0.48460552155E+03  0.58934321364E+03  0.00000000000E+00 0. -1.
          5    1    4    4  502    0 -0.97492013656E+02  0.78239047752E+02 -0.33020729908E+03  0.35310762055E+03  0.47000000000E+01 0. -1.
         -5    1    4    4    0  502  0.29597684750E+02  0.20762422448E+02 -0.24612085114E+03  0.24880648001E+03  0.47000000000E+01 0. -1.
<mgrwt>
<rscale>  0 0.99972342E+03</rscale>
<asrwt>0</asrwt>
<pdfrwt beam="1">  1        2 0.41690845E+00 0.99972342E+03</pdfrwt>
<pdfrwt beam="2">  1       -2 0.14185098E-01 0.99972342E+03</pdfrwt>
<totfact> 0.11332300E+02</totfact>
</mgrwt>
</event>
<event>
 9    1  0.4236486E-036  0.1000434E+04  0.7818608E-02  0.8680625E-01
         -2   -1    0    0    0  501 -0.00000000000E+00  0.00000000000E+00  0.92755757216E+03  0.92755757216E+03  0.00000000000E+00 0. -1.
          2   -1    0    0  501    0  0.00000000000E+00 -0.00000000000E+00 -0.26975880533E+03  0.26975880533E+03  0.00000000000E+00 0. -1.
         36    2    1    2    0    0  0.00000000000E+00  0.17763568394E-13  0.65779876683E+03  0.11973163775E+04  0.10004335511E+04 0.  0.
         25    2    3    3    0    0  0.13819839863E+03 -0.97983219816E+01  0.15184576247E+03  0.24039862144E+03  0.12465775994E+03 0.  0.
         35    2    3    3    0    0 -0.13819839863E+03  0.97983219816E+01  0.50595300436E+03  0.95691775604E+03  0.80031765238E+03 0.  0.
         22    1    5    5    0    0 -0.32281588557E+03  0.27054437166E+03  0.47666223996E+03  0.63609059419E+03  0.00000000000E+00 0. -1.
         22    1    5    5    0    0  0.18461748694E+03 -0.26074604968E+03  0.29290764407E+02  0.32082716186E+03  0.00000000000E+00 0. -1.
          5    1    4    4  502    0  0.21940093197E+02  0.17984635499E+02 -0.17049986977E+02  0.33430627565E+02  0.47000000000E+01 0. -1.
         -5    1    4    4    0  502  0.11625830543E+03 -0.27782957480E+02  0.16889574945E+03  0.20696799388E+03  0.47000000000E+01 0. -1.
<mgrwt>
<rscale>  0 0.10004336E+04</rscale>
<asrwt>0</asrwt>
<pdfrwt beam="1">  1        2 0.41501355E-01 0.10004336E+04</pdfrwt>
<pdfrwt beam="2">  1       -2 0.14270116E+00 0.10004336E+04</pdfrwt>
<totfact> 0.48144764E+01</totfact>
</mgrwt>
</event>
<event>
 9    1  0.4236486E-036  0.1000108E+04  0.7818608E-02  0.8680935E-01
          2   -1    0    0  501    0  0.00000000000E+00  0.00000000000E+00  0.99990246634E+03  0.99990246634E+03  0.00000000000E+00 0.  1.
         -2   -1    0    0    0  501 -0.00000000000E+00 -0.00000000000E+00 -0.25007845124E+03  0.25007845124E+03  0.00000000000E+00 0.  1.
         36    2    1    2    0    0  0.28421709430E-13  0.26645352591E-14  0.74982401510E+03  0.12499809176E+04  0.10001081145E+04 0.  0.
         25    2    3    3    0    0 -0.10562789327E+03 -0.39764624952E+01  0.25535181232E+03  0.30365869719E+03  0.12582127100E+03 0.  0.
         35    2    3    3    0    0  0.10562789327E+03  0.39764624952E+01  0.49447220278E+03  0.94632222039E+03  0.79990619537E+03 0.  0.
         22    1    5    5    0    0 -0.33142659079E+03  0.57035762670E+02  0.34394965875E+03  0.48103849229E+03  0.00000000000E+00 0. -1.
         22    1    5    5    0    0  0.43705448406E+03 -0.53059300175E+02  0.15052254403E+03  0.46528372810E+03  0.00000000000E+00 0. -1.
          5    1    4    4  502    0  0.15681462831E+02  0.60465032217E+01 -0.32972706757E+01  0.17760362374E+02  0.47000000000E+01 0. -1.
         -5    1    4    4    0  502 -0.12130935610E+03 -0.10022965717E+02  0.25864908299E+03  0.28589833482E+03  0.47000000000E+01 0. -1.
<mgrwt>
<rscale>  0 0.10001081E+04</rscale>
<asrwt>0</asrwt>
<pdfrwt beam="1">  1        2 0.15383115E+00 0.10001081E+04</pdfrwt>
<pdfrwt beam="2">  1       -2 0.38473608E-01 0.10001081E+04</pdfrwt>
<totfact> 0.19430658E+02</totfact>
</mgrwt>
</event>
<event>
 9    1  0.4236486E-036  0.9992869E+03  0.7818608E-02  0.8681717E-01
         -1   -1    0    0    0  501 -0.00000000000E+00  0.00000000000E+00  0.99051061463E+02  0.99051061463E+02  0.00000000000E+00 0. -1.
          1   -1    0    0  501    0  0.00000000000E+00 -0.00000000000E+00 -0.25203521465E+04  0.25203521465E+04  0.00000000000E+00 0. -1.
         36    2    1    2    0    0  0.00000000000E+00  0.71054273576E-14 -0.24213010850E+04  0.26194032079E+04  0.99928685645E+03 0.  0.
         25    2    3    3    0    0  0.82177534437E+02 -0.17999292545E+02 -0.16736255091E+03  0.22525432569E+03  0.12510861721E+03 0.  0.
         35    2    3    3    0    0 -0.82177534437E+02  0.17999292545E+02 -0.22539385341E+04  0.23941488822E+04  0.80289029956E+03 0.  0.
         22    1    5    5    0    0 -0.44213765422E+03  0.54090659977E+02 -0.12263256089E+04  0.13047168289E+04  0.00000000000E+00 0.  1.
         22    1    5    5    0    0  0.35996011978E+03 -0.36091367432E+02 -0.10276129252E+04  0.10894320533E+04  0.00000000000E+00 0.  1.
          5    1    4    4  502    0  0.10207401659E+03  0.21622165213E+02 -0.10089857334E+03  0.14522133106E+03  0.47000000000E+01 0.  1.
         -5    1    4    4    0  502 -0.19896482153E+02 -0.39621457758E+02 -0.66463977563E+02  0.80032994636E+02  0.47000000000E+01 0.  1.
<mgrwt>
<rscale>  0 0.99928686E+03</rscale>
<asrwt>0</asrwt>
<pdfrwt beam="1">  1        1 0.38774644E+00 0.99928686E+03</pdfrwt>
<pdfrwt beam="2">  1       -1 0.15238627E-01 0.99928686E+03</pdfrwt>
<totfact> 0.42831208E+01</totfact>
</mgrwt>
</event>
<event>
 9    1  0.4236486E-036  0.1000265E+04  0.7818608E-02  0.8680786E-01
          2   -1    0    0  501    0  0.00000000000E+00  0.00000000000E+00  0.99693633332E+03  0.99693633332E+03  0.00000000000E+00 0.  1.
         -2   -1    0    0    0  501 -0.00000000000E+00 -0.00000000000E+00 -0.25090123077E+03  0.25090123077E+03  0.00000000000E+00 0.  1.
         36    2    1    2    0    0  0.00000000000E+00  0.14210854715E-13  0.74603510255E+03  0.12478375641E+04  0.10002650709E+04 0.  0.
         25    2    3    3    0    0 -0.11155391316E+03  0.35739784485E+02  0.43672962760E+02  0.17668195652E+03  0.12485022366E+03 0.  0.
         35    2    3    3    0    0  0.11155391316E+03 -0.35739784485E+02  0.70236213979E+03  0.10711556076E+04  0.80021256707E+03 0.  0.
         22    1    5    5    0    0  0.99348060381E+02 -0.30620926074E+03  0.73115138006E+03  0.79888452797E+03  0.00000000000E+00 0. -1.
         22    1    5    5    0    0  0.12205852774E+02  0.27046947626E+03 -0.28789240276E+02  0.27227107960E+03  0.00000000000E+00 0. -1.
          5    1    4    4  502    0 -0.12495406291E+03 -0.50175840440E+01  0.46320363195E+02  0.13344047375E+03  0.47000000000E+01 0.  1.
         -5    1    4    4    0  502  0.13400149757E+02  0.40757368529E+02 -0.26474004347E+01  0.43241482768E+02  0.47000000000E+01 0.  1.
<mgrwt>
<rscale>  0 0.10002651E+04</rscale>
<asrwt>0</asrwt>
<pdfrwt beam="1">  1        2 0.15337482E+00 0.10002651E+04</pdfrwt>
<pdfrwt beam="2">  1       -2 0.38600190E-01 0.10002651E+04</pdfrwt>
<totfact> 0.19392793E+02</totfact>
</mgrwt>
</event>
<event>
 9    1  0.4236486E-036  0.9997110E+03  0.7818608E-02  0.8681313E-01
         -2   -1    0    0    0  501 -0.00000000000E+00  0.00000000000E+00  0.75619146816E+03  0.75619146816E+03  0.00000000000E+00 0. -1.
          2   -1    0    0  501    0  0.00000000000E+00 -0.00000000000E+00 -0.33041303196E+03  0.33041303196E+03  0.00000000000E+00 0. -1.
         36    2    1    2    0    0  0.71054273576E-14  0.14210854715E-13  0.42577843620E+03  0.10866045001E+04  0.99971098971E+03 0.  0.
         25    2    3    3    0    0 -0.19117393323E+02 -0.39599957378E+02  0.21971722190E+03  0.25724353676E+03  0.12635247624E+03 0.  0.
         35    2    3    3    0    0  0.19117393323E+02  0.39599957378E+02  0.20606121430E+03  0.82936096336E+03  0.80215008082E+03 0.  0.
         22    1    5    5    0    0  0.16018037030E+03 -0.96319796545E+02 -0.26207149758E+03  0.32189551733E+03  0.00000000000E+00 0.  1.
         22    1    5    5    0    0 -0.14106297697E+03  0.13591975392E+03  0.46813271188E+03  0.50746544602E+03  0.00000000000E+00 0.  1.
          5    1    4    4  502    0 -0.15230286188E+02  0.28452740771E+02  0.16908745488E+03  0.17220388344E+03  0.47000000000E+01 0.  1.
         -5    1    4    4    0  502 -0.38871071351E+01 -0.68052698149E+02  0.50629767023E+02  0.85039653315E+02  0.47000000000E+01 0.  1.
<mgrwt>
<rscale>  0 0.99971099E+03</rscale>
<asrwt>0</asrwt>
<pdfrwt beam="1">  1        2 0.50832774E-01 0.99971099E+03</pdfrwt>
<pdfrwt beam="2">  1       -2 0.11633715E+00 0.99971099E+03</pdfrwt>
<totfact> 0.66146134E+01</totfact>
</mgrwt>
</event>
<event>
 9    1  0.4236486E-036  0.9948839E+03  0.7818608E-02  0.8685925E-01
         -2   -1    0    0    0  501 -0.00000000000E+00  0.00000000000E+00  0.11895738548E+03  0.11895738548E+03  0.00000000000E+00 0. -1.
          2   -1    0    0  501    0  0.00000000000E+00 -0.00000000000E+00 -0.20801440242E+04  0.20801440242E+04  0.00000000000E+00 0. -1.
         36    2    1    2    0    0 -0.14210854715E-13  0.00000000000E+00 -0.19611866387E+04  0.21991014096E+04  0.99488390185E+03 0.  0.
         25    2    3    3    0    0  0.73895767773E+02 -0.82361428128E+02 -0.19207577776E+03  0.25452097354E+03  0.12507530624E+03 0.  0.
         35    2    3    3    0    0 -0.73895767773E+02  0.82361428128E+02 -0.17691108609E+04  0.19445804361E+04  0.79962231392E+03 0.  0.
         22    1    5    5    0    0  0.35013619875E+03  0.59872351851E+02 -0.56085827934E+03  0.66388407550E+03  0.00000000000E+00 0. -1.
         22    1    5    5    0    0 -0.42403196652E+03  0.22489076277E+02 -0.12082525816E+04  0.12806963606E+04  0.00000000000E+00 0. -1.
          5    1    4    4  502    0  0.64598883522E+02  0.11915586026E+00 -0.27955288081E+02  0.70545149246E+02  0.47000000000E+01 0. -1.
         -5    1    4    4    0  502  0.92968842511E+01 -0.82480583989E+02 -0.16412048968E+03  0.18397582429E+03  0.47000000000E+01 0. -1.
<mgrwt>
<rscale>  0 0.99488390E+03</rscale>
<asrwt>0</asrwt>
<pdfrwt beam="1">  1        2 0.32002216E+00 0.99488390E+03</pdfrwt>
<pdfrwt beam="2">  1       -2 0.18301136E-01 0.99488390E+03</pdfrwt>
<totfact> 0.17576817E+02</totfact>
</mgrwt>
</event>
<event>
 9    1  0.4236486E-036  0.1000730E+04  0.7818608E-02  0.8680343E-01
         -2   -1    0    0    0  501 -0.00000000000E+00  0.00000000000E+00  0.95651886148E+02  0.95651886148E+02  0.00000000000E+00 0.  1.
          2   -1    0    0  501    0  0.00000000000E+00 -0.00000000000E+00 -0.26174635780E+04  0.26174635780E+04  0.00000000000E+00 0.  1.
         36    2    1    2    0    0 -0.71054273576E-14  0.14210854715E-13 -0.25218116919E+04  0.27131154642E+04  0.10007303896E+04 0.  0.
         25    2    3    3    0    0 -0.27383112540E+02  0.56768513172E+02 -0.13078691300E+03  0.19150631570E+03  0.12488776321E+03 0.  0.
         35    2    3    3    0    0  0.27383112540E+02 -0.56768513172E+02 -0.23910247789E+04  0.25216091485E+04  0.79846146153E+03 0.  0.
         22    1    5    5    0    0 -0.11208154711E+03  0.12464046682E+03 -0.57976247079E+02  0.17736618730E+03  0.00000000000E+00 0.  1.
         22    1    5    5    0    0  0.13946465965E+03 -0.18140897999E+03 -0.23330485318E+04  0.23442429612E+04  0.00000000000E+00 0.  1.
          5    1    4    4  502    0 -0.76683826252E+02  0.31538880233E+02 -0.90696558041E+02  0.12297587493E+03  0.47000000000E+01 0. -1.
         -5    1    4    4    0  502  0.49300713711E+02  0.25229632939E+02 -0.40090354961E+02  0.68530440766E+02  0.47000000000E+01 0. -1.
<mgrwt>
<rscale>  0 0.10007304E+04</rscale>
<asrwt>0</asrwt>
<pdfrwt beam="1">  1        2 0.40268661E+00 0.10007304E+04</pdfrwt>
<pdfrwt beam="2">  1       -2 0.14715678E-01 0.10007304E+04</pdfrwt>
<totfact> 0.12176709E+02</totfact>
</mgrwt>
</event>
<event>
 9    1  0.4236486E-036  0.1000083E+04  0.7818608E-02  0.8680959E-01
         -2   -1    0    0    0  501 -0.00000000000E+00  0.00000000000E+00  0.13260379552E+03  0.13260379552E+03  0.00000000000E+00 0. -1.
          2   -1    0    0  501    0  0.00000000000E+00 -0.00000000000E+00 -0.18856301043E+04  0.18856301043E+04  0.00000000000E+00 0. -1.
         36    2    1    2    0    0  0.00000000000E+00  0.14210854715E-13 -0.17530263088E+04  0.20182338998E+04  0.10000834141E+04 0.  0.
         25    2    3    3    0    0 -0.12116733991E+03 -0.13581240959E+02 -0.46171232027E+03  0.49369806849E+03  0.12527386711E+03 0.  0.
         35    2    3    3    0    0  0.12116733991E+03  0.13581240959E+02 -0.12913139885E+04  0.15245358313E+04  0.80115648265E+03 0.  0.
         22    1    5    5    0    0  0.31093938010E+03  0.27371307130E+03 -0.39599309164E+03  0.57307300768E+03  0.00000000000E+00 0. -1.
         22    1    5    5    0    0 -0.18977204020E+03 -0.26013183034E+03 -0.89532089690E+03  0.95146282367E+03  0.00000000000E+00 0. -1.
          5    1    4    4  502    0 -0.10549919514E+03  0.13874602717E+02 -0.44512430591E+03  0.45769020362E+03  0.47000000000E+01 0.  1.
         -5    1    4    4    0  502 -0.15668144762E+02 -0.27455843676E+02 -0.16588014350E+02  0.36007864867E+02  0.47000000000E+01 0.  1.
<mgrwt>
<rscale>  0 0.10000834E+04</rscale>
<asrwt>0</asrwt>
<pdfrwt beam="1">  1        2 0.29009694E+00 0.10000834E+04</pdfrwt>
<pdfrwt beam="2">  1       -2 0.20400584E-01 0.10000834E+04</pdfrwt>
<totfact> 0.18809468E+02</totfact>
</mgrwt>
</event>
<event>
 9    1  0.4236486E-036  0.1000596E+04  0.7818608E-02  0.8680471E-01
         -2   -1    0    0    0  501 -0.00000000000E+00  0.00000000000E+00  0.94555797017E+02  0.94555797017E+02  0.00000000000E+00 0. -1.
          2   -1    0    0  501    0  0.00000000000E+00 -0.00000000000E+00 -0.26470944987E+04  0.26470944987E+04  0.00000000000E+00 0. -1.
         36    2    1    2    0    0  0.71054273576E-14 -0.14210854715E-13 -0.25525387017E+04  0.27416502957E+04  0.10005960825E+04 0.  0.
         25    2    3    3    0    0  0.43443201533E+02  0.75604298697E+02 -0.78494246918E+03  0.79967915574E+03  0.12549402560E+03 0.  0.
         35    2    3    3    0    0 -0.43443201533E+02 -0.75604298697E+02 -0.17675962325E+04  0.19419711400E+04  0.79953245437E+03 0.  0.
         22    1    5    5    0    0  0.81740223855E+01 -0.25482250192E+03 -0.17337819127E+04  0.17524271862E+04  0.00000000000E+00 0. -1.
         22    1    5    5    0    0 -0.51617223919E+02  0.17921820323E+03 -0.33814319749E+02  0.18954395372E+03  0.00000000000E+00 0. -1.
          5    1    4    4  502    0  0.96622174702E+01 -0.31214247075E+02 -0.92451676365E+02  0.98168682021E+02  0.47000000000E+01 0. -1.
         -5    1    4    4    0  502  0.33780984063E+02  0.10681854577E+03 -0.69249079281E+03  0.70151047372E+03  0.47000000000E+01 0. -1.
<mgrwt>
<rscale>  0 0.10005961E+04</rscale>
<asrwt>0</asrwt>
<pdfrwt beam="1">  1        2 0.40724527E+00 0.10005961E+04</pdfrwt>
<pdfrwt beam="2">  1       -2 0.14547047E-01 0.10005961E+04</pdfrwt>
<totfact> 0.11897224E+02</totfact>
</mgrwt>
</event>
<event>
 9    1  0.4236486E-036  0.1000596E+04  0.7818608E-02  0.8680470E-01
          1   -1    0    0  501    0  0.00000000000E+00  0.00000000000E+00  0.28484354964E+04  0.28484354964E+04  0.00000000000E+00 0.  1.
         -1   -1    0    0    0  501 -0.00000000000E+00 -0.00000000000E+00 -0.87872214572E+02  0.87872214572E+02  0.00000000000E+00 0.  1.
         36    2    1    2    0    0 -0.28421709430E-13  0.35527136788E-13  0.27605632818E+04  0.29363077109E+04  0.10005964924E+04 0.  0.
         25    2    3    3    0    0  0.49651996677E+02 -0.53597296855E+02  0.15041353914E+03  0.20518624562E+03  0.11890824879E+03 0.  0.
         35    2    3    3    0    0 -0.49651996677E+02  0.53597296855E+02  0.26101497427E+04  0.27311214653E+04  0.80050283462E+03 0.  0.
         22    1    5    5    0    0  0.24170859357E+03 -0.25835460326E+03  0.15141101161E+04  0.15548953627E+04  0.00000000000E+00 0.  1.
         22    1    5    5    0    0 -0.29136059025E+03  0.31195190011E+03  0.10960396266E+04  0.11762261027E+04  0.00000000000E+00 0.  1.
          5    1    4    4  502    0 -0.50127403562E+01 -0.64275788202E+02  0.13088408974E+03  0.14597684564E+03  0.47000000000E+01 0. -1.
         -5    1    4    4    0  502  0.54664737033E+02  0.10678491347E+02  0.19529449396E+02  0.59209399980E+02  0.47000000000E+01 0. -1.
<mgrwt>
<rscale>  0 0.10005965E+04</rscale>
<asrwt>0</asrwt>
<pdfrwt beam="1">  1        1 0.43822077E+00 0.10005965E+04</pdfrwt>
<pdfrwt beam="2">  1       -1 0.13518804E-01 0.10005965E+04</pdfrwt>
<totfact> 0.30446483E+01</totfact>
</mgrwt>
</event>
<event>
 9    1  0.4236486E-036  0.9995379E+03  0.7818608E-02  0.8681478E-01
          2   -1    0    0  501    0  0.00000000000E+00  0.00000000000E+00  0.11278180443E+04  0.11278180443E+04  0.00000000000E+00 0. -1.
         -2   -1    0    0    0  501 -0.00000000000E+00 -0.00000000000E+00 -0.22146214837E+03  0.22146214837E+03  0.00000000000E+00 0. -1.
         36    2    1    2    0    0  0.00000000000E+00 -0.14210854715E-13  0.90635589591E+03  0.13492801926E+04  0.99953790734E+03 0.  0.
         25    2    3    3    0    0  0.38909549308E+02 -0.18348584013E+02 -0.95715057697E+01  0.13221460375E+03  0.12465337605E+03 0.  0.
         35    2    3    3    0    0 -0.38909549308E+02  0.18348584013E+02  0.91592740168E+03  0.12170655889E+04  0.80029683178E+03 0.  0.
         22    1    5    5    0    0 -0.37388431840E+03  0.19024876707E+03  0.41168439597E+03  0.58776536033E+03  0.00000000000E+00 0.  1.
         22    1    5    5    0    0  0.33497476910E+03 -0.17190018305E+03  0.50424300572E+03  0.62930022857E+03  0.00000000000E+00 0.  1.
          5    1    4    4  502    0  0.54477738282E+02 -0.44807608502E+02 -0.46001414145E+02  0.84343143475E+02  0.47000000000E+01 0.  1.
         -5    1    4    4    0  502 -0.15568188973E+02  0.26459024489E+02  0.36429908375E+02  0.47871460277E+02  0.47000000000E+01 0.  1.
<mgrwt>
<rscale>  0 0.99953791E+03</rscale>
<asrwt>0</asrwt>
<pdfrwt beam="1">  1        2 0.17351046E+00 0.99953791E+03</pdfrwt>
<pdfrwt beam="2">  1       -2 0.34071101E-01 0.99953791E+03</pdfrwt>
<totfact> 0.20372928E+02</totfact>
</mgrwt>
</event>
<event>
 9    1  0.4236486E-036  0.9971836E+03  0.7818608E-02  0.8683725E-01
          1   -1    0    0  501    0  0.00000000000E+00  0.00000000000E+00  0.38236993431E+03  0.38236993431E+03  0.00000000000E+00 0. -1.
         -1   -1    0    0    0  501 -0.00000000000E+00 -0.00000000000E+00 -0.65013947384E+03  0.65013947384E+03  0.00000000000E+00 0. -1.
         36    2    1    2    0    0  0.14210854715E-13  0.00000000000E+00 -0.26776953953E+03  0.10325094082E+04  0.99718360979E+03 0.  0.
         25    2    3    3    0    0 -0.91335304317E+02  0.89981712025E+02  0.62714923062E+01  0.17722517205E+03  0.12219076757E+03 0.  0.
         35    2    3    3    0    0  0.91335304317E+02 -0.89981712025E+02 -0.27404103184E+03  0.85528423611E+03  0.79998361926E+03 0.  0.
         22    1    5    5    0    0  0.21638832097E+03 -0.22805043584E+03  0.18158498083E+03  0.36304822270E+03  0.00000000000E+00 0. -1.
         22    1    5    5    0    0 -0.12505301665E+03  0.13806872382E+03 -0.45562601267E+03  0.49223601341E+03  0.00000000000E+00 0. -1.
          5    1    4    4  502    0 -0.39388213650E+02  0.11295741476E+03 -0.13135653124E+01  0.11972729170E+03  0.47000000000E+01 0. -1.
         -5    1    4    4    0  502 -0.51947090668E+02 -0.22975702740E+02  0.75850576186E+01  0.57497880346E+02  0.47000000000E+01 0. -1.
<mgrwt>
<rscale>  0 0.99718361E+03</rscale>
<asrwt>0</asrwt>
<pdfrwt beam="1">  1        1 0.58826144E-01 0.99718361E+03</pdfrwt>
<pdfrwt beam="2">  1       -1 0.10002146E+00 0.99718361E+03</pdfrwt>
<totfact> 0.72736943E+01</totfact>
</mgrwt>
</event>
<event>
 9    1  0.4236486E-036  0.9987849E+03  0.7818608E-02  0.8682196E-01
          2   -1    0    0  501    0  0.00000000000E+00  0.00000000000E+00  0.10781555779E+04  0.10781555779E+04  0.00000000000E+00 0.  1.
         -2   -1    0    0    0  501 -0.00000000000E+00 -0.00000000000E+00 -0.23131431177E+03  0.23131431177E+03  0.00000000000E+00 0.  1.
         36    2    1    2    0    0 -0.14210854715E-13  0.46185277824E-13  0.84684126608E+03  0.13094698896E+04  0.99878489270E+03 0.  0.
         25    2    3    3    0    0  0.85744370369E+02 -0.15047794644E+02  0.29871093038E+03  0.33539641129E+03  0.12523577606E+03 0.  0.
         35    2    3    3    0    0 -0.85744370369E+02  0.15047794644E+02  0.54813033571E+03  0.97407347833E+03  0.80049593571E+03 0.  0.
         22    1    5    5    0    0 -0.23927174239E+03 -0.34152149455E+03  0.28355863885E+03  0.50427512294E+03  0.00000000000E+00 0. -1.
         22    1    5    5    0    0  0.15352737203E+03  0.35656928919E+03  0.26457169686E+03  0.46979835539E+03  0.00000000000E+00 0. -1.
          5    1    4    4  502    0  0.91571648859E+02 -0.12151659559E+02  0.30888549191E+03  0.32243660899E+03  0.47000000000E+01 0.  1.
         -5    1    4    4    0  502 -0.58272784900E+01 -0.28961350849E+01 -0.10174561537E+02  0.12959802294E+02  0.47000000000E+01 0.  1.
<mgrwt>
<rscale>  0 0.99878489E+03</rscale>
<asrwt>0</asrwt>
<pdfrwt beam="1">  1        2 0.16587009E+00 0.99878489E+03</pdfrwt>
<pdfrwt beam="2">  1       -2 0.35586818E-01 0.99878489E+03</pdfrwt>
<totfact> 0.20132605E+02</totfact>
</mgrwt>
</event>
<event>
 9    1  0.4236486E-036  0.1000174E+04  0.7818608E-02  0.8680873E-01
         -1   -1    0    0    0  501 -0.00000000000E+00  0.00000000000E+00  0.43789578341E+03  0.43789578341E+03  0.00000000000E+00 0.  1.
          1   -1    0    0  501    0  0.00000000000E+00 -0.00000000000E+00 -0.57111036200E+03  0.57111036200E+03  0.00000000000E+00 0.  1.
         36    2    1    2    0    0  0.00000000000E+00  0.14210854715E-13 -0.13321457858E+03  0.10090061454E+04  0.10001736237E+04 0.  0.
         25    2    3    3    0    0 -0.13869645051E+03 -0.10166770418E+02 -0.29274370952E+02  0.19070918558E+03  0.12717285899E+03 0.  0.
         35    2    3    3    0    0  0.13869645051E+03  0.10166770418E+02 -0.10394020763E+03  0.81829695983E+03  0.79966635486E+03 0.  0.
         22    1    5    5    0    0  0.24148607259E+02 -0.38375868749E+03  0.32680429166E+02  0.38590399830E+03  0.00000000000E+00 0.  1.
         22    1    5    5    0    0  0.11454784326E+03  0.39392545790E+03 -0.13662063680E+03  0.43239296153E+03  0.00000000000E+00 0.  1.
          5    1    4    4  502    0 -0.10397135732E+03  0.51363886285E+02 -0.30075507513E+02  0.11989544658E+03  0.47000000000E+01 0. -1.
         -5    1    4    4    0  502 -0.34725093192E+02 -0.61530656703E+02  0.80113656164E+00  0.70813739001E+02  0.47000000000E+01 0. -1.
<mgrwt>
<rscale>  0 0.10001736E+04</rscale>
<asrwt>0</asrwt>
<pdfrwt beam="1">  1        1 0.87863132E-01 0.10001736E+04</pdfrwt>
<pdfrwt beam="2">  1       -1 0.67368582E-01 0.10001736E+04</pdfrwt>
<totfact> 0.95882717E+01</totfact>
</mgrwt>
</event>
<event>
 9    1  0.4236486E-036  0.9989833E+03  0.7818608E-02  0.8682007E-01
          2   -1    0    0  501    0  0.00000000000E+00  0.00000000000E+00  0.10557063648E+04  0.10557063648E+04  0.00000000000E+00 0.  1.
         -2   -1    0    0    0  501 -0.00000000000E+00 -0.00000000000E+00 -0.23632698313E+03  0.23632698313E+03  0.00000000000E+00 0.  1.
         36    2    1    2    0    0  0.71054273576E-14  0.14210854715E-13  0.81937938172E+03  0.12920333480E+04  0.99898328369E+03 0.  0.
         25    2    3    3    0    0 -0.49314806607E+02 -0.12799399028E+03  0.19467112204E+03  0.26828600371E+03  0.12355615051E+03 0.  0.
         35    2    3    3    0    0  0.49314806607E+02  0.12799399028E+03  0.62470825967E+03  0.10237473443E+04  0.79936462486E+03 0.  0.
         22    1    5    5    0    0  0.15270215828E+03 -0.12645268888E+03  0.70920318638E+03  0.73639486095E+03  0.00000000000E+00 0.  1.
         22    1    5    5    0    0 -0.10338735168E+03  0.25444667917E+03 -0.84494926701E+02  0.28735248331E+03  0.00000000000E+00 0.  1.
          5    1    4    4  502    0  0.40931720112E+02 -0.53247110085E+02  0.72172002152E+02  0.98699282359E+02  0.47000000000E+01 0.  1.
         -5    1    4    4    0  502 -0.90246526718E+02 -0.74746880198E+02  0.12249911989E+03  0.16958672135E+03  0.47000000000E+01 0.  1.
<mgrwt>
<rscale>  0 0.99898328E+03</rscale>
<asrwt>0</asrwt>
<pdfrwt beam="1">  1        2 0.16241636E+00 0.99898328E+03</pdfrwt>
<pdfrwt beam="2">  1       -2 0.36357998E-01 0.99898328E+03</pdfrwt>
<totfact> 0.19962023E+02</totfact>
</mgrwt>
</event>
<event>
 9    1  0.4236486E-036  0.1000396E+04  0.7818608E-02  0.8680661E-01
          2   -1    0    0  501    0  0.00000000000E+00  0.00000000000E+00  0.36510226939E+03  0.36510226939E+03  0.00000000000E+00 0. -1.
         -2   -1    0    0    0  501 -0.00000000000E+00 -0.00000000000E+00 -0.68528256417E+03  0.68528256417E+03  0.00000000000E+00 0. -1.
         36    2    1    2    0    0  0.14210854715E-13  0.71054273576E-14 -0.32018029477E+03  0.10503848336E+04  0.10003963602E+04 0.  0.
         25    2    3    3    0    0  0.53040760093E+02  0.52494895867E+02 -0.18557859050E+03  0.23648375045E+03  0.12615908470E+03 0.  0.
         35    2    3    3    0    0 -0.53040760093E+02 -0.52494895867E+02 -0.13460170427E+03  0.81390108311E+03  0.79921731586E+03 0.  0.
         22    1    5    5    0    0  0.67584596967E+02 -0.62601719843E+01  0.32730579666E+03  0.33426928071E+03  0.00000000000E+00 0.  1.
         22    1    5    5    0    0 -0.12062535706E+03 -0.46234723883E+02 -0.46190750093E+03  0.47963180240E+03  0.00000000000E+00 0.  1.
          5    1    4    4  502    0  0.75764387289E+02 -0.63399654997E+01 -0.13693140957E+03  0.15669313473E+03  0.47000000000E+01 0.  1.
         -5    1    4    4    0  502 -0.22723627197E+02  0.58834861367E+02 -0.48647180930E+02  0.79790615723E+02  0.47000000000E+01 0.  1.
<mgrwt>
<rscale>  0 0.10003964E+04</rscale>
<asrwt>0</asrwt>
<pdfrwt beam="1">  1        2 0.56169580E-01 0.10003964E+04</pdfrwt>
<pdfrwt beam="2">  1       -2 0.10542809E+00 0.10003964E+04</pdfrwt>
<totfact> 0.75899840E+01</totfact>
</mgrwt>
</event>
<event>
 9    1  0.4236486E-036  0.1000475E+04  0.7818608E-02  0.8680586E-01
          1   -1    0    0  501    0  0.00000000000E+00  0.00000000000E+00  0.15072304123E+04  0.15072304123E+04  0.00000000000E+00 0.  1.
         -1   -1    0    0    0  501 -0.00000000000E+00 -0.00000000000E+00 -0.16602474057E+03  0.16602474057E+03  0.00000000000E+00 0.  1.
         36    2    1    2    0    0  0.14210854715E-13 -0.14210854715E-13  0.13412056718E+04  0.16732551529E+04  0.10004749636E+04 0.  0.
         25    2    3    3    0    0 -0.90072962953E+02 -0.78739472975E+02  0.13299744202E+03  0.21921062822E+03  0.12669623783E+03 0.  0.
         35    2    3    3    0    0  0.90072962953E+02  0.78739472975E+02  0.12082082297E+04  0.14540445247E+04  0.80010331212E+03 0.  0.
         22    1    5    5    0    0 -0.12747764599E+03  0.82680324220E+02 -0.62900122208E+02  0.16444759534E+03  0.00000000000E+00 0. -1.
         22    1    5    5    0    0  0.21755060894E+03 -0.39408512448E+01  0.12711083519E+04  0.12895969293E+04  0.00000000000E+00 0. -1.
          5    1    4    4  502    0  0.80719399046E+00 -0.55636298684E+02  0.10873920660E+03  0.12223892320E+03  0.47000000000E+01 0. -1.
         -5    1    4    4    0  502 -0.90880156943E+02 -0.23103174291E+02  0.24258235420E+02  0.96971705018E+02  0.47000000000E+01 0. -1.
<mgrwt>
<rscale>  0 0.10004750E+04</rscale>
<asrwt>0</asrwt>
<pdfrwt beam="1">  1        1 0.23188159E+00 0.10004750E+04</pdfrwt>
<pdfrwt beam="2">  1       -1 0.25542269E-01 0.10004750E+04</pdfrwt>
<totfact> 0.94202970E+01</totfact>
</mgrwt>
</event>
<event>
 9    1  0.4236486E-036  0.1000378E+04  0.7818608E-02  0.8680678E-01
          2   -1    0    0  501    0  0.00000000000E+00  0.00000000000E+00  0.33762467349E+03  0.33762467349E+03  0.00000000000E+00 0.  1.
         -2   -1    0    0    0  501 -0.00000000000E+00 -0.00000000000E+00 -0.74102711764E+03  0.74102711764E+03  0.00000000000E+00 0.  1.
         36    2    1    2    0    0 -0.28421709430E-13 -0.14210854715E-13 -0.40340244415E+03  0.10786517911E+04  0.10003780058E+04 0.  0.
         25    2    3    3    0    0 -0.78764439697E+02 -0.27446641415E+01  0.50485618297E+02  0.15546963817E+03  0.12413960124E+03 0.  0.
         35    2    3    3    0    0  0.78764439697E+02  0.27446641415E+01 -0.45388806244E+03  0.92318215295E+03  0.80002471472E+03 0.  0.
         22    1    5    5    0    0 -0.20674732519E+03 -0.12963287086E+03 -0.54366470483E+03  0.59591983434E+03  0.00000000000E+00 0. -1.
         22    1    5    5    0    0  0.28551176489E+03  0.13237753500E+03  0.89776642388E+02  0.32726231861E+03  0.00000000000E+00 0. -1.
          5    1    4    4  502    0 -0.98097420944E+02  0.16773789707E+02  0.69721601027E+02  0.12160450513E+03  0.47000000000E+01 0. -1.
         -5    1    4    4    0  502  0.19332981247E+02 -0.19518453848E+02 -0.19235982731E+02  0.33865133045E+02  0.47000000000E+01 0. -1.
<mgrwt>
<rscale>  0 0.10003780E+04</rscale>
<asrwt>0</asrwt>
<pdfrwt beam="1">  1        2 0.51942257E-01 0.10003780E+04</pdfrwt>
<pdfrwt beam="2">  1       -2 0.11400417E+00 0.10003780E+04</pdfrwt>
<totfact> 0.68017662E+01</totfact>
</mgrwt>
</event>
<event>
 9    1  0.4236486E-036  0.9989144E+03  0.7818608E-02  0.8682072E-01
         -1   -1    0    0    0  501 -0.00000000000E+00  0.00000000000E+00  0.17460387038E+03  0.17460387038E+03  0.00000000000E+00 0.  1.
          1   -1    0    0  501    0  0.00000000000E+00 -0.00000000000E+00 -0.14287053471E+04  0.14287053471E+04  0.00000000000E+00 0.  1.
         36    2    1    2    0    0  0.14210854715E-13  0.28421709430E-13 -0.12541014767E+04  0.16033092175E+04  0.99891437719E+03 0.  0.
         25    2    3    3    0    0  0.42073429449E+02  0.13294537116E+03 -0.23185080508E+03  0.29764985063E+03  0.12408058906E+03 0.  0.
         35    2    3    3    0    0 -0.42073429449E+02 -0.13294537116E+03 -0.10222506716E+04  0.13056593669E+04  0.80019079064E+03 0.  0.
         22    1    5    5    0    0 -0.18536989258E+03  0.19847414446E+03 -0.87420227927E+03  0.91541444612E+03  0.00000000000E+00 0.  1.
         22    1    5    5    0    0  0.14329646313E+03 -0.33141951563E+03 -0.14804839238E+03  0.39024492075E+03  0.00000000000E+00 0.  1.
          5    1    4    4  502    0  0.16843820247E+01  0.10242713456E+03 -0.22380001216E+03  0.24617613710E+03  0.47000000000E+01 0.  1.
         -5    1    4    4    0  502  0.40389047424E+02  0.30518236605E+02 -0.80507929255E+01  0.51473713525E+02  0.47000000000E+01 0.  1.
<mgrwt>
<rscale>  0 0.99891438E+03</rscale>
<asrwt>0</asrwt>
<pdfrwt beam="1">  1        1 0.21980082E+00 0.99891438E+03</pdfrwt>
<pdfrwt beam="2">  1       -1 0.26862134E-01 0.99891438E+03</pdfrwt>
<totfact> 0.98464854E+01</totfact>
</mgrwt>
</event>
<event>
 9    1  0.4236486E-036  0.1000254E+04  0.7818608E-02  0.8680796E-01
          1   -1    0    0  501    0  0.00000000000E+00  0.00000000000E+00  0.16708771037E+04  0.16708771037E+04  0.00000000000E+00 0. -1.
         -1   -1    0    0    0  501 -0.00000000000E+00 -0.00000000000E+00 -0.14969807881E+03  0.14969807881E+03  0.00000000000E+00 0. -1.
         36    2    1    2    0    0  0.00000000000E+00 -0.28421709430E-13  0.15211790249E+04  0.18205751825E+04  0.10002541524E+04 0.  0.
         25    2    3    3    0    0 -0.12182745755E+03 -0.64853581593E+02  0.39738137645E+03  0.43884139070E+03  0.12498756491E+03 0.  0.
         35    2    3    3    0    0  0.12182745755E+03  0.64853581593E+02  0.11237976485E+04  0.13817337918E+04  0.79197171689E+03 0.  0.
         22    1    5    5    0    0  0.34071028136E+03  0.25954399294E+03  0.94756516624E+03  0.10398684168E+04  0.00000000000E+00 0. -1.
         22    1    5    5    0    0 -0.21888282380E+03 -0.19469041135E+03  0.17623248223E+03  0.34186537499E+03  0.00000000000E+00 0. -1.
          5    1    4    4  502    0  0.32234416110E+01 -0.60561144999E+02  0.13849236516E+03  0.15126224931E+03  0.47000000000E+01 0.  1.
         -5    1    4    4    0  502 -0.12505089916E+03 -0.42924365933E+01  0.25888901130E+03  0.28757914139E+03  0.47000000000E+01 0.  1.
<mgrwt>
<rscale>  0 0.10002542E+04</rscale>
<asrwt>0</asrwt>
<pdfrwt beam="1">  1        1 0.25705800E+00 0.10002542E+04</pdfrwt>
<pdfrwt beam="2">  1       -1 0.23030475E-01 0.10002542E+04</pdfrwt>
<totfact> 0.85796229E+01</totfact>
</mgrwt>
</event>
<event>
 9    1  0.4236486E-036  0.9997384E+03  0.7818608E-02  0.8681287E-01
         -2   -1    0    0    0  501 -0.00000000000E+00  0.00000000000E+00  0.19904091333E+03  0.19904091333E+03  0.00000000000E+00 0.  1.
          2   -1    0    0  501    0  0.00000000000E+00 -0.00000000000E+00 -0.12553661683E+04  0.12553661683E+04  0.00000000000E+00 0.  1.
         36    2    1    2    0    0  0.00000000000E+00 -0.28421709430E-13 -0.10563252550E+04  0.14544070817E+04  0.99973842320E+03 0.  0.
         25    2    3    3    0    0  0.37007257609E+02  0.85491785118E+02 -0.35426474945E+03  0.38629985550E+03  0.12266084630E+03 0.  0.
         35    2    3    3    0    0 -0.37007257609E+02 -0.85491785118E+02 -0.70206050555E+03  0.10681072262E+04  0.79955344454E+03 0.  0.
         22    1    5    5    0    0 -0.23598772837E+03 -0.33352904971E+03 -0.61512343073E+03  0.73845018111E+03  0.00000000000E+00 0.  1.
         22    1    5    5    0    0  0.19898047076E+03  0.24803726460E+03 -0.86937074820E+02  0.32965704505E+03  0.00000000000E+00 0.  1.
          5    1    4    4  502    0  0.78887764745E+02  0.61714203589E+02 -0.28231132308E+03  0.29958921124E+03  0.47000000000E+01 0. -1.
         -5    1    4    4    0  502 -0.41880507136E+02  0.23777581529E+02 -0.71953426371E+02  0.86710644259E+02  0.47000000000E+01 0. -1.
<mgrwt>
<rscale>  0 0.99973842E+03</rscale>
<asrwt>0</asrwt>
<pdfrwt beam="1">  1        2 0.19313325E+00 0.99973842E+03</pdfrwt>
<pdfrwt beam="2">  1       -2 0.30621680E-01 0.99973842E+03</pdfrwt>
<totfact> 0.20840296E+02</totfact>
</mgrwt>
</event>
<event>
 9    1  0.4236486E-036  0.9998315E+03  0.7818608E-02  0.8681198E-01
          1   -1    0    0  501    0  0.00000000000E+00  0.00000000000E+00  0.89242428473E+03  0.89242428473E+03  0.00000000000E+00 0.  1.
         -1   -1    0    0    0  501 -0.00000000000E+00 -0.00000000000E+00 -0.28004141008E+03  0.28004141008E+03  0.00000000000E+00 0.  1.
         36    2    1    2    0    0 -0.42632564146E-13  0.00000000000E+00  0.61238287465E+03  0.11724656948E+04  0.99983149597E+03 0.  0.
         25    2    3    3    0    0 -0.10656015884E+03  0.96254007303E+02  0.11346117975E+03  0.22155442875E+03  0.12487203136E+03 0.  0.
         35    2    3    3    0    0  0.10656015884E+03 -0.96254007303E+02  0.49892169490E+03  0.95091126606E+03  0.79667400917E+03 0.  0.
         22    1    5    5    0    0 -0.32910404406E+03 -0.67427084359E+02  0.36076482382E+03  0.49295754546E+03  0.00000000000E+00 0.  1.
         22    1    5    5    0    0  0.43566420291E+03 -0.28826922943E+02  0.13815687108E+03  0.45795372059E+03  0.00000000000E+00 0.  1.
          5    1    4    4  502    0 -0.12790093940E+02 -0.29666730708E+02  0.26293608487E+02  0.41918316535E+02  0.47000000000E+01 0. -1.
         -5    1    4    4    0  502 -0.93770064905E+02  0.12592073801E+03  0.87167571260E+02  0.17963611222E+03  0.47000000000E+01 0. -1.
<mgrwt>
<rscale>  0 0.99983150E+03</rscale>
<asrwt>0</asrwt>
<pdfrwt beam="1">  1        1 0.13729604E+00 0.99983150E+03</pdfrwt>
<pdfrwt beam="2">  1       -1 0.43083294E-01 0.99983150E+03</pdfrwt>
<totfact> 0.11071951E+02</totfact>
</mgrwt>
</event>
<event>
 9    1  0.4236486E-036  0.1000359E+04  0.7818608E-02  0.8680696E-01
         -2   -1    0    0    0  501 -0.00000000000E+00  0.00000000000E+00  0.45306660990E+03  0.45306660990E+03  0.00000000000E+00 0. -1.
          2   -1    0    0  501    0  0.00000000000E+00 -0.00000000000E+00 -0.55219126602E+03  0.55219126602E+03  0.00000000000E+00 0. -1.
         36    2    1    2    0    0 -0.71054273576E-14  0.00000000000E+00 -0.99124656124E+02  0.10052578759E+04  0.10003587855E+04 0.  0.
         25    2    3    3    0    0  0.16096442046E+01 -0.12671421998E+03  0.39103097553E+02  0.18298063191E+03  0.12607051565E+03 0.  0.
         35    2    3    3    0    0 -0.16096442046E+01  0.12671421998E+03 -0.13822775368E+03  0.82227724402E+03  0.80060843715E+03 0.  0.
         22    1    5    5    0    0 -0.18511641044E+03  0.91297576667E+02 -0.42931574201E+03  0.47635631544E+03  0.00000000000E+00 0. -1.
         22    1    5    5    0    0  0.18350676623E+03  0.35416643314E+02  0.29108798833E+03  0.34592092858E+03  0.00000000000E+00 0. -1.
          5    1    4    4  502    0 -0.61773408013E+02 -0.55125369531E+02  0.21136526365E+02  0.85578052386E+02  0.47000000000E+01 0. -1.
         -5    1    4    4    0  502  0.63383052217E+02 -0.71588850450E+02  0.17966571189E+02  0.97402579522E+02  0.47000000000E+01 0. -1.
<mgrwt>
<rscale>  0 0.10003588E+04</rscale>
<asrwt>0</asrwt>
<pdfrwt beam="1">  1        2 0.84952502E-01 0.10003588E+04</pdfrwt>
<pdfrwt beam="2">  1       -2 0.69702556E-01 0.10003588E+04</pdfrwt>
<totfact> 0.12435005E+02</totfact>
</mgrwt>
</event>
<event>
 9    1  0.4236486E-036  0.1001395E+04  0.7818608E-02  0.8679711E-01
         -2   -1    0    0    0  501 -0.00000000000E+00  0.00000000000E+00  0.21329564301E+03  0.21329564301E+03  0.00000000000E+00 0. -1.
          2   -1    0    0  501    0  0.00000000000E+00 -0.00000000000E+00 -0.11753543632E+04  0.11753543632E+04  0.00000000000E+00 0. -1.
         36    2    1    2    0    0  0.00000000000E+00  0.00000000000E+00 -0.96205872015E+03  0.13886500062E+04  0.10013949563E+04 0.  0.
         25    2    3    3    0    0  0.52194145838E+02 -0.94930648100E+02 -0.61571579869E+02  0.17654893680E+03  0.12506962393E+03 0.  0.
         35    2    3    3    0    0 -0.52194145838E+02  0.94930648100E+02 -0.90048714028E+03  0.12121010694E+04  0.80409940662E+03 0.  0.
         22    1    5    5    0    0 -0.25769846215E+03  0.37313681761E+03 -0.61205143859E+03  0.76173915846E+03  0.00000000000E+00 0.  1.
         22    1    5    5    0    0  0.20550431632E+03 -0.27820616951E+03 -0.28843570169E+03  0.45036191090E+03  0.00000000000E+00 0.  1.
          5    1    4    4  502    0  0.62060016339E+02 -0.61698271611E+02  0.18143679683E+02  0.89495281776E+02  0.47000000000E+01 0.  1.
         -5    1    4    4    0  502 -0.98658705010E+01 -0.33232376489E+02 -0.79715259552E+02  0.87053655025E+02  0.47000000000E+01 0.  1.
<mgrwt>
<rscale>  0 0.10013950E+04</rscale>
<asrwt>0</asrwt>
<pdfrwt beam="1">  1        2 0.18082374E+00 0.10013950E+04</pdfrwt>
<pdfrwt beam="2">  1       -2 0.32814715E-01 0.10013950E+04</pdfrwt>
<totfact> 0.20457414E+02</totfact>
</mgrwt>
</event>
<event>
 9    1  0.4236486E-036  0.1000432E+04  0.7818608E-02  0.8680627E-01
         -2   -1    0    0    0  501 -0.00000000000E+00  0.00000000000E+00  0.14430434723E+03  0.14430434723E+03  0.00000000000E+00 0. -1.
          2   -1    0    0  501    0  0.00000000000E+00 -0.00000000000E+00 -0.17339469209E+04  0.17339469209E+04  0.00000000000E+00 0. -1.
         36    2    1    2    0    0  0.28421709430E-13  0.28421709430E-13 -0.15896425736E+04  0.18782512681E+04  0.10004320637E+04 0.  0.
         25    2    3    3    0    0  0.19477668779E+02  0.60997978324E+02 -0.61275026183E+02  0.15102185666E+03  0.12228180328E+03 0.  0.
         35    2    3    3    0    0 -0.19477668779E+02 -0.60997978324E+02 -0.15283675475E+04  0.17272294114E+04  0.80206854237E+03 0.  0.
         22    1    5    5    0    0 -0.34064154218E+03  0.19035230562E+03 -0.85774340380E+03  0.94233455168E+03  0.00000000000E+00 0. -1.
         22    1    5    5    0    0  0.32116387340E+03 -0.25135028395E+03 -0.67062414366E+03  0.78489485976E+03  0.00000000000E+00 0. -1.
          5    1    4    4  502    0 -0.24974147129E+02 -0.28373206439E+02 -0.17953577604E+02  0.42108999242E+02  0.47000000000E+01 0. -1.
         -5    1    4    4    0  502  0.44451815908E+02  0.89371184762E+02 -0.43321448579E+02  0.10891285742E+03  0.47000000000E+01 0. -1.
<mgrwt>
<rscale>  0 0.10004321E+04</rscale>
<asrwt>0</asrwt>
<pdfrwt beam="1">  1        2 0.26676105E+00 0.10004321E+04</pdfrwt>
<pdfrwt beam="2">  1       -2 0.22200670E-01 0.10004321E+04</pdfrwt>
<totfact> 0.19771188E+02</totfact>
</mgrwt>
</event>
<event>
 9    1  0.4236486E-036  0.9983934E+03  0.7818608E-02  0.8682569E-01
         -2   -1    0    0    0  501 -0.00000000000E+00  0.00000000000E+00  0.88402582881E+03  0.88402582881E+03  0.00000000000E+00 0. -1.
          2   -1    0    0  501    0  0.00000000000E+00 -0.00000000000E+00 -0.28188920413E+03  0.28188920413E+03  0.00000000000E+00 0. -1.
         36    2    1    2    0    0  0.14210854715E-13  0.14210854715E-13  0.60213662468E+03  0.11659150329E+04  0.99839338403E+03 0.  0.
         25    2    3    3    0    0 -0.76004583156E+02 -0.68505752259E+01  0.24713280130E+03  0.28695475714E+03  0.12427704584E+03 0.  0.
         35    2    3    3    0    0  0.76004583156E+02  0.68505752259E+01  0.35500382338E+03  0.87896027581E+03  0.80044976407E+03 0.  0.
         22    1    5    5    0    0 -0.11980258499E+03 -0.36278489965E+03  0.12730131010E+03  0.40270481291E+03  0.00000000000E+00 0.  1.
         22    1    5    5    0    0  0.19580716815E+03  0.36963547488E+03  0.22770251328E+03  0.47625546290E+03  0.00000000000E+00 0.  1.
          5    1    4    4  502    0  0.11984314640E+02  0.42521539928E+02  0.85622040888E+02  0.96462060112E+02  0.47000000000E+01 0. -1.
         -5    1    4    4    0  502 -0.87988897796E+02 -0.49372115154E+02  0.16151076041E+03  0.19049269702E+03  0.47000000000E+01 0. -1.
<mgrwt>
<rscale>  0 0.99839338E+03</rscale>
<asrwt>0</asrwt>
<pdfrwt beam="1">  1        2 0.43367570E-01 0.99839338E+03</pdfrwt>
<pdfrwt beam="2">  1       -2 0.13600397E+00 0.99839338E+03</pdfrwt>
<totfact> 0.52280638E+01</totfact>
</mgrwt>
</event>
<event>
 9    1  0.4236486E-036  0.1000642E+04  0.7818608E-02  0.8680426E-01
          1   -1    0    0  501    0  0.00000000000E+00  0.00000000000E+00  0.18982031830E+04  0.18982031830E+04  0.00000000000E+00 0. -1.
         -1   -1    0    0    0  501 -0.00000000000E+00 -0.00000000000E+00 -0.13187277592E+03  0.13187277592E+03  0.00000000000E+00 0. -1.
         36    2    1    2    0    0  0.00000000000E+00 -0.28421709430E-13  0.17663304071E+04  0.20300759589E+04  0.10006424396E+04 0.  0.
         25    2    3    3    0    0  0.75111165738E+02 -0.11606587177E+03  0.31572351550E+03  0.36722051519E+03  0.12671461926E+03 0.  0.
         35    2    3    3    0    0 -0.75111165738E+02  0.11606587177E+03  0.14506068916E+04  0.16628554437E+04  0.80107109486E+03 0.  0.
         22    1    5    5    0    0  0.23996155529E+02  0.39489615769E+03  0.36723814594E+03  0.53979870941E+03  0.00000000000E+00 0. -1.
         22    1    5    5    0    0 -0.99107321267E+02 -0.27883028593E+03  0.10833687457E+04  0.11230567343E+04  0.00000000000E+00 0. -1.
          5    1    4    4  502    0  0.14497185892E+02  0.22919552362E+02  0.17459141489E+02  0.32594261777E+02  0.47000000000E+01 0.  1.
         -5    1    4    4    0  502  0.60613979846E+02 -0.13898542413E+03  0.29826437401E+03  0.33462625342E+03  0.47000000000E+01 0.  1.
<mgrwt>
<rscale>  0 0.10006424E+04</rscale>
<asrwt>0</asrwt>
<pdfrwt beam="1">  1        1 0.29203124E+00 0.10006424E+04</pdfrwt>
<pdfrwt beam="2">  1       -1 0.20288121E-01 0.10006424E+04</pdfrwt>
<totfact> 0.73311984E+01</totfact>
</mgrwt>
</event>
<event>
 9    1  0.4236486E-036  0.9997935E+03  0.7818608E-02  0.8681235E-01
         -2   -1    0    0    0  501 -0.00000000000E+00  0.00000000000E+00  0.10741070560E+03  0.10741070560E+03  0.00000000000E+00 0.  1.
          2   -1    0    0  501    0  0.00000000000E+00 -0.00000000000E+00 -0.23265533848E+04  0.23265533848E+04  0.00000000000E+00 0.  1.
         36    2    1    2    0    0 -0.71054273576E-14  0.00000000000E+00 -0.22191426792E+04  0.24339640904E+04  0.99979346003E+03 0.  0.
         25    2    3    3    0    0 -0.59222750003E+02  0.46518712353E+02 -0.69567680438E+03  0.71088961742E+03  0.12540537185E+03 0.  0.
         35    2    3    3    0    0  0.59222750003E+02 -0.46518712353E+02 -0.15234658748E+04  0.17230744730E+04  0.80147741265E+03 0.  0.
         22    1    5    5    0    0  0.11646325732E+03 -0.13275820840E+03  0.18563192370E+02  0.17757540459E+03  0.00000000000E+00 0. -1.
         22    1    5    5    0    0 -0.57240507317E+02  0.86239496051E+02 -0.15420290672E+04  0.15454990684E+04  0.00000000000E+00 0. -1.
          5    1    4    4  502    0  0.84954249567E+01  0.55049439193E+02 -0.13589690449E+03  0.14694445090E+03  0.47000000000E+01 0. -1.
         -5    1    4    4    0  502 -0.67718174960E+02 -0.85307268403E+01 -0.55977989989E+03  0.56394516652E+03  0.47000000000E+01 0. -1.
<mgrwt>
<rscale>  0 0.99979346E+03</rscale>
<asrwt>0</asrwt>
<pdfrwt beam="1">  1        2 0.35793130E+00 0.99979346E+03</pdfrwt>
<pdfrwt beam="2">  1       -2 0.16524724E-01 0.99979346E+03</pdfrwt>
<totfact> 0.15032052E+02</totfact>
</mgrwt>
</event>
<event>
 9    1  0.4236486E-036  0.9947543E+03  0.7818608E-02  0.8686050E-01
         -2   -1    0    0    0  501 -0.00000000000E+00  0.00000000000E+00  0.12386055888E+03  0.12386055888E+03  0.00000000000E+00 0. -1.
          2   -1    0    0  501    0  0.00000000000E+00 -0.00000000000E+00 -0.19972785645E+04  0.19972785645E+04  0.00000000000E+00 0. -1.
         36    2    1    2    0    0  0.00000000000E+00  0.28421709430E-13 -0.18734180056E+04  0.21211391234E+04  0.99475431991E+03 0.  0.
         25    2    3    3    0    0 -0.11588168820E+03  0.64175282894E+02 -0.41508044823E+03  0.45320410081E+03  0.12472027058E+03 0.  0.
         35    2    3    3    0    0  0.11588168820E+03 -0.64175282894E+02 -0.14583375574E+04  0.16679350226E+04  0.79856857917E+03 0.  0.
         22    1    5    5    0    0  0.18626505076E+03  0.29063682908E+03 -0.30997551171E+03  0.46394962379E+03  0.00000000000E+00 0.  1.
         22    1    5    5    0    0 -0.70383362562E+02 -0.35481211198E+03 -0.11483620457E+04  0.12039853988E+04  0.00000000000E+00 0.  1.
          5    1    4    4  502    0 -0.99942201980E+02  0.36408247464E+02 -0.40580658501E+03  0.41954151005E+03  0.47000000000E+01 0.  1.
         -5    1    4    4    0  502 -0.15939486217E+02  0.27767035429E+02 -0.92738632184E+01  0.33662590756E+02  0.47000000000E+01 0.  1.
<mgrwt>
<rscale>  0 0.99475432E+03</rscale>
<asrwt>0</asrwt>
<pdfrwt beam="1">  1        2 0.30727363E+00 0.99475432E+03</pdfrwt>
<pdfrwt beam="2">  1       -2 0.19055470E-01 0.99475432E+03</pdfrwt>
<totfact> 0.18288549E+02</totfact>
</mgrwt>
</event>
<event>
 9    1  0.4236486E-036  0.9999150E+03  0.7818608E-02  0.8681119E-01
          1   -1    0    0  501    0  0.00000000000E+00  0.00000000000E+00  0.17443141845E+04  0.17443141845E+04  0.00000000000E+00 0. -1.
         -1   -1    0    0    0  501 -0.00000000000E+00 -0.00000000000E+00 -0.14329843098E+03  0.14329843098E+03  0.00000000000E+00 0. -1.
         36    2    1    2    0    0 -0.14210854715E-13  0.00000000000E+00  0.16010157535E+04  0.18876126155E+04  0.99991496793E+03 0.  0.
         25    2    3    3    0    0  0.85657838896E+02  0.83486158117E+02  0.43635964781E+03  0.46927395699E+03  0.12450341568E+03 0.  0.
         35    2    3    3    0    0 -0.85657838896E+02 -0.83486158117E+02  0.11646561057E+04  0.14183386585E+04  0.80059571672E+03 0.  0.
         22    1    5    5    0    0  0.23204016565E+03 -0.29461215942E+03  0.32559695792E+03  0.49664105948E+03  0.00000000000E+00 0.  1.
         22    1    5    5    0    0 -0.31769800455E+03  0.21112600130E+03  0.83905914781E+03  0.92169759902E+03  0.00000000000E+00 0.  1.
          5    1    4    4  502    0  0.10382307495E+03  0.65503620433E+02  0.42213301541E+03  0.43964568448E+03  0.47000000000E+01 0.  1.
         -5    1    4    4    0  502 -0.18165236058E+02  0.17982537684E+02  0.14226632395E+02  0.29628272510E+02  0.47000000000E+01 0.  1.
<mgrwt>
<rscale>  0 0.99991497E+03</rscale>
<asrwt>0</asrwt>
<pdfrwt beam="1">  1        1 0.26835601E+00 0.99991497E+03</pdfrwt>
<pdfrwt beam="2">  1       -1 0.22045914E-01 0.99991497E+03</pdfrwt>
<totfact> 0.81916293E+01</totfact>
</mgrwt>
</event>
<event>
 9    1  0.4236486E-036  0.1000191E+04  0.7818608E-02  0.8680857E-01
          2   -1    0    0  501    0  0.00000000000E+00  0.00000000000E+00  0.12907068929E+04  0.12907068929E+04  0.00000000000E+00 0. -1.
         -2   -1    0    0    0  501 -0.00000000000E+00 -0.00000000000E+00 -0.19376613615E+03  0.19376613615E+03  0.00000000000E+00 0. -1.
         36    2    1    2    0    0 -0.14210854715E-13  0.00000000000E+00  0.10969407568E+04  0.14844730291E+04  0.10001905569E+04 0.  0.
         25    2    3    3    0    0  0.81143353493E+02  0.10758059117E+03  0.26148197042E+03  0.31991742734E+03  0.12576371515E+03 0.  0.
         35    2    3    3    0    0 -0.81143353493E+02 -0.10758059117E+03  0.83545878634E+03  0.11645556017E+04  0.80002533612E+03 0.  0.
         22    1    5    5    0    0 -0.11124192085E+03  0.34246710048E+03  0.35940731590E+03  0.50875544084E+03  0.00000000000E+00 0. -1.
         22    1    5    5    0    0  0.30098567357E+02 -0.45004769165E+03  0.47605147044E+03  0.65580016089E+03  0.00000000000E+00 0. -1.
          5    1    4    4  502    0  0.52336817933E+02  0.10225685645E+03  0.90320504282E+02  0.14620359331E+03  0.47000000000E+01 0. -1.
         -5    1    4    4    0  502  0.28806535560E+02  0.53237347134E+01  0.17116146613E+03  0.17371383403E+03  0.47000000000E+01 0. -1.
<mgrwt>
<rscale>  0 0.10001906E+04</rscale>
<asrwt>0</asrwt>
<pdfrwt beam="1">  1        2 0.19857029E+00 0.10001906E+04</pdfrwt>
<pdfrwt beam="2">  1       -2 0.29810176E-01 0.10001906E+04</pdfrwt>
<totfact> 0.20873472E+02</totfact>
</mgrwt>
</event>
<event>
 9    1  0.4236486E-036  0.1000280E+04  0.7818608E-02  0.8680771E-01
         -2   -1    0    0    0  501 -0.00000000000E+00  0.00000000000E+00  0.16651860773E+03  0.16651860773E+03  0.00000000000E+00 0. -1.
          2   -1    0    0  501    0  0.00000000000E+00 -0.00000000000E+00 -0.15021743166E+04  0.15021743166E+04  0.00000000000E+00 0. -1.
         36    2    1    2    0    0  0.42632564146E-13 -0.71054273576E-14 -0.13356557088E+04  0.16686929243E+04  0.10002799123E+04 0.  0.
         25    2    3    3    0    0  0.62893686456E+02 -0.37822356130E+02 -0.47331978850E+02  0.15197381514E+03  0.12437675766E+03 0.  0.
         35    2    3    3    0    0 -0.62893686456E+02  0.37822356130E+02 -0.12883237300E+04  0.15167191091E+04  0.79703994656E+03 0.  0.
         22    1    5    5    0    0  0.35177210715E+03  0.11250999121E+03 -0.72055185911E+03  0.80968950540E+03  0.00000000000E+00 0. -1.
         22    1    5    5    0    0 -0.41466579361E+03 -0.74687635081E+02 -0.56777187087E+03  0.70702960374E+03  0.00000000000E+00 0. -1.
          5    1    4    4  502    0 -0.18628244200E+02  0.18507741922E+02  0.18900685227E+02  0.32693636921E+02  0.47000000000E+01 0.  1.
         -5    1    4    4    0  502  0.81521930656E+02 -0.56330098052E+02 -0.66232664077E+02  0.11928017822E+03  0.47000000000E+01 0.  1.
<mgrwt>
<rscale>  0 0.10002799E+04</rscale>
<asrwt>0</asrwt>
<pdfrwt beam="1">  1        2 0.23110374E+00 0.10002799E+04</pdfrwt>
<pdfrwt beam="2">  1       -2 0.25618248E-01 0.10002799E+04</pdfrwt>
<totfact> 0.20751914E+02</totfact>
</mgrwt>
</event>
<event>
 9    1  0.4236486E-036  0.9989607E+03  0.7818608E-02  0.8682028E-01
         -1   -1    0    0    0  501 -0.00000000000E+00  0.00000000000E+00  0.22478419204E+03  0.22478419204E+03  0.00000000000E+00 0.  1.
          1   -1    0    0  501    0  0.00000000000E+00 -0.00000000000E+00 -0.11098672385E+04  0.11098672385E+04  0.00000000000E+00 0.  1.
         36    2    1    2    0    0  0.28421709430E-13  0.28421709430E-13 -0.88508304645E+03  0.13346514305E+04  0.99896068085E+03 0.  0.
         25    2    3    3    0    0  0.51460675495E+02  0.12726984498E+03 -0.15385607991E+03  0.24137143725E+03  0.12546976859E+03 0.  0.
         35    2    3    3    0    0 -0.51460675495E+02 -0.12726984498E+03 -0.73122696653E+03  0.10932799933E+04  0.80107580948E+03 0.  0.
         22    1    5    5    0    0  0.28821644245E+03 -0.11727156031E+03 -0.68236327763E+03  0.74996065178E+03  0.00000000000E+00 0.  1.
         22    1    5    5    0    0 -0.33967711794E+03 -0.99982846711E+01 -0.48863688901E+02  0.34331934149E+03  0.00000000000E+00 0.  1.
          5    1    4    4  502    0  0.56370077788E+02  0.25865148523E+01 -0.73891704067E+02  0.93093231004E+02  0.47000000000E+01 0.  1.
         -5    1    4    4    0  502 -0.49094022922E+01  0.12468333013E+03 -0.79964375843E+02  0.14827820624E+03  0.47000000000E+01 0.  1.
<mgrwt>
<rscale>  0 0.99896068E+03</rscale>
<asrwt>0</asrwt>
<pdfrwt beam="1">  1        1 0.17074881E+00 0.99896068E+03</pdfrwt>
<pdfrwt beam="2">  1       -1 0.34582183E-01 0.99896068E+03</pdfrwt>
<totfact> 0.10967562E+02</totfact>
</mgrwt>
</event>
<event>
 9    1  0.4236486E-036  0.9997218E+03  0.7818608E-02  0.8681303E-01
         -1   -1    0    0    0  501 -0.00000000000E+00  0.00000000000E+00  0.15582306348E+03  0.15582306348E+03  0.00000000000E+00 0. -1.
          1   -1    0    0  501    0  0.00000000000E+00 -0.00000000000E+00 -0.16034913385E+04  0.16034913385E+04  0.00000000000E+00 0. -1.
         36    2    1    2    0    0 -0.28421709430E-13  0.00000000000E+00 -0.14476682750E+04  0.17593144019E+04  0.99972182654E+03 0.  0.
         25    2    3    3    0    0  0.37239873618E+02 -0.98131515082E+02 -0.10865505986E+03  0.19608574402E+03  0.12500837786E+03 0.  0.
         35    2    3    3    0    0 -0.37239873618E+02  0.98131515082E+02 -0.13390132151E+04  0.15632286579E+04  0.79981925722E+03 0.  0.
         22    1    5    5    0    0  0.30840256526E+03  0.27743492053E+03 -0.75160847140E+03  0.85848562694E+03  0.00000000000E+00 0.  1.
         22    1    5    5    0    0 -0.34564243888E+03 -0.17930340544E+03 -0.58740474373E+03  0.70474303098E+03  0.00000000000E+00 0.  1.
          5    1    4    4  502    0  0.73583285640E+02 -0.48898404371E+02 -0.10094406133E+03  0.13422871300E+03  0.47000000000E+01 0. -1.
         -5    1    4    4    0  502 -0.36343412022E+02 -0.49233110710E+02 -0.77109985230E+01  0.61857031014E+02  0.47000000000E+01 0. -1.
<mgrwt>
<rscale>  0 0.99972183E+03</rscale>
<asrwt>0</asrwt>
<pdfrwt beam="1">  1        1 0.24669099E+00 0.99972183E+03</pdfrwt>
<pdfrwt beam="2">  1       -1 0.23972778E-01 0.99972183E+03</pdfrwt>
<totfact> 0.89534682E+01</totfact>
</mgrwt>
</event>
<event>
 9    1  0.4236486E-036  0.9991036E+03  0.7818608E-02  0.8681892E-01
          2   -1    0    0  501    0  0.00000000000E+00  0.00000000000E+00  0.96706727088E+03  0.96706727088E+03  0.00000000000E+00 0.  1.
         -2   -1    0    0    0  501 -0.00000000000E+00 -0.00000000000E+00 -0.25805031985E+03  0.25805031985E+03  0.00000000000E+00 0.  1.
         36    2    1    2    0    0  0.00000000000E+00 -0.14210854715E-13  0.70901695103E+03  0.12251175907E+04  0.99910363540E+03 0.  0.
         25    2    3    3    0    0  0.11907787944E+03 -0.61127385391E+02  0.85100511439E+02  0.20210377790E+03  0.12525071408E+03 0.  0.
         35    2    3    3    0    0 -0.11907787944E+03  0.61127385391E+02  0.62391643959E+03  0.10230138128E+04  0.79960580228E+03 0.  0.
         22    1    5    5    0    0  0.20347185984E+03  0.26195210891E+03  0.51054197823E+02  0.33559832572E+03  0.00000000000E+00 0.  1.
         22    1    5    5    0    0 -0.32254973928E+03 -0.20082472352E+03  0.57286224176E+03  0.68741548711E+03  0.00000000000E+00 0.  1.
          5    1    4    4  502    0  0.10077213760E+03 -0.93212889905E+02  0.38881189578E+02  0.14274979322E+03  0.47000000000E+01 0. -1.
         -5    1    4    4    0  502  0.18305741832E+02  0.32085504515E+02  0.46219321861E+02  0.59353984679E+02  0.47000000000E+01 0. -1.
<mgrwt>
<rscale>  0 0.99910364E+03</rscale>
<asrwt>0</asrwt>
<pdfrwt beam="1">  1        2 0.14877958E+00 0.99910364E+03</pdfrwt>
<pdfrwt beam="2">  1       -2 0.39700050E-01 0.99910364E+03</pdfrwt>
<totfact> 0.19199631E+02</totfact>
</mgrwt>
</event>
<event>
 9    1  0.4236486E-036  0.9998704E+03  0.7818608E-02  0.8681161E-01
         -1   -1    0    0    0  501 -0.00000000000E+00  0.00000000000E+00  0.15572728250E+03  0.15572728250E+03  0.00000000000E+00 0. -1.
          1   -1    0    0  501    0  0.00000000000E+00 -0.00000000000E+00 -0.16049545292E+04  0.16049545292E+04  0.00000000000E+00 0. -1.
         36    2    1    2    0    0  0.56843418861E-13 -0.71054273576E-14 -0.14492272467E+04  0.17606818117E+04  0.99987040634E+03 0.  0.
         25    2    3    3    0    0  0.13584389027E+03 -0.36463108607E+02 -0.26021958833E+03  0.32092575247E+03  0.12448286483E+03 0.  0.
         35    2    3    3    0    0 -0.13584389027E+03  0.36463108607E+02 -0.11890076584E+04  0.14397560592E+04  0.79960939064E+03 0.  0.
         22    1    5    5    0    0  0.26362666919E+03  0.67102231169E+01 -0.10455013857E+03  0.28368077002E+03  0.00000000000E+00 0. -1.
         22    1    5    5    0    0 -0.39947055946E+03  0.29752885490E+02 -0.10844575198E+04  0.11560752892E+04  0.00000000000E+00 0. -1.
          5    1    4    4  502    0  0.10783637918E+03 -0.77270733766E+02 -0.22013534262E+03  0.25706246331E+03  0.47000000000E+01 0.  1.
         -5    1    4    4    0  502  0.28007511088E+02  0.40807625159E+02 -0.40084245705E+02  0.63863289159E+02  0.47000000000E+01 0.  1.
<mgrwt>
<rscale>  0 0.99987041E+03</rscale>
<asrwt>0</asrwt>
<pdfrwt beam="1">  1        1 0.24691608E+00 0.99987041E+03</pdfrwt>
<pdfrwt beam="2">  1       -1 0.23958043E-01 0.99987041E+03</pdfrwt>
<totfact> 0.89412712E+01</totfact>
</mgrwt>
</event>
<event>
 9    1  0.4236486E-036  0.9998428E+03  0.7818608E-02  0.8681188E-01
          2   -1    0    0  501    0  0.00000000000E+00  0.00000000000E+00  0.26035157979E+04  0.26035157979E+04  0.00000000000E+00 0. -1.
         -2   -1    0    0    0  501 -0.00000000000E+00 -0.00000000000E+00 -0.95993807654E+02  0.95993807654E+02  0.00000000000E+00 0. -1.
         36    2    1    2    0    0 -0.17763568394E-13  0.35527136788E-14  0.25075219902E+04  0.26995096055E+04  0.99984277709E+03 0.  0.
         25    2    3    3    0    0  0.50461709761E+01  0.56071339829E+01  0.84729168110E+03  0.85660556873E+03  0.12574976634E+03 0.  0.
         35    2    3    3    0    0 -0.50461709761E+01 -0.56071339829E+01  0.16602303091E+04  0.18429040368E+04  0.79992106218E+03 0.  0.
         22    1    5    5    0    0  0.29266096987E+03 -0.14334761969E+02  0.14475998094E+04  0.14769567146E+04  0.00000000000E+00 0.  1.
         22    1    5    5    0    0 -0.29770714085E+03  0.87276279864E+01  0.21263049975E+03  0.36594732220E+03  0.00000000000E+00 0.  1.
          5    1    4    4  502    0 -0.22190193743E+02  0.49875868111E+02  0.20495956374E+03  0.21215682804E+03  0.47000000000E+01 0.  1.
         -5    1    4    4    0  502  0.27236364719E+02 -0.44268734128E+02  0.64233211736E+03  0.64444874069E+03  0.47000000000E+01 0.  1.
<mgrwt>
<rscale>  0 0.99984278E+03</rscale>
<asrwt>0</asrwt>
<pdfrwt beam="1">  1        2 0.40054084E+00 0.99984278E+03</pdfrwt>
<pdfrwt beam="2">  1       -2 0.14768280E-01 0.99984278E+03</pdfrwt>
<totfact> 0.12348122E+02</totfact>
</mgrwt>
</event>
<event>
 9    1  0.4236486E-036  0.1000721E+04  0.7818608E-02  0.8680351E-01
          1   -1    0    0  501    0  0.00000000000E+00  0.00000000000E+00  0.25579763252E+03  0.25579763252E+03  0.00000000000E+00 0. -1.
         -1   -1    0    0    0  501 -0.00000000000E+00 -0.00000000000E+00 -0.97874581458E+03  0.97874581458E+03  0.00000000000E+00 0. -1.
         36    2    1    2    0    0  0.00000000000E+00 -0.71054273576E-14 -0.72294818206E+03  0.12345434471E+04  0.10007214642E+04 0.  0.
         25    2    3    3    0    0 -0.13660427589E+03 -0.33394785450E+01 -0.17350566631E+03  0.25441620063E+03  0.12629927392E+03 0.  0.
         35    2    3    3    0    0  0.13660427589E+03  0.33394785450E+01 -0.54944251575E+03  0.98012724647E+03  0.80005653603E+03 0.  0.
         22    1    5    5    0    0 -0.10399357707E+03 -0.33356075875E+03 -0.42008529975E+03  0.54639647045E+03  0.00000000000E+00 0. -1.
         22    1    5    5    0    0  0.24059785296E+03  0.33690023729E+03 -0.12935721600E+03  0.43373077602E+03  0.00000000000E+00 0. -1.
          5    1    4    4  502    0 -0.58271200269E+02 -0.49213893674E+02 -0.25190886987E+02  0.80462481310E+02  0.47000000000E+01 0.  1.
         -5    1    4    4    0  502 -0.78333075619E+02  0.45874415129E+02 -0.14831477932E+03  0.17395371932E+03  0.47000000000E+01 0.  1.
<mgrwt>
<rscale>  0 0.10007215E+04</rscale>
<asrwt>0</asrwt>
<pdfrwt beam="1">  1        1 0.39353482E-01 0.10007215E+04</pdfrwt>
<pdfrwt beam="2">  1       -1 0.15057628E+00 0.10007215E+04</pdfrwt>
<totfact> 0.43742575E+01</totfact>
</mgrwt>
</event>
<event>
 9    1  0.4236486E-036  0.1000378E+04  0.7818608E-02  0.8680678E-01
          3   -1    0    0  501    0  0.00000000000E+00  0.00000000000E+00  0.17020888148E+04  0.17020888148E+04  0.00000000000E+00 0. -1.
         -3   -1    0    0    0  501 -0.00000000000E+00 -0.00000000000E+00 -0.14698947008E+03  0.14698947008E+03  0.00000000000E+00 0. -1.
         36    2    1    2    0    0  0.00000000000E+00  0.10658141036E-13  0.15550993447E+04  0.18490782849E+04  0.10003781943E+04 0.  0.
         25    2    3    3    0    0  0.13238169067E+03 -0.19352681208E+02  0.20324463247E+03  0.27260113950E+03  0.12289655134E+03 0.  0.
         35    2    3    3    0    0 -0.13238169067E+03  0.19352681208E+02  0.13518547122E+04  0.15764771454E+04  0.79991848871E+03 0.  0.
         22    1    5    5    0    0  0.24510177542E+03  0.16743069311E+03  0.20685145981E+03  0.36179475360E+03  0.00000000000E+00 0. -1.
         22    1    5    5    0    0 -0.37748346609E+03 -0.14807801191E+03  0.11450032524E+04  0.12146823918E+04  0.00000000000E+00 0. -1.
          5    1    4    4  502    0  0.79792100892E+02 -0.43089550375E+02  0.19370254201E+03  0.21393048754E+03  0.47000000000E+01 0.  1.
         -5    1    4    4    0  502  0.52589589778E+02  0.23736869167E+02  0.95420904596E+01  0.58670651959E+02  0.47000000000E+01 0.  1.
<mgrwt>
<rscale>  0 0.10003782E+04</rscale>
<asrwt>0</asrwt>
<pdfrwt beam="1">  1        3 0.26185980E+00 0.10003782E+04</pdfrwt>
<pdfrwt beam="2">  1       -3 0.22613766E-01 0.10003782E+04</pdfrwt>
<totfact> 0.47105156E+00</totfact>
</mgrwt>
</event>
<event>
 9    1  0.4236486E-036  0.1000767E+04  0.7818608E-02  0.8680308E-01
          1   -1    0    0  501    0  0.00000000000E+00  0.00000000000E+00  0.98318342415E+03  0.98318342415E+03  0.00000000000E+00 0.  1.
         -1   -1    0    0    0  501 -0.00000000000E+00 -0.00000000000E+00 -0.25466632792E+03  0.25466632792E+03  0.00000000000E+00 0.  1.
         36    2    1    2    0    0  0.35527136788E-14  0.00000000000E+00  0.72851709624E+03  0.12378497521E+04  0.10007671304E+04 0.  0.
         25    2    3    3    0    0  0.28050477904E+02  0.13293547927E+03  0.92592258837E+02  0.20654876943E+03  0.12502158532E+03 0.  0.
         35    2    3    3    0    0 -0.28050477904E+02 -0.13293547927E+03  0.63592483740E+03  0.10313009826E+04  0.80045152697E+03 0.  0.
         22    1    5    5    0    0 -0.28688923724E+02 -0.36733493776E+02 -0.19211660816E+03  0.19768964323E+03  0.00000000000E+00 0. -1.
         22    1    5    5    0    0  0.63844582013E+00 -0.96201985490E+02  0.82804144556E+03  0.83361133941E+03  0.00000000000E+00 0. -1.
          5    1    4    4  502    0 -0.36245439469E+02  0.82869252484E+02  0.11171149318E+02  0.91257489921E+02  0.47000000000E+01 0.  1.
         -5    1    4    4    0  502  0.64295917372E+02  0.50066226782E+02  0.81421109518E+02  0.11529127951E+03  0.47000000000E+01 0.  1.
<mgrwt>
<rscale>  0 0.10007671E+04</rscale>
<asrwt>0</asrwt>
<pdfrwt beam="1">  1        1 0.15125899E+00 0.10007671E+04</pdfrwt>
<pdfrwt beam="2">  1       -1 0.39179436E-01 0.10007671E+04</pdfrwt>
<totfact> 0.11060183E+02</totfact>
</mgrwt>
</event>
<event>
 9    1  0.4236486E-036  0.1000012E+04  0.7818608E-02  0.8681027E-01
          2   -1    0    0  501    0  0.00000000000E+00  0.00000000000E+00  0.29714356618E+03  0.29714356618E+03  0.00000000000E+00 0. -1.
         -2   -1    0    0    0  501 -0.00000000000E+00 -0.00000000000E+00 -0.84136437595E+03  0.84136437595E+03  0.00000000000E+00 0. -1.
         36    2    1    2    0    0  0.14210854715E-13  0.00000000000E+00 -0.54422080977E+03  0.11385079421E+04  0.10000120222E+04 0.  0.
         25    2    3    3    0    0  0.21384897971E+02  0.10743102068E+03 -0.21423503164E+01  0.16703655429E+03  0.12608680636E+03 0.  0.
         35    2    3    3    0    0 -0.21384897971E+02 -0.10743102068E+03 -0.54207845945E+03  0.97147138783E+03  0.79869197010E+03 0.  0.
         22    1    5    5    0    0 -0.39541731492E+03 -0.14760361083E+03 -0.35410936716E+03  0.55094021707E+03  0.00000000000E+00 0. -1.
         22    1    5    5    0    0  0.37403241695E+03  0.40172590156E+02 -0.18796909229E+03  0.42053117076E+03  0.00000000000E+00 0. -1.
          5    1    4    4  502    0 -0.37640584722E+02  0.53168672718E+02 -0.41718665958E+02  0.77500054620E+02  0.47000000000E+01 0.  1.
         -5    1    4    4    0  502  0.59025482693E+02  0.54262347958E+02  0.39576315642E+02  0.89536499668E+02  0.47000000000E+01 0.  1.
<mgrwt>
<rscale>  0 0.10000120E+04</rscale>
<asrwt>0</asrwt>
<pdfrwt beam="1">  1        2 0.45714396E-01 0.10000120E+04</pdfrwt>
<pdfrwt beam="2">  1       -2 0.12944067E+00 0.10000120E+04</pdfrwt>
<totfact> 0.56293480E+01</totfact>
</mgrwt>
</event>
<event>
 9    1  0.4236486E-036  0.9993975E+03  0.7818608E-02  0.8681612E-01
          1   -1    0    0  501    0  0.00000000000E+00  0.00000000000E+00  0.68358010607E+03  0.68358010607E+03  0.00000000000E+00 0.  1.
         -1   -1    0    0    0  501 -0.00000000000E+00 -0.00000000000E+00 -0.36528098707E+03  0.36528098707E+03  0.00000000000E+00 0.  1.
         36    2    1    2    0    0  0.00000000000E+00  0.14210854715E-13  0.31829911900E+03  0.10488610931E+04  0.99939745024E+03 0.  0.
         25    2    3    3    0    0 -0.78221065443E+02 -0.35951179977E+02  0.17143629352E+03  0.22818403528E+03  0.12355779538E+03 0.  0.
         35    2    3    3    0    0  0.78221065443E+02  0.35951179977E+02  0.14686282548E+03  0.82067705786E+03  0.80282695606E+03 0.  0.
         22    1    5    5    0    0 -0.39262822612E+02 -0.36414300402E+03  0.16844566226E+03  0.40313228319E+03  0.00000000000E+00 0.  1.
         22    1    5    5    0    0  0.11748388806E+03  0.40009418399E+03 -0.21582836772E+02  0.41754477468E+03  0.00000000000E+00 0.  1.
          5    1    4    4  502    0 -0.67607072899E+01 -0.21929179233E+02 -0.15108350121E+02  0.27873792498E+02  0.47000000000E+01 0.  1.
         -5    1    4    4    0  502 -0.71460358153E+02 -0.14022000745E+02  0.18654464364E+03  0.20031024278E+03  0.47000000000E+01 0.  1.
<mgrwt>
<rscale>  0 0.99939745E+03</rscale>
<asrwt>0</asrwt>
<pdfrwt beam="1">  1        1 0.10516617E+00 0.99939745E+03</pdfrwt>
<pdfrwt beam="2">  1       -1 0.56197075E-01 0.99939745E+03</pdfrwt>
<totfact> 0.10425511E+02</totfact>
</mgrwt>
</event>
<event>
 9    1  0.4236486E-036  0.1000338E+04  0.7818608E-02  0.8680716E-01
          2   -1    0    0  501    0  0.00000000000E+00  0.00000000000E+00  0.52886149249E+03  0.52886149249E+03  0.00000000000E+00 0. -1.
         -2   -1    0    0    0  501 -0.00000000000E+00 -0.00000000000E+00 -0.47303316191E+03  0.47303316191E+03  0.00000000000E+00 0. -1.
         36    2    1    2    0    0 -0.14210854715E-13 -0.28421709430E-13  0.55828330581E+02  0.10018946544E+04  0.10003379909E+04 0.  0.
         25    2    3    3    0    0  0.40994542125E+02 -0.12455649812E+03 -0.40158308614E+02  0.18531264100E+03  0.12463230503E+03 0.  0.
         35    2    3    3    0    0 -0.40994542125E+02  0.12455649812E+03  0.95986639195E+02  0.81658201339E+03  0.80024863385E+03 0.  0.
         22    1    5    5    0    0  0.22557642474E+03 -0.17782374812E+03 -0.16986268453E+03  0.33370546952E+03  0.00000000000E+00 0.  1.
         22    1    5    5    0    0 -0.26657096687E+03  0.30238024624E+03  0.26584932373E+03  0.48287654387E+03  0.00000000000E+00 0.  1.
          5    1    4    4  502    0  0.83272167807E+02 -0.63612348527E+02 -0.10976063434E+02  0.10546728775E+03  0.47000000000E+01 0. -1.
         -5    1    4    4    0  502 -0.42277625682E+02 -0.60944149594E+02 -0.29182245180E+02  0.79845353257E+02  0.47000000000E+01 0. -1.
<mgrwt>
<rscale>  0 0.10003380E+04</rscale>
<asrwt>0</asrwt>
<pdfrwt beam="1">  1        2 0.81363307E-01 0.10003380E+04</pdfrwt>
<pdfrwt beam="2">  1       -2 0.72774332E-01 0.10003380E+04</pdfrwt>
<totfact> 0.11898177E+02</totfact>
</mgrwt>
</event>
<event>
 9    1  0.4236486E-036  0.1000248E+04  0.7818608E-02  0.8680802E-01
          2   -1    0    0  501    0  0.00000000000E+00  0.00000000000E+00  0.12568076998E+04  0.12568076998E+04  0.00000000000E+00 0. -1.
         -2   -1    0    0    0  501 -0.00000000000E+00 -0.00000000000E+00 -0.19901546671E+03  0.19901546671E+03  0.00000000000E+00 0. -1.
         36    2    1    2    0    0 -0.88817841970E-14  0.00000000000E+00  0.10577922331E+04  0.14558231666E+04  0.10002483111E+04 0.  0.
         25    2    3    3    0    0 -0.78480799257E+01  0.18339129908E+02 -0.50896494257E+01  0.12630479410E+03  0.12461573109E+03 0.  0.
         35    2    3    3    0    0  0.78480799257E+01 -0.18339129908E+02  0.10628818826E+04  0.13295183725E+04  0.79843803165E+03 0.  0.
         22    1    5    5    0    0  0.18241610457E+03  0.17586490242E+03  0.10365416476E+04  0.10670626440E+04  0.00000000000E+00 0. -1.
         22    1    5    5    0    0 -0.17456802464E+03 -0.19420403233E+03  0.26340234968E+02  0.26245572842E+03  0.00000000000E+00 0. -1.
          5    1    4    4  502    0 -0.80640191810E+01 -0.34324110852E+02 -0.46924663541E+02  0.58882824656E+02  0.47000000000E+01 0.  1.
         -5    1    4    4    0  502  0.21593925526E+00  0.52663240760E+02  0.41835014115E+02  0.67421969440E+02  0.47000000000E+01 0.  1.
<mgrwt>
<rscale>  0 0.10002483E+04</rscale>
<asrwt>0</asrwt>
<pdfrwt beam="1">  1        2 0.19335503E+00 0.10002483E+04</pdfrwt>
<pdfrwt beam="2">  1       -2 0.30617765E-01 0.10002483E+04</pdfrwt>
<totfact> 0.20804769E+02</totfact>
</mgrwt>
</event>
<event>
 9    1  0.4236486E-036  0.1000459E+04  0.7818608E-02  0.8680601E-01
          2   -1    0    0  501    0  0.00000000000E+00  0.00000000000E+00  0.15959361215E+04  0.15959361215E+04  0.00000000000E+00 0. -1.
         -2   -1    0    0    0  501 -0.00000000000E+00 -0.00000000000E+00 -0.15679161388E+03  0.15679161388E+03  0.00000000000E+00 0. -1.
         36    2    1    2    0    0 -0.28421709430E-13 -0.28865798640E-14  0.14391445076E+04  0.17527277353E+04  0.10004586951E+04 0.  0.
         25    2    3    3    0    0 -0.13723668458E+03 -0.18347963577E+01  0.20160322911E+03  0.27280189582E+03  0.12222822220E+03 0.  0.
         35    2    3    3    0    0  0.13723668458E+03  0.18347963577E+01  0.12375412785E+04  0.14799258395E+04  0.79989674364E+03 0.  0.
         22    1    5    5    0    0  0.37886443307E+03 -0.95210748201E+02  0.11345329496E+04  0.11999034790E+04  0.00000000000E+00 0.  1.
         22    1    5    5    0    0 -0.24162774848E+03  0.97045544559E+02  0.10300832884E+03  0.28002236047E+03  0.00000000000E+00 0.  1.
          5    1    4    4  502    0 -0.10690336240E+03  0.58418800128E-01  0.50001920525E+02  0.11811271888E+03  0.47000000000E+01 0.  1.
         -5    1    4    4    0  502 -0.30333322188E+02 -0.18932151578E+01  0.15160130858E+03  0.15468917694E+03  0.47000000000E+01 0.  1.
<mgrwt>
<rscale>  0 0.10004587E+04</rscale>
<asrwt>0</asrwt>
<pdfrwt beam="1">  1        2 0.24552862E+00 0.10004587E+04</pdfrwt>
<pdfrwt beam="2">  1       -2 0.24121788E-01 0.10004587E+04</pdfrwt>
<totfact> 0.20437303E+02</totfact>
</mgrwt>
</event>
<event>
 9    1  0.4236486E-036  0.9997253E+03  0.7818608E-02  0.8681300E-01
         -2   -1    0    0    0  501 -0.00000000000E+00  0.00000000000E+00  0.45130448508E+03  0.45130448508E+03  0.00000000000E+00 0.  1.
          2   -1    0    0  501    0  0.00000000000E+00 -0.00000000000E+00 -0.55364543035E+03  0.55364543035E+03  0.00000000000E+00 0.  1.
         36    2    1    2    0    0  0.14210854715E-13  0.00000000000E+00 -0.10234094527E+03  0.10049499154E+04  0.99972529400E+03 0.  0.
         25    2    3    3    0    0 -0.52682535533E+02 -0.53330242346E+02  0.99177375107E+02  0.17636471602E+03  0.12509515188E+03 0.  0.
         35    2    3    3    0    0  0.52682535533E+02  0.53330242346E+02 -0.20151832038E+03  0.82858519942E+03  0.80020262118E+03 0.  0.
         22    1    5    5    0    0 -0.16263038281E+03  0.20537241596E+03  0.21281562153E+03  0.33751586543E+03  0.00000000000E+00 0.  1.
         22    1    5    5    0    0  0.21531291835E+03 -0.15204217361E+03 -0.41433394191E+03  0.49106933399E+03  0.00000000000E+00 0.  1.
          5    1    4    4  502    0  0.40077121495E+02 -0.10578367644E+02  0.16445042498E+02  0.44839792061E+02  0.47000000000E+01 0.  1.
         -5    1    4    4    0  502 -0.92759657028E+02 -0.42751874702E+02  0.82732332609E+02  0.13152492395E+03  0.47000000000E+01 0.  1.
<mgrwt>
<rscale>  0 0.99972529E+03</rscale>
<asrwt>0</asrwt>
<pdfrwt beam="1">  1        2 0.85176220E-01 0.99972529E+03</pdfrwt>
<pdfrwt beam="2">  1       -2 0.69431459E-01 0.99972529E+03</pdfrwt>
<totfact> 0.12502412E+02</totfact>
</mgrwt>
</event>
<event>
 9    1  0.4236486E-036  0.1000665E+04  0.7818608E-02  0.8680405E-01
         -2   -1    0    0    0  501 -0.00000000000E+00  0.00000000000E+00  0.57334757932E+03  0.57334757932E+03  0.00000000000E+00 0.  1.
          2   -1    0    0  501    0  0.00000000000E+00 -0.00000000000E+00 -0.43661549170E+03  0.43661549170E+03  0.00000000000E+00 0.  1.
         36    2    1    2    0    0  0.00000000000E+00 -0.28421709430E-13  0.13673208762E+03  0.10099630710E+04  0.10006646496E+04 0.  0.
         25    2    3    3    0    0 -0.23722950588E+02 -0.13306539747E+03  0.64861678979E+02  0.19542409639E+03  0.12535693704E+03 0.  0.
         35    2    3    3    0    0  0.23722950588E+02  0.13306539747E+03  0.71870408640E+02  0.81453897463E+03  0.80002450410E+03 0.  0.
         22    1    5    5    0    0  0.12649069362E+03  0.18009291770E+03  0.40600130239E+03  0.46181209612E+03  0.00000000000E+00 0.  1.
         22    1    5    5    0    0 -0.10276774303E+03 -0.47027520238E+02 -0.33413089375E+03  0.35272687851E+03  0.00000000000E+00 0.  1.
          5    1    4    4  502    0 -0.48492723262E+02 -0.80364081137E+02 -0.16341503340E+02  0.95389016547E+02  0.47000000000E+01 0. -1.
         -5    1    4    4    0  502  0.24769772674E+02 -0.52701316328E+02  0.81203182319E+02  0.10003507985E+03  0.47000000000E+01 0. -1.
<mgrwt>
<rscale>  0 0.10006646E+04</rscale>
<asrwt>0</asrwt>
<pdfrwt beam="1">  1        2 0.67171614E-01 0.10006646E+04</pdfrwt>
<pdfrwt beam="2">  1       -2 0.88207320E-01 0.10006646E+04</pdfrwt>
<totfact> 0.95347822E+01</totfact>
</mgrwt>
</event>
<event>
 9    1  0.4236486E-036  0.1000239E+04  0.7818608E-02  0.8680811E-01
          2   -1    0    0  501    0  0.00000000000E+00  0.00000000000E+00  0.45629400309E+04  0.45629400309E+04  0.00000000000E+00 0.  1.
         -2   -1    0    0    0  501 -0.00000000000E+00 -0.00000000000E+00 -0.54815381643E+02  0.54815381643E+02  0.00000000000E+00 0.  1.
         36    2    1    2    0    0  0.00000000000E+00 -0.71054273576E-14  0.45081246492E+04  0.46177554125E+04  0.10002385700E+04 0.  0.
         25    2    3    3    0    0 -0.86005764012E+02  0.63943937709E+01  0.33477486789E+03  0.36757639537E+03  0.12490121918E+03 0.  0.
         35    2    3    3    0    0  0.86005764012E+02 -0.63943937709E+01  0.41733497813E+04  0.42501790171E+04  0.79983460828E+03 0.  0.
         22    1    5    5    0    0  0.61379113585E+01 -0.19224411596E+03  0.39257234925E+04  0.39304325988E+04  0.00000000000E+00 0. -1.
         22    1    5    5    0    0  0.79867852653E+02  0.18584972219E+03  0.24762628887E+03  0.31974641837E+03  0.00000000000E+00 0. -1.
          5    1    4    4  502    0 -0.72044822075E+02  0.33947765603E+02  0.87800471970E+02  0.11863355367E+03  0.47000000000E+01 0. -1.
         -5    1    4    4    0  502 -0.13960941937E+02 -0.27553371832E+02  0.24697439592E+03  0.24894284171E+03  0.47000000000E+01 0. -1.
<mgrwt>
<rscale>  0 0.10002386E+04</rscale>
<asrwt>0</asrwt>
<pdfrwt beam="1">  1        2 0.70199047E+00 0.10002386E+04</pdfrwt>
<pdfrwt beam="2">  1       -2 0.84331392E-02 0.10002386E+04</pdfrwt>
<totfact> 0.85954017E+00</totfact>
</mgrwt>
</event>
<event>
 9    1  0.4236486E-036  0.1000408E+04  0.7818608E-02  0.8680650E-01
         -1   -1    0    0    0  501 -0.00000000000E+00  0.00000000000E+00  0.30715867318E+03  0.30715867318E+03  0.00000000000E+00 0. -1.
          1   -1    0    0  501    0  0.00000000000E+00 -0.00000000000E+00 -0.81457587859E+03  0.81457587859E+03  0.00000000000E+00 0. -1.
         36    2    1    2    0    0  0.00000000000E+00 -0.28421709430E-13 -0.50741720541E+03  0.11217345518E+04  0.10004080089E+04 0.  0.
         25    2    3    3    0    0 -0.77104927575E+02 -0.11313237456E+03 -0.55942050736E+02  0.19260172081E+03  0.12337668252E+03 0.  0.
         35    2    3    3    0    0  0.77104927575E+02  0.11313237456E+03 -0.45147515467E+03  0.92913283096E+03  0.80044606205E+03 0.  0.
         22    1    5    5    0    0 -0.92137245873E+02  0.34780931484E+03 -0.51947352739E+03  0.63191244427E+03  0.00000000000E+00 0. -1.
         22    1    5    5    0    0  0.16924217345E+03 -0.23467694028E+03  0.67998372715E+02  0.29722038669E+03  0.00000000000E+00 0. -1.
          5    1    4    4  502    0 -0.20898102993E+02  0.19575355641E+02  0.14136927409E+02  0.32277979704E+02  0.47000000000E+01 0. -1.
         -5    1    4    4    0  502 -0.56206824581E+02 -0.13270773021E+03 -0.70078978145E+02  0.16032374111E+03  0.47000000000E+01 0. -1.
<mgrwt>
<rscale>  0 0.10004080E+04</rscale>
<asrwt>0</asrwt>
<pdfrwt beam="1">  1        1 0.12531937E+00 0.10004080E+04</pdfrwt>
<pdfrwt beam="2">  1       -1 0.47255181E-01 0.10004080E+04</pdfrwt>
<totfact> 0.10910718E+02</totfact>
</mgrwt>
</event>
<event>
 9    1  0.4236486E-036  0.9993157E+03  0.7818608E-02  0.8681690E-01
         -1   -1    0    0    0  501 -0.00000000000E+00  0.00000000000E+00  0.59343169524E+03  0.59343169524E+03  0.00000000000E+00 0. -1.
          1   -1    0    0  501    0  0.00000000000E+00 -0.00000000000E+00 -0.42070211692E+03  0.42070211692E+03  0.00000000000E+00 0. -1.
         36    2    1    2    0    0  0.71054273576E-14  0.28421709430E-13  0.17272957832E+03  0.10141338122E+04  0.99931570674E+03 0.  0.
         25    2    3    3    0    0  0.36226935697E+02  0.43353994871E+02 -0.97535627144E+02  0.16640777873E+03  0.12241891406E+03 0.  0.
         35    2    3    3    0    0 -0.36226935697E+02 -0.43353994871E+02  0.27026520546E+03  0.84772603343E+03  0.80150120819E+03 0.  0.
         22    1    5    5    0    0 -0.97146215564E+02 -0.39123919766E+03  0.19211696975E+00  0.40311975130E+03  0.00000000000E+00 0.  1.
         22    1    5    5    0    0  0.60919279866E+02  0.34788520279E+03  0.27007308849E+03  0.44460628213E+03  0.00000000000E+00 0.  1.
          5    1    4    4  502    0  0.48235068624E+01 -0.30059214017E+02  0.99997145248E+01  0.32386831527E+02  0.47000000000E+01 0.  1.
         -5    1    4    4    0  502  0.31403428835E+02  0.73413208887E+02 -0.10753534167E+03  0.13402094720E+03  0.47000000000E+01 0.  1.
<mgrwt>
<rscale>  0 0.99931571E+03</rscale>
<asrwt>0</asrwt>
<pdfrwt beam="1">  1        1 0.64723403E-01 0.99931571E+03</pdfrwt>
<pdfrwt beam="2">  1       -1 0.91297184E-01 0.99931571E+03</pdfrwt>
<totfact> 0.78184363E+01</totfact>
</mgrwt>
</event>
<event>
 9    1  0.4236486E-036  0.1001294E+04  0.7818608E-02  0.8679807E-01
         -2   -1    0    0    0  501 -0.00000000000E+00  0.00000000000E+00  0.11999799025E+03  0.11999799025E+03  0.00000000000E+00 0.  1.
          2   -1    0    0  501    0  0.00000000000E+00 -0.00000000000E+00 -0.20887634903E+04  0.20887634903E+04  0.00000000000E+00 0.  1.
         36    2    1    2    0    0 -0.28421709430E-13 -0.56843418861E-13 -0.19687655000E+04  0.22087614805E+04  0.10012940047E+04 0.  0.
         25    2    3    3    0    0 -0.35499644713E+02 -0.13292623159E+03 -0.29861179382E+03  0.35177974584E+03  0.12510147224E+03 0.  0.
         35    2    3    3    0    0  0.35499644713E+02  0.13292623159E+03 -0.16701537062E+04  0.18569817347E+04  0.80002384514E+03 0.  0.
         22    1    5    5    0    0 -0.21682784085E+03  0.36877623817E+03 -0.63444134515E+03  0.76519673734E+03  0.00000000000E+00 0. -1.
         22    1    5    5    0    0  0.25232748556E+03 -0.23585000658E+03 -0.10357123611E+04  0.10917849974E+04  0.00000000000E+00 0. -1.
          5    1    4    4  502    0  0.28871185426E+02 -0.94907773697E+02 -0.10669965421E+03  0.14576672139E+03  0.47000000000E+01 0.  1.
         -5    1    4    4    0  502 -0.64370830140E+02 -0.38018457893E+02 -0.19191213961E+03  0.20601302445E+03  0.47000000000E+01 0.  1.
<mgrwt>
<rscale>  0 0.10012940E+04</rscale>
<asrwt>0</asrwt>
<pdfrwt beam="1">  1        2 0.32134821E+00 0.10012940E+04</pdfrwt>
<pdfrwt beam="2">  1       -2 0.18461231E-01 0.10012940E+04</pdfrwt>
<totfact> 0.17119437E+02</totfact>
</mgrwt>
</event>
<event>
 9    1  0.4236486E-036  0.9997525E+03  0.7818608E-02  0.8681274E-01
         -2   -1    0    0    0  501 -0.00000000000E+00  0.00000000000E+00  0.23295518868E+03  0.23295518868E+03  0.00000000000E+00 0. -1.
          2   -1    0    0  501    0  0.00000000000E+00 -0.00000000000E+00 -0.10726366965E+04  0.10726366965E+04  0.00000000000E+00 0. -1.
         36    2    1    2    0    0 -0.28421709430E-13  0.00000000000E+00 -0.83968150783E+03  0.13055918852E+04  0.99975253743E+03 0.  0.
         25    2    3    3    0    0 -0.81448209057E+02 -0.49535051027E+02 -0.23653159155E+02  0.15835001525E+03  0.12420838681E+03 0.  0.
         35    2    3    3    0    0  0.81448209057E+02  0.49535051027E+02 -0.81602834868E+03  0.11472418699E+04  0.80073348267E+03 0.  0.
         22    1    5    5    0    0 -0.18108232619E+03  0.23238532085E+03 -0.27028990338E+02  0.29584508197E+03  0.00000000000E+00 0. -1.
         22    1    5    5    0    0  0.26253053525E+03 -0.18285026982E+03 -0.78899935834E+03  0.85139678797E+03  0.00000000000E+00 0. -1.
          5    1    4    4  502    0 -0.23667669066E+02  0.41869499219E+02 -0.81472430533E+01  0.49006949438E+02  0.47000000000E+01 0. -1.
         -5    1    4    4    0  502 -0.57780539991E+02 -0.91404550247E+02 -0.15505916102E+02  0.10934306581E+03  0.47000000000E+01 0. -1.
<mgrwt>
<rscale>  0 0.99975254E+03</rscale>
<asrwt>0</asrwt>
<pdfrwt beam="1">  1        2 0.16502103E+00 0.99975254E+03</pdfrwt>
<pdfrwt beam="2">  1       -2 0.35839260E-01 0.99975254E+03</pdfrwt>
<totfact> 0.20022653E+02</totfact>
</mgrwt>
</event>
<event>
 9    1  0.4236486E-036  0.9994454E+03  0.7818608E-02  0.8681566E-01
         -3   -1    0    0    0  501 -0.00000000000E+00  0.00000000000E+00  0.21114061863E+03  0.21114061863E+03  0.00000000000E+00 0.  1.
          3   -1    0    0  501    0  0.00000000000E+00 -0.00000000000E+00 -0.11827321217E+04  0.11827321217E+04  0.00000000000E+00 0.  1.
         36    2    1    2    0    0  0.28421709430E-13  0.00000000000E+00 -0.97159150308E+03  0.13938727403E+04  0.99944542994E+03 0.  0.
         25    2    3    3    0    0  0.11395814990E+03 -0.69249534910E+02 -0.24305543132E+03  0.30430981211E+03  0.12548530208E+03 0.  0.
         35    2    3    3    0    0 -0.11395814990E+03  0.69249534910E+02 -0.72853607176E+03  0.10895629282E+04  0.79912490183E+03 0.  0.
         22    1    5    5    0    0  0.30743160785E+03  0.82814015977E+02 -0.54185530279E+03  0.62847396439E+03  0.00000000000E+00 0.  1.
         22    1    5    5    0    0 -0.42138975775E+03 -0.13564481068E+02 -0.18668076897E+03  0.46108896385E+03  0.00000000000E+00 0.  1.
          5    1    4    4  502    0  0.11922398050E+03 -0.16243317003E+02 -0.11935568791E+03  0.16954666942E+03  0.47000000000E+01 0.  1.
         -5    1    4    4    0  502 -0.52658306049E+01 -0.53006217907E+02 -0.12369974340E+03  0.13476314269E+03  0.47000000000E+01 0.  1.
<mgrwt>
<rscale>  0 0.99944543E+03</rscale>
<asrwt>0</asrwt>
<pdfrwt beam="1">  1        3 0.18195879E+00 0.99944543E+03</pdfrwt>
<pdfrwt beam="2">  1       -3 0.32483172E-01 0.99944543E+03</pdfrwt>
<totfact> 0.72968315E+00</totfact>
</mgrwt>
</event>
<event>
 9    1  0.4236486E-036  0.9969815E+03  0.7818608E-02  0.8683918E-01
          2   -1    0    0  501    0  0.00000000000E+00  0.00000000000E+00  0.59678080153E+03  0.59678080153E+03  0.00000000000E+00 0. -1.
         -2   -1    0    0    0  501 -0.00000000000E+00 -0.00000000000E+00 -0.41638908922E+03  0.41638908922E+03  0.00000000000E+00 0. -1.
         36    2    1    2    0    0  0.00000000000E+00 -0.71054273576E-14  0.18039171231E+03  0.10131698908E+04  0.99698147308E+03 0.  0.
         25    2    3    3    0    0 -0.12661668510E+03 -0.34830469169E+02  0.42050833056E+02  0.18665988219E+03  0.12581213188E+03 0.  0.
         35    2    3    3    0    0  0.12661668510E+03  0.34830469169E+02  0.13834087925E+03  0.82651000857E+03  0.80419876204E+03 0.  0.
         22    1    5    5    0    0  0.46072334018E+03 -0.65241084137E+02  0.96702229846E+02  0.47526173473E+03  0.00000000000E+00 0. -1.
         22    1    5    5    0    0 -0.33410665508E+03  0.10007155331E+03  0.41638649407E+02  0.35124827383E+03  0.00000000000E+00 0. -1.
          5    1    4    4  502    0 -0.11159541553E+03  0.29574479560E+02  0.25456574452E+02  0.11831446991E+03  0.47000000000E+01 0.  1.
         -5    1    4    4    0  502 -0.15021269578E+02 -0.64404948729E+02  0.16594258604E+02  0.68345412276E+02  0.47000000000E+01 0.  1.
<mgrwt>
<rscale>  0 0.99698147E+03</rscale>
<asrwt>0</asrwt>
<pdfrwt beam="1">  1        2 0.91812431E-01 0.99698147E+03</pdfrwt>
<pdfrwt beam="2">  1       -2 0.64059860E-01 0.99698147E+03</pdfrwt>
<totfact> 0.13604597E+02</totfact>
</mgrwt>
</event>
<event>
 9    1  0.4236486E-036  0.1000121E+04  0.7818608E-02  0.8680923E-01
          1   -1    0    0  501    0  0.00000000000E+00  0.00000000000E+00  0.11722353896E+04  0.11722353896E+04  0.00000000000E+00 0.  1.
         -1   -1    0    0    0  501 -0.00000000000E+00 -0.00000000000E+00 -0.21331927407E+03  0.21331927407E+03  0.00000000000E+00 0.  1.
         36    2    1    2    0    0 -0.35527136788E-14  0.00000000000E+00  0.95891611552E+03  0.13855546637E+04  0.10001207974E+04 0.  0.
         25    2    3    3    0    0 -0.78926620560E+01  0.81775473093E+02  0.21195728299E+02  0.15076635557E+03  0.12462629321E+03 0.  0.
         35    2    3    3    0    0  0.78926620560E+01 -0.81775473093E+02  0.93772038723E+03  0.12347883081E+04  0.79914524281E+03 0.  0.
         22    1    5    5    0    0 -0.51101519540E+02 -0.43863374312E+03  0.50830162181E+03  0.67333607110E+03  0.00000000000E+00 0.  1.
         22    1    5    5    0    0  0.58994181596E+02  0.35685827003E+03  0.42941876541E+03  0.56145223701E+03  0.00000000000E+00 0.  1.
          5    1    4    4  502    0  0.23097708240E+02  0.97248951065E+02  0.43702024663E+02  0.10919166437E+03  0.47000000000E+01 0.  1.
         -5    1    4    4    0  502 -0.30990370296E+02 -0.15473477972E+02 -0.22506296364E+02  0.41574691191E+02  0.47000000000E+01 0.  1.
<mgrwt>
<rscale>  0 0.10001208E+04</rscale>
<asrwt>0</asrwt>
<pdfrwt beam="1">  1        1 0.18034390E+00 0.10001208E+04</pdfrwt>
<pdfrwt beam="2">  1       -1 0.32818351E-01 0.10001208E+04</pdfrwt>
<totfact> 0.10770879E+02</totfact>
</mgrwt>
</event>
<event>
 9    1  0.4236486E-036  0.9995151E+03  0.7818608E-02  0.8681500E-01
          2   -1    0    0  501    0  0.00000000000E+00  0.00000000000E+00  0.82248428063E+03  0.82248428063E+03  0.00000000000E+00 0.  1.
         -2   -1    0    0    0  501 -0.00000000000E+00 -0.00000000000E+00 -0.30366249653E+03  0.30366249653E+03  0.00000000000E+00 0.  1.
         36    2    1    2    0    0  0.28421709430E-13  0.00000000000E+00  0.51882178411E+03  0.11261467772E+04  0.99951514248E+03 0.  0.
         25    2    3    3    0    0 -0.67151024076E+02 -0.11568937460E+03  0.14121174141E+03  0.23143459072E+03  0.12541101403E+03 0.  0.
         35    2    3    3    0    0  0.67151024076E+02  0.11568937460E+03  0.37761004270E+03  0.89471218644E+03  0.80001703782E+03 0.  0.
         22    1    5    5    0    0 -0.24401309710E+03  0.40069957855E+01 -0.13938910830E+03  0.28104763135E+03  0.00000000000E+00 0. -1.
         22    1    5    5    0    0  0.31116412118E+03  0.11168237881E+03  0.51699915101E+03  0.61366455510E+03  0.00000000000E+00 0. -1.
          5    1    4    4  502    0 -0.34206894270E+02 -0.10538184824E+03  0.15778440748E+03  0.19285604683E+03  0.47000000000E+01 0. -1.
         -5    1    4    4    0  502 -0.32944129806E+02 -0.10307526354E+02 -0.16572666070E+02  0.38578543892E+02  0.47000000000E+01 0. -1.
<mgrwt>
<rscale>  0 0.99951514E+03</rscale>
<asrwt>0</asrwt>
<pdfrwt beam="1">  1        2 0.12653604E+00 0.99951514E+03</pdfrwt>
<pdfrwt beam="2">  1       -2 0.46717308E-01 0.99951514E+03</pdfrwt>
<totfact> 0.17446354E+02</totfact>
</mgrwt>
</event>
<event>
 9    1  0.4236486E-036  0.1002395E+04  0.7818608E-02  0.8678760E-01
         -1   -1    0    0    0  501 -0.00000000000E+00  0.00000000000E+00  0.41394909364E+03  0.41394909364E+03  0.00000000000E+00 0.  1.
          1   -1    0    0  501    0  0.00000000000E+00 -0.00000000000E+00 -0.60683551783E+03  0.60683551783E+03  0.00000000000E+00 0.  1.
         36    2    1    2    0    0 -0.17763568394E-14 -0.35527136788E-14 -0.19288642419E+03  0.10207846115E+04  0.10023951568E+04 0.  0.
         25    2    3    3    0    0 -0.55120724443E+00 -0.20355906668E+02  0.10666502466E+03  0.16599208325E+03  0.12554392638E+03 0.  0.
         35    2    3    3    0    0  0.55120724443E+00  0.20355906668E+02 -0.29955144885E+03  0.85479252822E+03  0.80032776350E+03 0.  0.
         22    1    5    5    0    0  0.23280512545E+02  0.17781927521E+02 -0.57632814614E+03  0.57707218893E+03  0.00000000000E+00 0. -1.
         22    1    5    5    0    0 -0.22729305301E+02  0.25739791472E+01  0.27677669729E+03  0.27772033928E+03  0.00000000000E+00 0. -1.
          5    1    4    4  502    0  0.10450367231E+02  0.35945371133E+02 -0.71977437712E+01  0.38408038176E+02  0.47000000000E+01 0.  1.
         -5    1    4    4    0  502 -0.11001574475E+02 -0.56301277800E+02  0.11386276843E+03  0.12758404507E+03  0.47000000000E+01 0.  1.
<mgrwt>
<rscale>  0 0.10023952E+04</rscale>
<asrwt>0</asrwt>
<pdfrwt beam="1">  1        1 0.93359311E-01 0.10023952E+04</pdfrwt>
<pdfrwt beam="2">  1       -1 0.63684476E-01 0.10023952E+04</pdfrwt>
<totfact> 0.97969229E+01</totfact>
</mgrwt>
</event>
<event>
 9    1  0.4236486E-036  0.9996712E+03  0.7818608E-02  0.8681351E-01
         -2   -1    0    0    0  501 -0.00000000000E+00  0.00000000000E+00  0.37206146504E+03  0.37206146504E+03  0.00000000000E+00 0. -1.
          2   -1    0    0  501    0  0.00000000000E+00 -0.00000000000E+00 -0.67149017893E+03  0.67149017893E+03  0.00000000000E+00 0. -1.
         36    2    1    2    0    0 -0.21316282073E-13  0.00000000000E+00 -0.29942871389E+03  0.10435516440E+04  0.99967118541E+03 0.  0.
         25    2    3    3    0    0  0.28313369753E+01 -0.71346880610E+02 -0.17668058520E+03  0.22857560375E+03  0.12622354615E+03 0.  0.
         35    2    3    3    0    0 -0.28313369753E+01  0.71346880610E+02 -0.12274812869E+03  0.81497604022E+03  0.80250884680E+03 0.  0.
         22    1    5    5    0    0  0.25674692546E+03  0.30415689838E+03  0.87870154105E+02  0.40761693605E+03  0.00000000000E+00 0. -1.
         22    1    5    5    0    0 -0.25957826244E+03 -0.23281001777E+03 -0.21061828279E+03  0.40735910417E+03  0.00000000000E+00 0. -1.
          5    1    4    4  502    0 -0.46409671307E+02 -0.70917448353E+01 -0.18232524693E+02  0.50583252093E+02  0.47000000000E+01 0. -1.
         -5    1    4    4    0  502  0.49241008282E+02 -0.64255135775E+02 -0.15844806051E+03  0.17799235166E+03  0.47000000000E+01 0. -1.
<mgrwt>
<rscale>  0 0.99967119E+03</rscale>
<asrwt>0</asrwt>
<pdfrwt beam="1">  1        2 0.10330618E+00 0.99967119E+03</pdfrwt>
<pdfrwt beam="2">  1       -2 0.57240225E-01 0.99967119E+03</pdfrwt>
<totfact> 0.14942765E+02</totfact>
</mgrwt>
</event>
<event>
 9    1  0.4236486E-036  0.1002738E+04  0.7818608E-02  0.8678435E-01
         -1   -1    0    0    0  501 -0.00000000000E+00  0.00000000000E+00  0.35072715140E+03  0.35072715140E+03  0.00000000000E+00 0.  1.
          1   -1    0    0  501    0  0.00000000000E+00 -0.00000000000E+00 -0.71671358712E+03  0.71671358712E+03  0.00000000000E+00 0.  1.
         36    2    1    2    0    0 -0.35527136788E-14 -0.28421709430E-13 -0.36598643572E+03  0.10674407385E+04  0.10027380810E+04 0.  0.
         25    2    3    3    0    0  0.28534620578E+02 -0.13786133933E+03 -0.39728393389E+02  0.19193761113E+03  0.12426474911E+03 0.  0.
         35    2    3    3    0    0 -0.28534620578E+02  0.13786133933E+03 -0.32625804233E+03  0.87550312739E+03  0.80015088729E+03 0.  0.
         22    1    5    5    0    0  0.12936361617E+03  0.29821000984E+03 -0.49641529068E+03  0.59337365629E+03  0.00000000000E+00 0. -1.
         22    1    5    5    0    0 -0.15789823675E+03 -0.16034867050E+03  0.17015724834E+03  0.28212947110E+03  0.00000000000E+00 0. -1.
          5    1    4    4  502    0 -0.28269863803E+02 -0.12203103772E+03 -0.10047140870E+02  0.12575291013E+03  0.47000000000E+01 0. -1.
         -5    1    4    4    0  502  0.56804484381E+02 -0.15830301611E+02 -0.29681252518E+02  0.66184700996E+02  0.47000000000E+01 0. -1.
<mgrwt>
<rscale>  0 0.10027381E+04</rscale>
<asrwt>0</asrwt>
<pdfrwt beam="1">  1        1 0.11026363E+00 0.10027381E+04</pdfrwt>
<pdfrwt beam="2">  1       -1 0.53958024E-01 0.10027381E+04</pdfrwt>
<totfact> 0.10463049E+02</totfact>
</mgrwt>
</event>
<event>
 9    1  0.4236486E-036  0.9988091E+03  0.7818608E-02  0.8682173E-01
         -2   -1    0    0    0  501 -0.00000000000E+00  0.00000000000E+00  0.34025286162E+03  0.34025286162E+03  0.00000000000E+00 0.  1.
          2   -1    0    0  501    0  0.00000000000E+00 -0.00000000000E+00 -0.73299871269E+03  0.73299871269E+03  0.00000000000E+00 0.  1.
         36    2    1    2    0    0  0.00000000000E+00  0.00000000000E+00 -0.39274585108E+03  0.10732515743E+04  0.99880911000E+03 0.  0.
         25    2    3    3    0    0 -0.39925596748E+02 -0.10886356374E+03  0.80043574828E+01  0.17097955173E+03  0.12539780135E+03 0.  0.
         35    2    3    3    0    0  0.39925596748E+02  0.10886356374E+03 -0.40075020856E+03  0.90227202258E+03  0.80003046460E+03 0.  0.
         22    1    5    5    0    0  0.69066266270E+01 -0.10679996695E+01 -0.63835576376E+03  0.63839401880E+03  0.00000000000E+00 0. -1.
         22    1    5    5    0    0  0.33018970121E+02  0.10993156341E+03  0.23760555520E+03  0.26387800379E+03  0.00000000000E+00 0. -1.
          5    1    4    4  502    0  0.25808184382E+01  0.18580224913E+02  0.29066510519E+02  0.34911852076E+02  0.47000000000E+01 0.  1.
         -5    1    4    4    0  502 -0.42506415187E+02 -0.12744378865E+03 -0.21062153036E+02  0.13606769965E+03  0.47000000000E+01 0.  1.
<mgrwt>
<rscale>  0 0.99880911E+03</rscale>
<asrwt>0</asrwt>
<pdfrwt beam="1">  1        2 0.11276903E+00 0.99880911E+03</pdfrwt>
<pdfrwt beam="2">  1       -2 0.52346594E-01 0.99880911E+03</pdfrwt>
<totfact> 0.16103334E+02</totfact>
</mgrwt>
</event>
<event>
 9    1  0.4236486E-036  0.1000045E+04  0.7818608E-02  0.8680995E-01
         -1   -1    0    0    0  501 -0.00000000000E+00  0.00000000000E+00  0.20019001608E+03  0.20019001608E+03  0.00000000000E+00 0. -1.
          1   -1    0    0  501    0  0.00000000000E+00 -0.00000000000E+00 -0.12489258954E+04  0.12489258954E+04  0.00000000000E+00 0. -1.
         36    2    1    2    0    0 -0.24868995752E-13 -0.71054273576E-14 -0.10487358793E+04  0.14491159115E+04  0.10000449892E+04 0.  0.
         25    2    3    3    0    0  0.32321238113E+01 -0.45528422391E+02 -0.65951332834E+01  0.13359673193E+03  0.12538463673E+03 0.  0.
         35    2    3    3    0    0 -0.32321238113E+01  0.45528422391E+02 -0.10421407460E+04  0.13155191796E+04  0.80152984558E+03 0.  0.
         22    1    5    5    0    0 -0.32489419930E+03  0.21010754531E+03 -0.77484546668E+03  0.86607558479E+03  0.00000000000E+00 0.  1.
         22    1    5    5    0    0  0.32166207549E+03 -0.16457912292E+03 -0.26729527935E+03  0.44944359476E+03  0.00000000000E+00 0.  1.
          5    1    4    4  502    0 -0.14177311865E+02 -0.46062277616E+02 -0.60072066088E+02  0.77158750088E+02  0.47000000000E+01 0.  1.
         -5    1    4    4    0  502  0.17409435676E+02  0.53385522543E+00  0.53476932805E+02  0.56437981840E+02  0.47000000000E+01 0.  1.
<mgrwt>
<rscale>  0 0.10000450E+04</rscale>
<asrwt>0</asrwt>
<pdfrwt beam="1">  1        1 0.19214245E+00 0.10000450E+04</pdfrwt>
<pdfrwt beam="2">  1       -1 0.30798463E-01 0.10000450E+04</pdfrwt>
<totfact> 0.10535433E+02</totfact>
</mgrwt>
</event>
<event>
 9    1  0.4236486E-036  0.1000263E+04  0.7818608E-02  0.8680787E-01
          2   -1    0    0  501    0  0.00000000000E+00  0.00000000000E+00  0.24251972646E+04  0.24251972646E+04  0.00000000000E+00 0.  1.
         -2   -1    0    0    0  501 -0.00000000000E+00 -0.00000000000E+00 -0.10313867429E+03  0.10313867429E+03  0.00000000000E+00 0.  1.
         36    2    1    2    0    0  0.00000000000E+00  0.00000000000E+00  0.23220585903E+04  0.25283359389E+04  0.10002632269E+04 0.  0.
         25    2    3    3    0    0 -0.15384748530E+02 -0.13579364819E+03  0.38353078878E+03  0.42554340556E+03  0.12375265128E+03 0.  0.
         35    2    3    3    0    0  0.15384748530E+02  0.13579364819E+03  0.19385278015E+04  0.21027925333E+04  0.80322462333E+03 0.  0.
         22    1    5    5    0    0 -0.38690207478E+02  0.30425562028E+03  0.22557401362E+03  0.38072568898E+03  0.00000000000E+00 0.  1.
         22    1    5    5    0    0  0.54074956008E+02 -0.16846197209E+03  0.17129537879E+04  0.17220668443E+04  0.00000000000E+00 0.  1.
          5    1    4    4  502    0 -0.37662107473E+02 -0.10092925958E+02  0.29349046150E+02  0.49028134816E+02  0.47000000000E+01 0. -1.
         -5    1    4    4    0  502  0.22277358943E+02 -0.12570072223E+03  0.35418174263E+03  0.37651527074E+03  0.47000000000E+01 0. -1.
<mgrwt>
<rscale>  0 0.10002632E+04</rscale>
<asrwt>0</asrwt>
<pdfrwt beam="1">  1        2 0.37310723E+00 0.10002632E+04</pdfrwt>
<pdfrwt beam="2">  1       -2 0.15867490E-01 0.10002632E+04</pdfrwt>
<totfact> 0.14059766E+02</totfact>
</mgrwt>
</event>
<event>
 9    1  0.4236486E-036  0.1000349E+04  0.7818608E-02  0.8680706E-01
         -2   -1    0    0    0  501 -0.00000000000E+00  0.00000000000E+00  0.81988257394E+02  0.81988257394E+02  0.00000000000E+00 0. -1.
          2   -1    0    0  501    0  0.00000000000E+00 -0.00000000000E+00 -0.30513441010E+04  0.30513441010E+04  0.00000000000E+00 0. -1.
         36    2    1    2    0    0  0.00000000000E+00  0.00000000000E+00 -0.29693558436E+04  0.31333323584E+04  0.10003487103E+04 0.  0.
         25    2    3    3    0    0 -0.23355735832E+02 -0.12462430710E+03 -0.73125856123E+03  0.75307290904E+03  0.12768325907E+03 0.  0.
         35    2    3    3    0    0  0.23355735832E+02  0.12462430710E+03 -0.22380972824E+04  0.23802594493E+04  0.80029925186E+03 0.  0.
         22    1    5    5    0    0  0.37002402592E+02 -0.30511382774E+03 -0.47705199412E+03  0.56748764812E+03  0.00000000000E+00 0. -1.
         22    1    5    5    0    0 -0.13646666760E+02  0.42973813484E+03 -0.17610452882E+04  0.18127718012E+04  0.00000000000E+00 0. -1.
          5    1    4    4  502    0 -0.11920019615E+02 -0.10669628214E+03 -0.72106243378E+03  0.72902627312E+03  0.47000000000E+01 0. -1.
         -5    1    4    4    0  502 -0.11435716217E+02 -0.17928024952E+02 -0.10196127445E+02  0.24046635918E+02  0.47000000000E+01 0. -1.
<mgrwt>
<rscale>  0 0.10003487E+04</rscale>
<asrwt>0</asrwt>
<pdfrwt beam="1">  1        2 0.46943752E+00 0.10003487E+04</pdfrwt>
<pdfrwt beam="2">  1       -2 0.12613579E-01 0.10003487E+04</pdfrwt>
<totfact> 0.82469941E+01</totfact>
</mgrwt>
</event>
<event>
 9    1  0.4236486E-036  0.1000231E+04  0.7818608E-02  0.8680818E-01
          2   -1    0    0  501    0  0.00000000000E+00  0.00000000000E+00  0.11096308876E+04  0.11096308876E+04  0.00000000000E+00 0.  1.
         -2   -1    0    0    0  501 -0.00000000000E+00 -0.00000000000E+00 -0.22540431894E+03  0.22540431894E+03  0.00000000000E+00 0.  1.
         36    2    1    2    0    0  0.00000000000E+00  0.00000000000E+00  0.88422656869E+03  0.13350352066E+04  0.10002311623E+04 0.  0.
         25    2    3    3    0    0  0.11226190336E+03  0.79460923019E+02  0.15001545996E+03  0.23961583337E+03  0.12646871607E+03 0.  0.
         35    2    3    3    0    0 -0.11226190336E+03 -0.79460923019E+02  0.73421110873E+03  0.10954193732E+04  0.80122461130E+03 0.  0.
         22    1    5    5    0    0  0.86771233612E+02 -0.39672668472E+03  0.53356071003E+03  0.67052840405E+03  0.00000000000E+00 0. -1.
         22    1    5    5    0    0 -0.19903313697E+03  0.31726576170E+03  0.20065039871E+03  0.42489096915E+03  0.00000000000E+00 0. -1.
          5    1    4    4  502    0  0.12009607409E+03  0.88315122897E+02  0.81564514493E+02  0.16999261151E+03  0.47000000000E+01 0.  1.
         -5    1    4    4    0  502 -0.78341707368E+01 -0.88541998775E+01  0.68450945467E+02  0.69623221858E+02  0.47000000000E+01 0.  1.
<mgrwt>
<rscale>  0 0.10002312E+04</rscale>
<asrwt>0</asrwt>
<pdfrwt beam="1">  1        2 0.17071244E+00 0.10002312E+04</pdfrwt>
<pdfrwt beam="2">  1       -2 0.34677588E-01 0.10002312E+04</pdfrwt>
<totfact> 0.20218937E+02</totfact>
</mgrwt>
</event>
<event>
 9    1  0.4236486E-036  0.9999505E+03  0.7818608E-02  0.8681085E-01
         -1   -1    0    0    0  501 -0.00000000000E+00  0.00000000000E+00  0.89865401497E+03  0.89865401497E+03  0.00000000000E+00 0. -1.
          1   -1    0    0  501    0  0.00000000000E+00 -0.00000000000E+00 -0.27816629710E+03  0.27816629710E+03  0.00000000000E+00 0. -1.
         36    2    1    2    0    0 -0.14210854715E-13  0.00000000000E+00  0.62048771787E+03  0.11768203121E+04  0.99995051821E+03 0.  0.
         25    2    3    3    0    0 -0.11136973821E+03 -0.83237301548E+02  0.12947163403E+03  0.22744997309E+03  0.12505566474E+03 0.  0.
         35    2    3    3    0    0  0.11136973821E+03  0.83237301548E+02  0.49101608385E+03  0.94937033898E+03  0.80054704983E+03 0.  0.
         22    1    5    5    0    0  0.90943596527E+02 -0.31168996202E+01  0.70858349719E+03  0.71440256529E+03  0.00000000000E+00 0. -1.
         22    1    5    5    0    0  0.20426141687E+02  0.86354201168E+02 -0.21756741334E+03  0.23496777369E+03  0.00000000000E+00 0. -1.
          5    1    4    4  502    0 -0.25197915433E+02 -0.48798057797E+02  0.12242947860E+03  0.13426560474E+03  0.47000000000E+01 0. -1.
         -5    1    4    4    0  502 -0.86171822780E+02 -0.34439243751E+02  0.70421554299E+01  0.93184368349E+02  0.47000000000E+01 0. -1.
<mgrwt>
<rscale>  0 0.99995052E+03</rscale>
<asrwt>0</asrwt>
<pdfrwt beam="1">  1        1 0.42794815E-01 0.99995052E+03</pdfrwt>
<pdfrwt beam="2">  1       -1 0.13825446E+00 0.99995052E+03</pdfrwt>
<totfact> 0.49877861E+01</totfact>
</mgrwt>
</event>
<event>
 9    1  0.4236486E-036  0.9946513E+03  0.7818608E-02  0.8686148E-01
         -2   -1    0    0    0  501 -0.00000000000E+00  0.00000000000E+00  0.25151676695E+03  0.25151676695E+03  0.00000000000E+00 0. -1.
          2   -1    0    0  501    0  0.00000000000E+00 -0.00000000000E+00 -0.98336505635E+03  0.98336505635E+03  0.00000000000E+00 0. -1.
         36    2    1    2    0    0  0.00000000000E+00  0.00000000000E+00 -0.73184828940E+03  0.12348818233E+04  0.99465129508E+03 0.  0.
         25    2    3    3    0    0  0.13116158622E+03  0.24956760322E+02 -0.12912493243E+03  0.22395461812E+03  0.12512482255E+03 0.  0.
         35    2    3    3    0    0 -0.13116158622E+03 -0.24956760322E+02 -0.60272335697E+03  0.10109272052E+04  0.80054491912E+03 0.  0.
         22    1    5    5    0    0 -0.13831757338E+03  0.75504704469E+02 -0.78608567267E+03  0.80172526235E+03  0.00000000000E+00 0.  1.
         22    1    5    5    0    0  0.71559871678E+01 -0.10046146479E+03  0.18336231571E+03  0.20920194282E+03  0.00000000000E+00 0.  1.
          5    1    4    4  502    0  0.64567713605E+02 -0.22255995853E+02 -0.12447186680E+03  0.14205511119E+03  0.47000000000E+01 0. -1.
         -5    1    4    4    0  502  0.66593872611E+02  0.47212756175E+02 -0.46530656280E+01  0.81899506926E+02  0.47000000000E+01 0. -1.
<mgrwt>
<rscale>  0 0.99465130E+03</rscale>
<asrwt>0</asrwt>
<pdfrwt beam="1">  1        2 0.15128693E+00 0.99465130E+03</pdfrwt>
<pdfrwt beam="2">  1       -2 0.38694888E-01 0.99465130E+03</pdfrwt>
<totfact> 0.19687884E+02</totfact>
</mgrwt>
</event>
<event>
 9    1  0.4236486E-036  0.1000716E+04  0.7818608E-02  0.8680357E-01
          1   -1    0    0  501    0  0.00000000000E+00  0.00000000000E+00  0.62860641748E+03  0.62860641748E+03  0.00000000000E+00 0. -1.
         -1   -1    0    0    0  501 -0.00000000000E+00 -0.00000000000E+00 -0.39827464795E+03  0.39827464795E+03  0.00000000000E+00 0. -1.
         36    2    1    2    0    0  0.00000000000E+00 -0.14210854715E-13  0.23033176953E+03  0.10268810654E+04  0.10007157431E+04 0.  0.
         25    2    3    3    0    0 -0.11031046223E+03 -0.60475108329E+02  0.10653055942E+03  0.20797733589E+03  0.12680763126E+03 0.  0.
         35    2    3    3    0    0  0.11031046223E+03  0.60475108329E+02  0.12380121011E+03  0.81890372954E+03  0.79965676501E+03 0.  0.
         22    1    5    5    0    0 -0.15400841123E+03 -0.48973811157E+02  0.39371275332E+03  0.42558989302E+03  0.00000000000E+00 0. -1.
         22    1    5    5    0    0  0.26431887345E+03  0.10944891949E+03 -0.26991154322E+03  0.39331383653E+03  0.00000000000E+00 0. -1.
          5    1    4    4  502    0 -0.62753571365E+02  0.71683820676E+01  0.10793304284E+03  0.12514402965E+03  0.47000000000E+01 0. -1.
         -5    1    4    4    0  502 -0.47556890862E+02 -0.67643490397E+02 -0.14024834208E+01  0.82833306232E+02  0.47000000000E+01 0. -1.
<mgrwt>
<rscale>  0 0.10007157E+04</rscale>
<asrwt>0</asrwt>
<pdfrwt beam="1">  1        1 0.96708679E-01 0.10007157E+04</pdfrwt>
<pdfrwt beam="2">  1       -1 0.61273023E-01 0.10007157E+04</pdfrwt>
<totfact> 0.10023030E+02</totfact>
</mgrwt>
</event>
<event>
 9    1  0.4236486E-036  0.1000479E+04  0.7818608E-02  0.8680582E-01
          2   -1    0    0  501    0  0.00000000000E+00  0.00000000000E+00  0.20603443387E+04  0.20603443387E+04  0.00000000000E+00 0. -1.
         -2   -1    0    0    0  501 -0.00000000000E+00 -0.00000000000E+00 -0.12145512469E+03  0.12145512469E+03  0.00000000000E+00 0. -1.
         36    2    1    2    0    0  0.14210854715E-13 -0.14210854715E-13  0.19388892140E+04  0.21817994634E+04  0.10004786426E+04 0.  0.
         25    2    3    3    0    0 -0.84875277008E+02 -0.76134493897E+02  0.18454695605E+03  0.25103344823E+03  0.12633265347E+03 0.  0.
         35    2    3    3    0    0  0.84875277008E+02  0.76134493897E+02  0.17543422580E+04  0.19307660152E+04  0.79821073249E+03 0.  0.
         22    1    5    5    0    0  0.16597320542E+03 -0.31019721133E+02 -0.24269534920E+01  0.16886449633E+03  0.00000000000E+00 0. -1.
         22    1    5    5    0    0 -0.81097928412E+02  0.10715421503E+03  0.17567692115E+04  0.17619015189E+04  0.00000000000E+00 0. -1.
          5    1    4    4  502    0 -0.79522941211E+02 -0.52753588408E+01  0.38686185657E+02  0.88715492167E+02  0.47000000000E+01 0.  1.
         -5    1    4    4    0  502 -0.53523357961E+01 -0.70859135057E+02  0.14586077040E+03  0.16231795606E+03  0.47000000000E+01 0.  1.
<mgrwt>
<rscale>  0 0.10004786E+04</rscale>
<asrwt>0</asrwt>
<pdfrwt beam="1">  1        2 0.31697603E+00 0.10004786E+04</pdfrwt>
<pdfrwt beam="2">  1       -2 0.18685405E-01 0.10004786E+04</pdfrwt>
<totfact> 0.17409292E+02</totfact>
</mgrwt>
</event>
<event>
 9    1  0.4236486E-036  0.9997543E+03  0.7818608E-02  0.8681272E-01
         -2   -1    0    0    0  501 -0.00000000000E+00  0.00000000000E+00  0.41378392836E+03  0.41378392836E+03  0.00000000000E+00 0.  1.
          2   -1    0    0  501    0  0.00000000000E+00 -0.00000000000E+00 -0.60388316912E+03  0.60388316912E+03  0.00000000000E+00 0.  1.
         36    2    1    2    0    0  0.00000000000E+00  0.14210854715E-13 -0.19009924076E+03  0.10176670975E+04  0.99975426978E+03 0.  0.
         25    2    3    3    0    0  0.10167945948E+03 -0.54680837596E+02  0.28199816599E+02  0.17218554193E+03  0.12459504289E+03 0.  0.
         35    2    3    3    0    0 -0.10167945948E+03  0.54680837596E+02 -0.21829905736E+03  0.84548155555E+03  0.80861355161E+03 0.  0.
         22    1    5    5    0    0 -0.25320217579E+03 -0.10754045543E+03 -0.44820985480E+03  0.52589767571E+03  0.00000000000E+00 0. -1.
         22    1    5    5    0    0  0.15152271631E+03  0.16222129303E+03  0.22991079744E+03  0.31958387983E+03  0.00000000000E+00 0. -1.
          5    1    4    4  502    0  0.10930656972E+03  0.12277551910E+00 -0.10697880932E+01  0.10941286809E+03  0.47000000000E+01 0. -1.
         -5    1    4    4    0  502 -0.76271102409E+01 -0.54803613115E+02  0.29269604692E+02  0.62772673832E+02  0.47000000000E+01 0. -1.
<mgrwt>
<rscale>  0 0.99975427E+03</rscale>
<asrwt>0</asrwt>
<pdfrwt beam="1">  1        2 0.92905103E-01 0.99975427E+03</pdfrwt>
<pdfrwt beam="2">  1       -2 0.63659066E-01 0.99975427E+03</pdfrwt>
<totfact> 0.13593710E+02</totfact>
</mgrwt>
</event>
<event>
 9    1  0.4236486E-036  0.1000952E+04  0.7818608E-02  0.8680132E-01
          2   -1    0    0  501    0  0.00000000000E+00  0.00000000000E+00  0.34770305469E+03  0.34770305469E+03  0.00000000000E+00 0.  1.
         -2   -1    0    0    0  501 -0.00000000000E+00 -0.00000000000E+00 -0.72037453112E+03  0.72037453112E+03  0.00000000000E+00 0.  1.
         36    2    1    2    0    0 -0.28421709430E-13  0.00000000000E+00 -0.37267147643E+03  0.10680775858E+04  0.10009523965E+04 0.  0.
         25    2    3    3    0    0 -0.13293951812E+03 -0.45228322250E+02 -0.59057905704E+02  0.19691678656E+03  0.12477927709E+03 0.  0.
         35    2    3    3    0    0  0.13293951812E+03  0.45228322250E+02 -0.31361357072E+03  0.87116079925E+03  0.80053054270E+03 0.  0.
         22    1    5    5    0    0 -0.22679242883E+03 -0.33318997177E+02 -0.42806424394E+03  0.48557590374E+03  0.00000000000E+00 0. -1.
         22    1    5    5    0    0  0.35973194696E+03  0.78547319427E+02  0.11445067322E+03  0.38558489552E+03  0.00000000000E+00 0. -1.
          5    1    4    4  502    0 -0.43930093922E+02 -0.53186438281E+02 -0.79256449794E+02  0.10517758888E+03  0.47000000000E+01 0.  1.
         -5    1    4    4    0  502 -0.89009424202E+02  0.79581160311E+01  0.20198544091E+02  0.91739197679E+02  0.47000000000E+01 0.  1.
<mgrwt>
<rscale>  0 0.10009524E+04</rscale>
<asrwt>0</asrwt>
<pdfrwt beam="1">  1        2 0.53492778E-01 0.10009524E+04</pdfrwt>
<pdfrwt beam="2">  1       -2 0.11082685E+00 0.10009524E+04</pdfrwt>
<totfact> 0.70724498E+01</totfact>
</mgrwt>
</event>
<event>
 9    1  0.4236486E-036  0.1000161E+04  0.7818608E-02  0.8680884E-01
          1   -1    0    0  501    0  0.00000000000E+00  0.00000000000E+00  0.39672097780E+03  0.39672097780E+03  0.00000000000E+00 0.  1.
         -1   -1    0    0    0  501 -0.00000000000E+00 -0.00000000000E+00 -0.63036925213E+03  0.63036925213E+03  0.00000000000E+00 0.  1.
         36    2    1    2    0    0  0.71054273576E-14  0.00000000000E+00 -0.23364827433E+03  0.10270902299E+04  0.10001613991E+04 0.  0.
         25    2    3    3    0    0 -0.27626383012E+02  0.10645786326E+03 -0.13588771356E+03  0.21561688844E+03  0.12620886735E+03 0.  0.
         35    2    3    3    0    0  0.27626383012E+02 -0.10645786326E+03 -0.97760560771E+02  0.81147334148E+03  0.79801965076E+03 0.  0.
         22    1    5    5    0    0  0.37371736934E+03 -0.11598830041E+03  0.11155794988E+03  0.40689450003E+03  0.00000000000E+00 0.  1.
         22    1    5    5    0    0 -0.34609098633E+03  0.95304371502E+01 -0.20931851065E+03  0.40457884145E+03  0.00000000000E+00 0.  1.
          5    1    4    4  502    0 -0.24914071954E+02 -0.24380221410E+02 -0.40295187578E+02  0.53487365978E+02  0.47000000000E+01 0. -1.
         -5    1    4    4    0  502 -0.27123110582E+01  0.13083808467E+03 -0.95592525983E+02  0.16212952246E+03  0.47000000000E+01 0. -1.
<mgrwt>
<rscale>  0 0.10001614E+04</rscale>
<asrwt>0</asrwt>
<pdfrwt beam="1">  1        1 0.61033997E-01 0.10001614E+04</pdfrwt>
<pdfrwt beam="2">  1       -1 0.96979884E-01 0.10001614E+04</pdfrwt>
<totfact> 0.74151842E+01</totfact>
</mgrwt>
</event>
<event>
 9    1  0.4236486E-036  0.1000248E+04  0.7818608E-02  0.8680801E-01
         -4   -1    0    0    0  501 -0.00000000000E+00  0.00000000000E+00  0.18783104792E+03  0.18783104792E+03  0.00000000000E+00 0. -1.
          4   -1    0    0  501    0  0.00000000000E+00 -0.00000000000E+00 -0.13316446561E+04  0.13316446561E+04  0.00000000000E+00 0. -1.
         36    2    1    2    0    0  0.10658141036E-13 -0.10658141036E-13 -0.11438136081E+04  0.15194757040E+04  0.10002483916E+04 0.  0.
         25    2    3    3    0    0 -0.35762383641E+01 -0.29925591785E+02 -0.41936762167E+03  0.43911292717E+03  0.12665950488E+03 0.  0.
         35    2    3    3    0    0  0.35762383641E+01  0.29925591785E+02 -0.72444598648E+03  0.10803627768E+04  0.80090786718E+03 0.  0.
         22    1    5    5    0    0  0.18597017683E+03 -0.30898933891E+03 -0.15381958339E+03  0.39207114464E+03  0.00000000000E+00 0.  1.
         22    1    5    5    0    0 -0.18239393846E+03  0.33891493069E+03 -0.57062640309E+03  0.68829163218E+03  0.00000000000E+00 0.  1.
          5    1    4    4  502    0 -0.28494409309E+02 -0.20578461091E+02 -0.40841636835E+03  0.40995295383E+03  0.47000000000E+01 0.  1.
         -5    1    4    4    0  502  0.24918170945E+02 -0.93471306938E+01 -0.10951253322E+02  0.29159973333E+02  0.47000000000E+01 0.  1.
<mgrwt>
<rscale>  0 0.10002484E+04</rscale>
<asrwt>0</asrwt>
<pdfrwt beam="1">  1        4 0.20486841E+00 0.10002484E+04</pdfrwt>
<pdfrwt beam="2">  1       -4 0.28897084E-01 0.10002484E+04</pdfrwt>
<totfact> 0.24682013E+00</totfact>
</mgrwt>
</event>
<event>
 9    1  0.4236486E-036  0.9979921E+03  0.7818608E-02  0.8682952E-01
          2   -1    0    0  501    0  0.00000000000E+00  0.00000000000E+00  0.61754815294E+03  0.61754815294E+03  0.00000000000E+00 0.  1.
         -2   -1    0    0    0  501 -0.00000000000E+00 -0.00000000000E+00 -0.40320262686E+03  0.40320262686E+03  0.00000000000E+00 0.  1.
         36    2    1    2    0    0  0.28421709430E-13 -0.14210854715E-13  0.21434552608E+03  0.10207507798E+04  0.99799205904E+03 0.  0.
         25    2    3    3    0    0 -0.12073427679E+03  0.89312751102E+02  0.36443841062E+02  0.19856557180E+03  0.12468600423E+03 0.  0.
         35    2    3    3    0    0  0.12073427679E+03 -0.89312751102E+02  0.17790168502E+03  0.82218520800E+03  0.78853406624E+03 0.  0.
         22    1    5    5    0    0 -0.20053704329E+03 -0.33056793711E+03  0.10073566114E+02  0.38677091864E+03  0.00000000000E+00 0.  1.
         22    1    5    5    0    0  0.32127132008E+03  0.24125518601E+03  0.16782811891E+03  0.43541428936E+03  0.00000000000E+00 0.  1.
          5    1    4    4  502    0 -0.98301401495E+02 -0.40502767506E+01  0.25958649129E+02  0.10186025595E+03  0.47000000000E+01 0.  1.
         -5    1    4    4    0  502 -0.22432875293E+02  0.93363027853E+02  0.10485191933E+02  0.96705315850E+02  0.47000000000E+01 0.  1.
<mgrwt>
<rscale>  0 0.99799206E+03</rscale>
<asrwt>0</asrwt>
<pdfrwt beam="1">  1        2 0.95007408E-01 0.99799206E+03</pdfrwt>
<pdfrwt beam="2">  1       -2 0.62031173E-01 0.99799206E+03</pdfrwt>
<totfact> 0.13980641E+02</totfact>
</mgrwt>
</event>
<event>
 9    1  0.4236486E-036  0.1002017E+04  0.7818608E-02  0.8679120E-01
         -1   -1    0    0    0  501 -0.00000000000E+00  0.00000000000E+00  0.31876965169E+03  0.31876965169E+03  0.00000000000E+00 0.  1.
          1   -1    0    0  501    0  0.00000000000E+00 -0.00000000000E+00 -0.78743224178E+03  0.78743224178E+03  0.00000000000E+00 0.  1.
         36    2    1    2    0    0 -0.14210854715E-13  0.00000000000E+00 -0.46866259010E+03  0.11062018935E+04  0.10020169688E+04 0.  0.
         25    2    3    3    0    0  0.11921556757E+03  0.76848789398E+02 -0.41101630064E+02  0.18888369909E+03  0.11776935003E+03 0.  0.
         35    2    3    3    0    0 -0.11921556757E+03 -0.76848789398E+02 -0.42756096003E+03  0.91731819438E+03  0.79909086292E+03 0.  0.
         22    1    5    5    0    0 -0.30698867787E+03 -0.92256883455E+02 -0.58810347124E+03  0.66979032075E+03  0.00000000000E+00 0. -1.
         22    1    5    5    0    0  0.18777311030E+03  0.15408094056E+02  0.16054251121E+03  0.24752787362E+03  0.00000000000E+00 0. -1.
          5    1    4    4  502    0  0.89106227298E+02  0.10839798154E+03 -0.33876462465E+02  0.14442903743E+03  0.47000000000E+01 0. -1.
         -5    1    4    4    0  502  0.30109340273E+02 -0.31549192140E+02 -0.72251675987E+01  0.44454661659E+02  0.47000000000E+01 0. -1.
<mgrwt>
<rscale>  0 0.10020170E+04</rscale>
<asrwt>0</asrwt>
<pdfrwt beam="1">  1        1 0.12114342E+00 0.10020170E+04</pdfrwt>
<pdfrwt beam="2">  1       -1 0.49041485E-01 0.10020170E+04</pdfrwt>
<totfact> 0.10769006E+02</totfact>
</mgrwt>
</event>
<event>
 9    1  0.4236486E-036  0.9999153E+03  0.7818608E-02  0.8681119E-01
         -3   -1    0    0    0  501 -0.00000000000E+00  0.00000000000E+00  0.22979226021E+03  0.22979226021E+03  0.00000000000E+00 0.  1.
          3   -1    0    0  501    0  0.00000000000E+00 -0.00000000000E+00 -0.10877549548E+04  0.10877549548E+04  0.00000000000E+00 0.  1.
         36    2    1    2    0    0  0.00000000000E+00  0.00000000000E+00 -0.85796269456E+03  0.13175472150E+04  0.99991533564E+03 0.  0.
         25    2    3    3    0    0 -0.27235379602E+01 -0.13037689159E+03 -0.94941572006E+02  0.20399722257E+03  0.12488159673E+03 0.  0.
         35    2    3    3    0    0  0.27235379602E+01  0.13037689159E+03 -0.76302112255E+03  0.11135499924E+04  0.80049159933E+03 0.  0.
         22    1    5    5    0    0  0.73424621087E+02  0.39588090943E+03 -0.12938848831E+03  0.42291163420E+03  0.00000000000E+00 0.  1.
         22    1    5    5    0    0 -0.70701083126E+02 -0.26550401784E+03 -0.63363263424E+03  0.69063835821E+03  0.00000000000E+00 0.  1.
          5    1    4    4  502    0 -0.41923949263E+02 -0.25639183309E+02  0.10220901426E+02  0.50413709132E+02  0.47000000000E+01 0. -1.
         -5    1    4    4    0  502  0.39200411302E+02 -0.10473770828E+03 -0.10516247343E+03  0.15358351344E+03  0.47000000000E+01 0. -1.
<mgrwt>
<rscale>  0 0.99991534E+03</rscale>
<asrwt>0</asrwt>
<pdfrwt beam="1">  1        3 0.16734692E+00 0.99991534E+03</pdfrwt>
<pdfrwt beam="2">  1       -3 0.35352656E-01 0.99991534E+03</pdfrwt>
<totfact> 0.78881919E+00</totfact>
</mgrwt>
</event>
<event>
 9    1  0.4236486E-036  0.9985455E+03  0.7818608E-02  0.8682424E-01
         -1   -1    0    0    0  501 -0.00000000000E+00  0.00000000000E+00  0.13162742875E+04  0.13162742875E+04  0.00000000000E+00 0. -1.
          1   -1    0    0  501    0  0.00000000000E+00 -0.00000000000E+00 -0.18937791206E+03  0.18937791206E+03  0.00000000000E+00 0. -1.
         36    2    1    2    0    0  0.28421709430E-13 -0.14210854715E-13  0.11268963755E+04  0.15056521996E+04  0.99854549475E+03 0.  0.
         25    2    3    3    0    0  0.10571395246E+03  0.56406058822E+02  0.32025602005E+03  0.36306971452E+03  0.12205988698E+03 0.  0.
         35    2    3    3    0    0 -0.10571395246E+03 -0.56406058822E+02  0.80664035542E+03  0.11425824851E+04  0.80029306443E+03 0.  0.
         22    1    5    5    0    0 -0.36710200474E+03  0.46272763767E+02  0.77648498864E+03  0.86013602885E+03  0.00000000000E+00 0. -1.
         22    1    5    5    0    0  0.26138805228E+03 -0.10267882259E+03  0.30155366781E+02  0.28244645621E+03  0.00000000000E+00 0. -1.
          5    1    4    4  502    0  0.58234764198E+02  0.57751952213E+02  0.30030307089E+03  0.31133679534E+03  0.47000000000E+01 0. -1.
         -5    1    4    4    0  502  0.47479188265E+02 -0.13458933906E+01  0.19952949161E+02  0.51732919186E+02  0.47000000000E+01 0. -1.
<mgrwt>
<rscale>  0 0.99854549E+03</rscale>
<asrwt>0</asrwt>
<pdfrwt beam="1">  1        1 0.29135064E-01 0.99854549E+03</pdfrwt>
<pdfrwt beam="2">  1       -1 0.20250373E+00 0.99854549E+03</pdfrwt>
<totfact> 0.23690303E+01</totfact>
</mgrwt>
</event>
<event>
 9    1  0.4236486E-036  0.1000778E+04  0.7818608E-02  0.8680298E-01
          2   -1    0    0  501    0  0.00000000000E+00  0.00000000000E+00  0.18037963254E+03  0.18037963254E+03  0.00000000000E+00 0.  1.
         -2   -1    0    0    0  501 -0.00000000000E+00 -0.00000000000E+00 -0.13881225596E+04  0.13881225596E+04  0.00000000000E+00 0.  1.
         36    2    1    2    0    0  0.00000000000E+00  0.00000000000E+00 -0.12077429271E+04  0.15685021922E+04  0.10007777720E+04 0.  0.
         25    2    3    3    0    0  0.13855383127E+03 -0.95154305926E+01 -0.21302359174E+03  0.28349845935E+03  0.12531806827E+03 0.  0.
         35    2    3    3    0    0 -0.13855383127E+03  0.95154305926E+01 -0.99471933536E+03  0.12850037328E+04  0.80154870700E+03 0.  0.
         22    1    5    5    0    0  0.94357946831E+02  0.23892695374E+03 -0.20853162850E+02  0.25772924893E+03  0.00000000000E+00 0. -1.
         22    1    5    5    0    0 -0.23291177810E+03 -0.22941152315E+03 -0.97386617251E+03  0.10272744839E+04  0.00000000000E+00 0. -1.
          5    1    4    4  502    0 -0.42292539251E+01 -0.40012127409E+02 -0.38223712229E+02  0.55695593229E+02  0.47000000000E+01 0. -1.
         -5    1    4    4    0  502  0.14278308519E+03  0.30496696817E+02 -0.17479987951E+03  0.22780286612E+03  0.47000000000E+01 0. -1.
<mgrwt>
<rscale>  0 0.10007778E+04</rscale>
<asrwt>0</asrwt>
<pdfrwt beam="1">  1        2 0.27750713E-01 0.10007778E+04</pdfrwt>
<pdfrwt beam="2">  1       -2 0.21355732E+00 0.10007778E+04</pdfrwt>
<totfact> 0.22859840E+01</totfact>
</mgrwt>
</event>
<event>
 9    1  0.4236486E-036  0.9990846E+03  0.7818608E-02  0.8681910E-01
         -2   -1    0    0    0  501 -0.00000000000E+00  0.00000000000E+00  0.21742910136E+03  0.21742910136E+03  0.00000000000E+00 0. -1.
          2   -1    0    0  501    0  0.00000000000E+00 -0.00000000000E+00 -0.11476960760E+04  0.11476960760E+04  0.00000000000E+00 0. -1.
         36    2    1    2    0    0  0.00000000000E+00 -0.28421709430E-13 -0.93026697466E+03  0.13651251774E+04  0.99908463394E+03 0.  0.
         25    2    3    3    0    0 -0.70331797114E+02 -0.80226482392E+02 -0.48326381571E+02  0.17051062275E+03  0.12391764665E+03 0.  0.
         35    2    3    3    0    0  0.70331797114E+02  0.80226482392E+02 -0.88194059309E+03  0.11946145546E+04  0.79868759489E+03 0.  0.
         22    1    5    5    0    0 -0.12157871419E+03 -0.32974635898E+03 -0.34756578419E+03  0.49428333913E+03  0.00000000000E+00 0. -1.
         22    1    5    5    0    0  0.19191051131E+03  0.40997284137E+03 -0.53437480890E+03  0.70033121550E+03  0.00000000000E+00 0. -1.
          5    1    4    4  502    0 -0.25114418500E+02 -0.54139140380E+02 -0.86834748020E+02  0.10547105765E+03  0.47000000000E+01 0.  1.
         -5    1    4    4    0  502 -0.45217378614E+02 -0.26087342012E+02  0.38508366449E+02  0.65039565101E+02  0.47000000000E+01 0.  1.
<mgrwt>
<rscale>  0 0.99908463E+03</rscale>
<asrwt>0</asrwt>
<pdfrwt beam="1">  1        2 0.17656862E+00 0.99908463E+03</pdfrwt>
<pdfrwt beam="2">  1       -2 0.33450632E-01 0.99908463E+03</pdfrwt>
<totfact> 0.20508736E+02</totfact>
</mgrwt>
</event>
<event>
 9    1  0.4236486E-036  0.1000156E+04  0.7818608E-02  0.8680889E-01
         -1   -1    0    0    0  501 -0.00000000000E+00  0.00000000000E+00  0.18999493254E+03  0.18999493254E+03  0.00000000000E+00 0.  1.
          1   -1    0    0  501    0  0.00000000000E+00 -0.00000000000E+00 -0.13162362493E+04  0.13162362493E+04  0.00000000000E+00 0.  1.
         36    2    1    2    0    0 -0.49737991503E-13 -0.28421709430E-13 -0.11262413167E+04  0.15062311818E+04  0.10001564225E+04 0.  0.
         25    2    3    3    0    0 -0.22538420998E+02 -0.13360468843E+03 -0.16035801447E+03  0.24451025142E+03  0.12534902096E+03 0.  0.
         35    2    3    3    0    0  0.22538420998E+02  0.13360468843E+03 -0.96588330225E+03  0.12617209304E+04  0.80040674623E+03 0.  0.
         22    1    5    5    0    0  0.29408405286E+03  0.27855504036E+03 -0.83336985963E+03  0.92659789747E+03  0.00000000000E+00 0. -1.
         22    1    5    5    0    0 -0.27154563187E+03 -0.14495035193E+03 -0.13251344262E+03  0.33512303291E+03  0.00000000000E+00 0. -1.
          5    1    4    4  502    0  0.38932964145E+02 -0.39344374269E+02 -0.96779511190E+01  0.56387128155E+02  0.47000000000E+01 0.  1.
         -5    1    4    4    0  502 -0.61471385142E+02 -0.94260314158E+02 -0.15068006335E+03  0.18812312327E+03  0.47000000000E+01 0.  1.
<mgrwt>
<rscale>  0 0.10001564E+04</rscale>
<asrwt>0</asrwt>
<pdfrwt beam="1">  1        1 0.20249789E+00 0.10001564E+04</pdfrwt>
<pdfrwt beam="2">  1       -1 0.29229989E-01 0.10001564E+04</pdfrwt>
<totfact> 0.10283471E+02</totfact>
</mgrwt>
</event>
<event>
 9    1  0.4236486E-036  0.1000888E+04  0.7818608E-02  0.8680192E-01
          2   -1    0    0  501    0  0.00000000000E+00  0.00000000000E+00  0.87744049911E+03  0.87744049911E+03  0.00000000000E+00 0.  1.
         -2   -1    0    0    0  501 -0.00000000000E+00 -0.00000000000E+00 -0.28542608696E+03  0.28542608696E+03  0.00000000000E+00 0.  1.
         36    2    1    2    0    0  0.31974423109E-13  0.00000000000E+00  0.59201441215E+03  0.11628665861E+04  0.10008884218E+04 0.  0.
         25    2    3    3    0    0  0.21485574836E+02 -0.13997169520E+03  0.85387024242E+02  0.20718662448E+03  0.12482647183E+03 0.  0.
         35    2    3    3    0    0 -0.21485574836E+02  0.13997169520E+03  0.50662738791E+03  0.95567996160E+03  0.79787165223E+03 0.  0.
         22    1    5    5    0    0  0.28990883035E+03 -0.30064154427E+02  0.52492542084E+03  0.60041459072E+03  0.00000000000E+00 0. -1.
         22    1    5    5    0    0 -0.31139440518E+03  0.17003584963E+03 -0.18298032935E+02  0.35526537088E+03  0.00000000000E+00 0. -1.
          5    1    4    4  502    0  0.17674578914E+02  0.13814374970E+02 -0.11173308965E+02  0.25498245603E+02  0.47000000000E+01 0.  1.
         -5    1    4    4    0  502  0.38109959225E+01 -0.15378607017E+03  0.96560333206E+02  0.18168837887E+03  0.47000000000E+01 0.  1.
<mgrwt>
<rscale>  0 0.10008884E+04</rscale>
<asrwt>0</asrwt>
<pdfrwt beam="1">  1        2 0.13499085E+00 0.10008884E+04</pdfrwt>
<pdfrwt beam="2">  1       -2 0.43911706E-01 0.10008884E+04</pdfrwt>
<totfact> 0.18078402E+02</totfact>
</mgrwt>
</event>
<event>
 9    1  0.4236486E-036  0.1000495E+04  0.7818608E-02  0.8680566E-01
         -2   -1    0    0    0  501 -0.00000000000E+00  0.00000000000E+00  0.18753336041E+03  0.18753336041E+03  0.00000000000E+00 0. -1.
          2   -1    0    0  501    0  0.00000000000E+00 -0.00000000000E+00 -0.13344171144E+04  0.13344171144E+04  0.00000000000E+00 0. -1.
         36    2    1    2    0    0  0.00000000000E+00 -0.14210854715E-13 -0.11468837540E+04  0.15219504748E+04  0.10004953287E+04 0.  0.
         25    2    3    3    0    0 -0.12778031666E+03 -0.53814884177E+02 -0.23825141111E+03  0.30295379601E+03  0.12567186058E+03 0.  0.
         35    2    3    3    0    0  0.12778031666E+03  0.53814884177E+02 -0.90863234291E+03  0.12189966788E+04  0.80069739436E+03 0.  0.
         22    1    5    5    0    0 -0.99925944201E+01  0.11613585108E+03  0.12699933448E+03  0.17238392851E+03  0.00000000000E+00 0. -1.
         22    1    5    5    0    0  0.13777291108E+03 -0.62320966904E+02 -0.10356316774E+04  0.10466127503E+04  0.00000000000E+00 0. -1.
          5    1    4    4  502    0 -0.14594896297E+03 -0.35697066891E+02 -0.15589817078E+03  0.21656802633E+03  0.47000000000E+01 0. -1.
         -5    1    4    4    0  502  0.18168646307E+02 -0.18117817286E+02 -0.82353240326E+02  0.86385769685E+02  0.47000000000E+01 0. -1.
<mgrwt>
<rscale>  0 0.10004953E+04</rscale>
<asrwt>0</asrwt>
<pdfrwt beam="1">  1        2 0.20529494E+00 0.10004953E+04</pdfrwt>
<pdfrwt beam="2">  1       -2 0.28851286E-01 0.10004953E+04</pdfrwt>
<totfact> 0.20896887E+02</totfact>
</mgrwt>
</event>
<event>
 9    1  0.4236486E-036  0.9998665E+03  0.7818608E-02  0.8681165E-01
          2   -1    0    0  501    0  0.00000000000E+00  0.00000000000E+00  0.32785968650E+03  0.32785968650E+03  0.00000000000E+00 0. -1.
         -2   -1    0    0    0  501 -0.00000000000E+00 -0.00000000000E+00 -0.76231778905E+03  0.76231778905E+03  0.00000000000E+00 0. -1.
         36    2    1    2    0    0 -0.14210854715E-13 -0.14210854715E-13 -0.43445810254E+03  0.10901774755E+04  0.99986653376E+03 0.  0.
         25    2    3    3    0    0  0.56886666519E+02 -0.12836000689E+02 -0.21841027257E+03  0.25932694679E+03  0.12706912459E+03 0.  0.
         35    2    3    3    0    0 -0.56886666519E+02  0.12836000689E+02 -0.21604782997E+03  0.83085052876E+03  0.80014691187E+03 0.  0.
         22    1    5    5    0    0 -0.28088955032E+03 -0.17279113853E+03  0.15082117019E+03  0.36263306855E+03  0.00000000000E+00 0. -1.
         22    1    5    5    0    0  0.22400288380E+03  0.18562713922E+03 -0.36686900016E+03  0.46821746021E+03  0.00000000000E+00 0. -1.
          5    1    4    4  502    0  0.34708427501E+02  0.52401194069E+02 -0.62303470518E+02  0.88624897845E+02  0.47000000000E+01 0.  1.
         -5    1    4    4    0  502  0.22178239018E+02 -0.65237194758E+02 -0.15610680205E+03  0.17070204894E+03  0.47000000000E+01 0.  1.
<mgrwt>
<rscale>  0 0.99986653E+03</rscale>
<asrwt>0</asrwt>
<pdfrwt beam="1">  1        2 0.50439952E-01 0.99986653E+03</pdfrwt>
<pdfrwt beam="2">  1       -2 0.11727966E+00 0.99986653E+03</pdfrwt>
<totfact> 0.65343451E+01</totfact>
</mgrwt>
</event>
<event>
 9    1  0.4236486E-036  0.9994755E+03  0.7818608E-02  0.8681538E-01
          1   -1    0    0  501    0  0.00000000000E+00  0.00000000000E+00  0.42300592836E+03  0.42300592836E+03  0.00000000000E+00 0. -1.
         -1   -1    0    0    0  501 -0.00000000000E+00 -0.00000000000E+00 -0.59038847906E+03  0.59038847906E+03  0.00000000000E+00 0. -1.
         36    2    1    2    0    0  0.00000000000E+00 -0.14210854715E-13 -0.16738255070E+03  0.10133944074E+04  0.99947551581E+03 0.  0.
         25    2    3    3    0    0  0.12937672129E+03  0.10380234126E+02 -0.89000519632E+02  0.20053655986E+03  0.12428891371E+03 0.  0.
         35    2    3    3    0    0 -0.12937672129E+03 -0.10380234126E+02 -0.78382031065E+02  0.81285784756E+03  0.79859129238E+03 0.  0.
         22    1    5    5    0    0  0.37130854186E+02 -0.38319560512E+03 -0.11790609206E+03  0.40264055765E+03  0.00000000000E+00 0.  1.
         22    1    5    5    0    0 -0.16650757548E+03  0.37281537100E+03  0.39524060991E+02  0.41021728991E+03  0.00000000000E+00 0.  1.
          5    1    4    4  502    0  0.53544914498E-01  0.42764347377E+02 -0.39021433219E+02  0.58082308185E+02  0.47000000000E+01 0. -1.
         -5    1    4    4    0  502  0.12932317638E+03 -0.32384113251E+02 -0.49979086413E+02  0.14245425167E+03  0.47000000000E+01 0. -1.
<mgrwt>
<rscale>  0 0.99947552E+03</rscale>
<asrwt>0</asrwt>
<pdfrwt beam="1">  1        1 0.65077835E-01 0.99947552E+03</pdfrwt>
<pdfrwt beam="2">  1       -1 0.90828998E-01 0.99947552E+03</pdfrwt>
<totfact> 0.78474130E+01</totfact>
</mgrwt>
</event>
<event>
 9    1  0.4236486E-036  0.9951144E+03  0.7818608E-02  0.8685704E-01
          2   -1    0    0  501    0  0.00000000000E+00  0.00000000000E+00  0.13883282410E+04  0.13883282410E+04  0.00000000000E+00 0. -1.
         -2   -1    0    0    0  501 -0.00000000000E+00 -0.00000000000E+00 -0.17831747466E+03  0.17831747466E+03  0.00000000000E+00 0. -1.
         36    2    1    2    0    0 -0.71054273576E-14  0.49737991503E-13  0.12100107663E+04  0.15666457156E+04  0.99511443749E+03 0.  0.
         25    2    3    3    0    0 -0.61364349077E+02  0.33377714567E+02  0.42089370265E+02  0.14930700991E+03  0.12506563457E+03 0.  0.
         35    2    3    3    0    0  0.61364349077E+02 -0.33377714567E+02  0.11679213960E+04  0.14173387057E+04  0.79995560141E+03 0.  0.
         22    1    5    5    0    0 -0.66745129263E+02 -0.37953672111E+03  0.35247807426E+03  0.52224881789E+03  0.00000000000E+00 0. -1.
         22    1    5    5    0    0  0.12810947834E+03  0.34615900655E+03  0.81544332179E+03  0.89508988784E+03  0.00000000000E+00 0. -1.
          5    1    4    4  502    0  0.23253427171E+01  0.46858861669E+02 -0.26940660748E+02  0.54305150190E+02  0.47000000000E+01 0. -1.
         -5    1    4    4    0  502 -0.63689691794E+02 -0.13481147102E+02  0.69030031013E+02  0.95001859717E+02  0.47000000000E+01 0. -1.
<mgrwt>
<rscale>  0 0.99511444E+03</rscale>
<asrwt>0</asrwt>
<pdfrwt beam="1">  1        2 0.21358895E+00 0.99511444E+03</pdfrwt>
<pdfrwt beam="2">  1       -2 0.27433459E-01 0.99511444E+03</pdfrwt>
<totfact> 0.21313193E+02</totfact>
</mgrwt>
</event>
<event>
 9    1  0.4236486E-036  0.1000920E+04  0.7818608E-02  0.8680162E-01
          2   -1    0    0  501    0  0.00000000000E+00  0.00000000000E+00  0.13932584408E+04  0.13932584408E+04  0.00000000000E+00 0.  1.
         -2   -1    0    0    0  501 -0.00000000000E+00 -0.00000000000E+00 -0.17976573155E+03  0.17976573155E+03  0.00000000000E+00 0.  1.
         36    2    1    2    0    0  0.71054273576E-14  0.00000000000E+00  0.12134927092E+04  0.15730241723E+04  0.10009198226E+04 0.  0.
         25    2    3    3    0    0 -0.38169369557E+02 -0.71413362337E+02  0.41275026677E+03  0.43882046992E+03  0.12507538929E+03 0.  0.
         35    2    3    3    0    0  0.38169369557E+02  0.71413362337E+02  0.80074244244E+03  0.11342037024E+04  0.79917007595E+03 0.  0.
         22    1    5    5    0    0  0.41458043256E+03  0.64977213430E+02  0.34628887808E+03  0.54407256906E+03  0.00000000000E+00 0.  1.
         22    1    5    5    0    0 -0.37641106300E+03  0.64361489067E+01  0.45445356437E+03  0.59013113333E+03  0.00000000000E+00 0.  1.
          5    1    4    4  502    0 -0.12364572194E+02 -0.41757042472E+02  0.27886625071E+02  0.51925784533E+02  0.47000000000E+01 0. -1.
         -5    1    4    4    0  502 -0.25804797363E+02 -0.29656319865E+02  0.38486364170E+03  0.38689468538E+03  0.47000000000E+01 0. -1.
<mgrwt>
<rscale>  0 0.10009198E+04</rscale>
<asrwt>0</asrwt>
<pdfrwt beam="1">  1        2 0.21434745E+00 0.10009198E+04</pdfrwt>
<pdfrwt beam="2">  1       -2 0.27656267E-01 0.10009198E+04</pdfrwt>
<totfact> 0.20868635E+02</totfact>
</mgrwt>
</event>
<event>
 9    1  0.4236486E-036  0.9998262E+03  0.7818608E-02  0.8681204E-01
         -1   -1    0    0    0  501 -0.00000000000E+00  0.00000000000E+00  0.21534583244E+03  0.21534583244E+03  0.00000000000E+00 0.  1.
          1   -1    0    0  501    0  0.00000000000E+00 -0.00000000000E+00 -0.11605197651E+04  0.11605197651E+04  0.00000000000E+00 0.  1.
         36    2    1    2    0    0  0.00000000000E+00 -0.28421709430E-13 -0.94517393266E+03  0.13758655975E+04  0.99982617466E+03 0.  0.
         25    2    3    3    0    0 -0.75959595677E+02 -0.67363315317E+02 -0.43995469060E+02  0.16696138209E+03  0.12503129763E+03 0.  0.
         35    2    3    3    0    0  0.75959595677E+02  0.67363315317E+02 -0.90117846360E+03  0.12089042155E+04  0.79938670395E+03 0.  0.
         22    1    5    5    0    0  0.23630096322E+03  0.14342608098E+03  0.13904227472E+02  0.27677159079E+03  0.00000000000E+00 0.  1.
         22    1    5    5    0    0 -0.16034136754E+03 -0.76062765663E+02 -0.91508269107E+03  0.93213262466E+03  0.00000000000E+00 0.  1.
          5    1    4    4  502    0 -0.10229207742E+03 -0.50324922250E+02 -0.17181497779E+01  0.11411095013E+03  0.47000000000E+01 0. -1.
         -5    1    4    4    0  502  0.26332481739E+02 -0.17038393067E+02 -0.42277319282E+02  0.52850431962E+02  0.47000000000E+01 0. -1.
<mgrwt>
<rscale>  0 0.99982617E+03</rscale>
<asrwt>0</asrwt>
<pdfrwt beam="1">  1        1 0.17854150E+00 0.99982617E+03</pdfrwt>
<pdfrwt beam="2">  1       -1 0.33130129E-01 0.99982617E+03</pdfrwt>
<totfact> 0.10813883E+02</totfact>
</mgrwt>
</event>
<event>
 9    1  0.4236486E-036  0.1004602E+04  0.7818608E-02  0.8676668E-01
         -1   -1    0    0    0  501 -0.00000000000E+00  0.00000000000E+00  0.45213403280E+03  0.45213403280E+03  0.00000000000E+00 0.  1.
          1   -1    0    0  501    0  0.00000000000E+00 -0.00000000000E+00 -0.55803452048E+03  0.55803452048E+03  0.00000000000E+00 0.  1.
         36    2    1    2    0    0  0.14210854715E-13 -0.14210854715E-13 -0.10590048768E+03  0.10101685533E+04  0.10046022062E+04 0.  0.
         25    2    3    3    0    0 -0.35944956417E+02 -0.61446675758E+02  0.10565129669E+03  0.17899611239E+03  0.12573654164E+03 0.  0.
         35    2    3    3    0    0  0.35944956417E+02  0.61446675758E+02 -0.21155178437E+03  0.83117244089E+03  0.80064082782E+03 0.  0.
         22    1    5    5    0    0  0.23501561365E+03 -0.27680373582E+03  0.39512357733E+02  0.36525863883E+03  0.00000000000E+00 0. -1.
         22    1    5    5    0    0 -0.19907065723E+03  0.33825041158E+03 -0.25106414210E+03  0.46591380207E+03  0.00000000000E+00 0. -1.
          5    1    4    4  502    0 -0.79498833881E+02 -0.54624828687E+02  0.89919972281E+02  0.13195312771E+03  0.47000000000E+01 0.  1.
         -5    1    4    4    0  502  0.43553877464E+02 -0.68218470712E+01  0.15731324411E+02  0.47042984678E+02  0.47000000000E+01 0.  1.
<mgrwt>
<rscale>  0 0.10046022E+04</rscale>
<asrwt>0</asrwt>
<pdfrwt beam="1">  1        1 0.85851464E-01 0.10046022E+04</pdfrwt>
<pdfrwt beam="2">  1       -1 0.69559082E-01 0.10046022E+04</pdfrwt>
<totfact> 0.93015205E+01</totfact>
</mgrwt>
</event>
<event>
 9    1  0.4236486E-036  0.1000384E+04  0.7818608E-02  0.8680672E-01
          2   -1    0    0  501    0  0.00000000000E+00  0.00000000000E+00  0.69555183306E+03  0.69555183306E+03  0.00000000000E+00 0.  1.
         -2   -1    0    0    0  501 -0.00000000000E+00 -0.00000000000E+00 -0.35970320525E+03  0.35970320525E+03  0.00000000000E+00 0.  1.
         36    2    1    2    0    0  0.00000000000E+00  0.00000000000E+00  0.33584862781E+03  0.10552550383E+04  0.10003843737E+04 0.  0.
         25    2    3    3    0    0  0.12391614531E+03  0.14897627241E+02  0.11463897107E+03  0.21079621983E+03  0.12536268281E+03 0.  0.
         35    2    3    3    0    0 -0.12391614531E+03 -0.14897627241E+02  0.22120965674E+03  0.84445881848E+03  0.80535696030E+03 0.  0.
         22    1    5    5    0    0 -0.64426169844E+02 -0.17110742254E+03 -0.26972217040E+03  0.32585047278E+03  0.00000000000E+00 0. -1.
         22    1    5    5    0    0 -0.59489975469E+02  0.15620979530E+03  0.49093182714E+03  0.51860834569E+03  0.00000000000E+00 0. -1.
          5    1    4    4  502    0  0.15948529348E+02 -0.47884110239E+02  0.44659697678E+02  0.67556067074E+02  0.47000000000E+01 0. -1.
         -5    1    4    4    0  502  0.10796761596E+03  0.62781737481E+02  0.69979273394E+02  0.14324015276E+03  0.47000000000E+01 0. -1.
<mgrwt>
<rscale>  0 0.10003844E+04</rscale>
<asrwt>0</asrwt>
<pdfrwt beam="1">  1        2 0.10700797E+00 0.10003844E+04</pdfrwt>
<pdfrwt beam="2">  1       -2 0.55338955E-01 0.10003844E+04</pdfrwt>
<totfact> 0.15343826E+02</totfact>
</mgrwt>
</event>
<event>
 9    1  0.4236486E-036  0.9997462E+03  0.7818608E-02  0.8681280E-01
         -2   -1    0    0    0  501 -0.00000000000E+00  0.00000000000E+00  0.95042417384E+02  0.95042417384E+02  0.00000000000E+00 0. -1.
          2   -1    0    0  501    0  0.00000000000E+00 -0.00000000000E+00 -0.26290696444E+04  0.26290696444E+04  0.00000000000E+00 0. -1.
         36    2    1    2    0    0 -0.10658141036E-13 -0.28421709430E-13 -0.25340272270E+04  0.27241120618E+04  0.99974623675E+03 0.  0.
         25    2    3    3    0    0  0.17861579081E+02 -0.69804639955E+02 -0.79894550177E+03  0.81203799849E+03  0.12609548934E+03 0.  0.
         35    2    3    3    0    0 -0.17861579081E+02  0.69804639955E+02 -0.17350817252E+04  0.19120740633E+04  0.80020429045E+03 0.  0.
         22    1    5    5    0    0  0.10014353591E+03  0.41410479845E+03 -0.11070603997E+04  0.11862100322E+04  0.00000000000E+00 0. -1.
         22    1    5    5    0    0 -0.11800511499E+03 -0.34430015850E+03 -0.62802132553E+03  0.72586403109E+03  0.00000000000E+00 0. -1.
          5    1    4    4  502    0  0.46469682843E+02 -0.17936412592E+02 -0.64631749102E+03  0.64825113615E+03  0.47000000000E+01 0. -1.
         -5    1    4    4    0  502 -0.28608103762E+02 -0.51868227363E+02 -0.15262801074E+03  0.16378686234E+03  0.47000000000E+01 0. -1.
<mgrwt>
<rscale>  0 0.99974624E+03</rscale>
<asrwt>0</asrwt>
<pdfrwt beam="1">  1        2 0.40447229E+00 0.99974624E+03</pdfrwt>
<pdfrwt beam="2">  1       -2 0.14621909E-01 0.99974624E+03</pdfrwt>
<totfact> 0.12105043E+02</totfact>
</mgrwt>
</event>
<event>
 9    1  0.4236486E-036  0.9999606E+03  0.7818608E-02  0.8681075E-01
         -2   -1    0    0    0  501 -0.00000000000E+00  0.00000000000E+00  0.17237668784E+03  0.17237668784E+03  0.00000000000E+00 0. -1.
          2   -1    0    0  501    0  0.00000000000E+00 -0.00000000000E+00 -0.14501979567E+04  0.14501979567E+04  0.00000000000E+00 0. -1.
         36    2    1    2    0    0  0.14210854715E-13  0.00000000000E+00 -0.12778212689E+04  0.16225746445E+04  0.99996064020E+03 0.  0.
         25    2    3    3    0    0 -0.52432724623E+02  0.11266767305E+03 -0.32899107307E+03  0.37275517886E+03  0.12356416167E+03 0.  0.
         35    2    3    3    0    0  0.52432724623E+02 -0.11266767305E+03 -0.94883019580E+03  0.12498194657E+04  0.80394450131E+03 0.  0.
         22    1    5    5    0    0  0.27475944784E+03  0.20348362016E+03 -0.17329974380E+03  0.38331597808E+03  0.00000000000E+00 0.  1.
         22    1    5    5    0    0 -0.22232672321E+03 -0.31615129321E+03 -0.77553045199E+03  0.86650348760E+03  0.00000000000E+00 0.  1.
          5    1    4    4  502    0 -0.63363287661E+02  0.27759758153E+02 -0.64440552377E+02  0.94658254719E+02  0.47000000000E+01 0.  1.
         -5    1    4    4    0  502  0.10930563038E+02  0.84907914895E+02 -0.26455052069E+03  0.27809692414E+03  0.47000000000E+01 0.  1.
<mgrwt>
<rscale>  0 0.99996064E+03</rscale>
<asrwt>0</asrwt>
<pdfrwt beam="1">  1        2 0.22310737E+00 0.99996064E+03</pdfrwt>
<pdfrwt beam="2">  1       -2 0.26519491E-01 0.99996064E+03</pdfrwt>
<totfact> 0.20880368E+02</totfact>
</mgrwt>
</event>
<event>
 9    1  0.4236486E-036  0.9997595E+03  0.7818608E-02  0.8681267E-01
         -2   -1    0    0    0  501 -0.00000000000E+00  0.00000000000E+00  0.46300823866E+04  0.46300823866E+04  0.00000000000E+00 0.  1.
          2   -1    0    0  501    0  0.00000000000E+00 -0.00000000000E+00 -0.53968746834E+02  0.53968746834E+02  0.00000000000E+00 0.  1.
         36    2    1    2    0    0  0.14210854715E-13  0.28421709430E-13  0.45761136398E+04  0.46840511335E+04  0.99975945936E+03 0.  0.
         25    2    3    3    0    0 -0.71182006729E+02  0.10579586805E+03  0.60370866564E+03  0.62970540579E+03  0.12571834132E+03 0.  0.
         35    2    3    3    0    0  0.71182006729E+02 -0.10579586805E+03  0.39724049742E+04  0.40543457277E+04  0.80091095445E+03 0.  0.
         22    1    5    5    0    0 -0.64357782669E+02  0.21704069768E+03  0.31798049270E+04  0.31878531903E+04  0.00000000000E+00 0.  1.
         22    1    5    5    0    0  0.13553978940E+03 -0.32283656574E+03  0.79260004713E+03  0.86649253741E+03  0.00000000000E+00 0.  1.
          5    1    4    4  502    0 -0.77168162002E+02  0.64123773144E+02  0.20024918336E+03  0.22402814320E+03  0.47000000000E+01 0.  1.
         -5    1    4    4    0  502  0.59861552726E+01  0.41672094911E+02  0.40345948228E+03  0.40567726260E+03  0.47000000000E+01 0.  1.
<mgrwt>
<rscale>  0 0.99975946E+03</rscale>
<asrwt>0</asrwt>
<pdfrwt beam="1">  1        2 0.83028878E-02 0.99975946E+03</pdfrwt>
<pdfrwt beam="2">  1       -2 0.71232005E+00 0.99975946E+03</pdfrwt>
<totfact> 0.10252002E-01</totfact>
</mgrwt>
</event>
<event>
 9    1  0.4236486E-036  0.1000022E+04  0.7818608E-02  0.8681017E-01
          2   -1    0    0  501    0  0.00000000000E+00  0.00000000000E+00  0.20213386553E+04  0.20213386553E+04  0.00000000000E+00 0. -1.
         -2   -1    0    0    0  501 -0.00000000000E+00 -0.00000000000E+00 -0.12368582357E+03  0.12368582357E+03  0.00000000000E+00 0. -1.
         36    2    1    2    0    0 -0.35527136788E-13 -0.21316282073E-13  0.18976528317E+04  0.21450244788E+04  0.10000218723E+04 0.  0.
         25    2    3    3    0    0 -0.13578126910E+02  0.55080801226E+02  0.75622710685E+02  0.15661511813E+03  0.12486488962E+03 0.  0.
         35    2    3    3    0    0  0.13578126910E+02 -0.55080801226E+02  0.18220301210E+04  0.19884093607E+04  0.79420385524E+03 0.  0.
         22    1    5    5    0    0  0.29572677496E+03 -0.26705211820E+03  0.63172707457E+03  0.74689373810E+03  0.00000000000E+00 0. -1.
         22    1    5    5    0    0 -0.28214864805E+03  0.21197131697E+03  0.11903030464E+04  0.12415156226E+04  0.00000000000E+00 0. -1.
          5    1    4    4  502    0 -0.26012610893E+02  0.39447739678E+01 -0.28981942781E+02  0.39424106515E+02  0.47000000000E+01 0. -1.
         -5    1    4    4    0  502  0.12434483983E+02  0.51136027258E+02  0.10460465347E+03  0.11719101161E+03  0.47000000000E+01 0. -1.
<mgrwt>
<rscale>  0 0.10000219E+04</rscale>
<asrwt>0</asrwt>
<pdfrwt beam="1">  1        2 0.31097515E+00 0.10000219E+04</pdfrwt>
<pdfrwt beam="2">  1       -2 0.19028590E-01 0.10000219E+04</pdfrwt>
<totfact> 0.17762155E+02</totfact>
</mgrwt>
</event>
<event>
 9    1  0.4236486E-036  0.9999559E+03  0.7818608E-02  0.8681080E-01
         -1   -1    0    0    0  501 -0.00000000000E+00  0.00000000000E+00  0.42572139860E+03  0.42572139860E+03  0.00000000000E+00 0. -1.
          1   -1    0    0  501    0  0.00000000000E+00 -0.00000000000E+00 -0.58718671309E+03  0.58718671309E+03  0.00000000000E+00 0. -1.
         36    2    1    2    0    0  0.00000000000E+00  0.00000000000E+00 -0.16146531449E+03  0.10129081117E+04  0.99995589650E+03 0.  0.
         25    2    3    3    0    0 -0.29528787000E+02 -0.13322997229E+03 -0.32872655009E+02  0.18810656502E+03  0.12522497187E+03 0.  0.
         35    2    3    3    0    0  0.29528787000E+02  0.13322997229E+03 -0.12859265948E+03  0.82480154667E+03  0.80320566764E+03 0.  0.
         22    1    5    5    0    0  0.12906905848E+03  0.10180732455E+03  0.32239760762E+03  0.36188916893E+03  0.00000000000E+00 0. -1.
         22    1    5    5    0    0 -0.99540271476E+02  0.31422647736E+02 -0.45099026710E+03  0.46291237773E+03  0.00000000000E+00 0. -1.
          5    1    4    4  502    0 -0.27635494493E+02 -0.52765172780E+02 -0.75998182102E+02  0.96673148791E+02  0.47000000000E+01 0.  1.
         -5    1    4    4    0  502 -0.18932925073E+01 -0.80464799511E+02  0.43125527093E+02  0.91433416232E+02  0.47000000000E+01 0.  1.
<mgrwt>
<rscale>  0 0.99995590E+03</rscale>
<asrwt>0</asrwt>
<pdfrwt beam="1">  1        1 0.90336418E-01 0.99995590E+03</pdfrwt>
<pdfrwt beam="2">  1       -1 0.65495600E-01 0.99995590E+03</pdfrwt>
<totfact> 0.97346699E+01</totfact>
</mgrwt>
</event>
<event>
 9    1  0.4236486E-036  0.1000383E+04  0.7818608E-02  0.8680673E-01
          1   -1    0    0  501    0  0.00000000000E+00  0.00000000000E+00  0.16722375340E+03  0.16722375340E+03  0.00000000000E+00 0. -1.
         -1   -1    0    0    0  501 -0.00000000000E+00 -0.00000000000E+00 -0.14961480098E+04  0.14961480098E+04  0.00000000000E+00 0. -1.
         36    2    1    2    0    0  0.00000000000E+00  0.14210854715E-13 -0.13289242564E+04  0.16633717631E+04  0.10003828983E+04 0.  0.
         25    2    3    3    0    0  0.28112948946E+02  0.81921085830E+02 -0.65254873096E+02  0.16547524239E+03  0.12498982031E+03 0.  0.
         35    2    3    3    0    0 -0.28112948946E+02 -0.81921085830E+02 -0.12636693833E+04  0.14978965208E+04  0.79958256265E+03 0.  0.
         22    1    5    5    0    0 -0.33171041501E+02  0.34061341548E+03 -0.80240090999E+03  0.87233309988E+03  0.00000000000E+00 0. -1.
         22    1    5    5    0    0  0.50580925552E+01 -0.42253450131E+03 -0.46126847327E+03  0.62556342087E+03  0.00000000000E+00 0. -1.
          5    1    4    4  502    0 -0.43459146827E+02  0.51373732922E+02 -0.54615704224E+02  0.86792413408E+02  0.47000000000E+01 0. -1.
         -5    1    4    4    0  502  0.71572095773E+02  0.30547352909E+02 -0.10639168871E+02  0.78682828987E+02  0.47000000000E+01 0. -1.
<mgrwt>
<rscale>  0 0.10003829E+04</rscale>
<asrwt>0</asrwt>
<pdfrwt beam="1">  1        1 0.25726732E-01 0.10003829E+04</pdfrwt>
<pdfrwt beam="2">  1       -1 0.23017661E+00 0.10003829E+04</pdfrwt>
<totfact> 0.16024161E+01</totfact>
</mgrwt>
</event>
<event>
 9    1  0.4236486E-036  0.1000992E+04  0.7818608E-02  0.8680094E-01
         -2   -1    0    0    0  501 -0.00000000000E+00  0.00000000000E+00  0.16106213690E+03  0.16106213690E+03  0.00000000000E+00 0.  1.
          2   -1    0    0  501    0  0.00000000000E+00 -0.00000000000E+00 -0.15552767781E+04  0.15552767781E+04  0.00000000000E+00 0.  1.
         36    2    1    2    0    0  0.28421709430E-13 -0.35527136788E-14 -0.13942146412E+04  0.17163389150E+04  0.10009919107E+04 0.  0.
         25    2    3    3    0    0  0.74233855090E+02 -0.25984011509E+02 -0.60181768097E+02  0.15875111241E+03  0.12407351201E+03 0.  0.
         35    2    3    3    0    0 -0.74233855090E+02  0.25984011509E+02 -0.13340328731E+04  0.15575878026E+04  0.80015637357E+03 0.  0.
         22    1    5    5    0    0 -0.43715788477E+03  0.51556725962E+02 -0.73159485058E+03  0.85381270640E+03  0.00000000000E+00 0. -1.
         22    1    5    5    0    0  0.36292402968E+03 -0.25572714453E+02 -0.60243802248E+03  0.70377509616E+03  0.00000000000E+00 0. -1.
          5    1    4    4  502    0 -0.42207508162E+01  0.19384554505E+02  0.26378468542E+02  0.33339005585E+02  0.47000000000E+01 0.  1.
         -5    1    4    4    0  502  0.78454605906E+02 -0.45368566014E+02 -0.86560236639E+02  0.12541210682E+03  0.47000000000E+01 0.  1.
<mgrwt>
<rscale>  0 0.10009919E+04</rscale>
<asrwt>0</asrwt>
<pdfrwt beam="1">  1        2 0.23927335E+00 0.10009919E+04</pdfrwt>
<pdfrwt beam="2">  1       -2 0.24778791E-01 0.10009919E+04</pdfrwt>
<totfact> 0.20545629E+02</totfact>
</mgrwt>
</event>
<event>
 9    1  0.4236486E-036  0.1000060E+04  0.7818608E-02  0.8680981E-01
          1   -1    0    0  501    0  0.00000000000E+00  0.00000000000E+00  0.20405018547E+04  0.20405018547E+04  0.00000000000E+00 0. -1.
         -1   -1    0    0    0  501 -0.00000000000E+00 -0.00000000000E+00 -0.12253355258E+03  0.12253355258E+03  0.00000000000E+00 0. -1.
         36    2    1    2    0    0  0.00000000000E+00 -0.42632564146E-13  0.19179683021E+04  0.21630354073E+04  0.10000598808E+04 0.  0.
         25    2    3    3    0    0  0.10956777887E+03  0.46078601130E+02  0.48730499229E+03  0.51687171592E+03  0.12474726270E+03 0.  0.
         35    2    3    3    0    0 -0.10956777887E+03 -0.46078601130E+02  0.14306633098E+04  0.16461636914E+04  0.80556133041E+03 0.  0.
         22    1    5    5    0    0  0.10122272935E+03  0.25389964755E+03  0.14533855247E+03  0.30957126287E+03  0.00000000000E+00 0.  1.
         22    1    5    5    0    0 -0.21079050822E+03 -0.29997824868E+03  0.12853247574E+04  0.13365924285E+04  0.00000000000E+00 0.  1.
          5    1    4    4  502    0  0.78456126942E+02 -0.11646735135E+02  0.39869996101E+03  0.40653998475E+03  0.47000000000E+01 0. -1.
         -5    1    4    4    0  502  0.31111651928E+02  0.57725336265E+02  0.88605031282E+02  0.11033173116E+03  0.47000000000E+01 0. -1.
<mgrwt>
<rscale>  0 0.10000599E+04</rscale>
<asrwt>0</asrwt>
<pdfrwt beam="1">  1        1 0.31392334E+00 0.10000599E+04</pdfrwt>
<pdfrwt beam="2">  1       -1 0.18851317E-01 0.10000599E+04</pdfrwt>
<totfact> 0.65775189E+01</totfact>
</mgrwt>
</event>
<event>
 9    1  0.4236486E-036  0.1002283E+04  0.7818608E-02  0.8678867E-01
          2   -1    0    0  501    0  0.00000000000E+00  0.00000000000E+00  0.47672247167E+03  0.47672247167E+03  0.00000000000E+00 0.  1.
         -2   -1    0    0    0  501 -0.00000000000E+00 -0.00000000000E+00 -0.52681172873E+03  0.52681172873E+03  0.00000000000E+00 0.  1.
         36    2    1    2    0    0 -0.14210854715E-13  0.00000000000E+00 -0.50089257064E+02  0.10035342004E+04  0.10022833720E+04 0.  0.
         25    2    3    3    0    0 -0.10459777151E+03  0.95082180895E+02 -0.23575043916E+02  0.19049371049E+03  0.12550201636E+03 0.  0.
         35    2    3    3    0    0  0.10459777151E+03 -0.95082180895E+02 -0.26514213148E+02  0.81304048992E+03  0.80021904490E+03 0.  0.
         22    1    5    5    0    0 -0.26783049180E+03  0.14765921744E+03 -0.16488386162E+03  0.34745230558E+03  0.00000000000E+00 0.  1.
         22    1    5    5    0    0  0.37242826331E+03 -0.24274139833E+03  0.13836964847E+03  0.46558818434E+03  0.00000000000E+00 0.  1.
          5    1    4    4  502    0 -0.52018912735E+02  0.73470153693E+02  0.45446679844E+02  0.10095207514E+03  0.47000000000E+01 0. -1.
         -5    1    4    4    0  502 -0.52578858777E+02  0.21612027202E+02 -0.69021723760E+02  0.89541635349E+02  0.47000000000E+01 0. -1.
<mgrwt>
<rscale>  0 0.10022834E+04</rscale>
<asrwt>0</asrwt>
<pdfrwt beam="1">  1        2 0.73341919E-01 0.10022834E+04</pdfrwt>
<pdfrwt beam="2">  1       -2 0.81047958E-01 0.10022834E+04</pdfrwt>
<totfact> 0.10515919E+02</totfact>
</mgrwt>
</event>
<event>
 9    1  0.4236486E-036  0.1000522E+04  0.7818608E-02  0.8680541E-01
         -1   -1    0    0    0  501 -0.00000000000E+00  0.00000000000E+00  0.26413291771E+03  0.26413291771E+03  0.00000000000E+00 0.  1.
          1   -1    0    0  501    0  0.00000000000E+00 -0.00000000000E+00 -0.94748186662E+03  0.94748186662E+03  0.00000000000E+00 0.  1.
         36    2    1    2    0    0  0.00000000000E+00  0.00000000000E+00 -0.68334894891E+03  0.12116147843E+04  0.10005221635E+04 0.  0.
         25    2    3    3    0    0  0.42167510608E+02  0.30112136776E+02  0.29885684951E+02  0.13902194905E+03  0.12549545179E+03 0.  0.
         35    2    3    3    0    0 -0.42167510608E+02 -0.30112136776E+02 -0.71323463386E+03  0.10725928353E+04  0.79941660456E+03 0.  0.
         22    1    5    5    0    0  0.37016401250E+03 -0.23936946694E+02 -0.45078825634E+03  0.58378457125E+03  0.00000000000E+00 0.  1.
         22    1    5    5    0    0 -0.41233152311E+03 -0.61751900816E+01 -0.26244637751E+03  0.48880826404E+03  0.00000000000E+00 0.  1.
          5    1    4    4  502    0  0.32993914729E+02  0.78966703883E+02  0.15940351344E+02  0.87180981482E+02  0.47000000000E+01 0.  1.
         -5    1    4    4    0  502  0.91735958787E+01 -0.48854567107E+02  0.13945333608E+02  0.51840967564E+02  0.47000000000E+01 0.  1.
<mgrwt>
<rscale>  0 0.10005222E+04</rscale>
<asrwt>0</asrwt>
<pdfrwt beam="1">  1        1 0.14576644E+00 0.10005222E+04</pdfrwt>
<pdfrwt beam="2">  1       -1 0.40635833E-01 0.10005222E+04</pdfrwt>
<totfact> 0.11075425E+02</totfact>
</mgrwt>
</event>
<event>
 9    1  0.4236486E-036  0.1000312E+04  0.7818608E-02  0.8680741E-01
          1   -1    0    0  501    0  0.00000000000E+00  0.00000000000E+00  0.71174734886E+03  0.71174734886E+03  0.00000000000E+00 0.  1.
         -1   -1    0    0    0  501 -0.00000000000E+00 -0.00000000000E+00 -0.35146721784E+03  0.35146721784E+03  0.00000000000E+00 0.  1.
         36    2    1    2    0    0 -0.14210854715E-13 -0.10658141036E-13  0.36028013102E+03  0.10632145667E+04  0.10003116724E+04 0.  0.
         25    2    3    3    0    0  0.11299146431E+03 -0.17966400771E+01  0.15322543213E+03  0.22885390018E+03  0.12698730509E+03 0.  0.
         35    2    3    3    0    0 -0.11299146431E+03  0.17966400771E+01  0.20705469889E+03  0.83436066652E+03  0.80032229419E+03 0.  0.
         22    1    5    5    0    0  0.25921027662E+03  0.13500127386E+03 -0.12521137715E+03  0.31795156929E+03  0.00000000000E+00 0.  1.
         22    1    5    5    0    0 -0.37220174093E+03 -0.13320463379E+03  0.33226607604E+03  0.51640909723E+03  0.00000000000E+00 0.  1.
          5    1    4    4  502    0  0.86813410820E+02 -0.26905634855E+02  0.23392150794E+02  0.93966825018E+02  0.47000000000E+01 0.  1.
         -5    1    4    4    0  502  0.26178053492E+02  0.25108994778E+02  0.12983328133E+03  0.13488707516E+03  0.47000000000E+01 0.  1.
<mgrwt>
<rscale>  0 0.10003117E+04</rscale>
<asrwt>0</asrwt>
<pdfrwt beam="1">  1        1 0.10949959E+00 0.10003117E+04</pdfrwt>
<pdfrwt beam="2">  1       -1 0.54071880E-01 0.10003117E+04</pdfrwt>
<totfact> 0.10536917E+02</totfact>
</mgrwt>
</event>
<event>
 9    1  0.4236486E-036  0.1001232E+04  0.7818608E-02  0.8679865E-01
          1   -1    0    0  501    0  0.00000000000E+00  0.00000000000E+00  0.11403725126E+04  0.11403725126E+04  0.00000000000E+00 0. -1.
         -1   -1    0    0    0  501 -0.00000000000E+00 -0.00000000000E+00 -0.21976717134E+03  0.21976717134E+03  0.00000000000E+00 0. -1.
         36    2    1    2    0    0 -0.35527136788E-13  0.00000000000E+00  0.92060534125E+03  0.13601396839E+04  0.10012321237E+04 0.  0.
         25    2    3    3    0    0 -0.27904955734E+02 -0.13804802485E+03  0.15558680155E+03  0.24446628740E+03  0.12538169379E+03 0.  0.
         35    2    3    3    0    0  0.27904955734E+02  0.13804802485E+03  0.76501853970E+03  0.11156733965E+04  0.79977360418E+03 0.  0.
         22    1    5    5    0    0 -0.25777174397E+03 -0.20173146108E+03  0.50321873846E+03  0.60030904800E+03  0.00000000000E+00 0. -1.
         22    1    5    5    0    0  0.28567669970E+03  0.33977948593E+03  0.26179980124E+03  0.51536434854E+03  0.00000000000E+00 0. -1.
          5    1    4    4  502    0 -0.56722278012E+02 -0.14485287938E+03  0.14487979493E+03  0.21263117943E+03  0.47000000000E+01 0. -1.
         -5    1    4    4    0  502  0.28817322277E+02  0.68048545271E+01  0.10707006614E+02  0.31835107963E+02  0.47000000000E+01 0. -1.
<mgrwt>
<rscale>  0 0.10012321E+04</rscale>
<asrwt>0</asrwt>
<pdfrwt beam="1">  1        1 0.17544192E+00 0.10012321E+04</pdfrwt>
<pdfrwt beam="2">  1       -1 0.33810335E-01 0.10012321E+04</pdfrwt>
<totfact> 0.10810779E+02</totfact>
</mgrwt>
</event>
<event>
 9    1  0.4236486E-036  0.9986791E+03  0.7818608E-02  0.8682297E-01
         -2   -1    0    0    0  501 -0.00000000000E+00  0.00000000000E+00  0.56152313714E+03  0.56152313714E+03  0.00000000000E+00 0. -1.
          2   -1    0    0  501    0  0.00000000000E+00 -0.00000000000E+00 -0.44404221402E+03  0.44404221402E+03  0.00000000000E+00 0. -1.
         36    2    1    2    0    0 -0.71054273576E-14  0.10658141036E-13  0.11748092312E+03  0.10055653512E+04  0.99867908166E+03 0.  0.
         25    2    3    3    0    0  0.19044614156E+02  0.11569374038E+02 -0.11631648996E+03  0.17288552004E+03  0.12594971004E+03 0.  0.
         35    2    3    3    0    0 -0.19044614156E+02 -0.11569374038E+02  0.23379741307E+03  0.83267983112E+03  0.79887290794E+03 0.  0.
         22    1    5    5    0    0 -0.23357272045E+03  0.22738116581E+03  0.36179775342E+03  0.48698667814E+03  0.00000000000E+00 0.  1.
         22    1    5    5    0    0  0.21452810629E+03 -0.23895053985E+03 -0.12800034035E+03  0.34569315298E+03  0.00000000000E+00 0.  1.
          5    1    4    4  502    0  0.38333500178E+02 -0.29666393749E+02 -0.87969970878E+00  0.48707453491E+02  0.47000000000E+01 0.  1.
         -5    1    4    4    0  502 -0.19288886022E+02  0.41235767787E+02 -0.11543679025E+03  0.12417806655E+03  0.47000000000E+01 0.  1.
<mgrwt>
<rscale>  0 0.99867908E+03</rscale>
<asrwt>0</asrwt>
<pdfrwt beam="1">  1        2 0.68314187E-01 0.99867908E+03</pdfrwt>
<pdfrwt beam="2">  1       -2 0.86388175E-01 0.99867908E+03</pdfrwt>
<totfact> 0.98236001E+01</totfact>
</mgrwt>
</event>
<event>
 9    1  0.4236486E-036  0.9981208E+03  0.7818608E-02  0.8682830E-01
          1   -1    0    0  501    0  0.00000000000E+00  0.00000000000E+00  0.11308548270E+04  0.11308548270E+04  0.00000000000E+00 0.  1.
         -1   -1    0    0    0  501 -0.00000000000E+00 -0.00000000000E+00 -0.22024160667E+03  0.22024160667E+03  0.00000000000E+00 0.  1.
         36    2    1    2    0    0  0.71054273576E-14  0.28421709430E-13  0.91061322031E+03  0.13510964336E+04  0.99812080231E+03 0.  0.
         25    2    3    3    0    0  0.46448179320E+02  0.13246773921E+03  0.17165291076E+03  0.25340370066E+03  0.12265226635E+03 0.  0.
         35    2    3    3    0    0 -0.46448179320E+02 -0.13246773921E+03  0.73896030955E+03  0.10976927330E+04  0.79947599193E+03 0.  0.
         22    1    5    5    0    0 -0.14527463116E+03 -0.39045361121E+03  0.70561427825E+03  0.81942067989E+03  0.00000000000E+00 0. -1.
         22    1    5    5    0    0  0.98826451838E+02  0.25798587199E+03  0.33346031298E+02  0.27827205310E+03  0.00000000000E+00 0. -1.
          5    1    4    4  502    0  0.31068044935E+01  0.97551343269E+01 -0.19255396041E+02  0.22308634126E+02  0.47000000000E+01 0.  1.
         -5    1    4    4    0  502  0.43341374826E+02  0.12271260489E+03  0.19090830681E+03  0.23109506654E+03  0.47000000000E+01 0.  1.
<mgrwt>
<rscale>  0 0.99812080E+03</rscale>
<asrwt>0</asrwt>
<pdfrwt beam="1">  1        1 0.17397766E+00 0.99812080E+03</pdfrwt>
<pdfrwt beam="2">  1       -1 0.33883325E-01 0.99812080E+03</pdfrwt>
<totfact> 0.10953970E+02</totfact>
</mgrwt>
</event>
<event>
 9    1  0.4236486E-036  0.9997098E+03  0.7818608E-02  0.8681314E-01
          1   -1    0    0  501    0  0.00000000000E+00  0.00000000000E+00  0.67675679276E+03  0.67675679276E+03  0.00000000000E+00 0.  1.
         -1   -1    0    0    0  501 -0.00000000000E+00 -0.00000000000E+00 -0.36919451671E+03  0.36919451671E+03  0.00000000000E+00 0.  1.
         36    2    1    2    0    0  0.00000000000E+00  0.00000000000E+00  0.30756227605E+03  0.10459513095E+04  0.99970975194E+03 0.  0.
         25    2    3    3    0    0 -0.93159434708E+02 -0.77922278499E+02  0.12984409493E+03  0.21713434589E+03  0.12464859974E+03 0.  0.
         35    2    3    3    0    0  0.93159434708E+02  0.77922278499E+02  0.17771818112E+03  0.82881696357E+03  0.80037693960E+03 0.  0.
         22    1    5    5    0    0  0.50834964221E+02 -0.25904070705E+03 -0.19228202481E+03  0.32658637228E+03  0.00000000000E+00 0. -1.
         22    1    5    5    0    0  0.42324470487E+02  0.33696298555E+03  0.37000020593E+03  0.50223059128E+03  0.00000000000E+00 0. -1.
          5    1    4    4  502    0  0.24050705463E+02 -0.34466725787E+02  0.90702852459E+01  0.43252187161E+02  0.47000000000E+01 0.  1.
         -5    1    4    4    0  502 -0.11721014017E+03 -0.43455552712E+02  0.12077380968E+03  0.17388215873E+03  0.47000000000E+01 0.  1.
<mgrwt>
<rscale>  0 0.99970975E+03</rscale>
<asrwt>0</asrwt>
<pdfrwt beam="1">  1        1 0.10411643E+00 0.99970975E+03</pdfrwt>
<pdfrwt beam="2">  1       -1 0.56799157E-01 0.99970975E+03</pdfrwt>
<totfact> 0.10373698E+02</totfact>
</mgrwt>
</event>
<event>
 9    1  0.4236486E-036  0.1000193E+04  0.7818608E-02  0.8680854E-01
         -1   -1    0    0    0  501 -0.00000000000E+00  0.00000000000E+00  0.18217825997E+03  0.18217825997E+03  0.00000000000E+00 0.  1.
          1   -1    0    0  501    0  0.00000000000E+00 -0.00000000000E+00 -0.13728123189E+04  0.13728123189E+04  0.00000000000E+00 0.  1.
         36    2    1    2    0    0 -0.28421709430E-13  0.71054273576E-14 -0.11906340589E+04  0.15549905788E+04  0.10001931004E+04 0.  0.
         25    2    3    3    0    0  0.13728217199E+03  0.33711203649E+02 -0.15576766326E+03  0.24683308565E+03  0.12915172185E+03 0.  0.
         35    2    3    3    0    0 -0.13728217199E+03 -0.33711203649E+02 -0.10348663956E+04  0.13081574932E+04  0.78761966083E+03 0.  0.
         22    1    5    5    0    0 -0.28146705823E+03  0.21783302390E+03 -0.16701062864E+03  0.39315071061E+03  0.00000000000E+00 0. -1.
         22    1    5    5    0    0  0.14418488624E+03 -0.25154422755E+03 -0.86785576700E+03  0.91500678257E+03  0.00000000000E+00 0. -1.
          5    1    4    4  502    0  0.15832825432E+03  0.34076588272E+02 -0.10883637974E+03  0.19518324093E+03  0.47000000000E+01 0.  1.
         -5    1    4    4    0  502 -0.21046082329E+02 -0.36538462336E+00 -0.46931283518E+02  0.51649844723E+02  0.47000000000E+01 0.  1.
<mgrwt>
<rscale>  0 0.10001931E+04</rscale>
<asrwt>0</asrwt>
<pdfrwt beam="1">  1        1 0.21120189E+00 0.10001931E+04</pdfrwt>
<pdfrwt beam="2">  1       -1 0.28027425E-01 0.10001931E+04</pdfrwt>
<totfact> 0.10050377E+02</totfact>
</mgrwt>
</event>
<event>
 9    1  0.4236486E-036  0.1000387E+04  0.7818608E-02  0.8680669E-01
          2   -1    0    0  501    0  0.00000000000E+00  0.00000000000E+00  0.31875191166E+04  0.31875191166E+04  0.00000000000E+00 0. -1.
         -2   -1    0    0    0  501 -0.00000000000E+00 -0.00000000000E+00 -0.78491645309E+02  0.78491645309E+02  0.00000000000E+00 0. -1.
         36    2    1    2    0    0 -0.15987211555E-13  0.00000000000E+00  0.31090274712E+04  0.32660107619E+04  0.10003871649E+04 0.  0.
         25    2    3    3    0    0 -0.58384995088E+01  0.14136988777E+03  0.57644170224E+03  0.60635696838E+03  0.12395242546E+03 0.  0.
         35    2    3    3    0    0  0.58384995088E+01 -0.14136988777E+03  0.25325857690E+04  0.26596537935E+04  0.79984254111E+03 0.  0.
         22    1    5    5    0    0  0.31904412016E+03 -0.31982200065E+03  0.14213484412E+04  0.14914109608E+04  0.00000000000E+00 0.  1.
         22    1    5    5    0    0 -0.31320562065E+03  0.17845211288E+03  0.11112373278E+04  0.11682428327E+04  0.00000000000E+00 0.  1.
          5    1    4    4  502    0  0.10433980927E+02  0.16102811286E+03  0.51343789878E+03  0.53821880959E+03  0.47000000000E+01 0.  1.
         -5    1    4    4    0  502 -0.16272480436E+02 -0.19658225092E+02  0.63003803462E+02  0.68138158795E+02  0.47000000000E+01 0.  1.
<mgrwt>
<rscale>  0 0.10003872E+04</rscale>
<asrwt>0</asrwt>
<pdfrwt beam="1">  1        2 0.49038746E+00 0.10003872E+04</pdfrwt>
<pdfrwt beam="2">  1       -2 0.12075640E-01 0.10003872E+04</pdfrwt>
<totfact> 0.71464236E+01</totfact>
</mgrwt>
</event>
<event>
 9    1  0.4236486E-036  0.9993453E+03  0.7818608E-02  0.8681662E-01
         -2   -1    0    0    0  501 -0.00000000000E+00  0.00000000000E+00  0.24326392278E+03  0.24326392278E+03  0.00000000000E+00 0.  1.
          2   -1    0    0  501    0  0.00000000000E+00 -0.00000000000E+00 -0.10263451375E+04  0.10263451375E+04  0.00000000000E+00 0.  1.
         36    2    1    2    0    0 -0.28421709430E-13  0.28421709430E-13 -0.78308121470E+03  0.12696090603E+04  0.99934527421E+03 0.  0.
         25    2    3    3    0    0 -0.53686388517E+02  0.12917945979E+03 -0.16757140820E+03  0.25084523899E+03  0.12358639058E+03 0.  0.
         35    2    3    3    0    0  0.53686388517E+02 -0.12917945979E+03 -0.61550980650E+03  0.10187638213E+04  0.79966107851E+03 0.  0.
         22    1    5    5    0    0 -0.24629861021E+03  0.21058271742E+03 -0.40593200185E+03  0.51941204875E+03  0.00000000000E+00 0.  1.
         22    1    5    5    0    0  0.29998499872E+03 -0.33976217720E+03 -0.20957780466E+03  0.49935177252E+03  0.00000000000E+00 0.  1.
          5    1    4    4  502    0 -0.39212454214E+02  0.17164210787E+02  0.62347316396E+01  0.43510786893E+02  0.47000000000E+01 0. -1.
         -5    1    4    4    0  502 -0.14473934303E+02  0.11201524900E+03 -0.17380613984E+03  0.20733445210E+03  0.47000000000E+01 0. -1.
<mgrwt>
<rscale>  0 0.99934527E+03</rscale>
<asrwt>0</asrwt>
<pdfrwt beam="1">  1        2 0.15789925E+00 0.99934527E+03</pdfrwt>
<pdfrwt beam="2">  1       -2 0.37425219E-01 0.99934527E+03</pdfrwt>
<totfact> 0.19710462E+02</totfact>
</mgrwt>
</event>
<event>
 9    1  0.4236486E-036  0.9998740E+03  0.7818608E-02  0.8681158E-01
          3   -1    0    0  501    0  0.00000000000E+00  0.00000000000E+00  0.88746898424E+03  0.88746898424E+03  0.00000000000E+00 0. -1.
         -3   -1    0    0    0  501 -0.00000000000E+00 -0.00000000000E+00 -0.28162901908E+03  0.28162901908E+03  0.00000000000E+00 0. -1.
         36    2    1    2    0    0  0.17763568394E-13  0.71054273576E-14  0.60583996516E+03  0.11690980033E+04  0.99987403106E+03 0.  0.
         25    2    3    3    0    0 -0.19045224927E+01 -0.54701817792E+02  0.26295621500E+03  0.29703838589E+03  0.12684603112E+03 0.  0.
         35    2    3    3    0    0  0.19045224927E+01  0.54701817792E+02  0.34288375016E+03  0.87205961743E+03  0.79995174489E+03 0.  0.
         22    1    5    5    0    0 -0.16267212453E+03 -0.32443683799E+03  0.27003275677E+03  0.45237061318E+03  0.00000000000E+00 0.  1.
         22    1    5    5    0    0  0.16457664702E+03  0.37913865578E+03  0.72850993391E+02  0.41968900425E+03  0.00000000000E+00 0.  1.
          5    1    4    4  502    0  0.20224099275E+02 -0.55154858371E+02  0.36215963453E+02  0.69171949533E+02  0.47000000000E+01 0. -1.
         -5    1    4    4    0  502 -0.22128621768E+02  0.45304057914E+00  0.22674025155E+03  0.22786643636E+03  0.47000000000E+01 0. -1.
<mgrwt>
<rscale>  0 0.99987403E+03</rscale>
<asrwt>0</asrwt>
<pdfrwt beam="1">  1        3 0.13653369E+00 0.99987403E+03</pdfrwt>
<pdfrwt beam="2">  1       -3 0.43327542E-01 0.99987403E+03</pdfrwt>
<totfact> 0.91319484E+00</totfact>
</mgrwt>
</event>
<event>
 9    1  0.4236486E-036  0.1000334E+04  0.7818608E-02  0.8680720E-01
          3   -1    0    0  501    0  0.00000000000E+00  0.00000000000E+00  0.67619413874E+03  0.67619413874E+03  0.00000000000E+00 0.  1.
         -3   -1    0    0    0  501 -0.00000000000E+00 -0.00000000000E+00 -0.36996330724E+03  0.36996330724E+03  0.00000000000E+00 0.  1.
         36    2    1    2    0    0  0.28421709430E-13  0.00000000000E+00  0.30623083151E+03  0.10461574460E+04  0.10003339840E+04 0.  0.
         25    2    3    3    0    0 -0.74625115512E+02 -0.17868469105E+02 -0.72689871932E+02  0.16412183446E+03  0.12555464552E+03 0.  0.
         35    2    3    3    0    0  0.74625115512E+02  0.17868469105E+02  0.37892070344E+03  0.88203561152E+03  0.79279110139E+03 0.  0.
         22    1    5    5    0    0  0.26626957208E+03  0.20990604569E+03 -0.80504426997E+02  0.34848385299E+03  0.00000000000E+00 0.  1.
         22    1    5    5    0    0 -0.19164445657E+03 -0.19203757659E+03  0.45942513043E+03  0.53355175853E+03  0.00000000000E+00 0.  1.
          5    1    4    4  502    0 -0.80843881430E+02  0.35740424310E+02 -0.25079643322E+02  0.92001030449E+02  0.47000000000E+01 0. -1.
         -5    1    4    4    0  502  0.62187659178E+01 -0.53608893415E+02 -0.47610228610E+02  0.72120804010E+02  0.47000000000E+01 0. -1.
<mgrwt>
<rscale>  0 0.10003340E+04</rscale>
<asrwt>0</asrwt>
<pdfrwt beam="1">  1        3 0.10402987E+00 0.10003340E+04</pdfrwt>
<pdfrwt beam="2">  1       -3 0.56917432E-01 0.10003340E+04</pdfrwt>
<totfact> 0.10042445E+01</totfact>
</mgrwt>
</event>
<event>
 9    1  0.4236486E-036  0.9997356E+03  0.7818608E-02  0.8681290E-01
         -2   -1    0    0    0  501 -0.00000000000E+00  0.00000000000E+00  0.12356362856E+03  0.12356362856E+03  0.00000000000E+00 0. -1.
          2   -1    0    0  501    0  0.00000000000E+00 -0.00000000000E+00 -0.20221795465E+04  0.20221795465E+04  0.00000000000E+00 0. -1.
         36    2    1    2    0    0  0.28421709430E-13 -0.21316282073E-13 -0.18986159179E+04  0.21457431750E+04  0.99973564980E+03 0.  0.
         25    2    3    3    0    0  0.12553496803E+03  0.45824366806E+02 -0.42367683984E+03  0.46210655232E+03  0.12720652611E+03 0.  0.
         35    2    3    3    0    0 -0.12553496803E+03 -0.45824366806E+02 -0.14749390781E+04  0.16836366227E+04  0.80082962767E+03 0.  0.
         22    1    5    5    0    0  0.15373248212E+03 -0.25772868802E+03 -0.19819049412E+03  0.35963484905E+03  0.00000000000E+00 0. -1.
         22    1    5    5    0    0 -0.27926745015E+03  0.21190432122E+03 -0.12767485839E+04  0.13240017737E+04  0.00000000000E+00 0. -1.
          5    1    4    4  502    0 -0.10287022005E+02  0.42900695223E+02 -0.15164726224E+03  0.15800403355E+03  0.47000000000E+01 0.  1.
         -5    1    4    4    0  502  0.13582199003E+03  0.29236715828E+01 -0.27202957760E+03  0.30410251877E+03  0.47000000000E+01 0.  1.
<mgrwt>
<rscale>  0 0.99973565E+03</rscale>
<asrwt>0</asrwt>
<pdfrwt beam="1">  1        2 0.31110452E+00 0.99973565E+03</pdfrwt>
<pdfrwt beam="2">  1       -2 0.19009791E-01 0.99973565E+03</pdfrwt>
<totfact> 0.17772773E+02</totfact>
</mgrwt>
</event>
<event>
 9    1  0.4236486E-036  0.9993579E+03  0.7818608E-02  0.8681650E-01
         -2   -1    0    0    0  501 -0.00000000000E+00  0.00000000000E+00  0.70280722436E+02  0.70280722436E+02  0.00000000000E+00 0.  1.
          2   -1    0    0  501    0  0.00000000000E+00 -0.00000000000E+00 -0.35525967921E+04  0.35525967921E+04  0.00000000000E+00 0.  1.
         36    2    1    2    0    0  0.00000000000E+00  0.00000000000E+00 -0.34823160696E+04  0.36228775145E+04  0.99935793202E+03 0.  0.
         25    2    3    3    0    0 -0.83353358801E+02  0.84622039247E+02 -0.36639012776E+03  0.40359467815E+03  0.12057473435E+03 0.  0.
         35    2    3    3    0    0  0.83353358801E+02 -0.84622039247E+02 -0.31159259419E+04  0.32192828364E+04  0.80042415834E+03 0.  0.
         22    1    5    5    0    0 -0.98900884746E+01 -0.44046373128E+03 -0.17672680870E+04  0.18213573520E+04  0.00000000000E+00 0. -1.
         22    1    5    5    0    0  0.93243447276E+02  0.35584169203E+03 -0.13486578549E+04  0.13979254844E+04  0.00000000000E+00 0. -1.
          5    1    4    4  502    0 -0.32727882468E+02  0.62547883361E+02 -0.61608559618E+02  0.93813946841E+02  0.47000000000E+01 0.  1.
         -5    1    4    4    0  502 -0.50625476333E+02  0.22074155886E+02 -0.30478156814E+03  0.30978073131E+03  0.47000000000E+01 0.  1.
<mgrwt>
<rscale>  0 0.99935793E+03</rscale>
<asrwt>0</asrwt>
<pdfrwt beam="1">  1        2 0.54655326E+00 0.99935793E+03</pdfrwt>
<pdfrwt beam="2">  1       -2 0.10812421E-01 0.99935793E+03</pdfrwt>
<totfact> 0.46342313E+01</totfact>
</mgrwt>
</event>
<event>
 9    1  0.4236486E-036  0.1000611E+04  0.7818608E-02  0.8680456E-01
          2   -1    0    0  501    0  0.00000000000E+00  0.00000000000E+00  0.22924624609E+03  0.22924624609E+03  0.00000000000E+00 0.  1.
         -2   -1    0    0    0  501 -0.00000000000E+00 -0.00000000000E+00 -0.10918637701E+04  0.10918637701E+04  0.00000000000E+00 0.  1.
         36    2    1    2    0    0  0.14210854715E-13 -0.28421709430E-13 -0.86261752396E+03  0.13211100161E+04  0.10006111543E+04 0.  0.
         25    2    3    3    0    0  0.11605025398E+03  0.77643031244E+02 -0.13147507034E+03  0.22880172428E+03  0.12477352749E+03 0.  0.
         35    2    3    3    0    0 -0.11605025398E+03 -0.77643031244E+02 -0.73114245363E+03  0.10923082919E+04  0.79941979913E+03 0.  0.
         22    1    5    5    0    0 -0.22788522533E+03 -0.35710459942E+03 -0.17183462505E+03  0.45714604802E+03  0.00000000000E+00 0. -1.
         22    1    5    5    0    0  0.11183497135E+03  0.27946156818E+03 -0.55930782857E+03  0.63516224385E+03  0.00000000000E+00 0. -1.
          5    1    4    4  502    0  0.10315865531E+03 -0.29466961174E+00 -0.48329051406E+02  0.11401571034E+03  0.47000000000E+01 0.  1.
         -5    1    4    4    0  502  0.12891598675E+02  0.77937700856E+02 -0.83146018930E+02  0.11478601393E+03  0.47000000000E+01 0.  1.
<mgrwt>
<rscale>  0 0.10006112E+04</rscale>
<asrwt>0</asrwt>
<pdfrwt beam="1">  1        2 0.35268654E-01 0.10006112E+04</pdfrwt>
<pdfrwt beam="2">  1       -2 0.16797904E+00 0.10006112E+04</pdfrwt>
<totfact> 0.36425081E+01</totfact>
</mgrwt>
</event>
<event>
 9    1  0.4236486E-036  0.9977854E+03  0.7818608E-02  0.8683150E-01
          1   -1    0    0  501    0  0.00000000000E+00  0.00000000000E+00  0.11772714190E+04  0.11772714190E+04  0.00000000000E+00 0. -1.
         -1   -1    0    0    0  501 -0.00000000000E+00 -0.00000000000E+00 -0.21141590483E+03  0.21141590483E+03  0.00000000000E+00 0. -1.
         36    2    1    2    0    0  0.00000000000E+00  0.00000000000E+00  0.96585551421E+03  0.13886873239E+04  0.99778535224E+03 0.  0.
         25    2    3    3    0    0  0.49559313312E+02  0.56245080812E+02  0.18144281833E+02  0.14625702632E+03  0.12426692293E+03 0.  0.
         35    2    3    3    0    0 -0.49559313312E+02 -0.56245080812E+02  0.94771123238E+03  0.12424302975E+04  0.79991051352E+03 0.  0.
         22    1    5    5    0    0 -0.30813396109E+03 -0.13832511347E+02  0.56601896960E+02  0.31359472427E+03  0.00000000000E+00 0. -1.
         22    1    5    5    0    0  0.25857464778E+03 -0.42412569464E+02  0.89110933542E+03  0.92883557328E+03  0.00000000000E+00 0. -1.
          5    1    4    4  502    0  0.41405412861E+02 -0.28749888567E+02  0.31616286715E+02  0.59687887318E+02  0.47000000000E+01 0.  1.
         -5    1    4    4    0  502  0.81539004504E+01  0.84994969378E+02 -0.13472004882E+02  0.86569139003E+02  0.47000000000E+01 0.  1.
<mgrwt>
<rscale>  0 0.99778535E+03</rscale>
<asrwt>0</asrwt>
<pdfrwt beam="1">  1        1 0.18111868E+00 0.99778535E+03</pdfrwt>
<pdfrwt beam="2">  1       -1 0.32525524E-01 0.99778535E+03</pdfrwt>
<totfact> 0.10846331E+02</totfact>
</mgrwt>
</event>
<event>
 9    1  0.4236486E-036  0.9997649E+03  0.7818608E-02  0.8681262E-01
         -2   -1    0    0    0  501 -0.00000000000E+00  0.00000000000E+00  0.87880182264E+03  0.87880182264E+03  0.00000000000E+00 0.  1.
          2   -1    0    0  501    0  0.00000000000E+00 -0.00000000000E+00 -0.28434447324E+03  0.28434447324E+03  0.00000000000E+00 0.  1.
         36    2    1    2    0    0 -0.28421709430E-13  0.00000000000E+00  0.59445734940E+03  0.11631462959E+04  0.99976485503E+03 0.  0.
         25    2    3    3    0    0  0.13964551009E+03 -0.93231930628E+01  0.91420765807E+02  0.20891301179E+03  0.12529604805E+03 0.  0.
         35    2    3    3    0    0 -0.13964551009E+03  0.93231930628E+01  0.50303658359E+03  0.95423328409E+03  0.79870367823E+03 0.  0.
         22    1    5    5    0    0  0.23159732934E+03 -0.23042263441E+03  0.67184700520E+02  0.33353515166E+03  0.00000000000E+00 0. -1.
         22    1    5    5    0    0 -0.37124283943E+03  0.23974582748E+03  0.43585188307E+03  0.62069813243E+03  0.00000000000E+00 0. -1.
          5    1    4    4  502    0  0.98911092687E+02  0.42714224200E+02  0.16829710969E+02  0.10914778228E+03  0.47000000000E+01 0.  1.
         -5    1    4    4    0  502  0.40734417402E+02 -0.52037417263E+02  0.74591054839E+02  0.99765229506E+02  0.47000000000E+01 0.  1.
<mgrwt>
<rscale>  0 0.99976486E+03</rscale>
<asrwt>0</asrwt>
<pdfrwt beam="1">  1        2 0.43745304E-01 0.99976486E+03</pdfrwt>
<pdfrwt beam="2">  1       -2 0.13520028E+00 0.99976486E+03</pdfrwt>
<totfact> 0.52610286E+01</totfact>
</mgrwt>
</event>
<event>
 9    1  0.4236486E-036  0.1001823E+04  0.7818608E-02  0.8679304E-01
         -2   -1    0    0    0  501 -0.00000000000E+00  0.00000000000E+00  0.10990215497E+03  0.10990215497E+03  0.00000000000E+00 0.  1.
          2   -1    0    0  501    0  0.00000000000E+00 -0.00000000000E+00 -0.22830507838E+04  0.22830507838E+04  0.00000000000E+00 0.  1.
         36    2    1    2    0    0 -0.14210854715E-13 -0.71054273576E-14 -0.21731486288E+04  0.23929529387E+04  0.10018227409E+04 0.  0.
         25    2    3    3    0    0  0.12603165459E+03  0.29906097362E+02 -0.27313254039E+03  0.32730233544E+03  0.12548737605E+03 0.  0.
         35    2    3    3    0    0 -0.12603165459E+03 -0.29906097362E+02 -0.19000160884E+04  0.20656506033E+04  0.80004557752E+03 0.  0.
         22    1    5    5    0    0 -0.38643366099E+03 -0.73654019817E+02 -0.16692265308E+04  0.17149557138E+04  0.00000000000E+00 0.  1.
         22    1    5    5    0    0  0.26040200640E+03  0.43747922455E+02 -0.23078955759E+03  0.35069488954E+03  0.00000000000E+00 0.  1.
          5    1    4    4  502    0 -0.25277076791E+02  0.87557243603E+01 -0.48722032584E+02  0.55780998371E+02  0.47000000000E+01 0. -1.
         -5    1    4    4    0  502  0.15130873138E+03  0.21150373002E+02 -0.22441050781E+03  0.27152133707E+03  0.47000000000E+01 0. -1.
<mgrwt>
<rscale>  0 0.10018227E+04</rscale>
<asrwt>0</asrwt>
<pdfrwt beam="1">  1        2 0.35123861E+00 0.10018227E+04</pdfrwt>
<pdfrwt beam="2">  1       -2 0.16908023E-01 0.10018227E+04</pdfrwt>
<totfact> 0.15338174E+02</totfact>
</mgrwt>
</event>
<event>
 9    1  0.4236486E-036  0.9991945E+03  0.7818608E-02  0.8681805E-01
          2   -1    0    0  501    0  0.00000000000E+00  0.00000000000E+00  0.65001857722E+03  0.65001857722E+03  0.00000000000E+00 0. -1.
         -2   -1    0    0    0  501 -0.00000000000E+00 -0.00000000000E+00 -0.38398505573E+03  0.38398505573E+03  0.00000000000E+00 0. -1.
         36    2    1    2    0    0 -0.14210854715E-13  0.14210854715E-13  0.26603352149E+03  0.10340036329E+04  0.99919451479E+03 0.  0.
         25    2    3    3    0    0 -0.31430667223E+02 -0.12602845431E+03 -0.50742390840E+01  0.17836462758E+03  0.12213572094E+03 0.  0.
         35    2    3    3    0    0  0.31430667223E+02  0.12602845431E+03  0.27110776058E+03  0.85563900537E+03  0.80109152506E+03 0.  0.
         22    1    5    5    0    0 -0.22168453916E+03  0.85932889351E+02 -0.20565789581E+03  0.31436231721E+03  0.00000000000E+00 0. -1.
         22    1    5    5    0    0  0.25311520639E+03  0.40095564961E+02  0.47676565638E+03  0.54127668816E+03  0.00000000000E+00 0. -1.
          5    1    4    4  502    0  0.42767750666E+02 -0.60011610304E+02  0.18620984752E+02  0.76153167639E+02  0.47000000000E+01 0.  1.
         -5    1    4    4    0  502 -0.74198417889E+02 -0.66016844008E+02 -0.23695223836E+02  0.10221145994E+03  0.47000000000E+01 0.  1.
<mgrwt>
<rscale>  0 0.99919451E+03</rscale>
<asrwt>0</asrwt>
<pdfrwt beam="1">  1        2 0.10000286E+00 0.99919451E+03</pdfrwt>
<pdfrwt beam="2">  1       -2 0.59074624E-01 0.99919451E+03</pdfrwt>
<totfact> 0.14559491E+02</totfact>
</mgrwt>
</event>
<event>
 9    1  0.4236486E-036  0.1000052E+04  0.7818608E-02  0.8680989E-01
         -2   -1    0    0    0  501 -0.00000000000E+00  0.00000000000E+00  0.12934162809E+03  0.12934162809E+03  0.00000000000E+00 0. -1.
          2   -1    0    0  501    0  0.00000000000E+00 -0.00000000000E+00 -0.19330657163E+04  0.19330657163E+04  0.00000000000E+00 0. -1.
         36    2    1    2    0    0  0.00000000000E+00  0.00000000000E+00 -0.18037240882E+04  0.20624073444E+04  0.10000517326E+04 0.  0.
         25    2    3    3    0    0 -0.98916238824E+02 -0.90081554082E+02 -0.25249919106E+03  0.31207003397E+03  0.12543028314E+03 0.  0.
         35    2    3    3    0    0  0.98916238824E+02  0.90081554082E+02 -0.15512248972E+04  0.17503373104E+04  0.79967675344E+03 0.  0.
         22    1    5    5    0    0  0.53163337132E+02 -0.17893987554E+03 -0.11940807662E+02  0.18705187078E+03  0.00000000000E+00 0.  1.
         22    1    5    5    0    0  0.45752901692E+02  0.26902142962E+03 -0.15392840895E+04  0.15632854397E+04  0.00000000000E+00 0.  1.
          5    1    4    4  502    0 -0.21563342703E+01 -0.58345972586E+02 -0.17344563416E+03  0.18306933196E+03  0.47000000000E+01 0. -1.
         -5    1    4    4    0  502 -0.96759904554E+02 -0.31735581496E+02 -0.79053556903E+02  0.12900070202E+03  0.47000000000E+01 0. -1.
<mgrwt>
<rscale>  0 0.10000517E+04</rscale>
<asrwt>0</asrwt>
<pdfrwt beam="1">  1        2 0.29739472E+00 0.10000517E+04</pdfrwt>
<pdfrwt beam="2">  1       -2 0.19898713E-01 0.10000517E+04</pdfrwt>
<totfact> 0.18459205E+02</totfact>
</mgrwt>
</event>
<event>
 9    1  0.4236486E-036  0.1002109E+04  0.7818608E-02  0.8679032E-01
          2   -1    0    0  501    0  0.00000000000E+00  0.00000000000E+00  0.11383942772E+03  0.11383942772E+03  0.00000000000E+00 0. -1.
         -2   -1    0    0    0  501 -0.00000000000E+00 -0.00000000000E+00 -0.22053490412E+04  0.22053490412E+04  0.00000000000E+00 0. -1.
         36    2    1    2    0    0  0.14210854715E-13  0.21316282073E-13 -0.20915096134E+04  0.23191884689E+04  0.10021091213E+04 0.  0.
         25    2    3    3    0    0 -0.10389054676E+03  0.39299980222E+01 -0.17462005893E+03  0.23940110721E+03  0.12653866825E+03 0.  0.
         35    2    3    3    0    0  0.10389054676E+03 -0.39299980222E+01 -0.19168895545E+04  0.20797873617E+04  0.80015074515E+03 0.  0.
         22    1    5    5    0    0  0.21555135406E+03 -0.35358740651E+03 -0.12725471348E+04  0.13382311649E+04  0.00000000000E+00 0.  1.
         22    1    5    5    0    0 -0.11166080730E+03  0.34965740849E+03 -0.64434241967E+03  0.74155619678E+03  0.00000000000E+00 0.  1.
          5    1    4    4  502    0 -0.12765306026E+03  0.21873906178E+02 -0.11806962908E+03  0.17531770839E+03  0.47000000000E+01 0. -1.
         -5    1    4    4    0  502  0.23762513498E+02 -0.17943908156E+02 -0.56550429844E+02  0.64083398811E+02  0.47000000000E+01 0. -1.
<mgrwt>
<rscale>  0 0.10021091E+04</rscale>
<asrwt>0</asrwt>
<pdfrwt beam="1">  1        2 0.17513757E-01 0.10021091E+04</pdfrwt>
<pdfrwt beam="2">  1       -2 0.33928448E+00 0.10021091E+04</pdfrwt>
<totfact> 0.71947473E+00</totfact>
</mgrwt>
</event>
<event>
 9    1  0.4236486E-036  0.1000707E+04  0.7818608E-02  0.8680365E-01
          1   -1    0    0  501    0  0.00000000000E+00  0.00000000000E+00  0.27475289468E+03  0.27475289468E+03  0.00000000000E+00 0.  1.
         -1   -1    0    0    0  501 -0.00000000000E+00 -0.00000000000E+00 -0.91119514955E+03  0.91119514955E+03  0.00000000000E+00 0.  1.
         36    2    1    2    0    0  0.00000000000E+00  0.56843418861E-13 -0.63644225487E+03  0.11859480442E+04  0.10007067602E+04 0.  0.
         25    2    3    3    0    0 -0.29014384327E+02  0.10708060758E+03 -0.22274959065E+03  0.27882229643E+03  0.12576327698E+03 0.  0.
         35    2    3    3    0    0  0.29014384327E+02 -0.10708060758E+03 -0.41369266422E+03  0.90712574780E+03  0.79964205172E+03 0.  0.
         22    1    5    5    0    0 -0.14681243130E+03  0.29029010187E+03 -0.28683974864E+02  0.32656546609E+03  0.00000000000E+00 0. -1.
         22    1    5    5    0    0  0.17582681562E+03 -0.39737070945E+03 -0.38500868936E+03  0.58056028171E+03  0.00000000000E+00 0. -1.
          5    1    4    4  502    0 -0.43549478813E+02  0.13049508729E+03 -0.19993438750E+03  0.24273725346E+03  0.47000000000E+01 0.  1.
         -5    1    4    4    0  502  0.14535094486E+02 -0.23414479710E+02 -0.22815203148E+02  0.36085042975E+02  0.47000000000E+01 0.  1.
<mgrwt>
<rscale>  0 0.10007068E+04</rscale>
<asrwt>0</asrwt>
<pdfrwt beam="1">  1        1 0.42269676E-01 0.10007068E+04</pdfrwt>
<pdfrwt beam="2">  1       -1 0.14018387E+00 0.10007068E+04</pdfrwt>
<totfact> 0.48794765E+01</totfact>
</mgrwt>
</event>
<event>
 9    1  0.4236486E-036  0.1000147E+04  0.7818608E-02  0.8680898E-01
          1   -1    0    0  501    0  0.00000000000E+00  0.00000000000E+00  0.18343769948E+04  0.18343769948E+04  0.00000000000E+00 0. -1.
         -1   -1    0    0    0  501 -0.00000000000E+00 -0.00000000000E+00 -0.13632623185E+03  0.13632623185E+03  0.00000000000E+00 0. -1.
         36    2    1    2    0    0  0.00000000000E+00  0.14210854715E-13  0.16980507629E+04  0.19707032267E+04  0.10001473961E+04 0.  0.
         25    2    3    3    0    0 -0.62370041886E+02 -0.58596090444E+02  0.10224451671E+03  0.18315732134E+03  0.12557523331E+03 0.  0.
         35    2    3    3    0    0  0.62370041886E+02  0.58596090444E+02  0.15958062462E+04  0.17875459053E+04  0.80087406261E+03 0.  0.
         22    1    5    5    0    0 -0.22281700215E+02  0.40081420853E+03  0.52945894764E+03  0.66443606251E+03  0.00000000000E+00 0. -1.
         22    1    5    5    0    0  0.84651742100E+02 -0.34221811809E+03  0.10663472986E+04  0.11231098428E+04  0.00000000000E+00 0. -1.
          5    1    4    4  502    0  0.38003715694E+02 -0.25484478005E+02  0.27094101501E+02  0.53384654741E+02  0.47000000000E+01 0. -1.
         -5    1    4    4    0  502 -0.10037375758E+03 -0.33111612439E+02  0.75150415210E+02  0.12977266660E+03  0.47000000000E+01 0. -1.
<mgrwt>
<rscale>  0 0.10001474E+04</rscale>
<asrwt>0</asrwt>
<pdfrwt beam="1">  1        1 0.28221183E+00 0.10001474E+04</pdfrwt>
<pdfrwt beam="2">  1       -1 0.20973268E-01 0.10001474E+04</pdfrwt>
<totfact> 0.76924432E+01</totfact>
</mgrwt>
</event>
<event>
 9    1  0.4236486E-036  0.9986810E+03  0.7818608E-02  0.8682295E-01
         -1   -1    0    0    0  501 -0.00000000000E+00  0.00000000000E+00  0.10075435270E+03  0.10075435270E+03  0.00000000000E+00 0. -1.
          1   -1    0    0  501    0  0.00000000000E+00 -0.00000000000E+00 -0.24747412618E+04  0.24747412618E+04  0.00000000000E+00 0. -1.
         36    2    1    2    0    0  0.49737991503E-13  0.00000000000E+00 -0.23739869091E+04  0.25754956145E+04  0.99868103806E+03 0.  0.
         25    2    3    3    0    0  0.29303578502E+02  0.25278078219E+02 -0.78903143411E+03  0.79972436840E+03  0.12446196385E+03 0.  0.
         35    2    3    3    0    0 -0.29303578502E+02 -0.25278078219E+02 -0.15849554750E+04  0.17757712461E+04  0.79986372581E+03 0.  0.
         22    1    5    5    0    0  0.32503116347E+03  0.75389410463E+02 -0.33558270746E+03  0.47322782461E+03  0.00000000000E+00 0.  1.
         22    1    5    5    0    0 -0.35433474198E+03 -0.10066748868E+03 -0.12493727676E+04  0.13025434215E+04  0.00000000000E+00 0.  1.
          5    1    4    4  502    0 -0.10034734491E+02 -0.36540575808E+02 -0.10434066939E+03  0.11110794241E+03  0.47000000000E+01 0.  1.
         -5    1    4    4    0  502  0.39338312993E+02  0.61818654027E+02 -0.68469076471E+03  0.68861642599E+03  0.47000000000E+01 0.  1.
<mgrwt>
<rscale>  0 0.99868104E+03</rscale>
<asrwt>0</asrwt>
<pdfrwt beam="1">  1        1 0.38072942E+00 0.99868104E+03</pdfrwt>
<pdfrwt beam="2">  1       -1 0.15500670E-01 0.99868104E+03</pdfrwt>
<totfact> 0.44854321E+01</totfact>
</mgrwt>
</event>
<event>
 9    1  0.4236486E-036  0.9993630E+03  0.7818608E-02  0.8681645E-01
         -2   -1    0    0    0  501 -0.00000000000E+00  0.00000000000E+00  0.13473839054E+03  0.13473839054E+03  0.00000000000E+00 0.  1.
          2   -1    0    0  501    0  0.00000000000E+00 -0.00000000000E+00 -0.18530845130E+04  0.18530845130E+04  0.00000000000E+00 0.  1.
         36    2    1    2    0    0 -0.28421709430E-13  0.71054273576E-14 -0.17183461224E+04  0.19878229035E+04  0.99936304677E+03 0.  0.
         25    2    3    3    0    0 -0.41977427176E+02  0.48640676108E+02 -0.74308778231E+02  0.15823147621E+03  0.12404590189E+03 0.  0.
         35    2    3    3    0    0  0.41977427176E+02 -0.48640676108E+02 -0.16440373442E+04  0.18295914273E+04  0.80026119609E+03 0.  0.
         22    1    5    5    0    0  0.34094443506E+03 -0.24678710063E+03 -0.66584088431E+03  0.78771255166E+03  0.00000000000E+00 0.  1.
         22    1    5    5    0    0 -0.29896700788E+03  0.19814642452E+03 -0.97819645990E+03  0.10418788756E+04  0.00000000000E+00 0.  1.
          5    1    4    4  502    0  0.46854871052E+01  0.81250936176E+02 -0.53145097294E+02  0.97314745980E+02  0.47000000000E+01 0.  1.
         -5    1    4    4    0  502 -0.46662914281E+02 -0.32610260068E+02 -0.21163680938E+02  0.60916730229E+02  0.47000000000E+01 0.  1.
<mgrwt>
<rscale>  0 0.99936305E+03</rscale>
<asrwt>0</asrwt>
<pdfrwt beam="1">  1        2 0.28508990E+00 0.99936305E+03</pdfrwt>
<pdfrwt beam="2">  1       -2 0.20728985E-01 0.99936305E+03</pdfrwt>
<totfact> 0.19087514E+02</totfact>
</mgrwt>
</event>
<event>
 9    1  0.4236486E-036  0.9997401E+03  0.7818608E-02  0.8681285E-01
         -1   -1    0    0    0  501 -0.00000000000E+00  0.00000000000E+00  0.31935222526E+03  0.31935222526E+03  0.00000000000E+00 0. -1.
          1   -1    0    0  501    0  0.00000000000E+00 -0.00000000000E+00 -0.78242790177E+03  0.78242790177E+03  0.00000000000E+00 0. -1.
         36    2    1    2    0    0  0.00000000000E+00  0.00000000000E+00 -0.46307567651E+03  0.11017801270E+04  0.99974014931E+03 0.  0.
         25    2    3    3    0    0  0.81141895037E+02  0.11435732452E+03 -0.10996729229E+03  0.21749376205E+03  0.12469613608E+03 0.  0.
         35    2    3    3    0    0 -0.81141895037E+02 -0.11435732452E+03 -0.35310838421E+03  0.88428636497E+03  0.79850813363E+03 0.  0.
         22    1    5    5    0    0 -0.22267870982E+02  0.19503272976E+03 -0.49971902217E+03  0.53689172547E+03  0.00000000000E+00 0. -1.
         22    1    5    5    0    0 -0.58874024055E+02 -0.30939005428E+03  0.14661063796E+03  0.34739463951E+03  0.00000000000E+00 0. -1.
          5    1    4    4  502    0  0.14775147106E+02  0.20324069637E+02 -0.98466270576E+02  0.10173037511E+03  0.47000000000E+01 0. -1.
         -5    1    4    4    0  502  0.66366747931E+02  0.94033254887E+02 -0.11501021717E+02  0.11576338694E+03  0.47000000000E+01 0. -1.
<mgrwt>
<rscale>  0 0.99974015E+03</rscale>
<asrwt>0</asrwt>
<pdfrwt beam="1">  1        1 0.12037352E+00 0.99974015E+03</pdfrwt>
<pdfrwt beam="2">  1       -1 0.49131112E-01 0.99974015E+03</pdfrwt>
<totfact> 0.10845960E+02</totfact>
</mgrwt>
</event>
<event>
 9    1  0.4236486E-036  0.1001559E+04  0.7818608E-02  0.8679555E-01
         -1   -1    0    0    0  501 -0.00000000000E+00  0.00000000000E+00  0.29247084152E+03  0.29247084152E+03  0.00000000000E+00 0. -1.
          1   -1    0    0  501    0  0.00000000000E+00 -0.00000000000E+00 -0.85745361249E+03  0.85745361249E+03  0.00000000000E+00 0. -1.
         36    2    1    2    0    0 -0.14210854715E-13 -0.14210854715E-13 -0.56498277096E+03  0.11499244540E+04  0.10015591438E+04 0.  0.
         25    2    3    3    0    0 -0.55567431912E+02 -0.78966365058E+02  0.11859109338E+02  0.15956667337E+03  0.12648105976E+03 0.  0.
         35    2    3    3    0    0  0.55567431912E+02  0.78966365058E+02 -0.57684188030E+03  0.99035778064E+03  0.79921120644E+03 0.  0.
         22    1    5    5    0    0 -0.28342783290E+03  0.10692213525E+03 -0.57533233772E+03  0.65020841143E+03  0.00000000000E+00 0.  1.
         22    1    5    5    0    0  0.33899526481E+03 -0.27955770192E+02 -0.15095425839E+01  0.34014936921E+03  0.00000000000E+00 0.  1.
          5    1    4    4  502    0 -0.51821904209E+02  0.16234907572E+02  0.30367713581E+02  0.62396874985E+02  0.47000000000E+01 0. -1.
         -5    1    4    4    0  502 -0.37455277028E+01 -0.95201272629E+02 -0.18508604243E+02  0.97169798389E+02  0.47000000000E+01 0. -1.
<mgrwt>
<rscale>  0 0.10015591E+04</rscale>
<asrwt>0</asrwt>
<pdfrwt beam="1">  1        1 0.13191594E+00 0.10015591E+04</pdfrwt>
<pdfrwt beam="2">  1       -1 0.44995515E-01 0.10015591E+04</pdfrwt>
<totfact> 0.10953549E+02</totfact>
</mgrwt>
</event>
<event>
 9    1  0.4236486E-036  0.9997886E+03  0.7818608E-02  0.8681239E-01
          2   -1    0    0  501    0  0.00000000000E+00  0.00000000000E+00  0.10974296819E+04  0.10974296819E+04  0.00000000000E+00 0.  1.
         -2   -1    0    0    0  501 -0.00000000000E+00 -0.00000000000E+00 -0.22770874246E+03  0.22770874246E+03  0.00000000000E+00 0.  1.
         36    2    1    2    0    0  0.00000000000E+00  0.00000000000E+00  0.86972093942E+03  0.13251384243E+04  0.99978864326E+03 0.  0.
         25    2    3    3    0    0 -0.77194941418E+02  0.93075487981E+02  0.25816010458E+03  0.31102826935E+03  0.12437780869E+03 0.  0.
         35    2    3    3    0    0  0.77194941418E+02 -0.93075487981E+02  0.61156083484E+03  0.10141101550E+04  0.79986914323E+03 0.  0.
         22    1    5    5    0    0 -0.28907167586E+02  0.18668718082E+03  0.68119694488E+03  0.70690664555E+03  0.00000000000E+00 0. -1.
         22    1    5    5    0    0  0.10610210900E+03 -0.27976266880E+03 -0.69636110033E+02  0.30720350943E+03  0.00000000000E+00 0. -1.
          5    1    4    4  502    0 -0.53220885174E+02  0.92320642493E+02  0.85656433557E+02  0.13680160181E+03  0.47000000000E+01 0.  1.
         -5    1    4    4    0  502 -0.23974056244E+02  0.75484548762E+00  0.17250367102E+03  0.17422666754E+03  0.47000000000E+01 0.  1.
<mgrwt>
<rscale>  0 0.99978864E+03</rscale>
<asrwt>0</asrwt>
<pdfrwt beam="1">  1        2 0.16883533E+00 0.99978864E+03</pdfrwt>
<pdfrwt beam="2">  1       -2 0.35032115E-01 0.99978864E+03</pdfrwt>
<totfact> 0.20179609E+02</totfact>
</mgrwt>
</event>
<event>
 9    1  0.4236486E-036  0.9999495E+03  0.7818608E-02  0.8681086E-01
          2   -1    0    0  501    0  0.00000000000E+00  0.00000000000E+00  0.17312364324E+04  0.17312364324E+04  0.00000000000E+00 0.  1.
         -2   -1    0    0    0  501 -0.00000000000E+00 -0.00000000000E+00 -0.14439088225E+03  0.14439088225E+03  0.00000000000E+00 0.  1.
         36    2    1    2    0    0  0.28421709430E-13 -0.14210854715E-13  0.15868455501E+04  0.18756273146E+04  0.99994951042E+03 0.  0.
         25    2    3    3    0    0 -0.12005046298E+03 -0.37548999112E+02  0.42341358146E+03  0.45883400373E+03  0.12420765283E+03 0.  0.
         35    2    3    3    0    0  0.12005046298E+03  0.37548999112E+02  0.11634319687E+04  0.14167933109E+04  0.79869099097E+03 0.  0.
         22    1    5    5    0    0  0.28583972913E+03 -0.29408596735E+03  0.79253552873E+03  0.89235837601E+03  0.00000000000E+00 0. -1.
         22    1    5    5    0    0 -0.16578926615E+03  0.33163496646E+03  0.37089643994E+03  0.52443493487E+03  0.00000000000E+00 0. -1.
          5    1    4    4  502    0  0.99634625911E+01  0.23520306856E+02  0.12430015500E+03  0.12698462093E+03  0.47000000000E+01 0.  1.
         -5    1    4    4    0  502 -0.13001392557E+03 -0.61069305968E+02  0.29911342646E+03  0.33184938280E+03  0.47000000000E+01 0.  1.
<mgrwt>
<rscale>  0 0.99994951E+03</rscale>
<asrwt>0</asrwt>
<pdfrwt beam="1">  1        2 0.26634405E+00 0.99994951E+03</pdfrwt>
<pdfrwt beam="2">  1       -2 0.22213983E-01 0.99994951E+03</pdfrwt>
<totfact> 0.19819980E+02</totfact>
</mgrwt>
</event>
<event>
 9    1  0.4236486E-036  0.9953600E+03  0.7818608E-02  0.8685469E-01
         -1   -1    0    0    0  501 -0.00000000000E+00  0.00000000000E+00  0.50225481274E+03  0.50225481274E+03  0.00000000000E+00 0. -1.
          1   -1    0    0  501    0  0.00000000000E+00 -0.00000000000E+00 -0.49314688555E+03  0.49314688555E+03  0.00000000000E+00 0. -1.
         36    2    1    2    0    0  0.21316282073E-13 -0.14210854715E-13  0.91079271909E+01  0.99540169829E+03  0.99536002864E+03 0.  0.
         25    2    3    3    0    0  0.46459006567E+02  0.37268754053E+02 -0.12139402312E+03  0.18430452839E+03  0.12523677980E+03 0.  0.
         35    2    3    3    0    0 -0.46459006567E+02 -0.37268754053E+02  0.13050195031E+03  0.81109716990E+03  0.79831100498E+03 0.  0.
         22    1    5    5    0    0 -0.34985340695E+03 -0.18580496485E+03 -0.91902312228E+02  0.40665332448E+03  0.00000000000E+00 0. -1.
         22    1    5    5    0    0  0.30339440039E+03  0.14853621079E+03  0.22240426254E+03  0.40444384542E+03  0.00000000000E+00 0. -1.
          5    1    4    4  502    0  0.12506441840E+02  0.47793723542E+02  0.77927737247E+01  0.50234136002E+02  0.47000000000E+01 0. -1.
         -5    1    4    4    0  502  0.33952564727E+02 -0.10524969490E+02 -0.12918679685E+03  0.13407039238E+03  0.47000000000E+01 0. -1.
<mgrwt>
<rscale>  0 0.99536003E+03</rscale>
<asrwt>0</asrwt>
<pdfrwt beam="1">  1        1 0.75868752E-01 0.99536003E+03</pdfrwt>
<pdfrwt beam="2">  1       -1 0.77269971E-01 0.99536003E+03</pdfrwt>
<totfact> 0.89605620E+01</totfact>
</mgrwt>
</event>
<event>
 9    1  0.4236486E-036  0.9998723E+03  0.7818608E-02  0.8681160E-01
          1   -1    0    0  501    0  0.00000000000E+00  0.00000000000E+00  0.55010374927E+03  0.55010374927E+03  0.00000000000E+00 0. -1.
         -1   -1    0    0    0  501 -0.00000000000E+00 -0.00000000000E+00 -0.45434364241E+03  0.45434364241E+03  0.00000000000E+00 0. -1.
         36    2    1    2    0    0  0.00000000000E+00  0.00000000000E+00  0.95760106863E+02  0.10044473917E+04  0.99987227413E+03 0.  0.
         25    2    3    3    0    0 -0.26593387165E+02 -0.12517947609E+03  0.73429497780E+02  0.19357040280E+03  0.12530163695E+03 0.  0.
         35    2    3    3    0    0  0.26593387165E+02  0.12517947609E+03  0.22330609083E+02  0.81087698887E+03  0.80040347669E+03 0.  0.
         22    1    5    5    0    0  0.60742384046E+01  0.10310835553E+03 -0.38694518895E+03  0.40049320668E+03  0.00000000000E+00 0. -1.
         22    1    5    5    0    0  0.20519148760E+02  0.22071120565E+02  0.40927579803E+03  0.41038378219E+03  0.00000000000E+00 0. -1.
          5    1    4    4  502    0 -0.69070146180E+02 -0.56606631396E+02  0.68451470814E+02  0.11261744833E+03  0.47000000000E+01 0.  1.
         -5    1    4    4    0  502  0.42476759015E+02 -0.68572844695E+02  0.49780269656E+01  0.80952954476E+02  0.47000000000E+01 0.  1.
<mgrwt>
<rscale>  0 0.99987227E+03</rscale>
<asrwt>0</asrwt>
<pdfrwt beam="1">  1        1 0.84631346E-01 0.99987227E+03</pdfrwt>
<pdfrwt beam="2">  1       -1 0.69899022E-01 0.99987227E+03</pdfrwt>
<totfact> 0.94060478E+01</totfact>
</mgrwt>
</event>
<event>
 9    1  0.4236486E-036  0.9999295E+03  0.7818608E-02  0.8681105E-01
         -2   -1    0    0    0  501 -0.00000000000E+00  0.00000000000E+00  0.14514155740E+04  0.14514155740E+04  0.00000000000E+00 0. -1.
          2   -1    0    0  501    0  0.00000000000E+00 -0.00000000000E+00 -0.17222134394E+03  0.17222134394E+03  0.00000000000E+00 0. -1.
         36    2    1    2    0    0  0.00000000000E+00  0.00000000000E+00  0.12791942301E+04  0.16236369180E+04  0.99992947908E+03 0.  0.
         25    2    3    3    0    0  0.62051308504E+02  0.13283947608E+01  0.37095781254E+02  0.14463333663E+03  0.12526202760E+03 0.  0.
         35    2    3    3    0    0 -0.62051308504E+02 -0.13283947608E+01  0.12420984488E+04  0.14790035814E+04  0.80049416458E+03 0.  0.
         22    1    5    5    0    0 -0.34376867795E+03 -0.18468263169E+03  0.34453684407E+03  0.52056720538E+03  0.00000000000E+00 0. -1.
         22    1    5    5    0    0  0.28171736945E+03  0.18335423692E+03  0.89756160477E+03  0.95843637598E+03  0.00000000000E+00 0. -1.
          5    1    4    4  502    0  0.37201024800E+02  0.57999691618E+02  0.44461996730E+02  0.82139147957E+02  0.47000000000E+01 0. -1.
         -5    1    4    4    0  502  0.24850283704E+02 -0.56671296857E+02 -0.73662154761E+01  0.62494188675E+02  0.47000000000E+01 0. -1.
<mgrwt>
<rscale>  0 0.99992948E+03</rscale>
<asrwt>0</asrwt>
<pdfrwt beam="1">  1        2 0.26495592E-01 0.99992948E+03</pdfrwt>
<pdfrwt beam="2">  1       -2 0.22329470E+00 0.99992948E+03</pdfrwt>
<totfact> 0.20826820E+01</totfact>
</mgrwt>
</event>
<event>
 9    1  0.4236486E-036  0.9983497E+03  0.7818608E-02  0.8682611E-01
         -2   -1    0    0    0  501 -0.00000000000E+00  0.00000000000E+00  0.78685050855E+03  0.78685050855E+03  0.00000000000E+00 0. -1.
          2   -1    0    0  501    0  0.00000000000E+00 -0.00000000000E+00 -0.31667456214E+03  0.31667456214E+03  0.00000000000E+00 0. -1.
         36    2    1    2    0    0 -0.28421709430E-13 -0.14210854715E-13  0.47017594641E+03  0.11035250707E+04  0.99834971881E+03 0.  0.
         25    2    3    3    0    0 -0.27001702096E+02 -0.12467010696E+03  0.14909629108E+03  0.23259677303E+03  0.12489926873E+03 0.  0.
         35    2    3    3    0    0  0.27001702096E+02  0.12467010696E+03  0.32107965533E+03  0.87092829765E+03  0.79946996635E+03 0.  0.
         22    1    5    5    0    0 -0.23591506905E+03 -0.91423514473E+02  0.44238807722E+03  0.50962867823E+03  0.00000000000E+00 0.  1.
         22    1    5    5    0    0  0.26291677115E+03  0.21609362143E+03 -0.12130842189E+03  0.36129961942E+03  0.00000000000E+00 0.  1.
          5    1    4    4  502    0 -0.55040712148E+02 -0.39333700849E+02  0.12364185317E+02  0.68931727780E+02  0.47000000000E+01 0.  1.
         -5    1    4    4    0  502  0.28039010053E+02 -0.85336406107E+02  0.13673210576E+03  0.16366504525E+03  0.47000000000E+01 0.  1.
<mgrwt>
<rscale>  0 0.99834972E+03</rscale>
<asrwt>0</asrwt>
<pdfrwt beam="1">  1        2 0.48719164E-01 0.99834972E+03</pdfrwt>
<pdfrwt beam="2">  1       -2 0.12105392E+00 0.99834972E+03</pdfrwt>
<totfact> 0.62556987E+01</totfact>
</mgrwt>
</event>
<event>
 9    1  0.4236486E-036  0.1001130E+04  0.7818608E-02  0.8679962E-01
         -1   -1    0    0    0  501 -0.00000000000E+00  0.00000000000E+00  0.35069111187E+03  0.35069111187E+03  0.00000000000E+00 0. -1.
          1   -1    0    0  501    0  0.00000000000E+00 -0.00000000000E+00 -0.71449042870E+03  0.71449042870E+03  0.00000000000E+00 0. -1.
         36    2    1    2    0    0 -0.14210854715E-13  0.00000000000E+00 -0.36379931683E+03  0.10651815406E+04  0.10011302470E+04 0.  0.
         25    2    3    3    0    0 -0.35554549201E+02  0.58454627246E+02 -0.19893582728E+03  0.24590774405E+03  0.12733454281E+03 0.  0.
         35    2    3    3    0    0  0.35554549201E+02 -0.58454627246E+02 -0.16486348955E+03  0.81927379651E+03  0.79959271761E+03 0.  0.
         22    1    5    5    0    0  0.28566379538E+03  0.26480265889E+03 -0.12270426673E+03  0.40838779269E+03  0.00000000000E+00 0. -1.
         22    1    5    5    0    0 -0.25010924618E+03 -0.32325728613E+03 -0.42159222814E+02  0.41088600382E+03  0.00000000000E+00 0. -1.
          5    1    4    4  502    0 -0.58209348378E+02  0.58578235947E+01 -0.17333454157E+03  0.18300162742E+03  0.47000000000E+01 0. -1.
         -5    1    4    4    0  502  0.22654799177E+02  0.52596803652E+02 -0.25601285715E+02  0.62906116637E+02  0.47000000000E+01 0. -1.
<mgrwt>
<rscale>  0 0.10011302E+04</rscale>
<asrwt>0</asrwt>
<pdfrwt beam="1">  1        1 0.10992160E+00 0.10011302E+04</pdfrwt>
<pdfrwt beam="2">  1       -1 0.53952479E-01 0.10011302E+04</pdfrwt>
<totfact> 0.10517132E+02</totfact>
</mgrwt>
</event>
<event>
 9    1  0.4236486E-036  0.9999954E+03  0.7818608E-02  0.8681042E-01
          2   -1    0    0  501    0  0.00000000000E+00  0.00000000000E+00  0.59683551208E+03  0.59683551208E+03  0.00000000000E+00 0. -1.
         -2   -1    0    0    0  501 -0.00000000000E+00 -0.00000000000E+00 -0.41887203213E+03  0.41887203213E+03  0.00000000000E+00 0. -1.
         36    2    1    2    0    0  0.00000000000E+00  0.00000000000E+00  0.17796347996E+03  0.10157075442E+04  0.99999540758E+03 0.  0.
         25    2    3    3    0    0 -0.73720553639E+02 -0.11732444825E+03  0.63944859078E+01  0.18630220855E+03  0.12436992110E+03 0.  0.
         35    2    3    3    0    0  0.73720553639E+02  0.11732444825E+03  0.17156899405E+03  0.82940533567E+03  0.79954833808E+03 0.  0.
         22    1    5    5    0    0  0.69496524197E+02  0.10107681636E+03 -0.31733289389E+03  0.34021530716E+03  0.00000000000E+00 0.  1.
         22    1    5    5    0    0  0.42240294419E+01  0.16247631890E+02  0.48890188794E+03  0.48919002851E+03  0.00000000000E+00 0.  1.
          5    1    4    4  502    0 -0.20307812357E+02 -0.43747968954E+02  0.62709070366E+02  0.79251558575E+02  0.47000000000E+01 0.  1.
         -5    1    4    4    0  502 -0.53412741282E+02 -0.73576479294E+02 -0.56314584459E+02  0.10705064997E+03  0.47000000000E+01 0.  1.
<mgrwt>
<rscale>  0 0.99999541E+03</rscale>
<asrwt>0</asrwt>
<pdfrwt beam="1">  1        2 0.91820848E-01 0.99999541E+03</pdfrwt>
<pdfrwt beam="2">  1       -2 0.64441851E-01 0.99999541E+03</pdfrwt>
<totfact> 0.13431611E+02</totfact>
</mgrwt>
</event>
<event>
 9    1  0.4236486E-036  0.9987838E+03  0.7818608E-02  0.8682197E-01
          2   -1    0    0  501    0  0.00000000000E+00  0.00000000000E+00  0.99461203548E+03  0.99461203548E+03  0.00000000000E+00 0.  1.
         -2   -1    0    0    0  501 -0.00000000000E+00 -0.00000000000E+00 -0.25074325817E+03  0.25074325817E+03  0.00000000000E+00 0.  1.
         36    2    1    2    0    0  0.00000000000E+00  0.15987211555E-13  0.74386877731E+03  0.12453552937E+04  0.99878378520E+03 0.  0.
         25    2    3    3    0    0  0.26250381285E+02  0.75993769103E+01 -0.29627807297E+02  0.13109442548E+03  0.12474417172E+03 0.  0.
         35    2    3    3    0    0 -0.26250381285E+02 -0.75993769103E+01  0.77349658461E+03  0.11142608682E+04  0.80158186289E+03 0.  0.
         22    1    5    5    0    0  0.45626229980E+02  0.16260858789E+03 -0.11657523976E+03  0.20521474665E+03  0.00000000000E+00 0. -1.
         22    1    5    5    0    0 -0.71876611265E+02 -0.17020796480E+03  0.89007182437E+03  0.90904612153E+03  0.00000000000E+00 0. -1.
          5    1    4    4  502    0  0.67329643891E+02  0.18881417260E+02 -0.47493332043E+02  0.84661062199E+02  0.47000000000E+01 0. -1.
         -5    1    4    4    0  502 -0.41079262606E+02 -0.11282040350E+02  0.17865524745E+02  0.46433363276E+02  0.47000000000E+01 0. -1.
<mgrwt>
<rscale>  0 0.99878379E+03</rscale>
<asrwt>0</asrwt>
<pdfrwt beam="1">  1        2 0.15301723E+00 0.99878379E+03</pdfrwt>
<pdfrwt beam="2">  1       -2 0.38575886E-01 0.99878379E+03</pdfrwt>
<totfact> 0.19481783E+02</totfact>
</mgrwt>
</event>
<event>
 9    1  0.4236486E-036  0.1000015E+04  0.7818608E-02  0.8681024E-01
          2   -1    0    0  501    0  0.00000000000E+00  0.00000000000E+00  0.90228224639E+03  0.90228224639E+03  0.00000000000E+00 0.  1.
         -2   -1    0    0    0  501 -0.00000000000E+00 -0.00000000000E+00 -0.27708346982E+03  0.27708346982E+03  0.00000000000E+00 0.  1.
         36    2    1    2    0    0  0.00000000000E+00  0.14210854715E-13  0.62519877657E+03  0.11793657162E+04  0.10000149911E+04 0.  0.
         25    2    3    3    0    0  0.12770077770E+03  0.96042864887E+01  0.52119998873E+02  0.18686994240E+03  0.12571455821E+03 0.  0.
         35    2    3    3    0    0 -0.12770077770E+03 -0.96042864887E+01  0.57307877770E+03  0.99249577381E+03  0.80014301511E+03 0.  0.
         22    1    5    5    0    0 -0.18156425523E+03  0.34384265018E+03  0.10363797278E+03  0.40241045745E+03  0.00000000000E+00 0. -1.
         22    1    5    5    0    0  0.53863477530E+02 -0.35344693667E+03  0.46944080492E+03  0.59008531636E+03  0.00000000000E+00 0. -1.
          5    1    4    4  502    0  0.99917943520E+01  0.16365960763E+02 -0.35008365532E+02  0.40191495161E+02  0.47000000000E+01 0. -1.
         -5    1    4    4    0  502  0.11770898335E+03 -0.67616742742E+01  0.87128364405E+02  0.14667844724E+03  0.47000000000E+01 0. -1.
<mgrwt>
<rscale>  0 0.10000150E+04</rscale>
<asrwt>0</asrwt>
<pdfrwt beam="1">  1        2 0.13881265E+00 0.10000150E+04</pdfrwt>
<pdfrwt beam="2">  1       -2 0.42628226E-01 0.10000150E+04</pdfrwt>
<totfact> 0.18439239E+02</totfact>
</mgrwt>
</event>
<event>
 9    1  0.4236486E-036  0.9977828E+03  0.7818608E-02  0.8683152E-01
         -1   -1    0    0    0  501 -0.00000000000E+00  0.00000000000E+00  0.85243521859E+03  0.85243521859E+03  0.00000000000E+00 0.  1.
          1   -1    0    0  501    0  0.00000000000E+00 -0.00000000000E+00 -0.29197837620E+03  0.29197837620E+03  0.00000000000E+00 0.  1.
         36    2    1    2    0    0  0.35527136788E-14 -0.42632564146E-13  0.56045684239E+03  0.11444135948E+04  0.99778284400E+03 0.  0.
         25    2    3    3    0    0  0.31887982549E+02 -0.11877815347E+03  0.53957967181E+02  0.18382181323E+03  0.12551455543E+03 0.  0.
         35    2    3    3    0    0 -0.31887982549E+02  0.11877815347E+03  0.50649887520E+03  0.96059178156E+03  0.80688931524E+03 0.  0.
         22    1    5    5    0    0 -0.11650297260E+02 -0.34638963275E+03  0.16943113926E+03  0.38578286387E+03  0.00000000000E+00 0. -1.
         22    1    5    5    0    0 -0.20237685289E+02  0.46516778622E+03  0.33706773594E+03  0.57480891769E+03  0.00000000000E+00 0. -1.
          5    1    4    4  502    0 -0.22935489932E+02 -0.11457474298E+03  0.18945361788E+02  0.11846697920E+03  0.47000000000E+01 0.  1.
         -5    1    4    4    0  502  0.54823472481E+02 -0.42034104884E+01  0.35012605394E+02  0.65354834030E+02  0.47000000000E+01 0.  1.
<mgrwt>
<rscale>  0 0.99778284E+03</rscale>
<asrwt>0</asrwt>
<pdfrwt beam="1">  1        1 0.44919751E-01 0.99778284E+03</pdfrwt>
<pdfrwt beam="2">  1       -1 0.13114388E+00 0.99778284E+03</pdfrwt>
<totfact> 0.53930539E+01</totfact>
</mgrwt>
</event>
<event>
 9    1  0.4236486E-036  0.1000239E+04  0.7818608E-02  0.8680811E-01
          2   -1    0    0  501    0  0.00000000000E+00  0.00000000000E+00  0.37480411297E+03  0.37480411297E+03  0.00000000000E+00 0.  1.
         -2   -1    0    0    0  501 -0.00000000000E+00 -0.00000000000E+00 -0.66733362143E+03  0.66733362143E+03  0.00000000000E+00 0.  1.
         36    2    1    2    0    0  0.00000000000E+00 -0.28421709430E-13 -0.29252950846E+03  0.10421377344E+04  0.10002387436E+04 0.  0.
         25    2    3    3    0    0 -0.56110819082E+02 -0.11601653195E+03 -0.11065963916E+03  0.21146823350E+03  0.12595633503E+03 0.  0.
         35    2    3    3    0    0  0.56110819082E+02  0.11601653195E+03 -0.18186986930E+03  0.83066950090E+03  0.80020429308E+03 0.  0.
         22    1    5    5    0    0  0.24338639486E+02 -0.18263047361E+03  0.24635078967E+03  0.30762797473E+03  0.00000000000E+00 0.  1.
         22    1    5    5    0    0  0.31772179595E+02  0.29864700557E+03 -0.42822065897E+03  0.52304152617E+03  0.00000000000E+00 0.  1.
          5    1    4    4  502    0 -0.12585043626E+02 -0.63661384258E+02 -0.12573901553E+03  0.14157522804E+03  0.47000000000E+01 0. -1.
         -5    1    4    4    0  502 -0.43525775456E+02 -0.52355147697E+02  0.15079376373E+02  0.69893005453E+02  0.47000000000E+01 0. -1.
<mgrwt>
<rscale>  0 0.10002387E+04</rscale>
<asrwt>0</asrwt>
<pdfrwt beam="1">  1        2 0.57662172E-01 0.10002387E+04</pdfrwt>
<pdfrwt beam="2">  1       -2 0.10266671E+00 0.10002387E+04</pdfrwt>
<totfact> 0.78703054E+01</totfact>
</mgrwt>
</event>
<event>
 9    1  0.4236486E-036  0.1000987E+04  0.7818608E-02  0.8680098E-01
          2   -1    0    0  501    0  0.00000000000E+00  0.00000000000E+00  0.66382717125E+03  0.66382717125E+03  0.00000000000E+00 0.  1.
         -2   -1    0    0    0  501 -0.00000000000E+00 -0.00000000000E+00 -0.37734815895E+03  0.37734815895E+03  0.00000000000E+00 0.  1.
         36    2    1    2    0    0  0.00000000000E+00  0.14210854715E-13  0.28647901230E+03  0.10411753302E+04  0.10009874344E+04 0.  0.
         25    2    3    3    0    0  0.12847595268E+03 -0.16196858883E+02  0.11393431866E+03  0.21273748626E+03  0.12453031935E+03 0.  0.
         35    2    3    3    0    0 -0.12847595268E+03  0.16196858883E+02  0.17254469364E+03  0.82843784394E+03  0.79985572531E+03 0.  0.
         22    1    5    5    0    0 -0.29902994177E+02  0.14652171056E+03 -0.29631916559E+03  0.33191542390E+03  0.00000000000E+00 0.  1.
         22    1    5    5    0    0 -0.98572958500E+02 -0.13032485168E+03  0.46886385923E+03  0.49652242004E+03  0.00000000000E+00 0.  1.
          5    1    4    4  502    0  0.61733112128E+02  0.52469572934E+02  0.70431334412E+02  0.10745555399E+03  0.47000000000E+01 0. -1.
         -5    1    4    4    0  502  0.66742840549E+02 -0.68666431817E+02  0.43502984253E+02  0.10528193227E+03  0.47000000000E+01 0. -1.
<mgrwt>
<rscale>  0 0.10009874E+04</rscale>
<asrwt>0</asrwt>
<pdfrwt beam="1">  1        2 0.10212726E+00 0.10009874E+04</pdfrwt>
<pdfrwt beam="2">  1       -2 0.58053563E-01 0.10009874E+04</pdfrwt>
<totfact> 0.14716013E+02</totfact>
</mgrwt>
</event>
<event>
 9    1  0.4236486E-036  0.1000661E+04  0.7818608E-02  0.8680409E-01
          2   -1    0    0  501    0  0.00000000000E+00  0.00000000000E+00  0.14619608274E+04  0.14619608274E+04  0.00000000000E+00 0.  1.
         -2   -1    0    0    0  501 -0.00000000000E+00 -0.00000000000E+00 -0.17122926943E+03  0.17122926943E+03  0.00000000000E+00 0.  1.
         36    2    1    2    0    0  0.14210854715E-13  0.14210854715E-13  0.12907315580E+04  0.16331900968E+04  0.10006607505E+04 0.  0.
         25    2    3    3    0    0  0.10373107455E+03 -0.94536021014E+02  0.20455351402E+03  0.27791769915E+03  0.12529530041E+03 0.  0.
         35    2    3    3    0    0 -0.10373107455E+03  0.94536021014E+02  0.10861780439E+04  0.13552723977E+04  0.79830027788E+03 0.  0.
         22    1    5    5    0    0 -0.18941562562E+03  0.25955874596E+03  0.11209606080E+04  0.11661053582E+04  0.00000000000E+00 0.  1.
         22    1    5    5    0    0  0.85684551063E+02 -0.16502272495E+03 -0.34782564077E+02  0.18916703942E+03  0.00000000000E+00 0.  1.
          5    1    4    4  502    0  0.42928132215E+02 -0.59465531822E+02  0.19313840326E+03  0.20664826838E+03  0.47000000000E+01 0.  1.
         -5    1    4    4    0  502  0.60802942339E+02 -0.35070489192E+02  0.11415110766E+02  0.71269430775E+02  0.47000000000E+01 0.  1.
<mgrwt>
<rscale>  0 0.10006608E+04</rscale>
<asrwt>0</asrwt>
<pdfrwt beam="1">  1        2 0.22491704E+00 0.10006608E+04</pdfrwt>
<pdfrwt beam="2">  1       -2 0.26342965E-01 0.10006608E+04</pdfrwt>
<totfact> 0.20808379E+02</totfact>
</mgrwt>
</event>
<event>
 9    1  0.4236486E-036  0.9993340E+03  0.7818608E-02  0.8681672E-01
          2   -1    0    0  501    0  0.00000000000E+00  0.00000000000E+00  0.85485154579E+03  0.85485154579E+03  0.00000000000E+00 0.  1.
         -2   -1    0    0    0  501 -0.00000000000E+00 -0.00000000000E+00 -0.29205900721E+03  0.29205900721E+03  0.00000000000E+00 0.  1.
         36    2    1    2    0    0 -0.71054273576E-14 -0.14210854715E-13  0.56279253858E+03  0.11469105530E+04  0.99933396576E+03 0.  0.
         25    2    3    3    0    0  0.57143742571E+02  0.43505734596E+02  0.24327708695E+03  0.28210182751E+03  0.12344854714E+03 0.  0.
         35    2    3    3    0    0 -0.57143742571E+02 -0.43505734596E+02  0.31951545163E+03  0.86480872550E+03  0.80040355547E+03 0.  0.
         22    1    5    5    0    0  0.22757038156E+03  0.28202973540E+03  0.82584863670E+02  0.37168442249E+03  0.00000000000E+00 0.  1.
         22    1    5    5    0    0 -0.28471412413E+03 -0.32553547000E+03  0.23693058796E+03  0.49312430301E+03  0.00000000000E+00 0.  1.
          5    1    4    4  502    0  0.42219379751E+02  0.10912439040E+02  0.24198143266E+03  0.24592409623E+03  0.47000000000E+01 0. -1.
         -5    1    4    4    0  502  0.14924362819E+02  0.32593295556E+02  0.12956542901E+01  0.36177731283E+02  0.47000000000E+01 0. -1.
<mgrwt>
<rscale>  0 0.99933397E+03</rscale>
<asrwt>0</asrwt>
<pdfrwt beam="1">  1        2 0.13151562E+00 0.99933397E+03</pdfrwt>
<pdfrwt beam="2">  1       -2 0.44932155E-01 0.99933397E+03</pdfrwt>
<totfact> 0.17899939E+02</totfact>
</mgrwt>
</event>
<event>
 9    1  0.4236486E-036  0.1000142E+04  0.7818608E-02  0.8680902E-01
          1   -1    0    0  501    0  0.00000000000E+00  0.00000000000E+00  0.38827962400E+03  0.38827962400E+03  0.00000000000E+00 0.  1.
         -1   -1    0    0    0  501 -0.00000000000E+00 -0.00000000000E+00 -0.64404919031E+03  0.64404919031E+03  0.00000000000E+00 0.  1.
         36    2    1    2    0    0  0.00000000000E+00  0.00000000000E+00 -0.25576956631E+03  0.10323288143E+04  0.10001423448E+04 0.  0.
         25    2    3    3    0    0  0.86464006006E+02 -0.10859526873E+03 -0.76925955751E+02  0.20135872217E+03  0.12393052732E+03 0.  0.
         35    2    3    3    0    0 -0.86464006006E+02  0.10859526873E+03 -0.17884361056E+03  0.83097009213E+03  0.79953567791E+03 0.  0.
         22    1    5    5    0    0 -0.44414488196E+03  0.88294173926E+02 -0.86824525857E+02  0.46108462956E+03  0.00000000000E+00 0. -1.
         22    1    5    5    0    0  0.35768087596E+03  0.20301094803E+02 -0.92019084702E+02  0.36988546258E+03  0.00000000000E+00 0. -1.
          5    1    4    4  502    0  0.26734459498E+01 -0.67726896789E+02  0.15833329173E+02  0.69762914035E+02  0.47000000000E+01 0.  1.
         -5    1    4    4    0  502  0.83790560056E+02 -0.40868371939E+02 -0.92759284924E+02  0.13159580814E+03  0.47000000000E+01 0.  1.
<mgrwt>
<rscale>  0 0.10001423E+04</rscale>
<asrwt>0</asrwt>
<pdfrwt beam="1">  1        1 0.59735327E-01 0.10001423E+04</pdfrwt>
<pdfrwt beam="2">  1       -1 0.99084491E-01 0.10001423E+04</pdfrwt>
<totfact> 0.72758814E+01</totfact>
</mgrwt>
</event>
<event>
 9    1  0.4236486E-036  0.9994703E+03  0.7818608E-02  0.8681543E-01
         -2   -1    0    0    0  501 -0.00000000000E+00  0.00000000000E+00  0.21605055788E+03  0.21605055788E+03  0.00000000000E+00 0. -1.
          2   -1    0    0  501    0  0.00000000000E+00 -0.00000000000E+00 -0.11559109694E+04  0.11559109694E+04  0.00000000000E+00 0. -1.
         36    2    1    2    0    0  0.00000000000E+00 -0.21316282073E-13 -0.93986041150E+03  0.13719615273E+04  0.99947027929E+03 0.  0.
         25    2    3    3    0    0  0.13878526347E+03  0.16020686640E+02 -0.14883195127E+03  0.23927730622E+03  0.12483856695E+03 0.  0.
         35    2    3    3    0    0 -0.13878526347E+03 -0.16020686640E+02 -0.79102846023E+03  0.11326842210E+04  0.79857968165E+03 0.  0.
         22    1    5    5    0    0  0.79986868489E+02 -0.35073789993E+03 -0.17953721677E+03  0.40205545113E+03  0.00000000000E+00 0. -1.
         22    1    5    5    0    0 -0.21877213196E+03  0.33471721329E+03 -0.61149124346E+03  0.73062876991E+03  0.00000000000E+00 0. -1.
          5    1    4    4  502    0  0.69046953935E+02 -0.54441480278E+02 -0.72839040220E+02  0.11427586098E+03  0.47000000000E+01 0.  1.
         -5    1    4    4    0  502  0.69738309533E+02  0.70462166918E+02 -0.75992911050E+02  0.12500144524E+03  0.47000000000E+01 0.  1.
<mgrwt>
<rscale>  0 0.99947028E+03</rscale>
<asrwt>0</asrwt>
<pdfrwt beam="1">  1        2 0.17783246E+00 0.99947028E+03</pdfrwt>
<pdfrwt beam="2">  1       -2 0.33238547E-01 0.99947028E+03</pdfrwt>
<totfact> 0.20518254E+02</totfact>
</mgrwt>
</event>
<event>
 9    1  0.4236486E-036  0.1000575E+04  0.7818608E-02  0.8680491E-01
         -1   -1    0    0    0  501 -0.00000000000E+00  0.00000000000E+00  0.74363331124E+03  0.74363331124E+03  0.00000000000E+00 0. -1.
          1   -1    0    0  501    0  0.00000000000E+00 -0.00000000000E+00 -0.33657397031E+03  0.33657397031E+03  0.00000000000E+00 0. -1.
         36    2    1    2    0    0 -0.42632564146E-13  0.00000000000E+00  0.40705934094E+03  0.10802072815E+04  0.10005750667E+04 0.  0.
         25    2    3    3    0    0  0.19027391155E+02 -0.12370279480E+03  0.14604062508E+03  0.22929936773E+03  0.12484355335E+03 0.  0.
         35    2    3    3    0    0 -0.19027391155E+02  0.12370279480E+03  0.26101871585E+03  0.85090791382E+03  0.80015566280E+03 0.  0.
         22    1    5    5    0    0 -0.31894733779E+03  0.28556777220E+03  0.11044319045E+02  0.42825031674E+03  0.00000000000E+00 0. -1.
         22    1    5    5    0    0  0.29991994664E+03 -0.16186497741E+03  0.24997439681E+03  0.42265759707E+03  0.00000000000E+00 0. -1.
          5    1    4    4  502    0 -0.48507175340E+02 -0.77257793120E+02  0.98901394422E+02  0.13463019155E+03  0.47000000000E+01 0. -1.
         -5    1    4    4    0  502  0.67534566495E+02 -0.46445001676E+02  0.47139230663E+02  0.94669176187E+02  0.47000000000E+01 0. -1.
<mgrwt>
<rscale>  0 0.10005751E+04</rscale>
<asrwt>0</asrwt>
<pdfrwt beam="1">  1        1 0.51780611E-01 0.10005751E+04</pdfrwt>
<pdfrwt beam="2">  1       -1 0.11440512E+00 0.10005751E+04</pdfrwt>
<totfact> 0.63041636E+01</totfact>
</mgrwt>
</event>
<event>
 9    1  0.4236486E-036  0.9999013E+03  0.7818608E-02  0.8681132E-01
          2   -1    0    0  501    0  0.00000000000E+00  0.00000000000E+00  0.99954778842E+03  0.99954778842E+03  0.00000000000E+00 0. -1.
         -2   -1    0    0    0  501 -0.00000000000E+00 -0.00000000000E+00 -0.25006374084E+03  0.25006374084E+03  0.00000000000E+00 0. -1.
         36    2    1    2    0    0 -0.35527136788E-14  0.71054273576E-14  0.74948404758E+03  0.12496115293E+04  0.99990131337E+03 0.  0.
         25    2    3    3    0    0  0.21589708406E+02  0.36943280247E+02 -0.26317452726E+02  0.13463171440E+03  0.12490864157E+03 0.  0.
         35    2    3    3    0    0 -0.21589708406E+02 -0.36943280247E+02  0.77580150030E+03  0.11149798149E+04  0.79967562061E+03 0.  0.
         22    1    5    5    0    0 -0.29577043440E+03 -0.25914706622E+03  0.20391670321E+03  0.44296656041E+03  0.00000000000E+00 0.  1.
         22    1    5    5    0    0  0.27418072599E+03  0.22220378597E+03  0.57188479709E+03  0.67201325445E+03  0.00000000000E+00 0.  1.
          5    1    4    4  502    0  0.32870426404E+01 -0.60492891111E+01  0.46906875400E+02  0.47641825195E+02  0.47000000000E+01 0.  1.
         -5    1    4    4    0  502  0.18302665765E+02  0.42992569358E+02 -0.73224328126E+02  0.86989889204E+02  0.47000000000E+01 0.  1.
<mgrwt>
<rscale>  0 0.99990131E+03</rscale>
<asrwt>0</asrwt>
<pdfrwt beam="1">  1        2 0.15377658E+00 0.99990131E+03</pdfrwt>
<pdfrwt beam="2">  1       -2 0.38471345E-01 0.99990131E+03</pdfrwt>
<totfact> 0.19442838E+02</totfact>
</mgrwt>
</event>
<event>
 9    1  0.4236486E-036  0.1000444E+04  0.7818608E-02  0.8680616E-01
          2   -1    0    0  501    0  0.00000000000E+00  0.00000000000E+00  0.82283814240E+03  0.82283814240E+03  0.00000000000E+00 0.  1.
         -2   -1    0    0    0  501 -0.00000000000E+00 -0.00000000000E+00 -0.30409610990E+03  0.30409610990E+03  0.00000000000E+00 0.  1.
         36    2    1    2    0    0 -0.28421709430E-13 -0.14210854715E-13  0.51874203250E+03  0.11269342523E+04  0.10004436580E+04 0.  0.
         25    2    3    3    0    0 -0.87475238053E+02  0.78750554343E+02  0.11261100921E+02  0.17178162370E+03  0.12461358981E+03 0.  0.
         35    2    3    3    0    0  0.87475238053E+02 -0.78750554343E+02  0.50748093158E+03  0.95515262860E+03  0.80057859135E+03 0.  0.
         22    1    5    5    0    0 -0.30973526150E+03 -0.48589229334E+02  0.45614767623E+03  0.55350478585E+03  0.00000000000E+00 0.  1.
         22    1    5    5    0    0  0.39721049956E+03 -0.30161325009E+02  0.51333255348E+02  0.40164784275E+03  0.00000000000E+00 0.  1.
          5    1    4    4  502    0 -0.76023010489E+02  0.67228151194E+02  0.61509963944E+02  0.11876315970E+03  0.47000000000E+01 0.  1.
         -5    1    4    4    0  502 -0.11452227564E+02  0.11522403149E+02 -0.50248863023E+02  0.53018464007E+02  0.47000000000E+01 0.  1.
<mgrwt>
<rscale>  0 0.10004437E+04</rscale>
<asrwt>0</asrwt>
<pdfrwt beam="1">  1        2 0.12659048E+00 0.10004437E+04</pdfrwt>
<pdfrwt beam="2">  1       -2 0.46784017E-01 0.10004437E+04</pdfrwt>
<totfact> 0.17387211E+02</totfact>
</mgrwt>
</event>
<event>
 9    1  0.4236486E-036  0.9976438E+03  0.7818608E-02  0.8683285E-01
          1   -1    0    0  501    0  0.00000000000E+00  0.00000000000E+00  0.15401547874E+04  0.15401547874E+04  0.00000000000E+00 0.  1.
         -1   -1    0    0    0  501 -0.00000000000E+00 -0.00000000000E+00 -0.16155732403E+03  0.16155732403E+03  0.00000000000E+00 0.  1.
         36    2    1    2    0    0  0.00000000000E+00  0.00000000000E+00  0.13785974634E+04  0.17017121115E+04  0.99764379626E+03 0.  0.
         25    2    3    3    0    0 -0.10148576118E+03 -0.13579957009E+02  0.97621827451E+02  0.18809545840E+03  0.12396009568E+03 0.  0.
         35    2    3    3    0    0  0.10148576118E+03  0.13579957009E+02  0.12809756360E+04  0.15136166531E+04  0.79978310660E+03 0.  0.
         22    1    5    5    0    0  0.42968364881E+03  0.13212873415E+03  0.82393032481E+03  0.93858788644E+03  0.00000000000E+00 0. -1.
         22    1    5    5    0    0 -0.32819788764E+03 -0.11854877714E+03  0.45704531115E+03  0.57502876663E+03  0.00000000000E+00 0. -1.
          5    1    4    4  502    0 -0.13510837195E+02  0.36844118715E+02  0.73969170506E+02  0.83866322150E+02  0.47000000000E+01 0.  1.
         -5    1    4    4    0  502 -0.87974923982E+02 -0.50424075724E+02  0.23652656945E+02  0.10422913625E+03  0.47000000000E+01 0.  1.
<mgrwt>
<rscale>  0 0.99764380E+03</rscale>
<asrwt>0</asrwt>
<pdfrwt beam="1">  1        1 0.23694688E+00 0.99764380E+03</pdfrwt>
<pdfrwt beam="2">  1       -1 0.24854974E-01 0.99764380E+03</pdfrwt>
<totfact> 0.93466071E+01</totfact>
</mgrwt>
</event>
<event>
 9    1  0.4236486E-036  0.1000255E+04  0.7818608E-02  0.8680795E-01
          2   -1    0    0  501    0  0.00000000000E+00  0.00000000000E+00  0.88337097718E+03  0.88337097718E+03  0.00000000000E+00 0. -1.
         -2   -1    0    0    0  501 -0.00000000000E+00 -0.00000000000E+00 -0.28315133470E+03  0.28315133470E+03  0.00000000000E+00 0. -1.
         36    2    1    2    0    0 -0.14210854715E-13  0.00000000000E+00  0.60021964248E+03  0.11665223119E+04  0.10002553099E+04 0.  0.
         25    2    3    3    0    0  0.12398739255E+03  0.54562020757E+02  0.16061896131E+03  0.24435567080E+03  0.12474516223E+03 0.  0.
         35    2    3    3    0    0 -0.12398739255E+03 -0.54562020757E+02  0.43960068117E+03  0.92216664108E+03  0.79924506093E+03 0.  0.
         22    1    5    5    0    0 -0.72999713456E+02 -0.14103143169E+03  0.66060947075E+03  0.67942894826E+03  0.00000000000E+00 0. -1.
         22    1    5    5    0    0 -0.50987679099E+02  0.86469410931E+02 -0.22100878958E+03  0.24273769282E+03  0.00000000000E+00 0. -1.
          5    1    4    4  502    0 -0.19907370756E+02  0.13139475615E+02  0.57658449010E+02  0.62574243680E+02  0.47000000000E+01 0. -1.
         -5    1    4    4    0  502  0.14389476331E+03  0.41422545141E+02  0.10296051230E+03  0.18178142712E+03  0.47000000000E+01 0. -1.
<mgrwt>
<rscale>  0 0.10002553E+04</rscale>
<asrwt>0</asrwt>
<pdfrwt beam="1">  1        2 0.13590323E+00 0.10002553E+04</pdfrwt>
<pdfrwt beam="2">  1       -2 0.43561744E-01 0.10002553E+04</pdfrwt>
<totfact> 0.18196242E+02</totfact>
</mgrwt>
</event>
<event>
 9    1  0.4236486E-036  0.9997745E+03  0.7818608E-02  0.8681253E-01
          2   -1    0    0  501    0  0.00000000000E+00  0.00000000000E+00  0.17497761766E+03  0.17497761766E+03  0.00000000000E+00 0. -1.
         -2   -1    0    0    0  501 -0.00000000000E+00 -0.00000000000E+00 -0.14281098806E+04  0.14281098806E+04  0.00000000000E+00 0. -1.
         36    2    1    2    0    0 -0.14210854715E-13  0.00000000000E+00 -0.12531322629E+04  0.16030874982E+04  0.99977450390E+03 0.  0.
         25    2    3    3    0    0  0.39949727809E+02 -0.80954185425E+02 -0.64303344889E+02  0.16733091264E+03  0.12536009441E+03 0.  0.
         35    2    3    3    0    0 -0.39949727809E+02  0.80954185425E+02 -0.11888289180E+04  0.14357565856E+04  0.79995825883E+03 0.  0.
         22    1    5    5    0    0 -0.26978669146E+03 -0.14416859245E+03 -0.10347971987E+04  0.10790619465E+04  0.00000000000E+00 0. -1.
         22    1    5    5    0    0  0.22983696366E+03  0.22512277788E+03 -0.15403171925E+03  0.35669463904E+03  0.00000000000E+00 0. -1.
          5    1    4    4  502    0  0.38889935525E+02 -0.11428113754E+03 -0.50386389244E+02  0.13089493383E+03  0.47000000000E+01 0. -1.
         -5    1    4    4    0  502  0.10597922842E+01  0.33326952114E+02 -0.13916955645E+02  0.36435978803E+02  0.47000000000E+01 0. -1.
<mgrwt>
<rscale>  0 0.99977450E+03</rscale>
<asrwt>0</asrwt>
<pdfrwt beam="1">  1        2 0.26919634E-01 0.99977450E+03</pdfrwt>
<pdfrwt beam="2">  1       -2 0.21970921E+00 0.99977450E+03</pdfrwt>
<totfact> 0.21575286E+01</totfact>
</mgrwt>
</event>
<event>
 9    1  0.4236486E-036  0.1000142E+04  0.7818608E-02  0.8680902E-01
          2   -1    0    0  501    0  0.00000000000E+00  0.00000000000E+00  0.11353293354E+04  0.11353293354E+04  0.00000000000E+00 0. -1.
         -2   -1    0    0    0  501 -0.00000000000E+00 -0.00000000000E+00 -0.22026307890E+03  0.22026307890E+03  0.00000000000E+00 0. -1.
         36    2    1    2    0    0 -0.14210854715E-13  0.28421709430E-13  0.91506625652E+03  0.13555924143E+04  0.10001422599E+04 0.  0.
         25    2    3    3    0    0 -0.30081945169E+02 -0.11676135269E+03  0.77415986860E+02  0.19032133998E+03  0.12526308523E+03 0.  0.
         35    2    3    3    0    0  0.30081945169E+02  0.11676135269E+03  0.83765026966E+03  0.11652710743E+04  0.80103718112E+03 0.  0.
         22    1    5    5    0    0  0.21382302101E+03  0.21980513544E+03  0.89571524891E+03  0.94675254898E+03  0.00000000000E+00 0. -1.
         22    1    5    5    0    0 -0.18374107584E+03 -0.10304378274E+03 -0.58064979243E+02  0.21851852537E+03  0.00000000000E+00 0. -1.
          5    1    4    4  502    0 -0.23399591387E+02 -0.35301325791E+02  0.97170239242E+02  0.10610310963E+03  0.47000000000E+01 0. -1.
         -5    1    4    4    0  502 -0.66823537825E+01 -0.81460026903E+02 -0.19754252382E+02  0.84218230344E+02  0.47000000000E+01 0. -1.
<mgrwt>
<rscale>  0 0.10001423E+04</rscale>
<asrwt>0</asrwt>
<pdfrwt beam="1">  1        2 0.17466605E+00 0.10001423E+04</pdfrwt>
<pdfrwt beam="2">  1       -2 0.33886628E-01 0.10001423E+04</pdfrwt>
<totfact> 0.20366614E+02</totfact>
</mgrwt>
</event>
<event>
 9    1  0.4236486E-036  0.9984742E+03  0.7818608E-02  0.8682492E-01
          2   -1    0    0  501    0  0.00000000000E+00  0.00000000000E+00  0.12899408246E+04  0.12899408246E+04  0.00000000000E+00 0. -1.
         -2   -1    0    0    0  501 -0.00000000000E+00 -0.00000000000E+00 -0.19321636400E+03  0.19321636400E+03  0.00000000000E+00 0. -1.
         36    2    1    2    0    0  0.00000000000E+00  0.28421709430E-13  0.10967244606E+04  0.14831571886E+04  0.99847418775E+03 0.  0.
         25    2    3    3    0    0  0.65621192294E+02  0.10362911561E+03  0.31174851649E+03  0.35646709068E+03  0.12180523273E+03 0.  0.
         35    2    3    3    0    0 -0.65621192294E+02 -0.10362911561E+03  0.78497594412E+03  0.11266900979E+04  0.79887308719E+03 0.  0.
         22    1    5    5    0    0 -0.96642992474E+02  0.24615314765E+03  0.72334395073E+03  0.77016732672E+03  0.00000000000E+00 0. -1.
         22    1    5    5    0    0  0.31021800180E+02 -0.34978226326E+03  0.61631993393E+02  0.35652277121E+03  0.00000000000E+00 0. -1.
          5    1    4    4  502    0 -0.13041876346E+02  0.58315577570E+02  0.21715404532E+03  0.22527486883E+03  0.47000000000E+01 0.  1.
         -5    1    4    4    0  502  0.78663068640E+02  0.45313538045E+02  0.94594471167E+02  0.13119222185E+03  0.47000000000E+01 0.  1.
<mgrwt>
<rscale>  0 0.99847419E+03</rscale>
<asrwt>0</asrwt>
<pdfrwt beam="1">  1        2 0.19845243E+00 0.99847419E+03</pdfrwt>
<pdfrwt beam="2">  1       -2 0.29725595E-01 0.99847419E+03</pdfrwt>
<totfact> 0.21003319E+02</totfact>
</mgrwt>
</event>
<event>
 9    1  0.4236486E-036  0.1000015E+04  0.7818608E-02  0.8681024E-01
          1   -1    0    0  501    0  0.00000000000E+00  0.00000000000E+00  0.73873322792E+03  0.73873322792E+03  0.00000000000E+00 0.  1.
         -1   -1    0    0    0  501 -0.00000000000E+00 -0.00000000000E+00 -0.33842739902E+03  0.33842739902E+03  0.00000000000E+00 0.  1.
         36    2    1    2    0    0  0.00000000000E+00  0.00000000000E+00  0.40030582890E+03  0.10771606269E+04  0.10000151297E+04 0.  0.
         25    2    3    3    0    0 -0.40417764787E+02  0.72886109498E+02  0.19285790788E+03  0.24553906868E+03  0.12707982117E+03 0.  0.
         35    2    3    3    0    0  0.40417764787E+02 -0.72886109498E+02  0.20744792102E+03  0.83162155826E+03  0.80100798720E+03 0.  0.
         22    1    5    5    0    0 -0.23235383583E+03  0.24365111855E+03 -0.50673368967E+02  0.34047314567E+03  0.00000000000E+00 0.  1.
         22    1    5    5    0    0  0.27277160062E+03 -0.31653722805E+03  0.25812128999E+03  0.49114841259E+03  0.00000000000E+00 0.  1.
          5    1    4    4  502    0 -0.19204978111E+02  0.10831322695E+03  0.13284699727E+03  0.17254275123E+03  0.47000000000E+01 0.  1.
         -5    1    4    4    0  502 -0.21212786676E+02 -0.35427117456E+02  0.60010910607E+02  0.72996317453E+02  0.47000000000E+01 0.  1.
<mgrwt>
<rscale>  0 0.10000151E+04</rscale>
<asrwt>0</asrwt>
<pdfrwt beam="1">  1        1 0.11365127E+00 0.10000151E+04</pdfrwt>
<pdfrwt beam="2">  1       -1 0.52065754E-01 0.10000151E+04</pdfrwt>
<totfact> 0.10672060E+02</totfact>
</mgrwt>
</event>
<event>
 9    1  0.4236486E-036  0.1000524E+04  0.7818608E-02  0.8680539E-01
         -1   -1    0    0    0  501 -0.00000000000E+00  0.00000000000E+00  0.27986002231E+03  0.27986002231E+03  0.00000000000E+00 0.  1.
          1   -1    0    0  501    0  0.00000000000E+00 -0.00000000000E+00 -0.89423986158E+03  0.89423986158E+03  0.00000000000E+00 0.  1.
         36    2    1    2    0    0 -0.14210854715E-13  0.00000000000E+00 -0.61437983926E+03  0.11740998839E+04  0.10005238380E+04 0.  0.
         25    2    3    3    0    0 -0.48955941522E+01  0.11819338380E+03 -0.26197097694E+02  0.17404321670E+03  0.12494442979E+03 0.  0.
         35    2    3    3    0    0  0.48955941522E+01 -0.11819338380E+03 -0.58818274157E+03  0.10000566672E+04  0.80010046700E+03 0.  0.
         22    1    5    5    0    0 -0.10927161209E+03 -0.42690820390E+03 -0.18079585388E+03  0.47631716382E+03  0.00000000000E+00 0. -1.
         22    1    5    5    0    0  0.11416720625E+03  0.30871482009E+03 -0.40738688769E+03  0.52373950337E+03  0.00000000000E+00 0. -1.
          5    1    4    4  502    0  0.40263409049E+02  0.10881518441E+03  0.80577170250E+01  0.11639975632E+03  0.47000000000E+01 0.  1.
         -5    1    4    4    0  502 -0.45159003201E+02  0.93781993922E+01 -0.34254814719E+02  0.57643460387E+02  0.47000000000E+01 0.  1.
<mgrwt>
<rscale>  0 0.10005238E+04</rscale>
<asrwt>0</asrwt>
<pdfrwt beam="1">  1        1 0.13757537E+00 0.10005238E+04</pdfrwt>
<pdfrwt beam="2">  1       -1 0.43055387E-01 0.10005238E+04</pdfrwt>
<totfact> 0.11045588E+02</totfact>
</mgrwt>
</event>
<event>
 9    1  0.4236486E-036  0.9991797E+03  0.7818608E-02  0.8681820E-01
         -2   -1    0    0    0  501 -0.00000000000E+00  0.00000000000E+00  0.11765442909E+03  0.11765442909E+03  0.00000000000E+00 0. -1.
          2   -1    0    0  501    0  0.00000000000E+00 -0.00000000000E+00 -0.21213820977E+04  0.21213820977E+04  0.00000000000E+00 0. -1.
         36    2    1    2    0    0  0.14210854715E-13  0.28421709430E-13 -0.20037276687E+04  0.22390365268E+04  0.99917966270E+03 0.  0.
         25    2    3    3    0    0 -0.11712158517E+03 -0.37597478380E+02 -0.22582584573E+03  0.28510128567E+03  0.12310318598E+03 0.  0.
         35    2    3    3    0    0  0.11712158517E+03  0.37597478380E+02 -0.17779018229E+04  0.19539352412E+04  0.80112233684E+03 0.  0.
         22    1    5    5    0    0  0.33990154958E+03 -0.26479484403E+03 -0.10465286082E+04  0.11317559369E+04  0.00000000000E+00 0.  1.
         22    1    5    5    0    0 -0.22277996441E+03  0.30239232241E+03 -0.73137321468E+03  0.82217930426E+03  0.00000000000E+00 0.  1.
          5    1    4    4  502    0 -0.10770255629E+02 -0.46931936654E+02 -0.13973511755E+03  0.14787358845E+03  0.47000000000E+01 0.  1.
         -5    1    4    4    0  502 -0.10635132954E+03  0.93344582742E+01 -0.86090728177E+02  0.13722769722E+03  0.47000000000E+01 0.  1.
<mgrwt>
<rscale>  0 0.99917966E+03</rscale>
<asrwt>0</asrwt>
<pdfrwt beam="1">  1        2 0.32636646E+00 0.99917966E+03</pdfrwt>
<pdfrwt beam="2">  1       -2 0.18100682E-01 0.99917966E+03</pdfrwt>
<totfact> 0.16959458E+02</totfact>
</mgrwt>
</event>
<event>
 9    1  0.4236486E-036  0.1000313E+04  0.7818608E-02  0.8680740E-01
         -2   -1    0    0    0  501 -0.00000000000E+00  0.00000000000E+00  0.35653585316E+03  0.35653585316E+03  0.00000000000E+00 0. -1.
          2   -1    0    0  501    0  0.00000000000E+00 -0.00000000000E+00 -0.70163072794E+03  0.70163072794E+03  0.00000000000E+00 0. -1.
         36    2    1    2    0    0  0.00000000000E+00  0.00000000000E+00 -0.34509487479E+03  0.10581665811E+04  0.10003129714E+04 0.  0.
         25    2    3    3    0    0  0.11247765089E+03 -0.84136071621E+02 -0.88725857630E+02  0.20703993609E+03  0.12354414929E+03 0.  0.
         35    2    3    3    0    0 -0.11247765089E+03  0.84136071621E+02 -0.25636901715E+03  0.85112664501E+03  0.79935060667E+03 0.  0.
         22    1    5    5    0    0 -0.20863320988E+02  0.23149137591E+03 -0.50037173245E+03  0.55172040557E+03  0.00000000000E+00 0.  1.
         22    1    5    5    0    0 -0.91614329905E+02 -0.14735530429E+03  0.24400271530E+03  0.29940623944E+03  0.00000000000E+00 0.  1.
          5    1    4    4  502    0  0.10761201211E+03 -0.36061619445E+02 -0.93246372815E+01  0.11397291085E+03  0.47000000000E+01 0.  1.
         -5    1    4    4    0  502  0.48656387783E+01 -0.48074452176E+02 -0.79401220349E+02  0.93067025233E+02  0.47000000000E+01 0.  1.
<mgrwt>
<rscale>  0 0.10003130E+04</rscale>
<asrwt>0</asrwt>
<pdfrwt beam="1">  1        2 0.10794319E+00 0.10003130E+04</pdfrwt>
<pdfrwt beam="2">  1       -2 0.54851670E-01 0.10003130E+04</pdfrwt>
<totfact> 0.15457994E+02</totfact>
</mgrwt>
</event>
<event>
 9    1  0.4236486E-036  0.1000032E+04  0.7818608E-02  0.8681007E-01
         -2   -1    0    0    0  501 -0.00000000000E+00  0.00000000000E+00  0.11808959079E+04  0.11808959079E+04  0.00000000000E+00 0.  1.
          2   -1    0    0  501    0  0.00000000000E+00 -0.00000000000E+00 -0.21171734358E+03  0.21171734358E+03  0.00000000000E+00 0.  1.
         36    2    1    2    0    0  0.00000000000E+00 -0.28421709430E-13  0.96917856428E+03  0.13926132514E+04  0.10000322888E+04 0.  0.
         25    2    3    3    0    0  0.68526132252E+02 -0.99551021410E+02  0.29789180277E+03  0.34132797962E+03  0.11471280159E+03 0.  0.
         35    2    3    3    0    0 -0.68526132252E+02  0.99551021410E+02  0.67128676152E+03  0.10512852718E+04  0.79998035596E+03 0.  0.
         22    1    5    5    0    0 -0.36745770035E+03  0.25539281600E+03  0.50709646600E+03  0.67631167211E+03  0.00000000000E+00 0. -1.
         22    1    5    5    0    0  0.29893156809E+03 -0.15584179459E+03  0.16419029552E+03  0.37497359972E+03  0.00000000000E+00 0. -1.
          5    1    4    4  502    0  0.75169246194E+02 -0.10684844281E+02  0.15864858450E+03  0.17594330005E+03  0.47000000000E+01 0.  1.
         -5    1    4    4    0  502 -0.66431139416E+01 -0.88866177129E+02  0.13924321827E+03  0.16538467956E+03  0.47000000000E+01 0.  1.
<mgrwt>
<rscale>  0 0.10000323E+04</rscale>
<asrwt>0</asrwt>
<pdfrwt beam="1">  1        2 0.32571900E-01 0.10000323E+04</pdfrwt>
<pdfrwt beam="2">  1       -2 0.18167629E+00 0.10000323E+04</pdfrwt>
<totfact> 0.31578760E+01</totfact>
</mgrwt>
</event>
<event>
 9    1  0.4236486E-036  0.9989984E+03  0.7818608E-02  0.8681992E-01
          2   -1    0    0  501    0  0.00000000000E+00  0.00000000000E+00  0.78533141253E+03  0.78533141253E+03  0.00000000000E+00 0.  1.
         -2   -1    0    0    0  501 -0.00000000000E+00 -0.00000000000E+00 -0.31769958183E+03  0.31769958183E+03  0.00000000000E+00 0.  1.
         36    2    1    2    0    0  0.14210854715E-13  0.00000000000E+00  0.46763183070E+03  0.11030309944E+04  0.99899842114E+03 0.  0.
         25    2    3    3    0    0 -0.76284562489E+02 -0.75453879993E+02 -0.97274625518E+01  0.16533683258E+03  0.12541539858E+03 0.  0.
         35    2    3    3    0    0  0.76284562489E+02  0.75453879993E+02  0.47735929325E+03  0.93769416178E+03  0.79992863662E+03 0.  0.
         22    1    5    5    0    0 -0.11746348805E+03  0.36247768618E+03  0.44901098682E+02  0.38367154269E+03  0.00000000000E+00 0. -1.
         22    1    5    5    0    0  0.19374805054E+03 -0.28702380619E+03  0.43245819457E+03  0.55402261909E+03  0.00000000000E+00 0. -1.
          5    1    4    4  502    0 -0.10856035403E+03 -0.38395117622E+02 -0.12890195557E+01  0.11525314354E+03  0.47000000000E+01 0. -1.
         -5    1    4    4    0  502  0.32275791541E+02 -0.37058762371E+02 -0.84384429960E+01  0.50083689044E+02  0.47000000000E+01 0. -1.
<mgrwt>
<rscale>  0 0.99899842E+03</rscale>
<asrwt>0</asrwt>
<pdfrwt beam="1">  1        2 0.12082022E+00 0.99899842E+03</pdfrwt>
<pdfrwt beam="2">  1       -2 0.48876859E-01 0.99899842E+03</pdfrwt>
<totfact> 0.16935393E+02</totfact>
</mgrwt>
</event>
<event>
 9    1  0.4236486E-036  0.1001050E+04  0.7818608E-02  0.8680038E-01
         -2   -1    0    0    0  501 -0.00000000000E+00  0.00000000000E+00  0.19673406304E+03  0.19673406304E+03  0.00000000000E+00 0. -1.
          2   -1    0    0  501    0  0.00000000000E+00 -0.00000000000E+00 -0.12734218136E+04  0.12734218136E+04  0.00000000000E+00 0. -1.
         36    2    1    2    0    0  0.00000000000E+00  0.00000000000E+00 -0.10766877506E+04  0.14701558767E+04  0.10010503431E+04 0.  0.
         25    2    3    3    0    0  0.10976339614E+03  0.32066469290E+02 -0.32193474601E+03  0.36369834438E+03  0.12473268792E+03 0.  0.
         35    2    3    3    0    0 -0.10976339614E+03 -0.32066469290E+02 -0.75475300457E+03  0.11064575323E+04  0.80094938121E+03 0.  0.
         22    1    5    5    0    0  0.15136657949E+03  0.50349371759E+02 -0.81131583342E+03  0.82684961280E+03  0.00000000000E+00 0. -1.
         22    1    5    5    0    0 -0.26112997563E+03 -0.82415841049E+02  0.56562828854E+02  0.27960791948E+03  0.00000000000E+00 0. -1.
          5    1    4    4  502    0  0.14466146281E+02  0.15667950569E+02  0.52768528077E+01  0.22465289644E+02  0.47000000000E+01 0.  1.
         -5    1    4    4    0  502  0.95297249859E+02  0.16398518721E+02 -0.32721159882E+03  0.34123305474E+03  0.47000000000E+01 0.  1.
<mgrwt>
<rscale>  0 0.10010503E+04</rscale>
<asrwt>0</asrwt>
<pdfrwt beam="1">  1        2 0.19591104E+00 0.10010503E+04</pdfrwt>
<pdfrwt beam="2">  1       -2 0.30266780E-01 0.10010503E+04</pdfrwt>
<totfact> 0.20778614E+02</totfact>
</mgrwt>
</event>
<event>
 9    1  0.4236486E-036  0.9983712E+03  0.7818608E-02  0.8682591E-01
         -2   -1    0    0    0  501 -0.00000000000E+00  0.00000000000E+00  0.16638479315E+03  0.16638479315E+03  0.00000000000E+00 0. -1.
          2   -1    0    0  501    0  0.00000000000E+00 -0.00000000000E+00 -0.14976505020E+04  0.14976505020E+04  0.00000000000E+00 0. -1.
         36    2    1    2    0    0  0.00000000000E+00  0.17763568394E-13 -0.13312657089E+04  0.16640352951E+04  0.99837121148E+03 0.  0.
         25    2    3    3    0    0 -0.12943705595E+03  0.15991609411E+02 -0.34047718182E+03  0.38588444659E+03  0.12638200724E+03 0.  0.
         35    2    3    3    0    0  0.12943705595E+03 -0.15991609411E+02 -0.99078852704E+03  0.12781508486E+04  0.79686761971E+03 0.  0.
         22    1    5    5    0    0 -0.77902285342E+01  0.37994713310E+03 -0.37988290590E+03  0.53733744873E+03  0.00000000000E+00 0.  1.
         22    1    5    5    0    0  0.13722728448E+03 -0.39593874251E+03 -0.61090562113E+03  0.74081339983E+03  0.00000000000E+00 0.  1.
          5    1    4    4  502    0 -0.29300495993E+02 -0.17746302505E+02 -0.60149953734E+01  0.35095875646E+02  0.47000000000E+01 0.  1.
         -5    1    4    4    0  502 -0.10013655995E+03  0.33737911916E+02 -0.33446218645E+03  0.35078857094E+03  0.47000000000E+01 0.  1.
<mgrwt>
<rscale>  0 0.99837121E+03</rscale>
<asrwt>0</asrwt>
<pdfrwt beam="1">  1        2 0.23040777E+00 0.99837121E+03</pdfrwt>
<pdfrwt beam="2">  1       -2 0.25597660E-01 0.99837121E+03</pdfrwt>
<totfact> 0.20904706E+02</totfact>
</mgrwt>
</event>
<event>
 9    1  0.4236486E-036  0.1000626E+04  0.7818608E-02  0.8680442E-01
          2   -1    0    0  501    0  0.00000000000E+00  0.00000000000E+00  0.51410883437E+03  0.51410883437E+03  0.00000000000E+00 0. -1.
         -2   -1    0    0    0  501 -0.00000000000E+00 -0.00000000000E+00 -0.48688713665E+03  0.48688713665E+03  0.00000000000E+00 0. -1.
         36    2    1    2    0    0  0.14210854715E-13  0.14210854715E-13  0.27221697716E+02  0.10009959710E+04  0.10006257608E+04 0.  0.
         25    2    3    3    0    0  0.95595397836E+02 -0.10123048676E+03 -0.18610459994E+02  0.18797063120E+03  0.12490203136E+03 0.  0.
         35    2    3    3    0    0 -0.95595397836E+02  0.10123048676E+03  0.45832157710E+02  0.81302533982E+03  0.79970214766E+03 0.  0.
         22    1    5    5    0    0 -0.41441958321E+02 -0.33474126795E+03  0.13749161881E+03  0.36424318473E+03  0.00000000000E+00 0. -1.
         22    1    5    5    0    0 -0.54153439515E+02  0.43597175471E+03 -0.91659461096E+02  0.44878215509E+03  0.00000000000E+00 0. -1.
          5    1    4    4  502    0  0.60056918320E+01  0.22686776531E+02 -0.25318006114E+02  0.34840344392E+02  0.47000000000E+01 0. -1.
         -5    1    4    4    0  502  0.89589706004E+02 -0.12391726329E+03  0.67075461200E+01  0.15313028681E+03  0.47000000000E+01 0. -1.
<mgrwt>
<rscale>  0 0.10006258E+04</rscale>
<asrwt>0</asrwt>
<pdfrwt beam="1">  1        2 0.79093667E-01 0.10006258E+04</pdfrwt>
<pdfrwt beam="2">  1       -2 0.74905713E-01 0.10006258E+04</pdfrwt>
<totfact> 0.11531722E+02</totfact>
</mgrwt>
</event>
<event>
 9    1  0.4236486E-036  0.1001291E+04  0.7818608E-02  0.8679810E-01
          2   -1    0    0  501    0  0.00000000000E+00  0.00000000000E+00  0.22972081171E+04  0.22972081171E+04  0.00000000000E+00 0. -1.
         -2   -1    0    0    0  501 -0.00000000000E+00 -0.00000000000E+00 -0.10910887641E+03  0.10910887641E+03  0.00000000000E+00 0. -1.
         36    2    1    2    0    0  0.00000000000E+00  0.00000000000E+00  0.21880992407E+04  0.24063169935E+04  0.10012907600E+04 0.  0.
         25    2    3    3    0    0  0.10291199857E+03 -0.51539667124E+02  0.62676441889E+03  0.64805285655E+03  0.11786284978E+03 0.  0.
         35    2    3    3    0    0 -0.10291199857E+03  0.51539667124E+02  0.15613348218E+04  0.17582641370E+04  0.80029940198E+03 0.  0.
         22    1    5    5    0    0 -0.88395643549E+02  0.24170192588E+02  0.16560639769E+04  0.16585975653E+04  0.00000000000E+00 0.  1.
         22    1    5    5    0    0 -0.14516355023E+02  0.27369474536E+02 -0.94729155053E+02  0.99666571710E+02  0.00000000000E+00 0.  1.
          5    1    4    4  502    0  0.96799545294E+02 -0.10913998535E+02  0.56731341538E+03  0.57563518707E+03  0.47000000000E+01 0. -1.
         -5    1    4    4    0  502  0.61124532775E+01 -0.40625668589E+02  0.59451003520E+02  0.72417669480E+02  0.47000000000E+01 0. -1.
<mgrwt>
<rscale>  0 0.10012908E+04</rscale>
<asrwt>0</asrwt>
<pdfrwt beam="1">  1        2 0.35341660E+00 0.10012908E+04</pdfrwt>
<pdfrwt beam="2">  1       -2 0.16785983E-01 0.10012908E+04</pdfrwt>
<totfact> 0.15232847E+02</totfact>
</mgrwt>
</event>
<event>
 9    1  0.4236486E-036  0.9977080E+03  0.7818608E-02  0.8683224E-01
          3   -1    0    0  501    0  0.00000000000E+00  0.00000000000E+00  0.86038381751E+03  0.86038381751E+03  0.00000000000E+00 0.  1.
         -3   -1    0    0    0  501 -0.00000000000E+00 -0.00000000000E+00 -0.28923753330E+03  0.28923753330E+03  0.00000000000E+00 0.  1.
         36    2    1    2    0    0 -0.28421709430E-13  0.28421709430E-13  0.57114628421E+03  0.11496213508E+04  0.99770795941E+03 0.  0.
         25    2    3    3    0    0  0.12791085912E+03  0.74549262766E+01  0.16347507662E+03  0.24221397416E+03  0.12460635936E+03 0.  0.
         35    2    3    3    0    0 -0.12791085912E+03 -0.74549262766E+01  0.40767120759E+03  0.90740737665E+03  0.80048458442E+03 0.  0.
         22    1    5    5    0    0 -0.26446627972E+03  0.17806769296E+03  0.55064371875E+03  0.63628533017E+03  0.00000000000E+00 0. -1.
         22    1    5    5    0    0  0.13655542059E+03 -0.18552261924E+03 -0.14297251116E+03  0.27112204649E+03  0.00000000000E+00 0. -1.
          5    1    4    4  502    0  0.10925119081E+03  0.50729126247E+02  0.75318938188E+02  0.14214182844E+03  0.47000000000E+01 0. -1.
         -5    1    4    4    0  502  0.18659668315E+02 -0.43274199970E+02  0.88156138435E+02  0.10007214572E+03  0.47000000000E+01 0. -1.
<mgrwt>
<rscale>  0 0.99770796E+03</rscale>
<asrwt>0</asrwt>
<pdfrwt beam="1">  1        3 0.13236674E+00 0.99770796E+03</pdfrwt>
<pdfrwt beam="2">  1       -3 0.44498082E-01 0.99770796E+03</pdfrwt>
<totfact> 0.93715558E+00</totfact>
</mgrwt>
</event>
<event>
 9    1  0.4236486E-036  0.9957199E+03  0.7818608E-02  0.8685125E-01
         -2   -1    0    0    0  501 -0.00000000000E+00  0.00000000000E+00  0.60745588797E+03  0.60745588797E+03  0.00000000000E+00 0.  1.
          2   -1    0    0  501    0  0.00000000000E+00 -0.00000000000E+00 -0.40803710519E+03  0.40803710519E+03  0.00000000000E+00 0.  1.
         36    2    1    2    0    0 -0.14210854715E-13  0.71054273576E-14  0.19941878278E+03  0.10154929932E+04  0.99571992459E+03 0.  0.
         25    2    3    3    0    0  0.10005556364E+03 -0.19764235895E+02  0.12862905440E+03  0.20607704167E+03  0.12458159027E+03 0.  0.
         35    2    3    3    0    0 -0.10005556364E+03  0.19764235895E+02  0.70789728386E+02  0.80941595149E+03  0.79983826868E+03 0.  0.
         22    1    5    5    0    0  0.27007866992E+03 -0.15518746648E+03  0.21150378899E+03  0.37650961535E+03  0.00000000000E+00 0. -1.
         22    1    5    5    0    0 -0.37013423355E+03  0.17495170238E+03 -0.14071406060E+03  0.43290633613E+03  0.00000000000E+00 0. -1.
          5    1    4    4  502    0 -0.71105766724E+01  0.20851772632E+02 -0.11253227181E+02  0.25180981801E+02  0.47000000000E+01 0. -1.
         -5    1    4    4    0  502  0.10716614031E+03 -0.40616008526E+02  0.13988228158E+03  0.18089605987E+03  0.47000000000E+01 0. -1.
<mgrwt>
<rscale>  0 0.99571992E+03</rscale>
<asrwt>0</asrwt>
<pdfrwt beam="1">  1        2 0.62774939E-01 0.99571992E+03</pdfrwt>
<pdfrwt beam="2">  1       -2 0.93454752E-01 0.99571992E+03</pdfrwt>
<totfact> 0.89831755E+01</totfact>
</mgrwt>
</event>
<event>
 9    1  0.4236486E-036  0.1000064E+04  0.7818608E-02  0.8680977E-01
          3   -1    0    0  501    0  0.00000000000E+00  0.00000000000E+00  0.84075634760E+03  0.84075634760E+03  0.00000000000E+00 0.  1.
         -3   -1    0    0    0  501 -0.00000000000E+00 -0.00000000000E+00 -0.29738964302E+03  0.29738964302E+03  0.00000000000E+00 0.  1.
         36    2    1    2    0    0  0.00000000000E+00 -0.28421709430E-13  0.54336670458E+03  0.11381459906E+04  0.10000644581E+04 0.  0.
         25    2    3    3    0    0  0.26486922212E+02 -0.10876313160E+03  0.19594054390E+03  0.25764047544E+03  0.12431790698E+03 0.  0.
         35    2    3    3    0    0 -0.26486922212E+02  0.10876313160E+03  0.34742616067E+03  0.88050551519E+03  0.80128275241E+03 0.  0.
         22    1    5    5    0    0  0.28799057095E+03  0.31838201455E+03  0.15527104998E+03  0.45652467086E+03  0.00000000000E+00 0. -1.
         22    1    5    5    0    0 -0.31447749316E+03 -0.20961888295E+03  0.19215511070E+03  0.42398084433E+03  0.00000000000E+00 0. -1.
          5    1    4    4  502    0 -0.18502985824E+02 -0.91689854277E+02  0.18604482457E+03  0.20828863773E+03  0.47000000000E+01 0. -1.
         -5    1    4    4    0  502  0.44989908035E+02 -0.17073277323E+02  0.98957193371E+01  0.49351837704E+02  0.47000000000E+01 0. -1.
<mgrwt>
<rscale>  0 0.10000645E+04</rscale>
<asrwt>0</asrwt>
<pdfrwt beam="1">  1        3 0.12934713E+00 0.10000645E+04</pdfrwt>
<pdfrwt beam="2">  1       -3 0.45752253E-01 0.10000645E+04</pdfrwt>
<totfact> 0.93834442E+00</totfact>
</mgrwt>
</event>
