<event>
 9    1  0.7986988E-001  0.2746318E+03  0.7818608E-02  0.1098658E+00
         -1   -1    0    0    0  501 -0.00000000000E+00  0.00000000000E+00  0.82939728532E+01  0.82939728532E+01  0.00000000000E+00 0. -1.
          1   -1    0    0  501    0  0.00000000000E+00 -0.00000000000E+00 -0.22734162142E+04  0.22734162142E+04  0.00000000000E+00 0. -1.
         35    2    1    2    0    0  0.71054273576E-14  0.00000000000E+00 -0.22651222413E+04  0.22817101870E+04  0.27463177066E+03 0.  0.
         25    2    3    3    0    0  0.31024036673E+02 -0.44839475983E+02 -0.97870298970E+03  0.98811497296E+03  0.12465387390E+03 0.  0.
         25    2    3    3    0    0 -0.31024036673E+02  0.44839475983E+02 -0.12864192516E+04  0.12935952141E+04  0.12466361725E+03 0.  0.
          5    1    4    4  502    0  0.40052510298E+02 -0.16888512197E+02 -0.93013103654E+03  0.93115802127E+03  0.47000000000E+01 0.  1.
         -5    1    4    4    0  502 -0.90284736250E+01 -0.27950963787E+02 -0.48571953154E+02  0.56956951690E+02  0.47000000000E+01 0.  1.
          5    1    5    5  503    0  0.47249835968E+02  0.30229803596E+02 -0.54106291588E+03  0.54398304842E+03  0.47000000000E+01 0. -1.
         -5    1    5    5    0  503 -0.78273872641E+02  0.14609672387E+02 -0.74535633576E+03  0.74961216567E+03  0.47000000000E+01 0. -1.
<mgrwt>
<rscale>  0 0.27463177E+03</rscale>
<asrwt>0</asrwt>
<pdfrwt beam="1">  1        1 0.34975691E+00 0.27463177E+03</pdfrwt>
<pdfrwt beam="2">  1       -1 0.12759937E-02 0.27463177E+03</pdfrwt>
<totfact> 0.29555370E+03</totfact>
</mgrwt>
</event>
<event>
 9    1  0.7986988E-001  0.2756031E+03  0.7818608E-02  0.1098115E+00
          2   -1    0    0  501    0  0.00000000000E+00  0.00000000000E+00  0.45464878667E+03  0.45464878667E+03  0.00000000000E+00 0.  1.
         -2   -1    0    0    0  501 -0.00000000000E+00 -0.00000000000E+00 -0.41766878687E+02  0.41766878687E+02  0.00000000000E+00 0.  1.
         35    2    1    2    0    0 -0.71054273576E-14 -0.71054273576E-14  0.41288190798E+03  0.49641566536E+03  0.27560305309E+03 0.  0.
         25    2    3    3    0    0 -0.42500651501E+02  0.16426644096E+02  0.13780448649E+03  0.19126482380E+03  0.12456330243E+03 0.  0.
         25    2    3    3    0    0  0.42500651501E+02 -0.16426644096E+02  0.27507742149E+03  0.30515084156E+03  0.12398914579E+03 0.  0.
          5    1    4    4  502    0 -0.79707818900E+02 -0.15779746631E+02  0.10056155874E+03  0.12937176622E+03  0.47000000000E+01 0. -1.
         -5    1    4    4    0  502  0.37207167399E+02  0.32206390727E+02  0.37242927750E+02  0.61893057582E+02  0.47000000000E+01 0. -1.
          5    1    5    5  503    0 -0.27792340206E+01 -0.53130010007E+02  0.52023397520E+02  0.74559010150E+02  0.47000000000E+01 0. -1.
         -5    1    5    5    0  503  0.45279885522E+02  0.36703365911E+02  0.22305402397E+03  0.23059183141E+03  0.47000000000E+01 0. -1.
<mgrwt>
<rscale>  0 0.27560305E+03</rscale>
<asrwt>0</asrwt>
<pdfrwt beam="1">  1        2 0.69945964E-01 0.27560305E+03</pdfrwt>
<pdfrwt beam="2">  1       -2 0.64256740E-02 0.27560305E+03</pdfrwt>
<totfact> 0.91656827E+03</totfact>
</mgrwt>
</event>
<event>
 9    1  0.7986988E-001  0.2548500E+03  0.7818608E-02  0.1110278E+00
         -2   -1    0    0    0  501 -0.00000000000E+00  0.00000000000E+00  0.46460487309E+02  0.46460487309E+02  0.00000000000E+00 0. -1.
          2   -1    0    0  501    0  0.00000000000E+00 -0.00000000000E+00 -0.34948245597E+03  0.34948245597E+03  0.00000000000E+00 0. -1.
         35    2    1    2    0    0  0.00000000000E+00 -0.35527136788E-14 -0.30302196866E+03  0.39594294328E+03  0.25484995751E+03 0.  0.
         25    2    3    3    0    0 -0.47932603514E+01 -0.21516051287E+02 -0.13956856129E+03  0.18856692587E+03  0.12486867671E+03 0.  0.
         25    2    3    3    0    0  0.47932603514E+01  0.21516051287E+02 -0.16345340737E+03  0.20737601741E+03  0.12570553054E+03 0.  0.
          5    1    4    4  502    0  0.37978672733E+02  0.35457098365E+02 -0.80383437090E+02  0.95828870208E+02  0.47000000000E+01 0. -1.
         -5    1    4    4    0  502 -0.42771933084E+02 -0.56973149652E+02 -0.59185124201E+02  0.92738055660E+02  0.47000000000E+01 0. -1.
          5    1    5    5  503    0  0.29525658649E+02  0.14301225384E+02  0.78693183777E+01  0.34063260822E+02  0.47000000000E+01 0.  1.
         -5    1    5    5    0  503 -0.24732398297E+02  0.72148259025E+01 -0.17132272575E+03  0.17331275659E+03  0.47000000000E+01 0.  1.
<mgrwt>
<rscale>  0 0.25484996E+03</rscale>
<asrwt>0</asrwt>
<pdfrwt beam="1">  1        2 0.53766534E-01 0.25484996E+03</pdfrwt>
<pdfrwt beam="2">  1       -2 0.71477669E-02 0.25484996E+03</pdfrwt>
<totfact> 0.10316317E+04</totfact>
</mgrwt>
</event>
<event>
 9    1  0.7986988E-001  0.2861780E+03  0.7818608E-02  0.1092362E+00
         -1   -1    0    0    0  501 -0.00000000000E+00  0.00000000000E+00  0.60728145809E+01  0.60728145809E+01  0.00000000000E+00 0. -1.
          1   -1    0    0  501    0  0.00000000000E+00 -0.00000000000E+00 -0.33714948584E+04  0.33714948584E+04  0.00000000000E+00 0. -1.
         35    2    1    2    0    0 -0.71054273576E-14  0.00000000000E+00 -0.33654220438E+04  0.33775676730E+04  0.28617800849E+03 0.  0.
         25    2    3    3    0    0 -0.36170537049E+02 -0.17055487292E+02 -0.99251736774E+03  0.10010346264E+04  0.12401774322E+03 0.  0.
         25    2    3    3    0    0  0.36170537049E+02  0.17055487292E+02 -0.23729046761E+04  0.23765330465E+04  0.12503408428E+03 0.  0.
          5    1    4    4  502    0  0.36768124444E+02 -0.31925779059E+02 -0.24718540123E+03  0.25197988595E+03  0.47000000000E+01 0. -1.
         -5    1    4    4    0  502 -0.72938661493E+02  0.14870291766E+02 -0.74533196651E+03  0.74905474047E+03  0.47000000000E+01 0. -1.
          5    1    5    5  503    0  0.23645188236E+02 -0.49561514398E+02 -0.66600747691E+03  0.66828398749E+03  0.47000000000E+01 0.  1.
         -5    1    5    5    0  503  0.12525348812E+02  0.66617001690E+02 -0.17068971991E+04  0.17082490590E+04  0.47000000000E+01 0.  1.
<mgrwt>
<rscale>  0 0.28617801E+03</rscale>
<asrwt>0</asrwt>
<pdfrwt beam="1">  1        1 0.51869063E+00 0.28617801E+03</pdfrwt>
<pdfrwt beam="2">  1       -1 0.93428075E-03 0.28617801E+03</pdfrwt>
<totfact> 0.81092997E+02</totfact>
</mgrwt>
</event>
<event>
 9    1  0.7986988E-001  0.2830741E+03  0.7818608E-02  0.1094022E+00
          1   -1    0    0  501    0  0.00000000000E+00  0.00000000000E+00  0.85890566299E+03  0.85890566299E+03  0.00000000000E+00 0.  1.
         -1   -1    0    0    0  501 -0.00000000000E+00 -0.00000000000E+00 -0.23323561045E+02  0.23323561045E+02  0.00000000000E+00 0.  1.
         35    2    1    2    0    0  0.00000000000E+00  0.00000000000E+00  0.83558210194E+03  0.88222922403E+03  0.28307411512E+03 0.  0.
         25    2    3    3    0    0  0.17454311841E+00  0.51479337813E+02  0.31398427446E+03  0.34188188093E+03  0.12508774206E+03 0.  0.
         25    2    3    3    0    0 -0.17454311841E+00 -0.51479337813E+02  0.52159782748E+03  0.54034734310E+03  0.13138038238E+03 0.  0.
          5    1    4    4  502    0  0.25017394234E+02  0.57974535996E+02  0.30885488649E+03  0.31527820690E+03  0.47000000000E+01 0.  1.
         -5    1    4    4    0  502 -0.24842851116E+02 -0.64951981834E+01  0.51293879710E+01  0.26603674031E+02  0.47000000000E+01 0.  1.
          5    1    5    5  503    0 -0.47445736771E+02 -0.26346314123E+02  0.88451731647E+02  0.10387985867E+03  0.47000000000E+01 0. -1.
         -5    1    5    5    0  503  0.47271193653E+02 -0.25133023690E+02  0.43314609584E+03  0.43646748443E+03  0.47000000000E+01 0. -1.
<mgrwt>
<rscale>  0 0.28307412E+03</rscale>
<asrwt>0</asrwt>
<pdfrwt beam="1">  1        1 0.13213931E+00 0.28307412E+03</pdfrwt>
<pdfrwt beam="2">  1       -1 0.35882408E-02 0.28307412E+03</pdfrwt>
<totfact> 0.59535193E+03</totfact>
</mgrwt>
</event>
<event>
 9    1  0.7986988E-001  0.2735823E+03  0.7818608E-02  0.1099247E+00
          3   -1    0    0  501    0  0.00000000000E+00  0.00000000000E+00  0.58649284023E+03  0.58649284023E+03  0.00000000000E+00 0.  1.
         -3   -1    0    0    0  501 -0.00000000000E+00 -0.00000000000E+00 -0.31904595913E+02  0.31904595913E+02  0.00000000000E+00 0.  1.
         35    2    1    2    0    0  0.71054273576E-14  0.00000000000E+00  0.55458824432E+03  0.61839743614E+03  0.27358228797E+03 0.  0.
         25    2    3    3    0    0 -0.40598549570E+02 -0.14293256384E+02  0.26846629497E+03  0.29889494625E+03  0.12414305439E+03 0.  0.
         25    2    3    3    0    0  0.40598549570E+02  0.14293256384E+02  0.28612194934E+03  0.31950248989E+03  0.13551210922E+03 0.  0.
          5    1    4    4  502    0 -0.47528813117E+02  0.41306376197E+02  0.78292791535E+02  0.10058357717E+03  0.47000000000E+01 0.  1.
         -5    1    4    4    0  502  0.69302635472E+01 -0.55599632580E+02  0.19017350344E+03  0.19831136908E+03  0.47000000000E+01 0.  1.
          5    1    5    5  503    0 -0.28406156203E+02 -0.28833823141E+02  0.18593256150E+03  0.19034522976E+03  0.47000000000E+01 0.  1.
         -5    1    5    5    0  503  0.69004705773E+02  0.43127079525E+02  0.10018938784E+03  0.12915726013E+03  0.47000000000E+01 0.  1.
<mgrwt>
<rscale>  0 0.27358229E+03</rscale>
<asrwt>0</asrwt>
<pdfrwt beam="1">  1        3 0.90229660E-01 0.27358229E+03</pdfrwt>
<pdfrwt beam="2">  1       -3 0.49083998E-02 0.27358229E+03</pdfrwt>
<totfact> 0.68164673E+02</totfact>
</mgrwt>
</event>
<event>
 9    1  0.7986988E-001  0.2743454E+03  0.7818608E-02  0.1098818E+00
          1   -1    0    0  501    0  0.00000000000E+00  0.00000000000E+00  0.57264039849E+02  0.57264039849E+02  0.00000000000E+00 0. -1.
         -1   -1    0    0    0  501 -0.00000000000E+00 -0.00000000000E+00 -0.32858932154E+03  0.32858932154E+03  0.00000000000E+00 0. -1.
         35    2    1    2    0    0  0.00000000000E+00  0.00000000000E+00 -0.27132528169E+03  0.38585336139E+03  0.27434541733E+03 0.  0.
         25    2    3    3    0    0  0.19820524630E+02  0.36133131009E+02 -0.18677008473E+03  0.22840714445E+03  0.12485312464E+03 0.  0.
         25    2    3    3    0    0 -0.19820524630E+02 -0.36133131009E+02 -0.84555196966E+02  0.15744621694E+03  0.12625875630E+03 0.  0.
          5    1    4    4  502    0 -0.46842714099E+02  0.26033389504E+02 -0.40698633715E+02  0.67456993851E+02  0.47000000000E+01 0.  1.
         -5    1    4    4    0  502  0.66663238729E+02  0.10099741505E+02 -0.14607145101E+03  0.16095015060E+03  0.47000000000E+01 0.  1.
          5    1    5    5  503    0 -0.17042557604E+02  0.42711492673E+02 -0.70659142139E+01  0.46762565368E+02  0.47000000000E+01 0. -1.
         -5    1    5    5    0  503 -0.27779670261E+01 -0.78844623682E+02 -0.77489282752E+02  0.11068365157E+03  0.47000000000E+01 0. -1.
<mgrwt>
<rscale>  0 0.27434542E+03</rscale>
<asrwt>0</asrwt>
<pdfrwt beam="1">  1        1 0.88098523E-02 0.27434542E+03</pdfrwt>
<pdfrwt beam="2">  1       -1 0.50552203E-01 0.27434542E+03</pdfrwt>
<totfact> 0.30560578E+03</totfact>
</mgrwt>
</event>
<event>
 9    1  0.7986988E-001  0.2725065E+03  0.7818608E-02  0.1099854E+00
         -1   -1    0    0    0  501 -0.00000000000E+00  0.00000000000E+00  0.69458088395E+03  0.69458088395E+03  0.00000000000E+00 0. -1.
          1   -1    0    0  501    0  0.00000000000E+00 -0.00000000000E+00 -0.26728274326E+02  0.26728274326E+02  0.00000000000E+00 0. -1.
         35    2    1    2    0    0 -0.14210854715E-13  0.00000000000E+00  0.66785260962E+03  0.72130915827E+03  0.27250650200E+03 0.  0.
         25    2    3    3    0    0  0.31343906001E+02 -0.43325706459E+02  0.31930786247E+03  0.34730352253E+03  0.12570866494E+03 0.  0.
         25    2    3    3    0    0 -0.31343906001E+02  0.43325706459E+02  0.34854474715E+03  0.37400563574E+03  0.12464837551E+03 0.  0.
          5    1    4    4  502    0  0.19017630535E+02  0.19689402967E+02  0.72937133260E+01  0.28716391042E+02  0.47000000000E+01 0. -1.
         -5    1    4    4    0  502  0.12326275466E+02 -0.63015109426E+02  0.31201414915E+03  0.31858713149E+03  0.47000000000E+01 0. -1.
          5    1    5    5  503    0 -0.78679453500E+02  0.18429755307E+02  0.18683534117E+03  0.20361642123E+03  0.47000000000E+01 0.  1.
         -5    1    5    5    0  503  0.47335547499E+02  0.24895951152E+02  0.16170940597E+03  0.17038921451E+03  0.47000000000E+01 0.  1.
<mgrwt>
<rscale>  0 0.27250650E+03</rscale>
<asrwt>0</asrwt>
<pdfrwt beam="1">  1        1 0.41120427E-02 0.27250650E+03</pdfrwt>
<pdfrwt beam="2">  1       -1 0.10685858E+00 0.27250650E+03</pdfrwt>
<totfact> 0.18948856E+03</totfact>
</mgrwt>
</event>
<event>
 9    1  0.7986988E-001  0.2779917E+03  0.7818608E-02  0.1096791E+00
          1   -1    0    0  501    0  0.00000000000E+00  0.00000000000E+00  0.50644697007E+03  0.50644697007E+03  0.00000000000E+00 0.  1.
         -1   -1    0    0    0  501 -0.00000000000E+00 -0.00000000000E+00 -0.38147822113E+02  0.38147822113E+02  0.00000000000E+00 0.  1.
         35    2    1    2    0    0  0.00000000000E+00  0.00000000000E+00  0.46829914795E+03  0.54459479218E+03  0.27799171875E+03 0.  0.
         25    2    3    3    0    0 -0.59105117235E+02  0.21467960325E+01  0.20056198683E+03  0.24327078610E+03  0.12432836036E+03 0.  0.
         25    2    3    3    0    0  0.59105117235E+02 -0.21467960325E+01  0.26773716112E+03  0.30132400608E+03  0.12495977584E+03 0.  0.
          5    1    4    4  502    0  0.32485621628E+02  0.26416240671E+02  0.73194343440E+02  0.84454930557E+02  0.47000000000E+01 0. -1.
         -5    1    4    4    0  502 -0.91590738863E+02 -0.24269444639E+02  0.12736764339E+03  0.15881585554E+03  0.47000000000E+01 0. -1.
          5    1    5    5  503    0 -0.21423879348E+02  0.14802580810E+02  0.17606986948E+03  0.17804715090E+03  0.47000000000E+01 0. -1.
         -5    1    5    5    0  503  0.80528996583E+02 -0.16949376842E+02  0.91667291640E+02  0.12327685518E+03  0.47000000000E+01 0. -1.
<mgrwt>
<rscale>  0 0.27799172E+03</rscale>
<asrwt>0</asrwt>
<pdfrwt beam="1">  1        1 0.77914914E-01 0.27799172E+03</pdfrwt>
<pdfrwt beam="2">  1       -1 0.58688961E-02 0.27799172E+03</pdfrwt>
<totfact> 0.61068197E+03</totfact>
</mgrwt>
</event>
<event>
 9    1  0.7986988E-001  0.2764436E+03  0.7818608E-02  0.1097647E+00
         -2   -1    0    0    0  501 -0.00000000000E+00  0.00000000000E+00  0.36748322579E+03  0.36748322579E+03  0.00000000000E+00 0.  1.
          2   -1    0    0  501    0  0.00000000000E+00 -0.00000000000E+00 -0.51989501541E+02  0.51989501541E+02  0.00000000000E+00 0.  1.
         35    2    1    2    0    0  0.00000000000E+00  0.00000000000E+00  0.31549372425E+03  0.41947272733E+03  0.27644362705E+03 0.  0.
         25    2    3    3    0    0 -0.36864822232E+02 -0.34737519694E+02  0.11194225306E+03  0.17547706273E+03  0.12528136786E+03 0.  0.
         25    2    3    3    0    0  0.36864822232E+02  0.34737519694E+02  0.20355147119E+03  0.24399566460E+03  0.12463936989E+03 0.  0.
          5    1    4    4  502    0 -0.33538478627E+02 -0.15000796532E+02  0.13765738903E+03  0.14255349943E+03  0.47000000000E+01 0.  1.
         -5    1    4    4    0  502 -0.33263436049E+01 -0.19736723162E+02 -0.25715135966E+02  0.32923563305E+02  0.47000000000E+01 0.  1.
          5    1    5    5  503    0 -0.45479998541E+02  0.22918272654E+02  0.81344565303E+02  0.96086969944E+02  0.47000000000E+01 0.  1.
         -5    1    5    5    0  503  0.82344820772E+02  0.11819247040E+02  0.12220690589E+03  0.14790869466E+03  0.47000000000E+01 0.  1.
<mgrwt>
<rscale>  0 0.27644363E+03</rscale>
<asrwt>0</asrwt>
<pdfrwt beam="1">  1        2 0.79983851E-02 0.27644363E+03</pdfrwt>
<pdfrwt beam="2">  1       -2 0.56535879E-01 0.27644363E+03</pdfrwt>
<totfact> 0.25372133E+03</totfact>
</mgrwt>
</event>
<event>
 9    1  0.7986988E-001  0.2742671E+03  0.7818608E-02  0.1098862E+00
          2   -1    0    0  501    0  0.00000000000E+00  0.00000000000E+00  0.19798300125E+04  0.19798300125E+04  0.00000000000E+00 0.  1.
         -2   -1    0    0    0  501 -0.00000000000E+00 -0.00000000000E+00 -0.94985974509E+01  0.94985974509E+01  0.00000000000E+00 0.  1.
         35    2    1    2    0    0  0.00000000000E+00  0.00000000000E+00  0.19703314150E+04  0.19893286099E+04  0.27426708377E+03 0.  0.
         25    2    3    3    0    0 -0.18193994742E+02 -0.34124701843E+02  0.12872668270E+04  0.12938822649E+04  0.12481952900E+03 0.  0.
         25    2    3    3    0    0  0.18193994742E+02  0.34124701843E+02  0.68306458805E+03  0.69544634505E+03  0.12479130847E+03 0.  0.
          5    1    4    4  502    0 -0.68585714840E+02 -0.13779855758E+02  0.52418455517E+03  0.52885293096E+03  0.47000000000E+01 0.  1.
         -5    1    4    4    0  502  0.50391720098E+02 -0.20344846084E+02  0.76308227180E+03  0.76502933392E+03  0.47000000000E+01 0.  1.
          5    1    5    5  503    0  0.52036549612E+02 -0.27939773409E+02  0.34304669896E+03  0.34812578345E+03  0.47000000000E+01 0.  1.
         -5    1    5    5    0  503 -0.33842554870E+02  0.62064475252E+02  0.34001788909E+03  0.34732056160E+03  0.47000000000E+01 0.  1.
<mgrwt>
<rscale>  0 0.27426708E+03</rscale>
<asrwt>0</asrwt>
<pdfrwt beam="1">  1        2 0.30458890E+00 0.27426708E+03</pdfrwt>
<pdfrwt beam="2">  1       -2 0.14613243E-02 0.27426708E+03</pdfrwt>
<totfact> 0.93320110E+03</totfact>
</mgrwt>
</event>
<event>
 9    1  0.7986988E-001  0.2816367E+03  0.7818608E-02  0.1094798E+00
          2   -1    0    0  501    0  0.00000000000E+00  0.00000000000E+00  0.40336952718E+03  0.40336952718E+03  0.00000000000E+00 0.  1.
         -2   -1    0    0    0  501 -0.00000000000E+00 -0.00000000000E+00 -0.49160386437E+02  0.49160386437E+02  0.00000000000E+00 0.  1.
         35    2    1    2    0    0  0.00000000000E+00 -0.35527136788E-14  0.35420914075E+03  0.45252991362E+03  0.28163665836E+03 0.  0.
         25    2    3    3    0    0 -0.13186607780E+02 -0.30039647743E+02  0.90076047952E+02  0.15805462555E+03  0.12566345206E+03 0.  0.
         25    2    3    3    0    0  0.13186607780E+02  0.30039647743E+02  0.26413309279E+03  0.29447528807E+03  0.12598864041E+03 0.  0.
          5    1    4    4  502    0 -0.27733812841E+02  0.43465933732E+02  0.20468951704E+02  0.55673330723E+02  0.47000000000E+01 0. -1.
         -5    1    4    4    0  502  0.14547205060E+02 -0.73505581475E+02  0.69607096248E+02  0.10238129483E+03  0.47000000000E+01 0. -1.
          5    1    5    5  503    0 -0.48765881191E+02  0.43929804201E+02  0.14971408641E+03  0.16353695771E+03  0.47000000000E+01 0.  1.
         -5    1    5    5    0  503  0.61952488972E+02 -0.13890156458E+02  0.11441900638E+03  0.13093833036E+03  0.47000000000E+01 0.  1.
<mgrwt>
<rscale>  0 0.28163666E+03</rscale>
<asrwt>0</asrwt>
<pdfrwt beam="1">  1        2 0.62056848E-01 0.28163666E+03</pdfrwt>
<pdfrwt beam="2">  1       -2 0.75631366E-02 0.28163666E+03</pdfrwt>
<totfact> 0.81248121E+03</totfact>
</mgrwt>
</event>
<event>
 9    1  0.7986988E-001  0.2721934E+03  0.7818608E-02  0.1100031E+00
         -1   -1    0    0    0  501 -0.00000000000E+00  0.00000000000E+00  0.12300171778E+02  0.12300171778E+02  0.00000000000E+00 0. -1.
          1   -1    0    0  501    0  0.00000000000E+00 -0.00000000000E+00 -0.15058582167E+04  0.15058582167E+04  0.00000000000E+00 0. -1.
         35    2    1    2    0    0  0.35527136788E-14  0.00000000000E+00 -0.14935580450E+04  0.15181583885E+04  0.27219342196E+03 0.  0.
         25    2    3    3    0    0  0.87930838246E+01  0.11931208708E+02 -0.10400390488E+04  0.10476369018E+04  0.12506871341E+03 0.  0.
         25    2    3    3    0    0 -0.87930838246E+01 -0.11931208708E+02 -0.45351899621E+03  0.47052148670E+03  0.12446412114E+03 0.  0.
          5    1    4    4  502    0  0.22626221038E+02  0.66003776385E+02 -0.57746703254E+03  0.58168609064E+03  0.47000000000E+01 0. -1.
         -5    1    4    4    0  502 -0.13833137213E+02 -0.54072567677E+02 -0.46257201622E+03  0.46595081119E+03  0.47000000000E+01 0. -1.
          5    1    5    5  503    0 -0.61961370637E+02 -0.16257587313E+02 -0.16473004104E+03  0.17680949357E+03  0.47000000000E+01 0.  1.
         -5    1    5    5    0  503  0.53168286812E+02  0.43263786053E+01 -0.28878895518E+03  0.29371199313E+03  0.47000000000E+01 0.  1.
<mgrwt>
<rscale>  0 0.27219342E+03</rscale>
<asrwt>0</asrwt>
<pdfrwt beam="1">  1        1 0.23167045E+00 0.27219342E+03</pdfrwt>
<pdfrwt beam="2">  1       -1 0.18923345E-02 0.27219342E+03</pdfrwt>
<totfact> 0.52729408E+03</totfact>
</mgrwt>
</event>
<event>
 9    1  0.7986988E-001  0.2762248E+03  0.7818608E-02  0.1097769E+00
          2   -1    0    0  501    0  0.00000000000E+00  0.00000000000E+00  0.30160409273E+04  0.30160409273E+04  0.00000000000E+00 0.  1.
         -2   -1    0    0    0  501 -0.00000000000E+00 -0.00000000000E+00 -0.63245297224E+01  0.63245297224E+01  0.00000000000E+00 0.  1.
         35    2    1    2    0    0  0.00000000000E+00  0.17763568394E-14  0.30097163976E+04  0.30223654570E+04  0.27622483949E+03 0.  0.
         25    2    3    3    0    0  0.22331337166E+02 -0.10200928233E+02  0.21241501929E+04  0.21280278183E+04  0.12603811277E+03 0.  0.
         25    2    3    3    0    0 -0.22331337166E+02  0.10200928233E+02  0.88556620462E+03  0.89433763867E+03  0.12251351609E+03 0.  0.
          5    1    4    4  502    0  0.66689165336E+02  0.47804803326E+01  0.72636295731E+03  0.72944878746E+03  0.47000000000E+01 0. -1.
         -5    1    4    4    0  502 -0.44357828170E+02 -0.14981408566E+02  0.13977872356E+04  0.13985790309E+04  0.47000000000E+01 0. -1.
          5    1    5    5  503    0  0.23849141990E+02  0.56919311063E+01  0.75968032018E+03  0.76009042786E+03  0.47000000000E+01 0.  1.
         -5    1    5    5    0  503 -0.46180479156E+02  0.45089971271E+01  0.12588588444E+03  0.13424721082E+03  0.47000000000E+01 0.  1.
<mgrwt>
<rscale>  0 0.27622484E+03</rscale>
<asrwt>0</asrwt>
<pdfrwt beam="1">  1        2 0.46400515E+00 0.27622484E+03</pdfrwt>
<pdfrwt beam="2">  1       -2 0.97300698E-03 0.27622484E+03</pdfrwt>
<totfact> 0.45219931E+03</totfact>
</mgrwt>
</event>
<event>
 9    1  0.7986988E-001  0.2722655E+03  0.7818608E-02  0.1099990E+00
          2   -1    0    0  501    0  0.00000000000E+00  0.00000000000E+00  0.30700791522E+03  0.30700791522E+03  0.00000000000E+00 0. -1.
         -2   -1    0    0    0  501 -0.00000000000E+00 -0.00000000000E+00 -0.60363675604E+02  0.60363675604E+02  0.00000000000E+00 0. -1.
         35    2    1    2    0    0  0.00000000000E+00  0.00000000000E+00  0.24664423961E+03  0.36737159082E+03  0.27226550426E+03 0.  0.
         25    2    3    3    0    0  0.11951063825E+02 -0.54466891651E+02  0.12317596545E+03  0.18402829466E+03  0.12483839377E+03 0.  0.
         25    2    3    3    0    0 -0.11951063825E+02  0.54466891651E+02  0.12346827417E+03  0.18334329616E+03  0.12353493153E+03 0.  0.
          5    1    4    4  502    0 -0.13477014543E+02 -0.33020362357E+02  0.14133386949E+03  0.14584007308E+03  0.47000000000E+01 0.  1.
         -5    1    4    4    0  502  0.25428078368E+02 -0.21446529294E+02 -0.18157904043E+02  0.38188221581E+02  0.47000000000E+01 0.  1.
          5    1    5    5  503    0 -0.60606691656E+02  0.37142023400E+02  0.31781704677E+02  0.78005562160E+02  0.47000000000E+01 0.  1.
         -5    1    5    5    0  503  0.48655627831E+02  0.17324868252E+02  0.91686569491E+02  0.10533773400E+03  0.47000000000E+01 0.  1.
<mgrwt>
<rscale>  0 0.27226550E+03</rscale>
<asrwt>0</asrwt>
<pdfrwt beam="1">  1        2 0.47231986E-01 0.27226550E+03</pdfrwt>
<pdfrwt beam="2">  1       -2 0.92867195E-02 0.27226550E+03</pdfrwt>
<totfact> 0.78982925E+03</totfact>
</mgrwt>
</event>
<event>
 9    1  0.7986988E-001  0.2748331E+03  0.7818608E-02  0.1098545E+00
          1   -1    0    0  501    0  0.00000000000E+00  0.00000000000E+00  0.17930240728E+04  0.17930240728E+04  0.00000000000E+00 0.  1.
         -1   -1    0    0    0  501 -0.00000000000E+00 -0.00000000000E+00 -0.10531541638E+02  0.10531541638E+02  0.00000000000E+00 0.  1.
         35    2    1    2    0    0  0.00000000000E+00  0.00000000000E+00  0.17824925312E+04  0.18035556145E+04  0.27483309613E+03 0.  0.
         25    2    3    3    0    0  0.17144901957E+02  0.43479577115E+02  0.69051119084E+03  0.70324588076E+03  0.12475833780E+03 0.  0.
         25    2    3    3    0    0 -0.17144901957E+02 -0.43479577115E+02  0.10919813403E+04  0.11003097337E+04  0.12678265304E+03 0.  0.
          5    1    4    4  502    0  0.47758685485E+02  0.74512590605E+02  0.49579739959E+03  0.50365679747E+03  0.47000000000E+01 0. -1.
         -5    1    4    4    0  502 -0.30613783527E+02 -0.31033013490E+02  0.19471379124E+03  0.19958908329E+03  0.47000000000E+01 0. -1.
          5    1    5    5  503    0 -0.67011470152E+02 -0.29791002786E+02  0.42465685896E+03  0.43096818773E+03  0.47000000000E+01 0. -1.
         -5    1    5    5    0  503  0.49866568194E+02 -0.13688574330E+02  0.66732448139E+03  0.66934154596E+03  0.47000000000E+01 0. -1.
<mgrwt>
<rscale>  0 0.27483310E+03</rscale>
<asrwt>0</asrwt>
<pdfrwt beam="1">  1        1 0.27584962E+00 0.27483310E+03</pdfrwt>
<pdfrwt beam="2">  1       -1 0.16202386E-02 0.27483310E+03</pdfrwt>
<totfact> 0.42888799E+03</totfact>
</mgrwt>
</event>
<event>
 9    1  0.7986988E-001  0.2745958E+03  0.7818608E-02  0.1098678E+00
          2   -1    0    0  501    0  0.00000000000E+00  0.00000000000E+00  0.52435164759E+02  0.52435164759E+02  0.00000000000E+00 0.  1.
         -2   -1    0    0    0  501 -0.00000000000E+00 -0.00000000000E+00 -0.35950505057E+03  0.35950505057E+03  0.00000000000E+00 0.  1.
         35    2    1    2    0    0  0.71054273576E-14  0.35527136788E-14 -0.30706988581E+03  0.41194021533E+03  0.27459575058E+03 0.  0.
         25    2    3    3    0    0  0.48403951702E+02  0.17604184834E+02 -0.19834798688E+03  0.23941356747E+03  0.12379047833E+03 0.  0.
         25    2    3    3    0    0 -0.48403951702E+02 -0.17604184834E+02 -0.10872189893E+03  0.17252664786E+03  0.12366140486E+03 0.  0.
          5    1    4    4  502    0  0.40183123005E+02  0.34276293847E+02 -0.21025853945E+03  0.21684162679E+03  0.47000000000E+01 0.  1.
         -5    1    4    4    0  502  0.82208286977E+01 -0.16672109012E+02  0.11910552576E+02  0.22571940680E+02  0.47000000000E+01 0.  1.
          5    1    5    5  503    0  0.35886757147E+01  0.35076168875E+02  0.58459466972E+01  0.36048319089E+02  0.47000000000E+01 0.  1.
         -5    1    5    5    0  503 -0.51992627417E+02 -0.52680353710E+02 -0.11456784563E+03  0.13647832878E+03  0.47000000000E+01 0.  1.
<mgrwt>
<rscale>  0 0.27459575E+03</rscale>
<asrwt>0</asrwt>
<pdfrwt beam="1">  1        2 0.80669488E-02 0.27459575E+03</pdfrwt>
<pdfrwt beam="2">  1       -2 0.55308467E-01 0.27459575E+03</pdfrwt>
<totfact> 0.26243614E+03</totfact>
</mgrwt>
</event>
<event>
 9    1  0.7986988E-001  0.2713068E+03  0.7818608E-02  0.1100534E+00
         -2   -1    0    0    0  501 -0.00000000000E+00  0.00000000000E+00  0.17010640092E+03  0.17010640092E+03  0.00000000000E+00 0. -1.
          2   -1    0    0  501    0  0.00000000000E+00 -0.00000000000E+00 -0.10817844595E+03  0.10817844595E+03  0.00000000000E+00 0. -1.
         35    2    1    2    0    0  0.00000000000E+00  0.35527136788E-14  0.61927954968E+02  0.27828484688E+03  0.27130680861E+03 0.  0.
         25    2    3    3    0    0  0.74575263777E+01 -0.22976853078E+02 -0.18311033548E+02  0.12932540247E+03  0.12572277159E+03 0.  0.
         25    2    3    3    0    0 -0.74575263777E+01  0.22976853078E+02  0.80238988516E+02  0.14895944441E+03  0.12315466018E+03 0.  0.
          5    1    4    4  502    0  0.33935446403E+02 -0.40817556402E+02 -0.57607767883E+02  0.78475680014E+02  0.47000000000E+01 0.  1.
         -5    1    4    4    0  502 -0.26477920026E+02  0.17840703323E+02  0.39296734336E+02  0.50849722452E+02  0.47000000000E+01 0.  1.
          5    1    5    5  503    0 -0.10221239934E+01  0.10738541421E+02 -0.32869465744E+02  0.34912072233E+02  0.47000000000E+01 0. -1.
         -5    1    5    5    0  503 -0.64354023843E+01  0.12238311657E+02  0.11310845426E+03  0.11404737218E+03  0.47000000000E+01 0. -1.
<mgrwt>
<rscale>  0 0.27130681E+03</rscale>
<asrwt>0</asrwt>
<pdfrwt beam="1">  1        2 0.16642838E-01 0.27130681E+03</pdfrwt>
<pdfrwt beam="2">  1       -2 0.26170216E-01 0.27130681E+03</pdfrwt>
<totfact> 0.44796148E+03</totfact>
</mgrwt>
</event>
<event>
 9    1  0.7986988E-001  0.2769710E+03  0.7818608E-02  0.1097355E+00
          2   -1    0    0  501    0  0.00000000000E+00  0.00000000000E+00  0.10026376803E+04  0.10026376803E+04  0.00000000000E+00 0. -1.
         -2   -1    0    0    0  501 -0.00000000000E+00 -0.00000000000E+00 -0.19127784753E+02  0.19127784753E+02  0.00000000000E+00 0. -1.
         35    2    1    2    0    0  0.00000000000E+00  0.00000000000E+00  0.98350989551E+03  0.10217654650E+04  0.27697102905E+03 0.  0.
         25    2    3    3    0    0  0.18997154217E+02  0.28807979766E+02  0.67013403274E+03  0.68264363303E+03  0.12542693620E+03 0.  0.
         25    2    3    3    0    0 -0.18997154217E+02 -0.28807979766E+02  0.31337586278E+03  0.33912183198E+03  0.12493355831E+03 0.  0.
          5    1    4    4  502    0  0.50137650446E+02  0.23928914263E+02  0.12851380045E+03  0.14008662976E+03  0.47000000000E+01 0.  1.
         -5    1    4    4    0  502 -0.31140496230E+02  0.48790655033E+01  0.54162023228E+03  0.54255700328E+03  0.47000000000E+01 0.  1.
          5    1    5    5  503    0 -0.54532770626E+02 -0.67437925676E+00  0.58153517042E+02  0.79863630044E+02  0.47000000000E+01 0.  1.
         -5    1    5    5    0  503  0.35535616409E+02 -0.28133600510E+02  0.25522234573E+03  0.25925820194E+03  0.47000000000E+01 0.  1.
<mgrwt>
<rscale>  0 0.27697103E+03</rscale>
<asrwt>0</asrwt>
<pdfrwt beam="1">  1        2 0.15425191E+00 0.27697103E+03</pdfrwt>
<pdfrwt beam="2">  1       -2 0.29427369E-02 0.27697103E+03</pdfrwt>
<totfact> 0.11378578E+04</totfact>
</mgrwt>
</event>
<event>
 9    1  0.7986988E-001  0.2546300E+03  0.7818608E-02  0.1110413E+00
         -1   -1    0    0    0  501 -0.00000000000E+00  0.00000000000E+00  0.26785860084E+02  0.26785860084E+02  0.00000000000E+00 0. -1.
          1   -1    0    0  501    0  0.00000000000E+00 -0.00000000000E+00 -0.60513690810E+03  0.60513690810E+03  0.00000000000E+00 0. -1.
         35    2    1    2    0    0 -0.17763568394E-14  0.00000000000E+00 -0.57835104802E+03  0.63192276819E+03  0.25463002613E+03 0.  0.
         25    2    3    3    0    0  0.13051846684E+02  0.17574918203E+02 -0.25270420148E+03  0.28249067776E+03  0.12434766233E+03 0.  0.
         25    2    3    3    0    0 -0.13051846684E+02 -0.17574918203E+02 -0.32564684654E+03  0.34943209043E+03  0.12481061135E+03 0.  0.
          5    1    4    4  502    0 -0.12263752534E+02 -0.51096538554E+02 -0.98710566919E+02  0.11192462598E+03  0.47000000000E+01 0. -1.
         -5    1    4    4    0  502  0.25315599218E+02  0.68671456757E+02 -0.15399363456E+03  0.17056605178E+03  0.47000000000E+01 0. -1.
          5    1    5    5  503    0 -0.19167419103E+02  0.43640916946E+02 -0.23466042041E+03  0.23949848119E+03  0.47000000000E+01 0. -1.
         -5    1    5    5    0  503  0.61155724186E+01 -0.61215835149E+02 -0.90986426132E+02  0.10993360923E+03  0.47000000000E+01 0. -1.
<mgrwt>
<rscale>  0 0.25463003E+03</rscale>
<asrwt>0</asrwt>
<pdfrwt beam="1">  1        1 0.93097980E-01 0.25463003E+03</pdfrwt>
<pdfrwt beam="2">  1       -1 0.41209018E-02 0.25463003E+03</pdfrwt>
<totfact> 0.81149732E+03</totfact>
</mgrwt>
</event>
<event>
 9    1  0.7986988E-001  0.2812380E+03  0.7818608E-02  0.1095015E+00
         -2   -1    0    0    0  501 -0.00000000000E+00  0.00000000000E+00  0.16551190566E+02  0.16551190566E+02  0.00000000000E+00 0. -1.
          2   -1    0    0  501    0  0.00000000000E+00 -0.00000000000E+00 -0.11946994015E+04  0.11946994015E+04  0.00000000000E+00 0. -1.
         35    2    1    2    0    0  0.00000000000E+00  0.00000000000E+00 -0.11781482110E+04  0.12112505921E+04  0.28123795948E+03 0.  0.
         25    2    3    3    0    0 -0.38256452907E+02  0.32820026935E+02 -0.76885177008E+03  0.78030152803E+03  0.12327497697E+03 0.  0.
         25    2    3    3    0    0  0.38256452907E+02 -0.32820026935E+02 -0.40929644088E+03  0.43094906405E+03  0.12511118629E+03 0.  0.
          5    1    4    4  502    0 -0.39584775525E+02 -0.24994637965E+02 -0.12051928234E+03  0.12937802672E+03  0.47000000000E+01 0. -1.
         -5    1    4    4    0  502  0.13283226181E+01  0.57814664900E+02 -0.64833248773E+03  0.65092350132E+03  0.47000000000E+01 0. -1.
          5    1    5    5  503    0  0.20297341827E+02 -0.40229564318E+02 -0.40843767566E+03  0.41094260527E+03  0.47000000000E+01 0.  1.
         -5    1    5    5    0  503  0.17959111080E+02  0.74095373830E+01 -0.85876521446E+00  0.20006458775E+02  0.47000000000E+01 0.  1.
<mgrwt>
<rscale>  0 0.28123796E+03</rscale>
<asrwt>0</asrwt>
<pdfrwt beam="1">  1        2 0.18379988E+00 0.28123796E+03</pdfrwt>
<pdfrwt beam="2">  1       -2 0.25463373E-02 0.28123796E+03</pdfrwt>
<totfact> 0.10875186E+04</totfact>
</mgrwt>
</event>
<event>
 9    1  0.7986988E-001  0.2846335E+03  0.7818608E-02  0.1093185E+00
         -1   -1    0    0    0  501 -0.00000000000E+00  0.00000000000E+00  0.20224659954E+03  0.20224659954E+03  0.00000000000E+00 0. -1.
          1   -1    0    0  501    0  0.00000000000E+00 -0.00000000000E+00 -0.10014534075E+03  0.10014534075E+03  0.00000000000E+00 0. -1.
         35    2    1    2    0    0  0.71054273576E-14  0.00000000000E+00  0.10210125879E+03  0.30239194030E+03  0.28463348100E+03 0.  0.
         25    2    3    3    0    0 -0.48021452445E+02 -0.42543830427E+02  0.28584844423E+02  0.14359514956E+03  0.12524550389E+03 0.  0.
         25    2    3    3    0    0  0.48021452445E+02  0.42543830427E+02  0.73516414370E+02  0.15879679073E+03  0.12528256129E+03 0.  0.
          5    1    4    4  502    0 -0.10520759834E+02 -0.69805929837E+02  0.55373376784E+02  0.89843503295E+02  0.47000000000E+01 0. -1.
         -5    1    4    4    0  502 -0.37500692610E+02  0.27262099410E+02 -0.26788532361E+02  0.53751646268E+02  0.47000000000E+01 0. -1.
          5    1    5    5  503    0  0.90791932777E+02  0.31422843802E+02  0.47192017366E+02  0.10714357971E+03  0.47000000000E+01 0. -1.
         -5    1    5    5    0  503 -0.42770480332E+02  0.11120986625E+02  0.26324397004E+02  0.51653211023E+02  0.47000000000E+01 0. -1.
<mgrwt>
<rscale>  0 0.28463348E+03</rscale>
<asrwt>0</asrwt>
<pdfrwt beam="1">  1        1 0.15406976E-01 0.28463348E+03</pdfrwt>
<pdfrwt beam="2">  1       -1 0.31114861E-01 0.28463348E+03</pdfrwt>
<totfact> 0.34388532E+03</totfact>
</mgrwt>
</event>
<event>
 9    1  0.7986988E-001  0.2731787E+03  0.7818608E-02  0.1099474E+00
         -2   -1    0    0    0  501 -0.00000000000E+00  0.00000000000E+00  0.31877260320E+02  0.31877260320E+02  0.00000000000E+00 0. -1.
          2   -1    0    0  501    0  0.00000000000E+00 -0.00000000000E+00 -0.58526528952E+03  0.58526528952E+03  0.00000000000E+00 0. -1.
         35    2    1    2    0    0  0.17763568394E-14  0.71054273576E-14 -0.55338802920E+03  0.61714254984E+03  0.27317872531E+03 0.  0.
         25    2    3    3    0    0  0.12164766533E+01  0.55408496659E+02 -0.27657562414E+03  0.30872411163E+03  0.12547876281E+03 0.  0.
         25    2    3    3    0    0 -0.12164766533E+01 -0.55408496659E+02 -0.27681240506E+03  0.30841843821E+03  0.12419840624E+03 0.  0.
          5    1    4    4  502    0 -0.60232946482E+02  0.41640114048E+02 -0.13358932334E+03  0.15241425213E+03  0.47000000000E+01 0. -1.
         -5    1    4    4    0  502  0.61449423135E+02  0.13768382610E+02 -0.14298630080E+03  0.15630985951E+03  0.47000000000E+01 0. -1.
          5    1    5    5  503    0  0.10261393720E+02 -0.75799045160E+02 -0.27384779995E+03  0.28436859705E+03  0.47000000000E+01 0. -1.
         -5    1    5    5    0  503 -0.11477870373E+02  0.20390548501E+02 -0.29646051115E+01  0.24049841163E+02  0.47000000000E+01 0. -1.
<mgrwt>
<rscale>  0 0.27317873E+03</rscale>
<asrwt>0</asrwt>
<pdfrwt beam="1">  1        2 0.90040810E-01 0.27317873E+03</pdfrwt>
<pdfrwt beam="2">  1       -2 0.49041941E-02 0.27317873E+03</pdfrwt>
<totfact> 0.10421392E+04</totfact>
</mgrwt>
</event>
<event>
 9    1  0.7986988E-001  0.2755981E+03  0.7818608E-02  0.1098118E+00
          2   -1    0    0  501    0  0.00000000000E+00  0.00000000000E+00  0.31742100056E+04  0.31742100056E+04  0.00000000000E+00 0.  1.
         -2   -1    0    0    0  501 -0.00000000000E+00 -0.00000000000E+00 -0.59821448864E+01  0.59821448864E+01  0.00000000000E+00 0.  1.
         35    2    1    2    0    0  0.00000000000E+00  0.00000000000E+00  0.31682278607E+04  0.31801921505E+04  0.27559814334E+03 0.  0.
         25    2    3    3    0    0 -0.56215082266E+01  0.59152903605E+02  0.16419797712E+04  0.16477614289E+04  0.12445678083E+03 0.  0.
         25    2    3    3    0    0  0.56215082266E+01 -0.59152903605E+02  0.15262480895E+04  0.15324307216E+04  0.12401620158E+03 0.  0.
          5    1    4    4  502    0  0.43355640246E+02  0.12206195980E+02  0.11732828006E+04  0.11741564303E+04  0.47000000000E+01 0. -1.
         -5    1    4    4    0  502 -0.48977148473E+02  0.46946707625E+02  0.46869697063E+03  0.47360499861E+03  0.47000000000E+01 0. -1.
          5    1    5    5  503    0 -0.49249856793E+02 -0.72511356667E+01  0.32736985860E+03  0.33116648635E+03  0.47000000000E+01 0. -1.
         -5    1    5    5    0  503  0.54871365020E+02 -0.51901767938E+02  0.11988782309E+04  0.12012642352E+04  0.47000000000E+01 0. -1.
<mgrwt>
<rscale>  0 0.27559814E+03</rscale>
<asrwt>0</asrwt>
<pdfrwt beam="1">  1        2 0.48833865E+00 0.27559814E+03</pdfrwt>
<pdfrwt beam="2">  1       -2 0.92033252E-03 0.27559814E+03</pdfrwt>
<totfact> 0.39344137E+03</totfact>
</mgrwt>
</event>
<event>
 9    1  0.7986988E-001  0.2727820E+03  0.7818608E-02  0.1099698E+00
          1   -1    0    0  501    0  0.00000000000E+00  0.00000000000E+00  0.17455563512E+03  0.17455563512E+03  0.00000000000E+00 0. -1.
         -1   -1    0    0    0  501 -0.00000000000E+00 -0.00000000000E+00 -0.10657063479E+03  0.10657063479E+03  0.00000000000E+00 0. -1.
         35    2    1    2    0    0  0.00000000000E+00  0.71054273576E-14  0.67985000333E+02  0.28112626991E+03  0.27278199970E+03 0.  0.
         25    2    3    3    0    0  0.36885791872E+02 -0.23666480218E+02  0.44928237335E+00  0.13245314693E+03  0.12499188113E+03 0.  0.
         25    2    3    3    0    0 -0.36885791872E+02  0.23666480218E+02  0.67535717960E+02  0.14867312298E+03  0.12498784088E+03 0.  0.
          5    1    4    4  502    0  0.16053202974E+02  0.94020646237E+01  0.58920102155E+02  0.61965898548E+02  0.47000000000E+01 0. -1.
         -5    1    4    4    0  502  0.20832588898E+02 -0.33068544842E+02 -0.58470819782E+02  0.70487248379E+02  0.47000000000E+01 0. -1.
          5    1    5    5  503    0 -0.18799891552E+02 -0.50871310453E+02  0.37809099476E+02  0.66279289018E+02  0.47000000000E+01 0. -1.
         -5    1    5    5    0  503 -0.18085900320E+02  0.74537790671E+02  0.29726618484E+02  0.82393833962E+02  0.47000000000E+01 0. -1.
<mgrwt>
<rscale>  0 0.27278200E+03</rscale>
<asrwt>0</asrwt>
<pdfrwt beam="1">  1        1 0.26854713E-01 0.27278200E+03</pdfrwt>
<pdfrwt beam="2">  1       -1 0.16395482E-01 0.27278200E+03</pdfrwt>
<totfact> 0.48268418E+03</totfact>
</mgrwt>
</event>
<event>
 9    1  0.7986988E-001  0.2736021E+03  0.7818608E-02  0.1099236E+00
          1   -1    0    0  501    0  0.00000000000E+00  0.00000000000E+00  0.85914331197E+03  0.85914331197E+03  0.00000000000E+00 0. -1.
         -1   -1    0    0    0  501 -0.00000000000E+00 -0.00000000000E+00 -0.21782781331E+02  0.21782781331E+02  0.00000000000E+00 0. -1.
         35    2    1    2    0    0  0.00000000000E+00 -0.35527136788E-14  0.83736053063E+03  0.88092609330E+03  0.27360212643E+03 0.  0.
         25    2    3    3    0    0 -0.13334944824E+01  0.26252894567E+02  0.58568767767E+03  0.59944975878E+03  0.12497585706E+03 0.  0.
         25    2    3    3    0    0  0.13334944824E+01 -0.26252894567E+02  0.25167285297E+03  0.28147633452E+03  0.12328304544E+03 0.  0.
          5    1    4    4  502    0  0.55627474454E+02 -0.60013710169E+01  0.18205214202E+03  0.19051379158E+03  0.47000000000E+01 0. -1.
         -5    1    4    4    0  502 -0.56960968936E+02  0.32254265584E+02  0.40363553565E+03  0.40893596720E+03  0.47000000000E+01 0. -1.
          5    1    5    5  503    0 -0.52608047059E+02 -0.42978591358E+02  0.11712725831E+03  0.13548302687E+03  0.47000000000E+01 0.  1.
         -5    1    5    5    0  503  0.53941541541E+02  0.16725696791E+02  0.13454559466E+03  0.14599330765E+03  0.47000000000E+01 0.  1.
<mgrwt>
<rscale>  0 0.27360213E+03</rscale>
<asrwt>0</asrwt>
<pdfrwt beam="1">  1        1 0.13217587E+00 0.27360213E+03</pdfrwt>
<pdfrwt beam="2">  1       -1 0.33511978E-02 0.27360213E+03</pdfrwt>
<totfact> 0.65799205E+03</totfact>
</mgrwt>
</event>
<event>
 9    1  0.7986988E-001  0.2737094E+03  0.7818608E-02  0.1099175E+00
          1   -1    0    0  501    0  0.00000000000E+00  0.00000000000E+00  0.67105577668E+03  0.67105577668E+03  0.00000000000E+00 0.  1.
         -1   -1    0    0    0  501 -0.00000000000E+00 -0.00000000000E+00 -0.27910062835E+02  0.27910062835E+02  0.00000000000E+00 0.  1.
         35    2    1    2    0    0  0.71054273576E-14  0.14210854715E-13  0.64314571384E+03  0.69896583951E+03  0.27370939986E+03 0.  0.
         25    2    3    3    0    0 -0.39290649794E+02 -0.40161027234E+02  0.31042217509E+03  0.33901436431E+03  0.12414567715E+03 0.  0.
         25    2    3    3    0    0  0.39290649794E+02  0.40161027234E+02  0.33272353875E+03  0.35995147520E+03  0.12531339907E+03 0.  0.
          5    1    4    4  502    0 -0.56763701077E+02 -0.16537098080E+02  0.51979281877E+02  0.78863991259E+02  0.47000000000E+01 0. -1.
         -5    1    4    4    0  502  0.17473051283E+02 -0.23623929153E+02  0.25844289321E+03  0.26015037305E+03  0.47000000000E+01 0. -1.
          5    1    5    5  503    0 -0.38575011070E+02  0.78378622457E+01  0.19024295616E+03  0.19432945204E+03  0.47000000000E+01 0. -1.
         -5    1    5    5    0  503  0.77865660864E+02  0.32323164988E+02  0.14248058259E+03  0.16562202315E+03  0.47000000000E+01 0. -1.
<mgrwt>
<rscale>  0 0.27370940E+03</rscale>
<asrwt>0</asrwt>
<pdfrwt beam="1">  1        1 0.10323934E+00 0.27370940E+03</pdfrwt>
<pdfrwt beam="2">  1       -1 0.42938563E-02 0.27370940E+03</pdfrwt>
<totfact> 0.66111217E+03</totfact>
</mgrwt>
</event>
<event>
 9    1  0.7986988E-001  0.2729409E+03  0.7818608E-02  0.1099608E+00
          2   -1    0    0  501    0  0.00000000000E+00  0.00000000000E+00  0.43761507585E+03  0.43761507585E+03  0.00000000000E+00 0. -1.
         -2   -1    0    0    0  501 -0.00000000000E+00 -0.00000000000E+00 -0.42558362724E+02  0.42558362724E+02  0.00000000000E+00 0. -1.
         35    2    1    2    0    0  0.00000000000E+00 -0.71054273576E-14  0.39505671312E+03  0.48017343857E+03  0.27294088101E+03 0.  0.
         25    2    3    3    0    0  0.44214864804E+02  0.33035896270E+02  0.19835723694E+03  0.24062105343E+03  0.12452539175E+03 0.  0.
         25    2    3    3    0    0 -0.44214864804E+02 -0.33035896270E+02  0.19669947618E+03  0.23955238515E+03  0.12509331152E+03 0.  0.
          5    1    4    4  502    0  0.38961864378E+02 -0.23491920956E+02  0.17177223995E+03  0.17775738984E+03  0.47000000000E+01 0.  1.
         -5    1    4    4    0  502  0.52530004259E+01  0.56527817226E+02  0.26584996992E+02  0.62863663581E+02  0.47000000000E+01 0.  1.
          5    1    5    5  503    0 -0.86116592155E+02 -0.64597918618E+01  0.11580038814E+03  0.14453240553E+03  0.47000000000E+01 0.  1.
         -5    1    5    5    0  503  0.41901727351E+02 -0.26576104408E+02  0.80899088037E+02  0.95019979614E+02  0.47000000000E+01 0.  1.
<mgrwt>
<rscale>  0 0.27294088E+03</rscale>
<asrwt>0</asrwt>
<pdfrwt beam="1">  1        2 0.67325393E-01 0.27294088E+03</pdfrwt>
<pdfrwt beam="2">  1       -2 0.65474407E-02 0.27294088E+03</pdfrwt>
<totfact> 0.92826861E+03</totfact>
</mgrwt>
</event>
<event>
 9    1  0.7986988E-001  0.2779319E+03  0.7818608E-02  0.1096824E+00
         -1   -1    0    0    0  501 -0.00000000000E+00  0.00000000000E+00  0.80062150713E+03  0.80062150713E+03  0.00000000000E+00 0. -1.
          1   -1    0    0  501    0  0.00000000000E+00 -0.00000000000E+00 -0.24120686309E+02  0.24120686309E+02  0.00000000000E+00 0. -1.
         35    2    1    2    0    0  0.00000000000E+00  0.71054273576E-14  0.77650082082E+03  0.82474219344E+03  0.27793193574E+03 0.  0.
         25    2    3    3    0    0  0.37937189990E+02 -0.50568171920E+02  0.42181174298E+03  0.44450255113E+03  0.12514392133E+03 0.  0.
         25    2    3    3    0    0 -0.37937189990E+02  0.50568171920E+02  0.35468907784E+03  0.38023964231E+03  0.12157908229E+03 0.  0.
          5    1    4    4  502    0  0.62778100982E+02  0.11133361585E+02  0.12626749362E+03  0.14152954338E+03  0.47000000000E+01 0. -1.
         -5    1    4    4    0  502 -0.24840910993E+02 -0.61701533505E+02  0.29554424936E+03  0.30297300775E+03  0.47000000000E+01 0. -1.
          5    1    5    5  503    0  0.10493185357E+02 -0.35785918560E+02  0.86200065747E+02  0.94038716712E+02  0.47000000000E+01 0.  1.
         -5    1    5    5    0  503 -0.48430375346E+02  0.86354090479E+02  0.26848901209E+03  0.28620092560E+03  0.47000000000E+01 0.  1.
<mgrwt>
<rscale>  0 0.27793194E+03</rscale>
<asrwt>0</asrwt>
<pdfrwt beam="1">  1        1 0.37108754E-02 0.27793194E+03</pdfrwt>
<pdfrwt beam="2">  1       -1 0.12317252E+00 0.27793194E+03</pdfrwt>
<totfact> 0.15687079E+03</totfact>
</mgrwt>
</event>
<event>
 9    1  0.7986988E-001  0.2827341E+03  0.7818608E-02  0.1094205E+00
         -2   -1    0    0    0  501 -0.00000000000E+00  0.00000000000E+00  0.11880759695E+02  0.11880759695E+02  0.00000000000E+00 0. -1.
          2   -1    0    0  501    0  0.00000000000E+00 -0.00000000000E+00 -0.16821016259E+04  0.16821016259E+04  0.00000000000E+00 0. -1.
         35    2    1    2    0    0  0.00000000000E+00  0.00000000000E+00 -0.16702208662E+04  0.16939823856E+04  0.28273411680E+03 0.  0.
         25    2    3    3    0    0  0.20869815301E+02  0.55350278820E+02 -0.10118514569E+04  0.10212535361E+04  0.12496484100E+03 0.  0.
         25    2    3    3    0    0 -0.20869815301E+02 -0.55350278820E+02 -0.65836940927E+03  0.67272884952E+03  0.12495848655E+03 0.  0.
          5    1    4    4  502    0  0.27039788579E+02 -0.36113291806E+02 -0.39814423969E+03  0.40071965962E+03  0.47000000000E+01 0.  1.
         -5    1    4    4    0  502 -0.61699732781E+01  0.91463570626E+02 -0.61370721724E+03  0.62053387644E+03  0.47000000000E+01 0.  1.
          5    1    5    5  503    0  0.25178308072E+02 -0.98520353090E+01 -0.28647225880E+02  0.39670686252E+02  0.47000000000E+01 0.  1.
         -5    1    5    5    0  503 -0.46048123373E+02 -0.45498243511E+02 -0.62972218339E+03  0.63305816327E+03  0.47000000000E+01 0.  1.
<mgrwt>
<rscale>  0 0.28273412E+03</rscale>
<asrwt>0</asrwt>
<pdfrwt beam="1">  1        2 0.25878469E+00 0.28273412E+03</pdfrwt>
<pdfrwt beam="2">  1       -2 0.18278104E-02 0.28273412E+03</pdfrwt>
<totfact> 0.96426666E+03</totfact>
</mgrwt>
</event>
<event>
 9    1  0.7986988E-001  0.2744221E+03  0.7818608E-02  0.1098775E+00
         -1   -1    0    0    0  501 -0.00000000000E+00  0.00000000000E+00  0.19061362611E+03  0.19061362611E+03  0.00000000000E+00 0. -1.
          1   -1    0    0  501    0  0.00000000000E+00 -0.00000000000E+00 -0.98769810375E+02  0.98769810375E+02  0.00000000000E+00 0. -1.
         35    2    1    2    0    0 -0.35527136788E-14  0.71054273576E-14  0.91843815739E+02  0.28938343649E+03  0.27442209609E+03 0.  0.
         25    2    3    3    0    0  0.17046181716E+02  0.20785687048E+02 -0.64164275444E+01  0.12858828034E+03  0.12558327198E+03 0.  0.
         25    2    3    3    0    0 -0.17046181716E+02 -0.20785687048E+02  0.98260243283E+02  0.16079515615E+03  0.12440815782E+03 0.  0.
          5    1    4    4  502    0  0.20336621858E+02  0.21864846225E+02 -0.63963149435E+02  0.70746195479E+02  0.47000000000E+01 0. -1.
         -5    1    4    4    0  502 -0.32904401418E+01 -0.10791591769E+01  0.57546721891E+02  0.57842084862E+02  0.47000000000E+01 0. -1.
          5    1    5    5  503    0 -0.28545006356E+02  0.46343031757E+02  0.64835393616E+02  0.84783325281E+02  0.47000000000E+01 0. -1.
         -5    1    5    5    0  503  0.11498824640E+02 -0.67128718804E+02  0.33424849668E+02  0.76011830867E+02  0.47000000000E+01 0. -1.
<mgrwt>
<rscale>  0 0.27442210E+03</rscale>
<asrwt>0</asrwt>
<pdfrwt beam="1">  1        1 0.15195355E-01 0.27442210E+03</pdfrwt>
<pdfrwt beam="2">  1       -1 0.29325173E-01 0.27442210E+03</pdfrwt>
<totfact> 0.38697261E+03</totfact>
</mgrwt>
</event>
<event>
 9    1  0.7986988E-001  0.2750674E+03  0.7818608E-02  0.1098414E+00
         -1   -1    0    0    0  501 -0.00000000000E+00  0.00000000000E+00  0.16868558436E+03  0.16868558436E+03  0.00000000000E+00 0. -1.
          1   -1    0    0  501    0  0.00000000000E+00 -0.00000000000E+00 -0.11213480396E+03  0.11213480396E+03  0.00000000000E+00 0. -1.
         35    2    1    2    0    0 -0.17763568394E-14  0.17763568394E-14  0.56550780400E+02  0.28082038831E+03  0.27506744578E+03 0.  0.
         25    2    3    3    0    0  0.15018423279E+02 -0.11373036721E+02 -0.26859121087E+02  0.12938070788E+03  0.12515213216E+03 0.  0.
         25    2    3    3    0    0 -0.15018423279E+02  0.11373036721E+02  0.83409901487E+02  0.15143968043E+03  0.12498746394E+03 0.  0.
          5    1    4    4  502    0 -0.51589976360E+02  0.13445221412E+02 -0.22355794325E+02  0.58001475667E+02  0.47000000000E+01 0.  1.
         -5    1    4    4    0  502  0.66608399639E+02 -0.24818258133E+02 -0.45033267623E+01  0.71379232212E+02  0.47000000000E+01 0.  1.
          5    1    5    5  503    0 -0.28961470480E+02  0.16373444667E+02  0.11306910304E+03  0.11795579055E+03  0.47000000000E+01 0. -1.
         -5    1    5    5    0  503  0.13943047201E+02 -0.50004079460E+01 -0.29659201553E+02  0.33483889882E+02  0.47000000000E+01 0. -1.
<mgrwt>
<rscale>  0 0.27506745E+03</rscale>
<asrwt>0</asrwt>
<pdfrwt beam="1">  1        1 0.17251508E-01 0.27506745E+03</pdfrwt>
<pdfrwt beam="2">  1       -1 0.25951628E-01 0.27506745E+03</pdfrwt>
<totfact> 0.40277852E+03</totfact>
</mgrwt>
</event>
<event>
 9    1  0.7986988E-001  0.2754630E+03  0.7818608E-02  0.1098193E+00
         -2   -1    0    0    0  501 -0.00000000000E+00  0.00000000000E+00  0.68254652040E+02  0.68254652040E+02  0.00000000000E+00 0. -1.
          2   -1    0    0  501    0  0.00000000000E+00 -0.00000000000E+00 -0.27792918297E+03  0.27792918297E+03  0.00000000000E+00 0. -1.
         35    2    1    2    0    0 -0.71054273576E-14  0.00000000000E+00 -0.20967453093E+03  0.34618383501E+03  0.27546295341E+03 0.  0.
         25    2    3    3    0    0  0.38995133752E+02  0.30974494253E+02 -0.14166111611E+03  0.19527122018E+03  0.12483163806E+03 0.  0.
         25    2    3    3    0    0 -0.38995133752E+02 -0.30974494253E+02 -0.68013414820E+02  0.15091261483E+03  0.12517488953E+03 0.  0.
          5    1    4    4  502    0  0.79638764433E+02  0.41793366338E+02 -0.11136296508E+03  0.14322296695E+03  0.47000000000E+01 0.  1.
         -5    1    4    4    0  502 -0.40643630681E+02 -0.10818872085E+02 -0.30298151025E+02  0.52048253224E+02  0.47000000000E+01 0.  1.
          5    1    5    5  503    0 -0.53359906365E+02 -0.61386626822E+02 -0.80686081322E+02  0.11466442900E+03  0.47000000000E+01 0. -1.
         -5    1    5    5    0  503  0.14364772613E+02  0.30412132569E+02  0.12672666502E+02  0.36248185829E+02  0.47000000000E+01 0. -1.
<mgrwt>
<rscale>  0 0.27546295E+03</rscale>
<asrwt>0</asrwt>
<pdfrwt beam="1">  1        2 0.42758337E-01 0.27546295E+03</pdfrwt>
<pdfrwt beam="2">  1       -2 0.10500716E-01 0.27546295E+03</pdfrwt>
<totfact> 0.72357875E+03</totfact>
</mgrwt>
</event>
<event>
 9    1  0.7986988E-001  0.2741099E+03  0.7818608E-02  0.1098950E+00
          2   -1    0    0  501    0  0.00000000000E+00  0.00000000000E+00  0.24093440900E+04  0.24093440900E+04  0.00000000000E+00 0.  1.
         -2   -1    0    0    0  501 -0.00000000000E+00 -0.00000000000E+00 -0.77963368773E+01  0.77963368773E+01  0.00000000000E+00 0.  1.
         35    2    1    2    0    0  0.10658141036E-13  0.71054273576E-14  0.24015477531E+04  0.24171404269E+04  0.27410989168E+03 0.  0.
         25    2    3    3    0    0  0.21104352069E+02  0.49805446605E+02  0.11106905106E+04  0.11190907462E+04  0.12571679160E+03 0.  0.
         25    2    3    3    0    0 -0.21104352069E+02 -0.49805446605E+02  0.12908572425E+04  0.12980496806E+04  0.12527799792E+03 0.  0.
          5    1    4    4  502    0 -0.16658517215E+02  0.44011296002E+02  0.14264749038E+03  0.15028272317E+03  0.47000000000E+01 0.  1.
         -5    1    4    4    0  502  0.37762869284E+02  0.57941506028E+01  0.96804302024E+03  0.96880802304E+03  0.47000000000E+01 0.  1.
          5    1    5    5  503    0 -0.64810101491E+02 -0.54759610282E+02  0.62875672878E+03  0.63447307126E+03  0.47000000000E+01 0. -1.
         -5    1    5    5    0  503  0.43705749422E+02  0.49541636772E+01  0.66210051371E+03  0.66357660938E+03  0.47000000000E+01 0. -1.
<mgrwt>
<rscale>  0 0.27410989E+03</rscale>
<asrwt>0</asrwt>
<pdfrwt beam="1">  1        2 0.37066773E+00 0.27410989E+03</pdfrwt>
<pdfrwt beam="2">  1       -2 0.11994384E-02 0.27410989E+03</pdfrwt>
<totfact> 0.73527262E+03</totfact>
</mgrwt>
</event>
<event>
 9    1  0.7986988E-001  0.2750233E+03  0.7818608E-02  0.1098439E+00
          2   -1    0    0  501    0  0.00000000000E+00  0.00000000000E+00  0.22290539232E+03  0.22290539232E+03  0.00000000000E+00 0.  1.
         -2   -1    0    0    0  501 -0.00000000000E+00 -0.00000000000E+00 -0.84831754179E+02  0.84831754179E+02  0.00000000000E+00 0.  1.
         35    2    1    2    0    0 -0.71054273576E-14  0.35527136788E-14  0.13807363814E+03  0.30773714650E+03  0.27502331135E+03 0.  0.
         25    2    3    3    0    0 -0.49439080892E+02 -0.23968066851E+02  0.94392535884E+02  0.16597862973E+03  0.12498105356E+03 0.  0.
         25    2    3    3    0    0  0.49439080892E+02  0.23968066851E+02  0.43681102260E+02  0.14175851677E+03  0.12316146895E+03 0.  0.
          5    1    4    4  502    0  0.26651424925E+02  0.20216301364E+02  0.64715047686E+02  0.73000854025E+02  0.47000000000E+01 0.  1.
         -5    1    4    4    0  502 -0.76090505816E+02 -0.44184368215E+02  0.29677488199E+02  0.92977775709E+02  0.47000000000E+01 0.  1.
          5    1    5    5  503    0  0.49974929274E+01 -0.10663844396E+02 -0.39329541042E+02  0.41323060287E+02  0.47000000000E+01 0. -1.
         -5    1    5    5    0  503  0.44441587964E+02  0.34631911247E+02  0.83010643302E+02  0.10043545648E+03  0.47000000000E+01 0. -1.
<mgrwt>
<rscale>  0 0.27502331E+03</rscale>
<asrwt>0</asrwt>
<pdfrwt beam="1">  1        2 0.34293137E-01 0.27502331E+03</pdfrwt>
<pdfrwt beam="2">  1       -2 0.13051039E-01 0.27502331E+03</pdfrwt>
<totfact> 0.64694552E+03</totfact>
</mgrwt>
</event>
<event>
 9    1  0.7986988E-001  0.2733320E+03  0.7818608E-02  0.1099388E+00
          1   -1    0    0  501    0  0.00000000000E+00  0.00000000000E+00  0.52275745451E+02  0.52275745451E+02  0.00000000000E+00 0.  1.
         -1   -1    0    0    0  501 -0.00000000000E+00 -0.00000000000E+00 -0.35728982392E+03  0.35728982392E+03  0.00000000000E+00 0.  1.
         35    2    1    2    0    0  0.71054273576E-14  0.00000000000E+00 -0.30501407847E+03  0.40956556937E+03  0.27333197316E+03 0.  0.
         25    2    3    3    0    0 -0.44687745808E+02 -0.24312595800E+02 -0.17722642826E+03  0.22361373633E+03  0.12651402792E+03 0.  0.
         25    2    3    3    0    0  0.44687745808E+02  0.24312595800E+02 -0.12778765021E+03  0.18595183304E+03  0.12514113523E+03 0.  0.
          5    1    4    4  502    0  0.33490889159E+02 -0.21276159378E+02 -0.12025020285E+03  0.12671430819E+03  0.47000000000E+01 0. -1.
         -5    1    4    4    0  502 -0.78178634967E+02 -0.30364364215E+01 -0.56976225412E+02  0.96899428139E+02  0.47000000000E+01 0. -1.
          5    1    5    5  503    0 -0.28486858257E+02  0.23086693409E+02 -0.10154092616E+03  0.10806084486E+03  0.47000000000E+01 0.  1.
         -5    1    5    5    0  503  0.73174604066E+02  0.12259023909E+01 -0.26246724043E+02  0.77890988181E+02  0.47000000000E+01 0.  1.
<mgrwt>
<rscale>  0 0.27333197E+03</rscale>
<asrwt>0</asrwt>
<pdfrwt beam="1">  1        1 0.80424223E-02 0.27333197E+03</pdfrwt>
<pdfrwt beam="2">  1       -1 0.54967666E-01 0.27333197E+03</pdfrwt>
<totfact> 0.29568751E+03</totfact>
</mgrwt>
</event>
<event>
 9    1  0.7986988E-001  0.2711728E+03  0.7818608E-02  0.1100610E+00
         -1   -1    0    0    0  501 -0.00000000000E+00  0.00000000000E+00  0.33086476411E+02  0.33086476411E+02  0.00000000000E+00 0.  1.
          1   -1    0    0  501    0  0.00000000000E+00 -0.00000000000E+00 -0.55562493531E+03  0.55562493531E+03  0.00000000000E+00 0.  1.
         35    2    1    2    0    0 -0.35527136788E-14  0.71054273576E-14 -0.52253845889E+03  0.58871141172E+03  0.27117279595E+03 0.  0.
         25    2    3    3    0    0  0.94754583344E+01  0.11741487786E+02 -0.15066019646E+03  0.19552773776E+03  0.12371319489E+03 0.  0.
         25    2    3    3    0    0 -0.94754583344E+01 -0.11741487786E+02 -0.37187826243E+03  0.39318367396E+03  0.12677662462E+03 0.  0.
          5    1    4    4  502    0  0.36364514902E+02  0.53585095049E+02 -0.12128591334E+03  0.13757217426E+03  0.47000000000E+01 0. -1.
         -5    1    4    4    0  502 -0.26889056567E+02 -0.41843607263E+02 -0.29374283119E+02  0.57955563500E+02  0.47000000000E+01 0. -1.
          5    1    5    5  503    0 -0.52958797376E+01 -0.14794049031E+02 -0.38118826393E+03  0.38154094510E+03  0.47000000000E+01 0.  1.
         -5    1    5    5    0  503 -0.41795785968E+01  0.30525612447E+01  0.93100014959E+01  0.11642728858E+02  0.47000000000E+01 0.  1.
<mgrwt>
<rscale>  0 0.27117280E+03</rscale>
<asrwt>0</asrwt>
<pdfrwt beam="1">  1        1 0.85480750E-01 0.27117280E+03</pdfrwt>
<pdfrwt beam="2">  1       -1 0.50902277E-02 0.27117280E+03</pdfrwt>
<totfact> 0.66715445E+03</totfact>
</mgrwt>
</event>
<event>
 9    1  0.7986988E-001  0.2758925E+03  0.7818608E-02  0.1097954E+00
          2   -1    0    0  501    0  0.00000000000E+00  0.00000000000E+00  0.22340419932E+04  0.22340419932E+04  0.00000000000E+00 0.  1.
         -2   -1    0    0    0  501 -0.00000000000E+00 -0.00000000000E+00 -0.85178227279E+01  0.85178227279E+01  0.00000000000E+00 0.  1.
         35    2    1    2    0    0  0.00000000000E+00  0.71054273576E-14  0.22255241704E+04  0.22425598159E+04  0.27589254187E+03 0.  0.
         25    2    3    3    0    0 -0.51080063578E+01  0.44669239642E+02  0.14232159524E+04  0.14293373983E+04  0.12425907645E+03 0.  0.
         25    2    3    3    0    0  0.51080063578E+01 -0.44669239642E+02  0.80230821801E+03  0.81322241765E+03  0.12494315179E+03 0.  0.
          5    1    4    4  502    0 -0.47445238737E+02 -0.13971199619E+02  0.86651059359E+03  0.86793372092E+03  0.47000000000E+01 0.  1.
         -5    1    4    4    0  502  0.42337232379E+02  0.58640439261E+02  0.55670535885E+03  0.56140367734E+03  0.47000000000E+01 0.  1.
          5    1    5    5  503    0  0.19996732142E+02 -0.76458239779E+02  0.70921135903E+03  0.71361654514E+03  0.47000000000E+01 0. -1.
         -5    1    5    5    0  503 -0.14888725784E+02  0.31789000137E+02  0.93096858982E+02  0.99605872505E+02  0.47000000000E+01 0. -1.
<mgrwt>
<rscale>  0 0.27589254E+03</rscale>
<asrwt>0</asrwt>
<pdfrwt beam="1">  1        2 0.34369830E+00 0.27589254E+03</pdfrwt>
<pdfrwt beam="2">  1       -2 0.13104360E-02 0.27589254E+03</pdfrwt>
<totfact> 0.80287260E+03</totfact>
</mgrwt>
</event>
<event>
 9    1  0.7986988E-001  0.2745779E+03  0.7818608E-02  0.1098688E+00
         -2   -1    0    0    0  501 -0.00000000000E+00  0.00000000000E+00  0.25005350138E+03  0.25005350138E+03  0.00000000000E+00 0.  1.
          2   -1    0    0  501    0  0.00000000000E+00 -0.00000000000E+00 -0.75376902052E+02  0.75376902052E+02  0.00000000000E+00 0.  1.
         35    2    1    2    0    0  0.88817841970E-15  0.00000000000E+00  0.17467659933E+03  0.32543040343E+03  0.27457791813E+03 0.  0.
         25    2    3    3    0    0  0.42065616489E+01  0.42929451801E+02  0.39803186534E+02  0.13633805612E+03  0.12305746176E+03 0.  0.
         25    2    3    3    0    0 -0.42065616489E+01 -0.42929451801E+02  0.13487341279E+03  0.18909234732E+03  0.12531737845E+03 0.  0.
          5    1    4    4  502    0  0.10891492107E+02  0.49020253660E+02  0.80164206686E+02  0.94710083427E+02  0.47000000000E+01 0. -1.
         -5    1    4    4    0  502 -0.66849304584E+01 -0.60908018589E+01 -0.40361020151E+02  0.41627972689E+02  0.47000000000E+01 0. -1.
          5    1    5    5  503    0 -0.11031746097E+02 -0.20233123376E+02 -0.20895328237E+02  0.31460823982E+02  0.47000000000E+01 0.  1.
         -5    1    5    5    0  503  0.68251844483E+01 -0.22696328425E+02  0.15576874103E+03  0.15763152333E+03  0.47000000000E+01 0.  1.
<mgrwt>
<rscale>  0 0.27457792E+03</rscale>
<asrwt>0</asrwt>
<pdfrwt beam="1">  1        2 0.11596447E-01 0.27457792E+03</pdfrwt>
<pdfrwt beam="2">  1       -2 0.38469769E-01 0.27457792E+03</pdfrwt>
<totfact> 0.34060445E+03</totfact>
</mgrwt>
</event>
<event>
 9    1  0.7986988E-001  0.2754239E+03  0.7818608E-02  0.1098215E+00
         -1   -1    0    0    0  501 -0.00000000000E+00  0.00000000000E+00  0.82352781306E+01  0.82352781306E+01  0.00000000000E+00 0.  1.
          1   -1    0    0  501    0  0.00000000000E+00 -0.00000000000E+00 -0.23028470733E+04  0.23028470733E+04  0.00000000000E+00 0.  1.
         35    2    1    2    0    0  0.00000000000E+00  0.00000000000E+00 -0.22946117952E+04  0.23110823514E+04  0.27542393607E+03 0.  0.
         25    2    3    3    0    0 -0.30872804165E+02 -0.20732716694E+02 -0.15150920944E+04  0.15206494940E+04  0.12445020436E+03 0.  0.
         25    2    3    3    0    0  0.30872804165E+02  0.20732716694E+02 -0.77951970072E+03  0.79043285743E+03  0.12549965225E+03 0.  0.
          5    1    4    4  502    0 -0.70787668753E+02  0.12548496304E+02 -0.64892974406E+03  0.65291673400E+03  0.47000000000E+01 0.  1.
         -5    1    4    4    0  502  0.39914864587E+02 -0.33281212998E+02 -0.86616235038E+03  0.86773275999E+03  0.47000000000E+01 0.  1.
          5    1    5    5  503    0  0.78484030540E+02 -0.30354861624E+00 -0.46480966380E+03  0.47141271595E+03  0.47000000000E+01 0.  1.
         -5    1    5    5    0  503 -0.47611226375E+02  0.21036265310E+02 -0.31471003691E+03  0.31902014148E+03  0.47000000000E+01 0.  1.
<mgrwt>
<rscale>  0 0.27542394E+03</rscale>
<asrwt>0</asrwt>
<pdfrwt beam="1">  1        1 0.35428469E+00 0.27542394E+03</pdfrwt>
<pdfrwt beam="2">  1       -1 0.12669640E-02 0.27542394E+03</pdfrwt>
<totfact> 0.28562547E+03</totfact>
</mgrwt>
</event>
<event>
 9    1  0.7986988E-001  0.2762945E+03  0.7818608E-02  0.1097730E+00
         -2   -1    0    0    0  501 -0.00000000000E+00  0.00000000000E+00  0.23972653669E+03  0.23972653669E+03  0.00000000000E+00 0. -1.
          2   -1    0    0  501    0  0.00000000000E+00 -0.00000000000E+00 -0.79610145082E+02  0.79610145082E+02  0.00000000000E+00 0. -1.
         35    2    1    2    0    0  0.35527136788E-14  0.00000000000E+00  0.16011639160E+03  0.31933668177E+03  0.27629451218E+03 0.  0.
         25    2    3    3    0    0  0.22528308547E+01 -0.55231428719E+02  0.58302637169E+02  0.14860775872E+03  0.12501792865E+03 0.  0.
         25    2    3    3    0    0 -0.22528308547E+01  0.55231428719E+02  0.10181375444E+03  0.17072892305E+03  0.12540629413E+03 0.  0.
          5    1    4    4  502    0 -0.45232565850E+02 -0.45187992207E+02  0.73500563121E+02  0.97531340769E+02  0.47000000000E+01 0.  1.
         -5    1    4    4    0  502  0.47485396704E+02 -0.10043436512E+02 -0.15197925953E+02  0.51076417948E+02  0.47000000000E+01 0.  1.
          5    1    5    5  503    0  0.24231203727E+02  0.86271514824E+02  0.44347380552E+02  0.10009348463E+03  0.47000000000E+01 0. -1.
         -5    1    5    5    0  503 -0.26484034582E+02 -0.31040086105E+02  0.57466373884E+02  0.70635438418E+02  0.47000000000E+01 0. -1.
<mgrwt>
<rscale>  0 0.27629451E+03</rscale>
<asrwt>0</asrwt>
<pdfrwt beam="1">  1        2 0.12247715E-01 0.27629451E+03</pdfrwt>
<pdfrwt beam="2">  1       -2 0.36881005E-01 0.27629451E+03</pdfrwt>
<totfact> 0.34516087E+03</totfact>
</mgrwt>
</event>
<event>
 9    1  0.7986988E-001  0.2761882E+03  0.7818608E-02  0.1097789E+00
         -2   -1    0    0    0  501 -0.00000000000E+00  0.00000000000E+00  0.31779499739E+03  0.31779499739E+03  0.00000000000E+00 0.  1.
          2   -1    0    0  501    0  0.00000000000E+00 -0.00000000000E+00 -0.60007178297E+02  0.60007178297E+02  0.00000000000E+00 0.  1.
         35    2    1    2    0    0  0.00000000000E+00 -0.71054273576E-14  0.25778781909E+03  0.37780217568E+03  0.27618820446E+03 0.  0.
         25    2    3    3    0    0 -0.40025193553E+02 -0.42281344782E+02  0.13830496951E+03  0.19541330333E+03  0.12517334497E+03 0.  0.
         25    2    3    3    0    0  0.40025193553E+02  0.42281344782E+02  0.11948284958E+03  0.18238887236E+03  0.12489924411E+03 0.  0.
          5    1    4    4  502    0  0.23527097924E+02 -0.34624157415E+02  0.12217538525E+03  0.12923339883E+03  0.47000000000E+01 0. -1.
         -5    1    4    4    0  502 -0.63552291477E+02 -0.76571873675E+01  0.16129584258E+02  0.66179904493E+02  0.47000000000E+01 0. -1.
          5    1    5    5  503    0  0.12338665497E+02  0.44489092586E+02  0.14003165322E+03  0.14752110333E+03  0.47000000000E+01 0. -1.
         -5    1    5    5    0  503  0.27686528057E+02 -0.22077478036E+01 -0.20548803634E+02  0.34867769028E+02  0.47000000000E+01 0. -1.
<mgrwt>
<rscale>  0 0.27618820E+03</rscale>
<asrwt>0</asrwt>
<pdfrwt beam="1">  1        2 0.92318738E-02 0.27618820E+03</pdfrwt>
<pdfrwt beam="2">  1       -2 0.48891537E-01 0.27618820E+03</pdfrwt>
<totfact> 0.28372975E+03</totfact>
</mgrwt>
</event>
<event>
 9    1  0.7986988E-001  0.2731785E+03  0.7818608E-02  0.1099474E+00
         -1   -1    0    0    0  501 -0.00000000000E+00  0.00000000000E+00  0.68360295716E+01  0.68360295716E+01  0.00000000000E+00 0. -1.
          1   -1    0    0  501    0  0.00000000000E+00 -0.00000000000E+00 -0.27291610544E+04  0.27291610544E+04  0.00000000000E+00 0. -1.
         35    2    1    2    0    0  0.00000000000E+00 -0.17763568394E-14 -0.27223250248E+04  0.27359970840E+04  0.27317851800E+03 0.  0.
         25    2    3    3    0    0 -0.56543524539E+02  0.52239044822E+01 -0.10667088247E+04  0.10746571391E+04  0.11745548306E+03 0.  0.
         25    2    3    3    0    0  0.56543524539E+02 -0.52239044822E+01 -0.16556162001E+04  0.16613399449E+04  0.12554262653E+03 0.  0.
          5    1    4    4  502    0 -0.62348898103E+02 -0.67054839361E-01 -0.24356749352E+03  0.25146491503E+03  0.47000000000E+01 0. -1.
         -5    1    4    4    0  502  0.58053735636E+01  0.52909593216E+01 -0.82314133117E+03  0.82319222403E+03  0.47000000000E+01 0. -1.
          5    1    5    5  503    0  0.10960353958E+01 -0.59110474456E+02 -0.81950162951E+03  0.82164485044E+03  0.47000000000E+01 0.  1.
         -5    1    5    5    0  503  0.55447489144E+02  0.53886569974E+02 -0.83611457063E+03  0.83969509448E+03  0.47000000000E+01 0.  1.
<mgrwt>
<rscale>  0 0.27317852E+03</rscale>
<asrwt>0</asrwt>
<pdfrwt beam="1">  1        1 0.41987076E+00 0.27317852E+03</pdfrwt>
<pdfrwt beam="2">  1       -1 0.10516973E-02 0.27317852E+03</pdfrwt>
<totfact> 0.19453441E+03</totfact>
</mgrwt>
</event>
<event>
 9    1  0.7986988E-001  0.2768866E+03  0.7818608E-02  0.1097402E+00
          2   -1    0    0  501    0  0.00000000000E+00  0.00000000000E+00  0.34549637090E+03  0.34549637090E+03  0.00000000000E+00 0. -1.
         -2   -1    0    0    0  501 -0.00000000000E+00 -0.00000000000E+00 -0.55475408565E+02  0.55475408565E+02  0.00000000000E+00 0. -1.
         35    2    1    2    0    0  0.00000000000E+00  0.17763568394E-14  0.29002096233E+03  0.40097177946E+03  0.27688663625E+03 0.  0.
         25    2    3    3    0    0  0.53460528247E+02  0.15187253651E+02  0.17499408461E+03  0.22216344554E+03  0.12507991897E+03 0.  0.
         25    2    3    3    0    0 -0.53460528247E+02 -0.15187253651E+02  0.11502687773E+03  0.17880833393E+03  0.12511017916E+03 0.  0.
          5    1    4    4  502    0  0.50422881273E+02  0.56405796318E+02  0.50961023253E+02  0.91341100853E+02  0.47000000000E+01 0. -1.
         -5    1    4    4    0  502  0.30376469745E+01 -0.41218542667E+02  0.12403306136E+03  0.13082234468E+03  0.47000000000E+01 0. -1.
          5    1    5    5  503    0  0.29091583008E+02 -0.17374829394E+02 -0.33752567963E+01  0.34375678274E+02  0.47000000000E+01 0. -1.
         -5    1    5    5    0  503 -0.82552111255E+02  0.21875757438E+01  0.11840213452E+03  0.14443265566E+03  0.47000000000E+01 0. -1.
<mgrwt>
<rscale>  0 0.27688664E+03</rscale>
<asrwt>0</asrwt>
<pdfrwt beam="1">  1        2 0.53153286E-01 0.27688664E+03</pdfrwt>
<pdfrwt beam="2">  1       -2 0.85346785E-02 0.27688664E+03</pdfrwt>
<totfact> 0.79493892E+03</totfact>
</mgrwt>
</event>
<event>
 9    1  0.7986988E-001  0.2752224E+03  0.7818608E-02  0.1098327E+00
         -2   -1    0    0    0  501 -0.00000000000E+00  0.00000000000E+00  0.54319422090E+01  0.54319422090E+01  0.00000000000E+00 0.  1.
          2   -1    0    0  501    0  0.00000000000E+00 -0.00000000000E+00 -0.34862005524E+04  0.34862005524E+04  0.00000000000E+00 0.  1.
         35    2    1    2    0    0 -0.14210854715E-13 -0.71054273576E-14 -0.34807686101E+04  0.34916324946E+04  0.27522238230E+03 0.  0.
         25    2    3    3    0    0  0.57698416713E+02  0.13264946367E+02 -0.15359677876E+04  0.15418158726E+04  0.12039133830E+03 0.  0.
         25    2    3    3    0    0 -0.57698416713E+02 -0.13264946367E+02 -0.19448008225E+04  0.19498166220E+04  0.12660787436E+03 0.  0.
          5    1    4    4  502    0  0.52092645877E+02 -0.47462871090E+02 -0.67744100679E+03  0.68111289488E+03  0.47000000000E+01 0. -1.
         -5    1    4    4    0  502  0.56057708359E+01  0.60727817458E+02 -0.85852678081E+03  0.86070297771E+03  0.47000000000E+01 0. -1.
          5    1    5    5  503    0 -0.22066227066E+02  0.53990747513E+02 -0.11095825300E+04  0.11111243855E+04  0.47000000000E+01 0. -1.
         -5    1    5    5    0  503 -0.35632189647E+02 -0.67255693880E+02 -0.83521829251E+03  0.83869223642E+03  0.47000000000E+01 0. -1.
<mgrwt>
<rscale>  0 0.27522238E+03</rscale>
<asrwt>0</asrwt>
<pdfrwt beam="1">  1        2 0.53633875E+00 0.27522238E+03</pdfrwt>
<pdfrwt beam="2">  1       -2 0.83568309E-03 0.27522238E+03</pdfrwt>
<totfact> 0.28653703E+03</totfact>
</mgrwt>
</event>
<event>
 9    1  0.7986988E-001  0.2640741E+03  0.7818608E-02  0.1104720E+00
         -1   -1    0    0    0  501 -0.00000000000E+00  0.00000000000E+00  0.81693358630E+02  0.81693358630E+02  0.00000000000E+00 0.  1.
          1   -1    0    0  501    0  0.00000000000E+00 -0.00000000000E+00 -0.21340507405E+03  0.21340507405E+03  0.00000000000E+00 0.  1.
         35    2    1    2    0    0  0.00000000000E+00  0.00000000000E+00 -0.13171171542E+03  0.29509843268E+03  0.26407405967E+03 0.  0.
         25    2    3    3    0    0  0.15809288016E+02  0.33012891654E+02 -0.54221469389E+02  0.14281189141E+03  0.12694677618E+03 0.  0.
         25    2    3    3    0    0 -0.15809288016E+02 -0.33012891654E+02 -0.77490246028E+02  0.15228654127E+03  0.12588354865E+03 0.  0.
          5    1    4    4  502    0 -0.33681726491E+02 -0.12219029596E+02  0.21113738551E+02  0.41852638379E+02  0.47000000000E+01 0. -1.
         -5    1    4    4    0  502  0.49491014507E+02  0.45231921249E+02 -0.75335207940E+02  0.10095925303E+03  0.47000000000E+01 0. -1.
          5    1    5    5  503    0 -0.66557936727E+01  0.46569190113E+02 -0.12172027628E+02  0.48818411627E+02  0.47000000000E+01 0.  1.
         -5    1    5    5    0  503 -0.91534943432E+01 -0.79582081766E+02 -0.65318218400E+02  0.10346812964E+03  0.47000000000E+01 0.  1.
<mgrwt>
<rscale>  0 0.26407406E+03</rscale>
<asrwt>0</asrwt>
<pdfrwt beam="1">  1        1 0.32831549E-01 0.26407406E+03</pdfrwt>
<pdfrwt beam="2">  1       -1 0.12568209E-01 0.26407406E+03</pdfrwt>
<totfact> 0.56963298E+03</totfact>
</mgrwt>
</event>
<event>
 9    1  0.7986988E-001  0.2744515E+03  0.7818608E-02  0.1098759E+00
         -2   -1    0    0    0  501 -0.00000000000E+00  0.00000000000E+00  0.77032330102E+01  0.77032330102E+01  0.00000000000E+00 0.  1.
          2   -1    0    0  501    0  0.00000000000E+00 -0.00000000000E+00 -0.24445460499E+04  0.24445460499E+04  0.00000000000E+00 0.  1.
         35    2    1    2    0    0  0.71054273576E-14  0.00000000000E+00 -0.24368428169E+04  0.24522492829E+04  0.27445150994E+03 0.  0.
         25    2    3    3    0    0 -0.43080938790E+00 -0.37585698578E+02 -0.88123865064E+03  0.89090027255E+03  0.12533501472E+03 0.  0.
         25    2    3    3    0    0  0.43080938790E+00  0.37585698578E+02 -0.15556041663E+04  0.15613490104E+04  0.12842717688E+03 0.  0.
          5    1    4    4  502    0 -0.41648817246E+02 -0.11739869445E+02 -0.11276556545E+03  0.12087436148E+03  0.47000000000E+01 0.  1.
         -5    1    4    4    0  502  0.41218007858E+02 -0.25845829132E+02 -0.76847308519E+03  0.77002591107E+03  0.47000000000E+01 0.  1.
          5    1    5    5  503    0 -0.40550880381E+02  0.55876906543E+02 -0.12964630560E+04  0.12983085720E+04  0.47000000000E+01 0. -1.
         -5    1    5    5    0  503  0.40981689769E+02 -0.18291207965E+02 -0.25914111028E+03  0.26304043838E+03  0.47000000000E+01 0. -1.
<mgrwt>
<rscale>  0 0.27445151E+03</rscale>
<asrwt>0</asrwt>
<pdfrwt beam="1">  1        2 0.37608381E+00 0.27445151E+03</pdfrwt>
<pdfrwt beam="2">  1       -2 0.11851134E-02 0.27445151E+03</pdfrwt>
<totfact> 0.71601117E+03</totfact>
</mgrwt>
</event>
<event>
 9    1  0.7986988E-001  0.2736466E+03  0.7818608E-02  0.1099211E+00
         -1   -1    0    0    0  501 -0.00000000000E+00  0.00000000000E+00  0.11228274553E+02  0.11228274553E+02  0.00000000000E+00 0. -1.
          1   -1    0    0  501    0  0.00000000000E+00 -0.00000000000E+00 -0.16672744826E+04  0.16672744826E+04  0.00000000000E+00 0. -1.
         35    2    1    2    0    0  0.00000000000E+00 -0.14210854715E-13 -0.16560462080E+04  0.16785027571E+04  0.27364660163E+03 0.  0.
         25    2    3    3    0    0  0.32971416080E+02 -0.40005204564E+02 -0.93147133029E+03  0.94126250655E+03  0.12509490964E+03 0.  0.
         25    2    3    3    0    0 -0.32971416080E+02  0.40005204564E+02 -0.72457487771E+03  0.73724025056E+03  0.12580501961E+03 0.  0.
          5    1    4    4  502    0 -0.35246129275E+02  0.20792464729E+02 -0.38334188980E+03  0.38554858409E+03  0.47000000000E+01 0. -1.
         -5    1    4    4    0  502  0.68217545356E+02 -0.60797669293E+02 -0.54812944049E+03  0.55571392246E+03  0.47000000000E+01 0. -1.
          5    1    5    5  503    0 -0.42285971229E+02 -0.38024136602E+02 -0.32816404314E+03  0.33308807775E+03  0.47000000000E+01 0. -1.
         -5    1    5    5    0  503  0.93145551488E+01  0.78029341166E+02 -0.39641083457E+03  0.40415217281E+03  0.47000000000E+01 0. -1.
<mgrwt>
<rscale>  0 0.27364660E+03</rscale>
<asrwt>0</asrwt>
<pdfrwt beam="1">  1        1 0.25650359E+00 0.27364660E+03</pdfrwt>
<pdfrwt beam="2">  1       -1 0.17274280E-02 0.27364660E+03</pdfrwt>
<totfact> 0.47176875E+03</totfact>
</mgrwt>
</event>
<event>
 9    1  0.7986988E-001  0.2789999E+03  0.7818608E-02  0.1096236E+00
         -2   -1    0    0    0  501 -0.00000000000E+00  0.00000000000E+00  0.77583824248E+02  0.77583824248E+02  0.00000000000E+00 0.  1.
          2   -1    0    0  501    0  0.00000000000E+00 -0.00000000000E+00 -0.25082847958E+03  0.25082847958E+03  0.00000000000E+00 0.  1.
         35    2    1    2    0    0  0.00000000000E+00  0.71054273576E-14 -0.17324465533E+03  0.32841230383E+03  0.27899987582E+03 0.  0.
         25    2    3    3    0    0  0.22005189922E+02  0.58719949472E+02 -0.89662911409E+02  0.16549342642E+03  0.12416269832E+03 0.  0.
         25    2    3    3    0    0 -0.22005189922E+02 -0.58719949472E+02 -0.83581743925E+02  0.16291887741E+03  0.12499756738E+03 0.  0.
          5    1    4    4  502    0 -0.26888127277E+02  0.70112600022E+01  0.20085769644E+02  0.34607185634E+02  0.47000000000E+01 0.  1.
         -5    1    4    4    0  502  0.48893317198E+02  0.51708689470E+02 -0.10974868105E+03  0.13088624078E+03  0.47000000000E+01 0.  1.
          5    1    5    5  503    0  0.61125560675E+00  0.29031365417E+02 -0.63500224446E+02  0.69982585806E+02  0.47000000000E+01 0.  1.
         -5    1    5    5    0  503 -0.22616445528E+02 -0.87751314890E+02 -0.20081519479E+02  0.92936291608E+02  0.47000000000E+01 0.  1.
<mgrwt>
<rscale>  0 0.27899988E+03</rscale>
<asrwt>0</asrwt>
<pdfrwt beam="1">  1        2 0.38588996E-01 0.27899988E+03</pdfrwt>
<pdfrwt beam="2">  1       -2 0.11935973E-01 0.27899988E+03</pdfrwt>
<totfact> 0.65828737E+03</totfact>
</mgrwt>
</event>
<event>
 9    1  0.7986988E-001  0.2727470E+03  0.7818608E-02  0.1099718E+00
          1   -1    0    0  501    0  0.00000000000E+00  0.00000000000E+00  0.44255844649E+02  0.44255844649E+02  0.00000000000E+00 0.  1.
         -1   -1    0    0    0  501 -0.00000000000E+00 -0.00000000000E+00 -0.42023234197E+03  0.42023234197E+03  0.00000000000E+00 0.  1.
         35    2    1    2    0    0  0.71054273576E-14 -0.71054273576E-14 -0.37597649732E+03  0.46448818662E+03  0.27274704209E+03 0.  0.
         25    2    3    3    0    0  0.41041138472E+02 -0.28380470281E+02 -0.15543610441E+03  0.20564946425E+03  0.12506595640E+03 0.  0.
         25    2    3    3    0    0 -0.41041138472E+02  0.28380470281E+02 -0.22054039291E+03  0.25883872237E+03  0.12597457344E+03 0.  0.
          5    1    4    4  502    0 -0.29222452628E+02  0.30629341361E+02 -0.44323898486E+02  0.61471995793E+02  0.47000000000E+01 0.  1.
         -5    1    4    4    0  502  0.70263591099E+02 -0.59009811642E+02 -0.11111220592E+03  0.14417746845E+03  0.47000000000E+01 0.  1.
          5    1    5    5  503    0 -0.37413918928E+02  0.60070928448E+02 -0.53831523468E+02  0.89040668759E+02  0.47000000000E+01 0. -1.
         -5    1    5    5    0  503 -0.36272195438E+01 -0.31690458167E+02 -0.16670886944E+03  0.16979805361E+03  0.47000000000E+01 0. -1.
<mgrwt>
<rscale>  0 0.27274704E+03</rscale>
<asrwt>0</asrwt>
<pdfrwt beam="1">  1        1 0.68085912E-02 0.27274704E+03</pdfrwt>
<pdfrwt beam="2">  1       -1 0.64651133E-01 0.27274704E+03</pdfrwt>
<totfact> 0.27170541E+03</totfact>
</mgrwt>
</event>
<event>
 9    1  0.7986988E-001  0.2737459E+03  0.7818608E-02  0.1099155E+00
          2   -1    0    0  501    0  0.00000000000E+00  0.00000000000E+00  0.22220793811E+02  0.22220793811E+02  0.00000000000E+00 0.  1.
         -2   -1    0    0    0  501 -0.00000000000E+00 -0.00000000000E+00 -0.84309340567E+03  0.84309340567E+03  0.00000000000E+00 0.  1.
         35    2    1    2    0    0 -0.35527136788E-14  0.14210854715E-13 -0.82087261186E+03  0.86531419948E+03  0.27374590211E+03 0.  0.
         25    2    3    3    0    0  0.12668198450E+02 -0.54593552185E+02 -0.40641895575E+03  0.42920786983E+03  0.12610348424E+03 0.  0.
         25    2    3    3    0    0 -0.12668198450E+02  0.54593552185E+02 -0.41445365611E+03  0.43610632965E+03  0.12359594860E+03 0.  0.
          5    1    4    4  502    0 -0.27565084175E+02 -0.83561102624E+02 -0.26670186949E+03  0.28088123634E+03  0.47000000000E+01 0.  1.
         -5    1    4    4    0  502  0.40233282625E+02  0.28967550439E+02 -0.13971708626E+03  0.14832663349E+03  0.47000000000E+01 0.  1.
          5    1    5    5  503    0 -0.13389579328E+02  0.79042742224E+02 -0.14708640149E+03  0.16758142927E+03  0.47000000000E+01 0.  1.
         -5    1    5    5    0  503  0.72138087754E+00 -0.24449190039E+02 -0.26736725462E+03  0.26852490039E+03  0.47000000000E+01 0.  1.
<mgrwt>
<rscale>  0 0.27374590E+03</rscale>
<asrwt>0</asrwt>
<pdfrwt beam="1">  1        2 0.34185848E-02 0.27374590E+03</pdfrwt>
<pdfrwt beam="2">  1       -2 0.12970664E+00 0.27374590E+03</pdfrwt>
<totfact> 0.12019350E+03</totfact>
</mgrwt>
</event>
<event>
 9    1  0.7986988E-001  0.2731823E+03  0.7818608E-02  0.1099472E+00
          2   -1    0    0  501    0  0.00000000000E+00  0.00000000000E+00  0.71304512997E+03  0.71304512997E+03  0.00000000000E+00 0. -1.
         -2   -1    0    0    0  501 -0.00000000000E+00 -0.00000000000E+00 -0.26165449581E+02  0.26165449581E+02  0.00000000000E+00 0. -1.
         35    2    1    2    0    0  0.35527136788E-14  0.00000000000E+00  0.68687968039E+03  0.73921057955E+03  0.27318233030E+03 0.  0.
         25    2    3    3    0    0  0.29823673673E+02  0.31080022234E+02  0.44169267184E+03  0.46104966425E+03  0.12497582668E+03 0.  0.
         25    2    3    3    0    0 -0.29823673673E+02 -0.31080022234E+02  0.24518700855E+03  0.27816091530E+03  0.12410240266E+03 0.  0.
          5    1    4    4  502    0  0.69257377723E+02  0.38678611435E+02  0.37273934128E+03  0.38111589562E+03  0.47000000000E+01 0.  1.
         -5    1    4    4    0  502 -0.39433704050E+02 -0.75985892008E+01  0.68953330557E+02  0.79933768632E+02  0.47000000000E+01 0.  1.
          5    1    5    5  503    0 -0.26229095693E+02 -0.78427382853E+02  0.14021770275E+03  0.16285550039E+03  0.47000000000E+01 0.  1.
         -5    1    5    5    0  503 -0.35945779804E+01  0.47347360619E+02  0.10496930579E+03  0.11530541491E+03  0.47000000000E+01 0.  1.
<mgrwt>
<rscale>  0 0.27318233E+03</rscale>
<asrwt>0</asrwt>
<pdfrwt beam="1">  1        2 0.10969924E+00 0.27318233E+03</pdfrwt>
<pdfrwt beam="2">  1       -2 0.40254543E-02 0.27318233E+03</pdfrwt>
<totfact> 0.11113394E+04</totfact>
</mgrwt>
</event>
<event>
 9    1  0.7986988E-001  0.2761908E+03  0.7818608E-02  0.1097788E+00
         -2   -1    0    0    0  501 -0.00000000000E+00  0.00000000000E+00  0.32986585752E+02  0.32986585752E+02  0.00000000000E+00 0.  1.
          2   -1    0    0  501    0  0.00000000000E+00 -0.00000000000E+00 -0.57812393740E+03  0.57812393740E+03  0.00000000000E+00 0.  1.
         35    2    1    2    0    0  0.17763568394E-14 -0.17763568394E-14 -0.54513735165E+03  0.61111052315E+03  0.27619076622E+03 0.  0.
         25    2    3    3    0    0 -0.41745367389E+01 -0.67218859211E+01 -0.40379542955E+03  0.42305922665E+03  0.12595931812E+03 0.  0.
         25    2    3    3    0    0  0.41745367389E+01  0.67218859211E+01 -0.14134192210E+03  0.18805129650E+03  0.12378667403E+03 0.  0.
          5    1    4    4  502    0 -0.37522181074E+02 -0.17993499288E+02 -0.41261934520E+02  0.58790452708E+02  0.47000000000E+01 0.  1.
         -5    1    4    4    0  502  0.33347644335E+02  0.11271613367E+02 -0.36253349503E+03  0.36426877394E+03  0.47000000000E+01 0.  1.
          5    1    5    5  503    0 -0.15910457477E+02 -0.20486103272E+02 -0.15042742341E+03  0.15271975248E+03  0.47000000000E+01 0. -1.
         -5    1    5    5    0  503  0.20084994216E+02  0.27207989193E+02  0.90855013144E+01  0.35331544018E+02  0.47000000000E+01 0. -1.
<mgrwt>
<rscale>  0 0.27619077E+03</rscale>
<asrwt>0</asrwt>
<pdfrwt beam="1">  1        2 0.88942145E-01 0.27619077E+03</pdfrwt>
<pdfrwt beam="2">  1       -2 0.50748593E-02 0.27619077E+03</pdfrwt>
<totfact> 0.10038762E+04</totfact>
</mgrwt>
</event>
<event>
 9    1  0.7986988E-001  0.2751921E+03  0.7818608E-02  0.1098344E+00
          2   -1    0    0  501    0  0.00000000000E+00  0.00000000000E+00  0.33967303372E+03  0.33967303372E+03  0.00000000000E+00 0.  1.
         -2   -1    0    0    0  501 -0.00000000000E+00 -0.00000000000E+00 -0.55737932807E+02  0.55737932807E+02  0.00000000000E+00 0.  1.
         35    2    1    2    0    0  0.00000000000E+00  0.14210854715E-13  0.28393510091E+03  0.39541096652E+03  0.27519209821E+03 0.  0.
         25    2    3    3    0    0 -0.39784067759E+02 -0.38363700889E+02  0.15421308604E+03  0.20606543234E+03  0.12500696343E+03 0.  0.
         25    2    3    3    0    0  0.39784067759E+02  0.38363700889E+02  0.12972201487E+03  0.18934553418E+03  0.12637003038E+03 0.  0.
          5    1    4    4  502    0 -0.59343758998E+02  0.29091166395E+02  0.76981450303E+02  0.10156875201E+03  0.47000000000E+01 0. -1.
         -5    1    4    4    0  502  0.19559691239E+02 -0.67454867285E+02  0.77231635734E+02  0.10449668033E+03  0.47000000000E+01 0. -1.
          5    1    5    5  503    0  0.32169400931E+02  0.69130250600E+02  0.25857212550E+02  0.80650773990E+02  0.47000000000E+01 0.  1.
         -5    1    5    5    0  503  0.76146668275E+01 -0.30766549711E+02  0.10386480232E+03  0.10869476019E+03  0.47000000000E+01 0.  1.
<mgrwt>
<rscale>  0 0.27519210E+03</rscale>
<asrwt>0</asrwt>
<pdfrwt beam="1">  1        2 0.52257389E-01 0.27519210E+03</pdfrwt>
<pdfrwt beam="2">  1       -2 0.85750668E-02 0.27519210E+03</pdfrwt>
<totfact> 0.80348027E+03</totfact>
</mgrwt>
</event>
<event>
 9    1  0.7986988E-001  0.2774212E+03  0.7818608E-02  0.1097106E+00
         -2   -1    0    0    0  501 -0.00000000000E+00  0.00000000000E+00  0.42882161153E+02  0.42882161153E+02  0.00000000000E+00 0. -1.
          2   -1    0    0  501    0  0.00000000000E+00 -0.00000000000E+00 -0.44868621351E+03  0.44868621351E+03  0.00000000000E+00 0. -1.
         35    2    1    2    0    0  0.71054273576E-14 -0.71054273576E-14 -0.40580405236E+03  0.49156837466E+03  0.27742122857E+03 0.  0.
         25    2    3    3    0    0 -0.30553051176E+02 -0.33554363500E+02 -0.22538094205E+03  0.26560234624E+03  0.13299869566E+03 0.  0.
         25    2    3    3    0    0  0.30553051176E+02  0.33554363500E+02 -0.18042311031E+03  0.22596602842E+03  0.12825273104E+03 0.  0.
          5    1    4    4  502    0  0.44753311817E+02 -0.41824623634E+02 -0.12932742180E+03  0.14317761728E+03  0.47000000000E+01 0.  1.
         -5    1    4    4    0  502 -0.75306362993E+02  0.82702601336E+01 -0.96053520243E+02  0.12242472896E+03  0.47000000000E+01 0.  1.
          5    1    5    5  503    0 -0.22632684239E+02  0.67005149512E+02 -0.75338607106E+02  0.10344043783E+03  0.47000000000E+01 0.  1.
         -5    1    5    5    0  503  0.53185735414E+02 -0.33450786012E+02 -0.10508450320E+03  0.12252559059E+03  0.47000000000E+01 0.  1.
<mgrwt>
<rscale>  0 0.27742123E+03</rscale>
<asrwt>0</asrwt>
<pdfrwt beam="1">  1        2 0.69028647E-01 0.27742123E+03</pdfrwt>
<pdfrwt beam="2">  1       -2 0.65972557E-02 0.27742123E+03</pdfrwt>
<totfact> 0.89319090E+03</totfact>
</mgrwt>
</event>
<event>
 9    1  0.7986988E-001  0.2747236E+03  0.7818608E-02  0.1098606E+00
         -2   -1    0    0    0  501 -0.00000000000E+00  0.00000000000E+00  0.76812021299E+01  0.76812021299E+01  0.00000000000E+00 0. -1.
          2   -1    0    0  501    0  0.00000000000E+00 -0.00000000000E+00 -0.24564205916E+04  0.24564205916E+04  0.00000000000E+00 0. -1.
         35    2    1    2    0    0 -0.35527136788E-14  0.71054273576E-14 -0.24487393895E+04  0.24641017937E+04  0.27472359258E+03 0.  0.
         25    2    3    3    0    0 -0.89131725910E+01 -0.37858261179E+02 -0.78743889403E+03  0.79772007218E+03  0.12159197816E+03 0.  0.
         25    2    3    3    0    0  0.89131725910E+01  0.37858261179E+02 -0.16613004954E+04  0.16663817215E+04  0.12408067198E+03 0.  0.
          5    1    4    4  502    0 -0.42550640678E+02 -0.63143700926E+02 -0.34895887447E+03  0.35720032203E+03  0.47000000000E+01 0.  1.
         -5    1    4    4    0  502  0.33637468087E+02  0.25285439747E+02 -0.43848001956E+03  0.44051975015E+03  0.47000000000E+01 0.  1.
          5    1    5    5  503    0 -0.18938109865E+02  0.68069615176E+02 -0.14034651897E+04  0.14052504236E+04  0.47000000000E+01 0. -1.
         -5    1    5    5    0  503  0.27851282456E+02 -0.30211353998E+02 -0.25783530576E+03  0.26113129790E+03  0.47000000000E+01 0. -1.
<mgrwt>
<rscale>  0 0.27472359E+03</rscale>
<asrwt>0</asrwt>
<pdfrwt beam="1">  1        2 0.37791074E+00 0.27472359E+03</pdfrwt>
<pdfrwt beam="2">  1       -2 0.11817238E-02 0.27472359E+03</pdfrwt>
<totfact> 0.70837107E+03</totfact>
</mgrwt>
</event>
<event>
 9    1  0.7986988E-001  0.2730320E+03  0.7818608E-02  0.1099557E+00
         -2   -1    0    0    0  501 -0.00000000000E+00  0.00000000000E+00  0.24055777893E+02  0.24055777893E+02  0.00000000000E+00 0.  1.
          2   -1    0    0  501    0  0.00000000000E+00 -0.00000000000E+00 -0.77472514216E+03  0.77472514216E+03  0.00000000000E+00 0.  1.
         35    2    1    2    0    0  0.71054273576E-14  0.35527136788E-14 -0.75066936427E+03  0.79878092006E+03  0.27303198309E+03 0.  0.
         25    2    3    3    0    0  0.28558376814E+02 -0.24683521893E+02 -0.24704212527E+03  0.27936149316E+03  0.12485261335E+03 0.  0.
         25    2    3    3    0    0 -0.28558376814E+02  0.24683521893E+02 -0.50362723900E+03  0.51941942690E+03  0.12137251765E+03 0.  0.
          5    1    4    4  502    0  0.62249407405E+02 -0.69229645778E+00 -0.22238169441E+03  0.23097873496E+03  0.47000000000E+01 0. -1.
         -5    1    4    4    0  502 -0.33691030591E+02 -0.23991225435E+02 -0.24660430863E+02  0.48382758194E+02  0.47000000000E+01 0. -1.
          5    1    5    5  503    0 -0.43789158574E+02 -0.39960927677E+02 -0.20445112495E+03  0.21292420868E+03  0.47000000000E+01 0.  1.
         -5    1    5    5    0  503  0.15230781759E+02  0.64644449569E+02 -0.29917611405E+03  0.30649521822E+03  0.47000000000E+01 0.  1.
<mgrwt>
<rscale>  0 0.27303198E+03</rscale>
<asrwt>0</asrwt>
<pdfrwt beam="1">  1        2 0.11918847E+00 0.27303198E+03</pdfrwt>
<pdfrwt beam="2">  1       -2 0.37008895E-02 0.27303198E+03</pdfrwt>
<totfact> 0.11377699E+04</totfact>
</mgrwt>
</event>
<event>
 9    1  0.7986988E-001  0.2797495E+03  0.7818608E-02  0.1095826E+00
         -1   -1    0    0    0  501 -0.00000000000E+00  0.00000000000E+00  0.47530438653E+02  0.47530438653E+02  0.00000000000E+00 0.  1.
          1   -1    0    0  501    0  0.00000000000E+00 -0.00000000000E+00 -0.41162971505E+03  0.41162971505E+03  0.00000000000E+00 0.  1.
         35    2    1    2    0    0  0.10658141036E-13 -0.71054273576E-14 -0.36409927640E+03  0.45916015370E+03  0.27974946591E+03 0.  0.
         25    2    3    3    0    0  0.30644540463E+02  0.48237172674E+02 -0.14281636333E+03  0.19840113369E+03  0.12530196937E+03 0.  0.
         25    2    3    3    0    0 -0.30644540463E+02 -0.48237172674E+02 -0.22128291306E+03  0.26075902001E+03  0.12555168742E+03 0.  0.
          5    1    4    4  502    0 -0.11090214811E+02  0.82552073215E+02 -0.83721632148E+02  0.11819153669E+03  0.47000000000E+01 0.  1.
         -5    1    4    4    0  502  0.41734755275E+02 -0.34314900541E+02 -0.59094731185E+02  0.80209597000E+02  0.47000000000E+01 0.  1.
          5    1    5    5  503    0 -0.24429671558E+02  0.30414246952E+02 -0.19124853016E+02  0.43699945915E+02  0.47000000000E+01 0. -1.
         -5    1    5    5    0  503 -0.62148689053E+01 -0.78651419626E+02 -0.20215806005E+03  0.21705907409E+03  0.47000000000E+01 0. -1.
<mgrwt>
<rscale>  0 0.27974947E+03</rscale>
<asrwt>0</asrwt>
<pdfrwt beam="1">  1        1 0.63327646E-01 0.27974947E+03</pdfrwt>
<pdfrwt beam="2">  1       -1 0.73123754E-02 0.27974947E+03</pdfrwt>
<totfact> 0.57418197E+03</totfact>
</mgrwt>
</event>
<event>
 9    1  0.7986988E-001  0.2741108E+03  0.7818608E-02  0.1098950E+00
         -2   -1    0    0    0  501 -0.00000000000E+00  0.00000000000E+00  0.78647513050E+01  0.78647513050E+01  0.00000000000E+00 0.  1.
          2   -1    0    0  501    0  0.00000000000E+00 -0.00000000000E+00 -0.23884009826E+04  0.23884009826E+04  0.00000000000E+00 0.  1.
         35    2    1    2    0    0  0.71054273576E-14  0.00000000000E+00 -0.23805362313E+04  0.23962657339E+04  0.27411077866E+03 0.  0.
         25    2    3    3    0    0 -0.32315583703E+02 -0.22022719277E+01 -0.79696301254E+03  0.80741833104E+03  0.12540004385E+03 0.  0.
         25    2    3    3    0    0  0.32315583703E+02  0.22022719277E+01 -0.15835732187E+04  0.15888474029E+04  0.12523092057E+03 0.  0.
          5    1    4    4  502    0 -0.64333078851E+02  0.28161408791E+02 -0.65271761762E+03  0.65650147626E+03  0.47000000000E+01 0. -1.
         -5    1    4    4    0  502  0.32017495149E+02 -0.30363680718E+02 -0.14424539491E+03  0.15091685478E+03  0.47000000000E+01 0. -1.
          5    1    5    5  503    0  0.14061222901E+02  0.38802569838E+02 -0.18242274217E+03  0.18709223467E+03  0.47000000000E+01 0.  1.
         -5    1    5    5    0  503  0.18254360802E+02 -0.36600297911E+02 -0.14011504766E+04  0.14017551682E+04  0.47000000000E+01 0.  1.
<mgrwt>
<rscale>  0 0.27411078E+03</rscale>
<asrwt>0</asrwt>
<pdfrwt beam="1">  1        2 0.36744607E+00 0.27411078E+03</pdfrwt>
<pdfrwt beam="2">  1       -2 0.12099625E-02 0.27411078E+03</pdfrwt>
<totfact> 0.74518384E+03</totfact>
</mgrwt>
</event>
<event>
 9    1  0.7986988E-001  0.2735931E+03  0.7818608E-02  0.1099241E+00
          1   -1    0    0  501    0  0.00000000000E+00  0.00000000000E+00  0.51008891539E+03  0.51008891539E+03  0.00000000000E+00 0. -1.
         -1   -1    0    0    0  501 -0.00000000000E+00 -0.00000000000E+00 -0.36686333901E+02  0.36686333901E+02  0.00000000000E+00 0. -1.
         35    2    1    2    0    0  0.00000000000E+00  0.00000000000E+00  0.47340258149E+03  0.54677524929E+03  0.27359307206E+03 0.  0.
         25    2    3    3    0    0 -0.97516800564E+00  0.44275559218E+02  0.18451549636E+03  0.22829501781E+03  0.12693057419E+03 0.  0.
         25    2    3    3    0    0  0.97516800564E+00 -0.44275559218E+02  0.28888708513E+03  0.31848023148E+03  0.12654103600E+03 0.  0.
          5    1    4    4  502    0 -0.94468078325E+01  0.51044704973E+02  0.96242691217E+01  0.53004911472E+02  0.47000000000E+01 0. -1.
         -5    1    4    4    0  502  0.84716398268E+01 -0.67691457550E+01  0.17489122724E+03  0.17529010634E+03  0.47000000000E+01 0. -1.
          5    1    5    5  503    0 -0.56250973984E+02 -0.35981966633E+02  0.95829740912E+02  0.11689441065E+03  0.47000000000E+01 0. -1.
         -5    1    5    5    0  503  0.57226141990E+02 -0.82935925857E+01  0.19305734422E+03  0.20158582084E+03  0.47000000000E+01 0. -1.
<mgrwt>
<rscale>  0 0.27359307E+03</rscale>
<asrwt>0</asrwt>
<pdfrwt beam="1">  1        1 0.78475213E-01 0.27359307E+03</pdfrwt>
<pdfrwt beam="2">  1       -1 0.56440517E-02 0.27359307E+03</pdfrwt>
<totfact> 0.64121684E+03</totfact>
</mgrwt>
</event>
<event>
 9    1  0.7986988E-001  0.3002435E+03  0.7818608E-02  0.1085119E+00
          2   -1    0    0  501    0  0.00000000000E+00  0.00000000000E+00  0.78372347718E+03  0.78372347718E+03  0.00000000000E+00 0.  1.
         -2   -1    0    0    0  501 -0.00000000000E+00 -0.00000000000E+00 -0.28755732625E+02  0.28755732625E+02  0.00000000000E+00 0.  1.
         35    2    1    2    0    0  0.00000000000E+00  0.00000000000E+00  0.75496774455E+03  0.81247920980E+03  0.30024351958E+03 0.  0.
         25    2    3    3    0    0 -0.52283177410E+02 -0.39267348177E+02  0.23465684751E+03  0.27325635832E+03  0.12381335149E+03 0.  0.
         25    2    3    3    0    0  0.52283177410E+02  0.39267348177E+02  0.52031089704E+03  0.53922285148E+03  0.12554839188E+03 0.  0.
          5    1    4    4  502    0 -0.86557705848E+01  0.18912155701E+02 -0.57194636395E+01  0.22077007541E+02  0.47000000000E+01 0. -1.
         -5    1    4    4    0  502 -0.43627406825E+02 -0.58179503877E+02  0.24037631115E+03  0.25117935078E+03  0.47000000000E+01 0. -1.
          5    1    5    5  503    0 -0.57623431282E+01 -0.16153702277E+01  0.39535897811E+03  0.39543220101E+03  0.47000000000E+01 0.  1.
         -5    1    5    5    0  503  0.58045520538E+02  0.40882718404E+02  0.12495191893E+03  0.14379065047E+03  0.47000000000E+01 0.  1.
<mgrwt>
<rscale>  0 0.30024352E+03</rscale>
<asrwt>0</asrwt>
<pdfrwt beam="1">  1        2 0.12057283E+00 0.30024352E+03</pdfrwt>
<pdfrwt beam="2">  1       -2 0.44239594E-02 0.30024352E+03</pdfrwt>
<totfact> 0.85950003E+03</totfact>
</mgrwt>
</event>
<event>
 9    1  0.7986988E-001  0.2767680E+03  0.7818608E-02  0.1097467E+00
         -3   -1    0    0    0  501 -0.00000000000E+00  0.00000000000E+00  0.14567965955E+03  0.14567965955E+03  0.00000000000E+00 0.  1.
          3   -1    0    0  501    0  0.00000000000E+00 -0.00000000000E+00 -0.13145370722E+03  0.13145370722E+03  0.00000000000E+00 0.  1.
         35    2    1    2    0    0  0.71054273576E-14  0.00000000000E+00  0.14225952330E+02  0.27713336677E+03  0.27676799897E+03 0.  0.
         25    2    3    3    0    0  0.40801887294E+02  0.38675336434E+02  0.12660248709E+00  0.13743912759E+03  0.12541499954E+03 0.  0.
         25    2    3    3    0    0 -0.40801887294E+02 -0.38675336434E+02  0.14099349842E+02  0.13969423918E+03  0.12710276606E+03 0.  0.
          5    1    4    4  502    0  0.22825628574E+02 -0.21543861727E+02  0.48522570465E+02  0.57979971908E+02  0.47000000000E+01 0. -1.
         -5    1    4    4    0  502  0.17976258719E+02  0.60219198161E+02 -0.48395967978E+02  0.79459155679E+02  0.47000000000E+01 0. -1.
          5    1    5    5  503    0 -0.17491034082E+02  0.46263322407E+02 -0.32929619630E+01  0.49791212797E+02  0.47000000000E+01 0.  1.
         -5    1    5    5    0  503 -0.23310853212E+02 -0.84938658840E+02  0.17392311805E+02  0.89903026384E+02  0.47000000000E+01 0.  1.
<mgrwt>
<rscale>  0 0.27676800E+03</rscale>
<asrwt>0</asrwt>
<pdfrwt beam="1">  1        3 0.20223647E-01 0.27676800E+03</pdfrwt>
<pdfrwt beam="2">  1       -3 0.22412255E-01 0.27676800E+03</pdfrwt>
<totfact> 0.10252527E+03</totfact>
</mgrwt>
</event>
<event>
 9    1  0.7986988E-001  0.2771764E+03  0.7818608E-02  0.1097241E+00
          3   -1    0    0  501    0  0.00000000000E+00  0.00000000000E+00  0.19777367041E+03  0.19777367041E+03  0.00000000000E+00 0.  1.
         -3   -1    0    0    0  501 -0.00000000000E+00 -0.00000000000E+00 -0.97114516429E+02  0.97114516429E+02  0.00000000000E+00 0.  1.
         35    2    1    2    0    0  0.00000000000E+00  0.00000000000E+00  0.10065915398E+03  0.29488818684E+03  0.27717643741E+03 0.  0.
         25    2    3    3    0    0 -0.17911392871E+02 -0.15595042063E+02 -0.73224415801E+01  0.12725461187E+03  0.12480422573E+03 0.  0.
         25    2    3    3    0    0  0.17911392871E+02  0.15595042063E+02  0.10798159556E+03  0.16763357497E+03  0.12600383782E+03 0.  0.
          5    1    4    4  502    0  0.36488599824E+02 -0.49975682364E+02  0.18282439085E+01  0.62083969111E+02  0.47000000000E+01 0.  1.
         -5    1    4    4    0  502 -0.54399992695E+02  0.34380640301E+02 -0.91506854886E+01  0.65170642758E+02  0.47000000000E+01 0.  1.
          5    1    5    5  503    0 -0.31049578569E+02  0.54451124987E+02  0.71118041646E+02  0.94915052490E+02  0.47000000000E+01 0. -1.
         -5    1    5    5    0  503  0.48960971440E+02 -0.38856082924E+02  0.36863553917E+02  0.72718522481E+02  0.47000000000E+01 0. -1.
<mgrwt>
<rscale>  0 0.27717644E+03</rscale>
<asrwt>0</asrwt>
<pdfrwt beam="1">  1        3 0.30426719E-01 0.27717644E+03</pdfrwt>
<pdfrwt beam="2">  1       -3 0.14940695E-01 0.27717644E+03</pdfrwt>
<totfact> 0.99479695E+02</totfact>
</mgrwt>
</event>
<event>
 9    1  0.7986988E-001  0.2837453E+03  0.7818608E-02  0.1093661E+00
         -1   -1    0    0    0  501 -0.00000000000E+00  0.00000000000E+00  0.11303607424E+04  0.11303607424E+04  0.00000000000E+00 0.  1.
          1   -1    0    0  501    0  0.00000000000E+00 -0.00000000000E+00 -0.17806576100E+02  0.17806576100E+02  0.00000000000E+00 0.  1.
         35    2    1    2    0    0 -0.17763568394E-14  0.00000000000E+00  0.11125541663E+04  0.11481673185E+04  0.28374534061E+03 0.  0.
         25    2    3    3    0    0 -0.11180600600E+02  0.65786377476E+02  0.49114355962E+03  0.51103837969E+03  0.12444025099E+03 0.  0.
         25    2    3    3    0    0  0.11180600600E+02 -0.65786377476E+02  0.62141060663E+03  0.63712893876E+03  0.12381150708E+03 0.  0.
          5    1    4    4  502    0 -0.54830378025E+02  0.16245443355E+02  0.35554729351E+03  0.36014754297E+03  0.47000000000E+01 0.  1.
         -5    1    4    4    0  502  0.43649777425E+02  0.49540934121E+02  0.13559626611E+03  0.15089083672E+03  0.47000000000E+01 0.  1.
          5    1    5    5  503    0  0.15559732414E+02 -0.23864390728E+02  0.56889052764E+03  0.56962280226E+03  0.47000000000E+01 0. -1.
         -5    1    5    5    0  503 -0.43791318143E+01 -0.41921986747E+02  0.52520078994E+02  0.67506136505E+02  0.47000000000E+01 0. -1.
<mgrwt>
<rscale>  0 0.28374534E+03</rscale>
<asrwt>0</asrwt>
<pdfrwt beam="1">  1        1 0.27394741E-02 0.28374534E+03</pdfrwt>
<pdfrwt beam="2">  1       -1 0.17390160E+00 0.28374534E+03</pdfrwt>
<totfact> 0.97864082E+02</totfact>
</mgrwt>
</event>
<event>
 9    1  0.7986988E-001  0.2788470E+03  0.7818608E-02  0.1096320E+00
         -1   -1    0    0    0  501 -0.00000000000E+00  0.00000000000E+00  0.30665440596E+02  0.30665440596E+02  0.00000000000E+00 0. -1.
          1   -1    0    0  501    0  0.00000000000E+00 -0.00000000000E+00 -0.63390280630E+03  0.63390280630E+03  0.00000000000E+00 0. -1.
         35    2    1    2    0    0 -0.71054273576E-14  0.35527136788E-14 -0.60323736570E+03  0.66456824690E+03  0.27884697488E+03 0.  0.
         25    2    3    3    0    0 -0.46035016486E+02 -0.16918826464E+02 -0.38983337952E+03  0.41237184237E+03  0.12519985286E+03 0.  0.
         25    2    3    3    0    0  0.46035016486E+02  0.16918826464E+02 -0.21340398618E+03  0.25219640453E+03  0.12512512021E+03 0.  0.
          5    1    4    4  502    0  0.36094939744E+02  0.72351320903E+01 -0.20867418510E+03  0.21194857239E+03  0.47000000000E+01 0. -1.
         -5    1    4    4    0  502 -0.82129956230E+02 -0.24153958554E+02 -0.18115919442E+03  0.20042326998E+03  0.47000000000E+01 0. -1.
          5    1    5    5  503    0  0.12442354947E+02  0.35390444320E+02 -0.21005267752E+03  0.21342800444E+03  0.47000000000E+01 0. -1.
         -5    1    5    5    0  503  0.33592661539E+02 -0.18471617856E+02 -0.33513086590E+01  0.38768400086E+02  0.47000000000E+01 0. -1.
<mgrwt>
<rscale>  0 0.27884697E+03</rscale>
<asrwt>0</asrwt>
<pdfrwt beam="1">  1        1 0.97523503E-01 0.27884697E+03</pdfrwt>
<pdfrwt beam="2">  1       -1 0.47177604E-02 0.27884697E+03</pdfrwt>
<totfact> 0.62330523E+03</totfact>
</mgrwt>
</event>
<event>
 9    1  0.7986988E-001  0.2741876E+03  0.7818608E-02  0.1098907E+00
          2   -1    0    0  501    0  0.00000000000E+00  0.00000000000E+00  0.22004488527E+03  0.22004488527E+03  0.00000000000E+00 0.  1.
         -2   -1    0    0    0  501 -0.00000000000E+00 -0.00000000000E+00 -0.85413066367E+02  0.85413066367E+02  0.00000000000E+00 0.  1.
         35    2    1    2    0    0  0.71054273576E-14  0.00000000000E+00  0.13463181890E+03  0.30545795163E+03  0.27418758826E+03 0.  0.
         25    2    3    3    0    0 -0.35627859906E+02 -0.19774942328E+02  0.12008648996E+03  0.17825209759E+03  0.12527031764E+03 0.  0.
         25    2    3    3    0    0  0.35627859906E+02  0.19774942328E+02  0.14545328943E+02  0.12720585404E+03  0.11962177880E+03 0.  0.
          5    1    4    4  502    0 -0.12217104359E+01  0.39470694298E+02  0.98566308908E+02  0.10628657270E+03  0.47000000000E+01 0. -1.
         -5    1    4    4    0  502 -0.34406149470E+02 -0.59245636627E+02  0.21520181050E+02  0.71965524893E+02  0.47000000000E+01 0. -1.
          5    1    5    5  503    0 -0.36144156176E+02  0.29588770650E+02  0.26077950096E+02  0.53703303953E+02  0.47000000000E+01 0.  1.
         -5    1    5    5    0  503  0.71772016082E+02 -0.98138283215E+01 -0.11532621153E+02  0.73502550088E+02  0.47000000000E+01 0.  1.
<mgrwt>
<rscale>  0 0.27418759E+03</rscale>
<asrwt>0</asrwt>
<pdfrwt beam="1">  1        2 0.33853059E-01 0.27418759E+03</pdfrwt>
<pdfrwt beam="2">  1       -2 0.13140472E-01 0.27418759E+03</pdfrwt>
<totfact> 0.64876548E+03</totfact>
</mgrwt>
</event>
<event>
 9    1  0.7986988E-001  0.2787863E+03  0.7818608E-02  0.1096354E+00
         -2   -1    0    0    0  501 -0.00000000000E+00  0.00000000000E+00  0.27541358947E+02  0.27541358947E+02  0.00000000000E+00 0. -1.
          2   -1    0    0  501    0  0.00000000000E+00 -0.00000000000E+00 -0.70550067445E+03  0.70550067445E+03  0.00000000000E+00 0. -1.
         35    2    1    2    0    0  0.00000000000E+00  0.00000000000E+00 -0.67795931551E+03  0.73304203340E+03  0.27878627880E+03 0.  0.
         25    2    3    3    0    0 -0.62312120759E+01 -0.53796409363E+02 -0.24879027011E+03  0.28378897241E+03  0.12532637670E+03 0.  0.
         25    2    3    3    0    0  0.62312120759E+01  0.53796409363E+02 -0.42916904540E+03  0.44925306099E+03  0.12128215703E+03 0.  0.
          5    1    4    4  502    0  0.44664210248E+02 -0.63045798725E+02 -0.19098437250E+03  0.20607470721E+03  0.47000000000E+01 0.  1.
         -5    1    4    4    0  502 -0.50895422324E+02  0.92493893616E+01 -0.57805897609E+02  0.77714265199E+02  0.47000000000E+01 0.  1.
          5    1    5    5  503    0  0.16327477305E+02 -0.15853550032E+02 -0.11982103562E+02  0.26145408192E+02  0.47000000000E+01 0.  1.
         -5    1    5    5    0  503 -0.10096265229E+02  0.69649959395E+02 -0.41718694184E+03  0.42310765280E+03  0.47000000000E+01 0.  1.
<mgrwt>
<rscale>  0 0.27878628E+03</rscale>
<asrwt>0</asrwt>
<pdfrwt beam="1">  1        2 0.10853857E+00 0.27878628E+03</pdfrwt>
<pdfrwt beam="2">  1       -2 0.42371318E-02 0.27878628E+03</pdfrwt>
<totfact> 0.10429654E+04</totfact>
</mgrwt>
</event>
<event>
 9    1  0.7986988E-001  0.2767170E+03  0.7818608E-02  0.1097496E+00
          2   -1    0    0  501    0  0.00000000000E+00  0.00000000000E+00  0.16212499992E+04  0.16212499992E+04  0.00000000000E+00 0.  1.
         -2   -1    0    0    0  501 -0.00000000000E+00 -0.00000000000E+00 -0.11807605022E+02  0.11807605022E+02  0.00000000000E+00 0.  1.
         35    2    1    2    0    0 -0.35527136788E-14  0.00000000000E+00  0.16094423942E+04  0.16330576042E+04  0.27671703693E+03 0.  0.
         25    2    3    3    0    0  0.19761051878E+02 -0.34104026638E+02  0.54245482636E+03  0.55811185979E+03  0.12521192269E+03 0.  0.
         25    2    3    3    0    0 -0.19761051878E+02  0.34104026638E+02  0.10669875678E+04  0.10749457444E+04  0.12446806742E+03 0.  0.
          5    1    4    4  502    0 -0.13181522957E+02 -0.23937212467E+01  0.48179250953E+03  0.48200165424E+03  0.47000000000E+01 0.  1.
         -5    1    4    4    0  502  0.32942574835E+02 -0.31710305391E+02  0.60662316829E+02  0.76110205543E+02  0.47000000000E+01 0.  1.
          5    1    5    5  503    0 -0.17350058908E+02 -0.28725219921E+02  0.79595447528E+03  0.79667545432E+03  0.47000000000E+01 0.  1.
         -5    1    5    5    0  503 -0.24109929694E+01  0.62829246559E+02  0.27103309251E+03  0.27827029009E+03  0.47000000000E+01 0.  1.
<mgrwt>
<rscale>  0 0.27671704E+03</rscale>
<asrwt>0</asrwt>
<pdfrwt beam="1">  1        2 0.24942290E+00 0.27671704E+03</pdfrwt>
<pdfrwt beam="2">  1       -2 0.18165559E-02 0.27671704E+03</pdfrwt>
<totfact> 0.10474658E+04</totfact>
</mgrwt>
</event>
<event>
 9    1  0.7986988E-001  0.2768979E+03  0.7818608E-02  0.1097395E+00
         -1   -1    0    0    0  501 -0.00000000000E+00  0.00000000000E+00  0.12548223333E+02  0.12548223333E+02  0.00000000000E+00 0.  1.
          1   -1    0    0  501    0  0.00000000000E+00 -0.00000000000E+00 -0.15275558102E+04  0.15275558102E+04  0.00000000000E+00 0.  1.
         35    2    1    2    0    0 -0.17763568394E-14  0.00000000000E+00 -0.15150075868E+04  0.15401040335E+04  0.27689789786E+03 0.  0.
         25    2    3    3    0    0 -0.11579657242E+01 -0.63479832660E+01 -0.10712786883E+04  0.10786068831E+04  0.12535207420E+03 0.  0.
         25    2    3    3    0    0  0.11579657242E+01  0.63479832660E+01 -0.44372889850E+03  0.46149715036E+03  0.12665956990E+03 0.  0.
          5    1    4    4  502    0  0.26996023224E+02  0.52722177600E+02 -0.55712992316E+03  0.56028943821E+03  0.47000000000E+01 0. -1.
         -5    1    4    4    0  502 -0.28153988948E+02 -0.59070160867E+02 -0.51414876517E+03  0.51831744494E+03  0.47000000000E+01 0. -1.
          5    1    5    5  503    0  0.68158347427E+01 -0.41529982462E+02 -0.37516992066E+03  0.37755232011E+03  0.47000000000E+01 0. -1.
         -5    1    5    5    0  503 -0.56578690184E+01  0.47877965728E+02 -0.68558977838E+02  0.83944830253E+02  0.47000000000E+01 0. -1.
<mgrwt>
<rscale>  0 0.27689790E+03</rscale>
<asrwt>0</asrwt>
<pdfrwt beam="1">  1        1 0.23500858E+00 0.27689790E+03</pdfrwt>
<pdfrwt beam="2">  1       -1 0.19304960E-02 0.27689790E+03</pdfrwt>
<totfact> 0.49555011E+03</totfact>
</mgrwt>
</event>
<event>
 9    1  0.7986988E-001  0.2780513E+03  0.7818608E-02  0.1096758E+00
         -3   -1    0    0    0  501 -0.00000000000E+00  0.00000000000E+00  0.48063958598E+03  0.48063958598E+03  0.00000000000E+00 0. -1.
          3   -1    0    0  501    0  0.00000000000E+00 -0.00000000000E+00 -0.40213347505E+02  0.40213347505E+02  0.00000000000E+00 0. -1.
         35    2    1    2    0    0  0.71054273576E-14  0.35527136788E-14  0.44042623847E+03  0.52085293348E+03  0.27805126646E+03 0.  0.
         25    2    3    3    0    0 -0.56090475815E+02  0.20233597518E+02  0.22145487351E+03  0.26103451443E+03  0.12466441666E+03 0.  0.
         25    2    3    3    0    0  0.56090475815E+02 -0.20233597518E+02  0.21897136497E+03  0.25981841905E+03  0.12649747925E+03 0.  0.
          5    1    4    4  502    0  0.34397810112E+02 -0.16337676389E+02  0.84419660251E+02  0.92730243433E+02  0.47000000000E+01 0.  1.
         -5    1    4    4    0  502 -0.90488285927E+02  0.36571273907E+02  0.13703521326E+03  0.16830427100E+03  0.47000000000E+01 0.  1.
          5    1    5    5  503    0  0.31373177837E+02 -0.73978798966E+02  0.12448357993E+03  0.14824098845E+03  0.47000000000E+01 0.  1.
         -5    1    5    5    0  503  0.24717297978E+02  0.53745201448E+02  0.94487785042E+02  0.11157743060E+03  0.47000000000E+01 0.  1.
<mgrwt>
<rscale>  0 0.27805127E+03</rscale>
<asrwt>0</asrwt>
<pdfrwt beam="1">  1        3 0.61866692E-02 0.27805127E+03</pdfrwt>
<pdfrwt beam="2">  1       -3 0.73944548E-01 0.27805127E+03</pdfrwt>
<totfact> 0.72885736E+02</totfact>
</mgrwt>
</event>
<event>
 9    1  0.7986988E-001  0.2730985E+03  0.7818608E-02  0.1099519E+00
         -2   -1    0    0    0  501 -0.00000000000E+00  0.00000000000E+00  0.68158435528E+02  0.68158435528E+02  0.00000000000E+00 0.  1.
          2   -1    0    0  501    0  0.00000000000E+00 -0.00000000000E+00 -0.27356409884E+03  0.27356409884E+03  0.00000000000E+00 0.  1.
         35    2    1    2    0    0  0.71054273576E-14  0.00000000000E+00 -0.20540566331E+03  0.34172253436E+03  0.27309852430E+03 0.  0.
         25    2    3    3    0    0 -0.18253895330E+02 -0.19486476214E+02 -0.43085463948E+02  0.13507821952E+03  0.12520719123E+03 0.  0.
         25    2    3    3    0    0  0.18253895330E+02  0.19486476214E+02 -0.16232019936E+03  0.20664431484E+03  0.12506437657E+03 0.  0.
          5    1    4    4  502    0 -0.31404125423E+02  0.23048136836E+01  0.38225453102E+02  0.49747427315E+02  0.47000000000E+01 0.  1.
         -5    1    4    4    0  502  0.13150230093E+02 -0.21791289897E+02 -0.81310917049E+02  0.85330792205E+02  0.47000000000E+01 0.  1.
          5    1    5    5  503    0 -0.48254392855E+02 -0.17569259680E+02 -0.63098270843E+02  0.81490165658E+02  0.47000000000E+01 0.  1.
         -5    1    5    5    0  503  0.66508288185E+02  0.37055735893E+02 -0.99221928517E+02  0.12515414919E+03  0.47000000000E+01 0.  1.
<mgrwt>
<rscale>  0 0.27309852E+03</rscale>
<asrwt>0</asrwt>
<pdfrwt beam="1">  1        2 0.42086785E-01 0.27309852E+03</pdfrwt>
<pdfrwt beam="2">  1       -2 0.10485913E-01 0.27309852E+03</pdfrwt>
<totfact> 0.73742424E+03</totfact>
</mgrwt>
</event>
<event>
 9    1  0.7986988E-001  0.2763439E+03  0.7818608E-02  0.1097703E+00
          1   -1    0    0  501    0  0.00000000000E+00  0.00000000000E+00  0.78851402879E+02  0.78851402879E+02  0.00000000000E+00 0.  1.
         -1   -1    0    0    0  501 -0.00000000000E+00 -0.00000000000E+00 -0.24211990695E+03  0.24211990695E+03  0.00000000000E+00 0.  1.
         35    2    1    2    0    0  0.35527136788E-14  0.35527136788E-14 -0.16326850407E+03  0.32097130983E+03  0.27634394748E+03 0.  0.
         25    2    3    3    0    0  0.12659518438E+01 -0.27048744978E+02 -0.21409427292E+02  0.12982736805E+03  0.12515408375E+03 0.  0.
         25    2    3    3    0    0 -0.12659518438E+01  0.27048744978E+02 -0.14185907678E+03  0.19114394177E+03  0.12521490157E+03 0.  0.
          5    1    4    4  502    0 -0.16904602835E+02  0.46951877233E+02  0.14203274263E+01  0.50143311645E+02  0.47000000000E+01 0.  1.
         -5    1    4    4    0  502  0.18170554679E+02 -0.74000622212E+02 -0.22829754718E+02  0.79684056407E+02  0.47000000000E+01 0.  1.
          5    1    5    5  503    0 -0.32633875928E+02  0.51852587219E+02 -0.22934125848E+02  0.65587535308E+02  0.47000000000E+01 0.  1.
         -5    1    5    5    0  503  0.31367924084E+02 -0.24803842241E+02 -0.11892495093E+03  0.12555640647E+03  0.47000000000E+01 0.  1.
<mgrwt>
<rscale>  0 0.27634395E+03</rscale>
<asrwt>0</asrwt>
<pdfrwt beam="1">  1        1 0.12130985E-01 0.27634395E+03</pdfrwt>
<pdfrwt beam="2">  1       -1 0.37249216E-01 0.27634395E+03</pdfrwt>
<totfact> 0.34499120E+03</totfact>
</mgrwt>
</event>
<event>
 9    1  0.7986988E-001  0.2747525E+03  0.7818608E-02  0.1098590E+00
          2   -1    0    0  501    0  0.00000000000E+00  0.00000000000E+00  0.47546633931E+03  0.47546633931E+03  0.00000000000E+00 0. -1.
         -2   -1    0    0    0  501 -0.00000000000E+00 -0.00000000000E+00 -0.39692043880E+02  0.39692043880E+02  0.00000000000E+00 0. -1.
         35    2    1    2    0    0  0.35527136788E-14  0.00000000000E+00  0.43577429543E+03  0.51515838319E+03  0.27475247626E+03 0.  0.
         25    2    3    3    0    0 -0.27618021130E+02 -0.48684295577E+02  0.20706750968E+03  0.24821397711E+03  0.12490119751E+03 0.  0.
         25    2    3    3    0    0  0.27618021130E+02  0.48684295577E+02  0.22870678576E+03  0.26694440609E+03  0.12577601664E+03 0.  0.
          5    1    4    4  502    0  0.85034692405E+01 -0.84491941611E+02  0.11659023506E+03  0.14431413686E+03  0.47000000000E+01 0.  1.
         -5    1    4    4    0  502 -0.36121490370E+02  0.35807646035E+02  0.90477274618E+02  0.10389984025E+03  0.47000000000E+01 0.  1.
          5    1    5    5  503    0 -0.65051325328E+01 -0.31724945237E+02  0.14943137281E+02  0.35974661240E+02  0.47000000000E+01 0.  1.
         -5    1    5    5    0  503  0.34123153663E+02  0.80409240814E+02  0.21376364848E+03  0.23096974485E+03  0.47000000000E+01 0.  1.
<mgrwt>
<rscale>  0 0.27475248E+03</rscale>
<asrwt>0</asrwt>
<pdfrwt beam="1">  1        2 0.73148663E-01 0.27475248E+03</pdfrwt>
<pdfrwt beam="2">  1       -2 0.61064686E-02 0.27475248E+03</pdfrwt>
<totfact> 0.94328903E+03</totfact>
</mgrwt>
</event>
<event>
 9    1  0.7986988E-001  0.2818873E+03  0.7818608E-02  0.1094663E+00
         -2   -1    0    0    0  501 -0.00000000000E+00  0.00000000000E+00  0.13956189162E+02  0.13956189162E+02  0.00000000000E+00 0.  1.
          2   -1    0    0  501    0  0.00000000000E+00 -0.00000000000E+00 -0.14233908219E+04  0.14233908219E+04  0.00000000000E+00 0.  1.
         35    2    1    2    0    0  0.00000000000E+00  0.00000000000E+00 -0.14094346327E+04  0.14373470111E+04  0.28188729352E+03 0.  0.
         25    2    3    3    0    0 -0.98109712539E+00 -0.61651559674E+02 -0.65264394771E+03  0.66769107133E+03  0.12674922835E+03 0.  0.
         25    2    3    3    0    0  0.98109712539E+00  0.61651559674E+02 -0.75679068503E+03  0.76965593974E+03  0.12584215216E+03 0.  0.
          5    1    4    4  502    0 -0.47242933225E+01  0.31501794979E+02 -0.33696413970E+03  0.33849904501E+03  0.47000000000E+01 0. -1.
         -5    1    4    4    0  502  0.37431961971E+01 -0.93153354652E+02 -0.31567980801E+03  0.32919202631E+03  0.47000000000E+01 0. -1.
          5    1    5    5  503    0  0.29103706679E+01  0.83100741370E+02 -0.27436955655E+03  0.28673148944E+03  0.47000000000E+01 0. -1.
         -5    1    5    5    0  503 -0.19292735425E+01 -0.21449181697E+02 -0.48242112848E+03  0.48292445030E+03  0.47000000000E+01 0. -1.
<mgrwt>
<rscale>  0 0.28188729E+03</rscale>
<asrwt>0</asrwt>
<pdfrwt beam="1">  1        2 0.21898322E+00 0.28188729E+03</pdfrwt>
<pdfrwt beam="2">  1       -2 0.21471059E-02 0.28188729E+03</pdfrwt>
<totfact> 0.10452796E+04</totfact>
</mgrwt>
</event>
<event>
 9    1  0.7986988E-001  0.2757522E+03  0.7818608E-02  0.1098032E+00
          1   -1    0    0  501    0  0.00000000000E+00  0.00000000000E+00  0.75648526257E+02  0.75648526257E+02  0.00000000000E+00 0. -1.
         -1   -1    0    0    0  501 -0.00000000000E+00 -0.00000000000E+00 -0.25129125886E+03  0.25129125886E+03  0.00000000000E+00 0. -1.
         35    2    1    2    0    0  0.00000000000E+00  0.71054273576E-14 -0.17564273260E+03  0.32693978511E+03  0.27575215969E+03 0.  0.
         25    2    3    3    0    0  0.31146269600E+02  0.45219991548E+02 -0.11088073804E+03  0.17540883505E+03  0.12433335675E+03 0.  0.
         25    2    3    3    0    0 -0.31146269600E+02 -0.45219991548E+02 -0.64761994556E+02  0.15153095006E+03  0.12550926317E+03 0.  0.
          5    1    4    4  502    0 -0.20202022512E+02 -0.27240635881E+02 -0.69168253102E+02  0.77178437364E+02  0.47000000000E+01 0.  1.
         -5    1    4    4    0  502  0.51348292112E+02  0.72460627430E+02 -0.41712484943E+02  0.98230397690E+02  0.47000000000E+01 0.  1.
          5    1    5    5  503    0  0.15998399810E+01  0.31527536906E+02 -0.59831510795E+02  0.67811833446E+02  0.47000000000E+01 0.  1.
         -5    1    5    5    0  503 -0.32746109581E+02 -0.76747528454E+02 -0.49304837612E+01  0.83719116614E+02  0.47000000000E+01 0.  1.
<mgrwt>
<rscale>  0 0.27575216E+03</rscale>
<asrwt>0</asrwt>
<pdfrwt beam="1">  1        1 0.11638235E-01 0.27575216E+03</pdfrwt>
<pdfrwt beam="2">  1       -1 0.38660193E-01 0.27575216E+03</pdfrwt>
<totfact> 0.34146204E+03</totfact>
</mgrwt>
</event>
<event>
 9    1  0.7986988E-001  0.2740005E+03  0.7818608E-02  0.1099012E+00
          2   -1    0    0  501    0  0.00000000000E+00  0.00000000000E+00  0.26389482244E+03  0.26389482244E+03  0.00000000000E+00 0. -1.
         -2   -1    0    0    0  501 -0.00000000000E+00 -0.00000000000E+00 -0.71123266337E+02  0.71123266337E+02  0.00000000000E+00 0. -1.
         35    2    1    2    0    0  0.00000000000E+00  0.00000000000E+00  0.19277155610E+03  0.33501808878E+03  0.27400045067E+03 0.  0.
         25    2    3    3    0    0  0.36572745081E+02  0.49557899215E+00  0.43872574069E+02  0.13731866322E+03  0.12487514257E+03 0.  0.
         25    2    3    3    0    0 -0.36572745081E+02 -0.49557899215E+00  0.14889898204E+03  0.19769942556E+03  0.12480522718E+03 0.  0.
          5    1    4    4  502    0  0.30355417276E+02 -0.46615501481E+02  0.64498505870E+02  0.85303010473E+02  0.47000000000E+01 0. -1.
         -5    1    4    4    0  502  0.62173278057E+01  0.47111080473E+02 -0.20625931801E+02  0.52015652750E+02  0.47000000000E+01 0. -1.
          5    1    5    5  503    0  0.14623116986E+02 -0.52906817184E+02  0.49038272166E+02  0.73755060789E+02  0.47000000000E+01 0.  1.
         -5    1    5    5    0  503 -0.51195862068E+02  0.52411238192E+02  0.99860709870E+02  0.12394436477E+03  0.47000000000E+01 0.  1.
<mgrwt>
<rscale>  0 0.27400045E+03</rscale>
<asrwt>0</asrwt>
<pdfrwt beam="1">  1        2 0.40599203E-01 0.27400045E+03</pdfrwt>
<pdfrwt beam="2">  1       -2 0.10942041E-01 0.27400045E+03</pdfrwt>
<totfact> 0.71620639E+03</totfact>
</mgrwt>
</event>
<event>
 9    1  0.7986988E-001  0.2777379E+03  0.7818608E-02  0.1096931E+00
          2   -1    0    0  501    0  0.00000000000E+00  0.00000000000E+00  0.95555056504E+03  0.95555056504E+03  0.00000000000E+00 0. -1.
         -2   -1    0    0    0  501 -0.00000000000E+00 -0.00000000000E+00 -0.20181647928E+02  0.20181647928E+02  0.00000000000E+00 0. -1.
         35    2    1    2    0    0  0.00000000000E+00 -0.14210854715E-13  0.93536891712E+03  0.97573221297E+03  0.27773789861E+03 0.  0.
         25    2    3    3    0    0 -0.14124151888E+02 -0.41941055587E+02  0.32224629349E+03  0.34841954157E+03  0.12487978005E+03 0.  0.
         25    2    3    3    0    0  0.14124151888E+02  0.41941055587E+02  0.61312262362E+03  0.62731267141E+03  0.12507314779E+03 0.  0.
          5    1    4    4  502    0 -0.61927581833E+02 -0.43291989702E+02  0.25336158671E+03  0.26443034127E+03  0.47000000000E+01 0. -1.
         -5    1    4    4    0  502  0.47803429946E+02  0.13509341154E+01  0.68884706779E+02  0.83989200291E+02  0.47000000000E+01 0. -1.
          5    1    5    5  503    0 -0.11448220668E+02  0.82810685539E+02  0.41408526181E+03  0.42246581571E+03  0.47000000000E+01 0.  1.
         -5    1    5    5    0  503  0.25572372556E+02 -0.40869629953E+02  0.19903736181E+03  0.20484685569E+03  0.47000000000E+01 0.  1.
<mgrwt>
<rscale>  0 0.27773790E+03</rscale>
<asrwt>0</asrwt>
<pdfrwt beam="1">  1        2 0.14700774E+00 0.27773790E+03</pdfrwt>
<pdfrwt beam="2">  1       -2 0.31048697E-02 0.27773790E+03</pdfrwt>
<totfact> 0.11235524E+04</totfact>
</mgrwt>
</event>
<event>
 9    1  0.7986988E-001  0.2763513E+03  0.7818608E-02  0.1097699E+00
          2   -1    0    0  501    0  0.00000000000E+00  0.00000000000E+00  0.17242102299E+04  0.17242102299E+04  0.00000000000E+00 0.  1.
         -2   -1    0    0    0  501 -0.00000000000E+00 -0.00000000000E+00 -0.11073194697E+02  0.11073194697E+02  0.00000000000E+00 0.  1.
         35    2    1    2    0    0  0.00000000000E+00  0.00000000000E+00  0.17131370352E+04  0.17352834246E+04  0.27635133851E+03 0.  0.
         25    2    3    3    0    0 -0.41930829986E+02  0.32215697285E+01  0.10746121894E+04  0.10826641016E+04  0.12490646985E+03 0.  0.
         25    2    3    3    0    0  0.41930829986E+02 -0.32215697285E+01  0.63852484581E+03  0.65261932304E+03  0.12817733444E+03 0.  0.
          5    1    4    4  502    0 -0.14806729324E+02  0.58955127048E+02  0.72581731472E+03  0.72837340052E+03  0.47000000000E+01 0. -1.
         -5    1    4    4    0  502 -0.27124100661E+02 -0.55733557319E+02  0.34879487468E+03  0.35429070105E+03  0.47000000000E+01 0. -1.
          5    1    5    5  503    0 -0.11383014144E+02  0.54545115834E+02  0.24644352960E+03  0.25270782725E+03  0.47000000000E+01 0.  1.
         -5    1    5    5    0  503  0.53313844129E+02 -0.57766685562E+02  0.39208131621E+03  0.39991149578E+03  0.47000000000E+01 0.  1.
<mgrwt>
<rscale>  0 0.27635134E+03</rscale>
<asrwt>0</asrwt>
<pdfrwt beam="1">  1        2 0.26526290E+00 0.27635134E+03</pdfrwt>
<pdfrwt beam="2">  1       -2 0.17035698E-02 0.27635134E+03</pdfrwt>
<totfact> 0.10156317E+04</totfact>
</mgrwt>
</event>
<event>
 9    1  0.7986988E-001  0.2743079E+03  0.7818608E-02  0.1098839E+00
          2   -1    0    0  501    0  0.00000000000E+00  0.00000000000E+00  0.81311557311E+02  0.81311557311E+02  0.00000000000E+00 0.  1.
         -2   -1    0    0    0  501 -0.00000000000E+00 -0.00000000000E+00 -0.23134732756E+03  0.23134732756E+03  0.00000000000E+00 0.  1.
         35    2    1    2    0    0 -0.17763568394E-14  0.00000000000E+00 -0.15003577024E+03  0.31265888487E+03  0.27430793997E+03 0.  0.
         25    2    3    3    0    0 -0.11046526508E+02 -0.54889968782E+02 -0.88097993919E+02  0.16235282013E+03  0.12434728485E+03 0.  0.
         25    2    3    3    0    0  0.11046526508E+02  0.54889968782E+02 -0.61937776326E+02  0.15030606474E+03  0.12498276097E+03 0.  0.
          5    1    4    4  502    0 -0.56925429747E+02 -0.58338756020E+02 -0.27561944128E+02  0.86172302801E+02  0.47000000000E+01 0. -1.
         -5    1    4    4    0  502  0.45878903239E+02  0.34487872374E+01 -0.60536049791E+02  0.76180517326E+02  0.47000000000E+01 0. -1.
          5    1    5    5  503    0  0.17321284769E+02 -0.34832677712E+02 -0.43179813258E+02  0.58308906829E+02  0.47000000000E+01 0.  1.
         -5    1    5    5    0  503 -0.62747582602E+01  0.89722646494E+02 -0.18757963068E+02  0.91997157910E+02  0.47000000000E+01 0.  1.
<mgrwt>
<rscale>  0 0.27430794E+03</rscale>
<asrwt>0</asrwt>
<pdfrwt beam="1">  1        2 0.12509470E-01 0.27430794E+03</pdfrwt>
<pdfrwt beam="2">  1       -2 0.35591896E-01 0.27430794E+03</pdfrwt>
<totfact> 0.35955577E+03</totfact>
</mgrwt>
</event>
<event>
 9    1  0.7986988E-001  0.2766215E+03  0.7818608E-02  0.1097549E+00
          2   -1    0    0  501    0  0.00000000000E+00  0.00000000000E+00  0.36490576348E+03  0.36490576348E+03  0.00000000000E+00 0.  1.
         -2   -1    0    0    0  501 -0.00000000000E+00 -0.00000000000E+00 -0.52424113067E+02  0.52424113067E+02  0.00000000000E+00 0.  1.
         35    2    1    2    0    0  0.71054273576E-14 -0.71054273576E-14  0.31248165042E+03  0.41732987655E+03  0.27662148148E+03 0.  0.
         25    2    3    3    0    0 -0.41385079855E+02 -0.43545583055E+02  0.15657264793E+03  0.20889484261E+03  0.12455167021E+03 0.  0.
         25    2    3    3    0    0  0.41385079855E+02  0.43545583055E+02  0.15590900249E+03  0.20843503394E+03  0.12461381816E+03 0.  0.
          5    1    4    4  502    0  0.26335350786E+02  0.22953012095E+02  0.77985389468E+02  0.85581554296E+02  0.47000000000E+01 0. -1.
         -5    1    4    4    0  502 -0.67720430641E+02 -0.66498595151E+02  0.78587258463E+02  0.12331328832E+03  0.47000000000E+01 0. -1.
          5    1    5    5  503    0  0.79864077815E+02  0.50701854594E+02  0.84798344241E+02  0.12712906108E+03  0.47000000000E+01 0. -1.
         -5    1    5    5    0  503 -0.38478997961E+02 -0.71562715382E+01  0.71110658244E+02  0.81305972857E+02  0.47000000000E+01 0. -1.
<mgrwt>
<rscale>  0 0.27662148E+03</rscale>
<asrwt>0</asrwt>
<pdfrwt beam="1">  1        2 0.56139347E-01 0.27662148E+03</pdfrwt>
<pdfrwt beam="2">  1       -2 0.80652484E-02 0.27662148E+03</pdfrwt>
<totfact> 0.81876756E+03</totfact>
</mgrwt>
</event>
<event>
 9    1  0.7986988E-001  0.2713398E+03  0.7818608E-02  0.1100515E+00
         -2   -1    0    0    0  501 -0.00000000000E+00  0.00000000000E+00  0.22897108921E+02  0.22897108921E+02  0.00000000000E+00 0. -1.
          2   -1    0    0  501    0  0.00000000000E+00 -0.00000000000E+00 -0.80387126583E+03  0.80387126583E+03  0.00000000000E+00 0. -1.
         35    2    1    2    0    0  0.00000000000E+00  0.00000000000E+00 -0.78097415690E+03  0.82676837475E+03  0.27133984545E+03 0.  0.
         25    2    3    3    0    0  0.45259478885E+01  0.50037174042E+02 -0.45142077881E+03  0.47124591658E+03  0.12556986646E+03 0.  0.
         25    2    3    3    0    0 -0.45259478885E+01 -0.50037174042E+02 -0.32955337809E+03  0.35552245817E+03  0.12355802789E+03 0.  0.
          5    1    4    4  502    0  0.37595835867E+02 -0.11808855511E+02 -0.31777126929E+03  0.32023985624E+03  0.47000000000E+01 0.  1.
         -5    1    4    4    0  502 -0.33069887979E+02  0.61846029554E+02 -0.13364950952E+03  0.15100606034E+03  0.47000000000E+01 0.  1.
          5    1    5    5  503    0 -0.50556044182E+02 -0.65144130084E+02 -0.23651057531E+03  0.25051749145E+03  0.47000000000E+01 0.  1.
         -5    1    5    5    0  503  0.46030096294E+02  0.15106956042E+02 -0.93042802785E+02  0.10500496672E+03  0.47000000000E+01 0.  1.
<mgrwt>
<rscale>  0 0.27133985E+03</rscale>
<asrwt>0</asrwt>
<pdfrwt beam="1">  1        2 0.12367247E+00 0.27133985E+03</pdfrwt>
<pdfrwt beam="2">  1       -2 0.35226330E-02 0.27133985E+03</pdfrwt>
<totfact> 0.11688689E+04</totfact>
</mgrwt>
</event>
<event>
 9    1  0.7986988E-001  0.2753916E+03  0.7818608E-02  0.1098233E+00
          3   -1    0    0  501    0  0.00000000000E+00  0.00000000000E+00  0.14827282958E+03  0.14827282958E+03  0.00000000000E+00 0.  1.
         -3   -1    0    0    0  501 -0.00000000000E+00 -0.00000000000E+00 -0.12787325681E+03  0.12787325681E+03  0.00000000000E+00 0.  1.
         35    2    1    2    0    0  0.35527136788E-14 -0.26645352591E-14  0.20399572773E+02  0.27614608639E+03  0.27539157297E+03 0.  0.
         25    2    3    3    0    0  0.29878385285E+00 -0.75415048730E+00  0.68491564256E+02  0.14267890708E+03  0.12516196761E+03 0.  0.
         25    2    3    3    0    0 -0.29878385285E+00  0.75415048730E+00 -0.48091991482E+02  0.13346717931E+03  0.12449895700E+03 0.  0.
          5    1    4    4  502    0 -0.19969746462E+02  0.14436299191E+01  0.10151958101E+03  0.10358180424E+03  0.47000000000E+01 0.  1.
         -5    1    4    4    0  502  0.20268530315E+02 -0.21977804064E+01 -0.33028016754E+02  0.39097102841E+02  0.47000000000E+01 0.  1.
          5    1    5    5  503    0  0.37453339197E+02 -0.47353306590E+02 -0.10301515812E+02  0.61427188525E+02  0.47000000000E+01 0. -1.
         -5    1    5    5    0  503 -0.37752123050E+02  0.48107457077E+02 -0.37790475670E+02  0.72039990787E+02  0.47000000000E+01 0. -1.
<mgrwt>
<rscale>  0 0.27539157E+03</rscale>
<asrwt>0</asrwt>
<pdfrwt beam="1">  1        3 0.22811204E-01 0.27539157E+03</pdfrwt>
<pdfrwt beam="2">  1       -3 0.19672809E-01 0.27539157E+03</pdfrwt>
<totfact> 0.10426016E+03</totfact>
</mgrwt>
</event>
<event>
 9    1  0.7986988E-001  0.2752982E+03  0.7818608E-02  0.1098285E+00
         -1   -1    0    0    0  501 -0.00000000000E+00  0.00000000000E+00  0.42529525459E+03  0.42529525459E+03  0.00000000000E+00 0. -1.
          1   -1    0    0  501    0  0.00000000000E+00 -0.00000000000E+00 -0.44550858298E+02  0.44550858298E+02  0.00000000000E+00 0. -1.
         35    2    1    2    0    0 -0.71054273576E-14  0.00000000000E+00  0.38074439629E+03  0.46984611289E+03  0.27529815562E+03 0.  0.
         25    2    3    3    0    0  0.14304809014E+02  0.21891159240E+02  0.10410784123E+03  0.16492120456E+03  0.12520667193E+03 0.  0.
         25    2    3    3    0    0 -0.14304809014E+02 -0.21891159240E+02  0.27663655507E+03  0.30492490833E+03  0.12556896792E+03 0.  0.
          5    1    4    4  502    0 -0.26639871621E+02 -0.14590412888E+02 -0.14635357208E+02  0.34041835862E+02  0.47000000000E+01 0. -1.
         -5    1    4    4    0  502  0.40944680635E+02  0.36481572128E+02  0.11874319843E+03  0.13087936870E+03  0.47000000000E+01 0. -1.
          5    1    5    5  503    0 -0.53914599569E+02 -0.33751561281E+02  0.24354362263E+03  0.25175690271E+03  0.47000000000E+01 0.  1.
         -5    1    5    5    0  503  0.39609790555E+02  0.11860402041E+02  0.33092932433E+02  0.53168005618E+02  0.47000000000E+01 0.  1.
<mgrwt>
<rscale>  0 0.27529816E+03</rscale>
<asrwt>0</asrwt>
<pdfrwt beam="1">  1        1 0.68539785E-02 0.27529816E+03</pdfrwt>
<pdfrwt beam="2">  1       -1 0.65430036E-01 0.27529816E+03</pdfrwt>
<totfact> 0.26305356E+03</totfact>
</mgrwt>
</event>
<event>
 9    1  0.7986988E-001  0.2736593E+03  0.7818608E-02  0.1099203E+00
          1   -1    0    0  501    0  0.00000000000E+00  0.00000000000E+00  0.15947882084E+04  0.15947882084E+04  0.00000000000E+00 0. -1.
         -1   -1    0    0    0  501 -0.00000000000E+00 -0.00000000000E+00 -0.11739712933E+02  0.11739712933E+02  0.00000000000E+00 0. -1.
         35    2    1    2    0    0  0.00000000000E+00  0.35527136788E-14  0.15830484955E+04  0.16065279214E+04  0.27365931927E+03 0.  0.
         25    2    3    3    0    0 -0.46882077773E+02  0.12306605937E+02  0.62207320257E+03  0.63625802117E+03  0.12449826662E+03 0.  0.
         25    2    3    3    0    0  0.46882077773E+02 -0.12306605937E+02  0.96097529293E+03  0.97026990019E+03  0.12490309773E+03 0.  0.
          5    1    4    4  502    0 -0.44882763514E+02 -0.28377319454E+02  0.10689113164E+03  0.11944680299E+03  0.47000000000E+01 0. -1.
         -5    1    4    4    0  502 -0.19993142595E+01  0.40683925391E+02  0.51518207093E+03  0.51681121819E+03  0.47000000000E+01 0. -1.
          5    1    5    5  503    0  0.48669743660E+02  0.30210206905E+02  0.20009922460E+03  0.20819027411E+03  0.47000000000E+01 0. -1.
         -5    1    5    5    0  503 -0.17876658871E+01 -0.42516812842E+02  0.76087606834E+03  0.76207962608E+03  0.47000000000E+01 0. -1.
<mgrwt>
<rscale>  0 0.27365932E+03</rscale>
<asrwt>0</asrwt>
<pdfrwt beam="1">  1        1 0.24535186E+00 0.27365932E+03</pdfrwt>
<pdfrwt beam="2">  1       -1 0.18061109E-02 0.27365932E+03</pdfrwt>
<totfact> 0.49316892E+03</totfact>
</mgrwt>
</event>
<event>
 9    1  0.7986988E-001  0.2767966E+03  0.7818608E-02  0.1097452E+00
         -1   -1    0    0    0  501 -0.00000000000E+00  0.00000000000E+00  0.40437619863E+02  0.40437619863E+02  0.00000000000E+00 0. -1.
          1   -1    0    0  501    0  0.00000000000E+00 -0.00000000000E+00 -0.47367002359E+03  0.47367002359E+03  0.00000000000E+00 0. -1.
         35    2    1    2    0    0  0.44408920985E-14 -0.17763568394E-14 -0.43323240373E+03  0.51410764346E+03  0.27679659214E+03 0.  0.
         25    2    3    3    0    0 -0.48733204442E+01 -0.23976554559E+01 -0.10997453210E+03  0.16717993244E+03  0.12579838669E+03 0.  0.
         25    2    3    3    0    0  0.48733204442E+01  0.23976554559E+01 -0.32325787163E+03  0.34692771102E+03  0.12583197963E+03 0.  0.
          5    1    4    4  502    0  0.46215142856E+01  0.39270512233E+02 -0.11702277671E+03  0.12361210213E+03  0.47000000000E+01 0. -1.
         -5    1    4    4    0  502 -0.94948347298E+01 -0.41668167689E+02  0.70482446096E+01  0.43567830302E+02  0.47000000000E+01 0. -1.
          5    1    5    5  503    0 -0.35295446656E+02 -0.92649367713E+01 -0.22262615434E+02  0.43003740000E+02  0.47000000000E+01 0. -1.
         -5    1    5    5    0  503  0.40168767100E+02  0.11662592227E+02 -0.30099525620E+03  0.30392397102E+03  0.47000000000E+01 0. -1.
<mgrwt>
<rscale>  0 0.27679659E+03</rscale>
<asrwt>0</asrwt>
<pdfrwt beam="1">  1        1 0.72872311E-01 0.27679659E+03</pdfrwt>
<pdfrwt beam="2">  1       -1 0.62211723E-02 0.27679659E+03</pdfrwt>
<totfact> 0.61097099E+03</totfact>
</mgrwt>
</event>
<event>
 9    1  0.7986988E-001  0.2770774E+03  0.7818608E-02  0.1097296E+00
         -3   -1    0    0    0  501 -0.00000000000E+00  0.00000000000E+00  0.47802600812E+02  0.47802600812E+02  0.00000000000E+00 0. -1.
          3   -1    0    0  501    0  0.00000000000E+00 -0.00000000000E+00 -0.40150462824E+03  0.40150462824E+03  0.00000000000E+00 0. -1.
         35    2    1    2    0    0 -0.71054273576E-14  0.35527136788E-14 -0.35370202743E+03  0.44930722905E+03  0.27707735720E+03 0.  0.
         25    2    3    3    0    0 -0.46238884818E+02  0.24599617000E+02 -0.23239619997E+03  0.26852943461E+03  0.12392291098E+03 0.  0.
         25    2    3    3    0    0  0.46238884818E+02 -0.24599617000E+02 -0.12130582746E+03  0.18077779444E+03  0.12337881326E+03 0.  0.
          5    1    4    4  502    0 -0.32276124683E+02 -0.28928720311E+02 -0.18180164170E+02  0.47235870402E+02  0.47000000000E+01 0. -1.
         -5    1    4    4    0  502 -0.13962760135E+02  0.53528337312E+02 -0.21421603580E+03  0.22129356421E+03  0.47000000000E+01 0. -1.
          5    1    5    5  503    0  0.54048655202E+02  0.28692952036E+02 -0.10936466380E+03  0.12540838215E+03  0.47000000000E+01 0. -1.
         -5    1    5    5    0  503 -0.78097703836E+01 -0.53292569037E+02 -0.11941163658E+02  0.55369412291E+02  0.47000000000E+01 0. -1.
<mgrwt>
<rscale>  0 0.27707736E+03</rscale>
<asrwt>0</asrwt>
<pdfrwt beam="1">  1        3 0.61769942E-01 0.27707736E+03</pdfrwt>
<pdfrwt beam="2">  1       -3 0.73542463E-02 0.27707736E+03</pdfrwt>
<totfact> 0.80725740E+02</totfact>
</mgrwt>
</event>
<event>
 9    1  0.7986988E-001  0.2757764E+03  0.7818608E-02  0.1098018E+00
         -2   -1    0    0    0  501 -0.00000000000E+00  0.00000000000E+00  0.15505423120E+03  0.15505423120E+03  0.00000000000E+00 0. -1.
          2   -1    0    0  501    0  0.00000000000E+00 -0.00000000000E+00 -0.12262264503E+03  0.12262264503E+03  0.00000000000E+00 0. -1.
         35    2    1    2    0    0  0.35527136788E-14  0.71054273576E-14  0.32431586168E+02  0.27767687623E+03  0.27577643085E+03 0.  0.
         25    2    3    3    0    0  0.30301658681E+02  0.37323456470E+02  0.53299280512E+02  0.14385650423E+03  0.12467016317E+03 0.  0.
         25    2    3    3    0    0 -0.30301658681E+02 -0.37323456470E+02 -0.20867694344E+02  0.13382037200E+03  0.12313082625E+03 0.  0.
          5    1    4    4  502    0  0.59196069874E+01 -0.43746072653E+02  0.13389181250E+01  0.44414449464E+02  0.47000000000E+01 0. -1.
         -5    1    4    4    0  502  0.24382051694E+02  0.81069529123E+02  0.51960362387E+02  0.99442054768E+02  0.47000000000E+01 0. -1.
          5    1    5    5  503    0 -0.46041572705E+02 -0.19205806831E+02  0.42622218300E+02  0.65783226783E+02  0.47000000000E+01 0.  1.
         -5    1    5    5    0  503  0.15739914024E+02 -0.18117649639E+02 -0.63489912644E+02  0.68037145218E+02  0.47000000000E+01 0.  1.
<mgrwt>
<rscale>  0 0.27577643E+03</rscale>
<asrwt>0</asrwt>
<pdfrwt beam="1">  1        2 0.18865022E-01 0.27577643E+03</pdfrwt>
<pdfrwt beam="2">  1       -2 0.23854497E-01 0.27577643E+03</pdfrwt>
<totfact> 0.45626512E+03</totfact>
</mgrwt>
</event>
<event>
 9    1  0.7986988E-001  0.2749108E+03  0.7818608E-02  0.1098501E+00
         -2   -1    0    0    0  501 -0.00000000000E+00  0.00000000000E+00  0.88226885989E+01  0.88226885989E+01  0.00000000000E+00 0. -1.
          2   -1    0    0  501    0  0.00000000000E+00 -0.00000000000E+00 -0.21415229753E+04  0.21415229753E+04  0.00000000000E+00 0. -1.
         35    2    1    2    0    0  0.00000000000E+00  0.00000000000E+00 -0.21327002867E+04  0.21503456639E+04  0.27491082436E+03 0.  0.
         25    2    3    3    0    0  0.21052594525E+02  0.75772663663E+00 -0.62532639993E+03  0.63785573662E+03  0.12402841776E+03 0.  0.
         25    2    3    3    0    0 -0.21052594525E+02 -0.75772663663E+00 -0.15073738867E+04  0.15124899272E+04  0.12249881508E+03 0.  0.
          5    1    4    4  502    0 -0.29785567952E+02 -0.40733392750E+02 -0.15820577578E+03  0.16612509393E+03  0.47000000000E+01 0. -1.
         -5    1    4    4    0  502  0.50838162477E+02  0.41491119387E+02 -0.46712062415E+03  0.47173064270E+03  0.47000000000E+01 0. -1.
          5    1    5    5  503    0 -0.43222643405E+00 -0.49705633580E+02 -0.11574852925E+04  0.11585616640E+04  0.47000000000E+01 0. -1.
         -5    1    5    5    0  503 -0.20620368091E+02  0.48947906944E+02 -0.34988859420E+03  0.35392826325E+03  0.47000000000E+01 0. -1.
<mgrwt>
<rscale>  0 0.27491082E+03</rscale>
<asrwt>0</asrwt>
<pdfrwt beam="1">  1        2 0.32946497E+00 0.27491082E+03</pdfrwt>
<pdfrwt beam="2">  1       -2 0.13573371E-02 0.27491082E+03</pdfrwt>
<totfact> 0.85413268E+03</totfact>
</mgrwt>
</event>
<event>
 9    1  0.7986988E-001  0.2765682E+03  0.7818608E-02  0.1097578E+00
          3   -1    0    0  501    0  0.00000000000E+00  0.00000000000E+00  0.85130324050E+03  0.85130324050E+03  0.00000000000E+00 0. -1.
         -3   -1    0    0    0  501 -0.00000000000E+00 -0.00000000000E+00 -0.22462616891E+02  0.22462616891E+02  0.00000000000E+00 0. -1.
         35    2    1    2    0    0  0.00000000000E+00  0.00000000000E+00  0.82884062361E+03  0.87376585739E+03  0.27656824510E+03 0.  0.
         25    2    3    3    0    0 -0.42815913917E+02 -0.33178747558E+02  0.47188424860E+03  0.49130884077E+03  0.12560096009E+03 0.  0.
         25    2    3    3    0    0  0.42815913917E+02  0.33178747558E+02  0.35695637501E+03  0.38245701662E+03  0.12618036346E+03 0.  0.
          5    1    4    4  502    0 -0.69343776106E+02 -0.41283263923E+02  0.44537973554E+03  0.45265667563E+03  0.47000000000E+01 0.  1.
         -5    1    4    4    0  502  0.26527862189E+02  0.81045163651E+01  0.26504513060E+02  0.38652165145E+02  0.47000000000E+01 0.  1.
          5    1    5    5  503    0 -0.39724549491E+02  0.16813253063E+02  0.19627984903E+03  0.20101889077E+03  0.47000000000E+01 0. -1.
         -5    1    5    5    0  503  0.82540463408E+02  0.16365494495E+02  0.16067652599E+03  0.18143812585E+03  0.47000000000E+01 0. -1.
<mgrwt>
<rscale>  0 0.27656825E+03</rscale>
<asrwt>0</asrwt>
<pdfrwt beam="1">  1        3 0.13096970E+00 0.27656825E+03</pdfrwt>
<pdfrwt beam="2">  1       -3 0.34557879E-02 0.27656825E+03</pdfrwt>
<totfact> 0.49775135E+02</totfact>
</mgrwt>
</event>
<event>
 9    1  0.7986988E-001  0.2741387E+03  0.7818608E-02  0.1098934E+00
         -2   -1    0    0    0  501 -0.00000000000E+00  0.00000000000E+00  0.26203632815E+02  0.26203632815E+02  0.00000000000E+00 0. -1.
          2   -1    0    0  501    0  0.00000000000E+00 -0.00000000000E+00 -0.71700014627E+03  0.71700014627E+03  0.00000000000E+00 0. -1.
         35    2    1    2    0    0  0.35527136788E-14  0.35527136788E-14 -0.69079651346E+03  0.74320377909E+03  0.27413871351E+03 0.  0.
         25    2    3    3    0    0 -0.29017986002E+02 -0.11100503633E+02 -0.22970952631E+03  0.26363817379E+03  0.12559202010E+03 0.  0.
         25    2    3    3    0    0  0.29017986002E+02  0.11100503633E+02 -0.46108698715E+03  0.47956560529E+03  0.12812765263E+03 0.  0.
          5    1    4    4  502    0 -0.21875758331E+02 -0.17292749744E+02  0.49779565020E+01  0.28713377496E+02  0.47000000000E+01 0.  1.
         -5    1    4    4    0  502 -0.71422276702E+01  0.61922461104E+01 -0.23468748281E+03  0.23492479630E+03  0.47000000000E+01 0.  1.
          5    1    5    5  503    0  0.12436926434E+02  0.30472602454E+02 -0.45022951931E+03  0.45145538728E+03  0.47000000000E+01 0.  1.
         -5    1    5    5    0  503  0.16581059567E+02 -0.19372098821E+02 -0.10857467835E+02  0.28110218016E+02  0.47000000000E+01 0.  1.
<mgrwt>
<rscale>  0 0.27413871E+03</rscale>
<asrwt>0</asrwt>
<pdfrwt beam="1">  1        2 0.11030771E+00 0.27413871E+03</pdfrwt>
<pdfrwt beam="2">  1       -2 0.40313282E-02 0.27413871E+03</pdfrwt>
<totfact> 0.11015769E+04</totfact>
</mgrwt>
</event>
<event>
 9    1  0.7986988E-001  0.2722197E+03  0.7818608E-02  0.1100016E+00
          1   -1    0    0  501    0  0.00000000000E+00  0.00000000000E+00  0.23580035750E+03  0.23580035750E+03  0.00000000000E+00 0.  1.
         -1   -1    0    0    0  501 -0.00000000000E+00 -0.00000000000E+00 -0.78566017549E+02  0.78566017549E+02  0.00000000000E+00 0.  1.
         35    2    1    2    0    0  0.00000000000E+00  0.00000000000E+00  0.15723433995E+03  0.31436637505E+03  0.27221972761E+03 0.  0.
         25    2    3    3    0    0 -0.16882231711E+02 -0.75221479816E+01  0.21650787813E+02  0.12850535409E+03  0.12531271667E+03 0.  0.
         25    2    3    3    0    0  0.16882231711E+02  0.75221479816E+01  0.13558355213E+03  0.18586102096E+03  0.12577689392E+03 0.  0.
          5    1    4    4  502    0 -0.38419483758E+01  0.48692681865E+02  0.44517947919E+02  0.66254626416E+02  0.47000000000E+01 0.  1.
         -5    1    4    4    0  502 -0.13040283335E+02 -0.56214829847E+02 -0.22867160106E+02  0.62250727670E+02  0.47000000000E+01 0.  1.
          5    1    5    5  503    0  0.26969034323E+02 -0.36944658172E+02  0.35749807240E+01  0.46120570973E+02  0.47000000000E+01 0. -1.
         -5    1    5    5    0  503 -0.10086802612E+02  0.44466806153E+02  0.13200857141E+03  0.13974044999E+03  0.47000000000E+01 0. -1.
<mgrwt>
<rscale>  0 0.27221973E+03</rscale>
<asrwt>0</asrwt>
<pdfrwt beam="1">  1        1 0.36276978E-01 0.27221973E+03</pdfrwt>
<pdfrwt beam="2">  1       -1 0.12087080E-01 0.27221973E+03</pdfrwt>
<totfact> 0.53470372E+03</totfact>
</mgrwt>
</event>
<event>
 9    1  0.7986988E-001  0.2768535E+03  0.7818608E-02  0.1097420E+00
          1   -1    0    0  501    0  0.00000000000E+00  0.00000000000E+00  0.54863079015E+03  0.54863079015E+03  0.00000000000E+00 0.  1.
         -1   -1    0    0    0  501 -0.00000000000E+00 -0.00000000000E+00 -0.34926876455E+02  0.34926876455E+02  0.00000000000E+00 0.  1.
         35    2    1    2    0    0 -0.71054273576E-14 -0.35527136788E-14  0.51370391369E+03  0.58355766660E+03  0.27685346179E+03 0.  0.
         25    2    3    3    0    0 -0.44346650552E+02 -0.20789201862E+02  0.18900748174E+03  0.23169905674E+03  0.12474697756E+03 0.  0.
         25    2    3    3    0    0  0.44346650552E+02  0.20789201862E+02  0.32469643195E+03  0.35185860986E+03  0.12640368699E+03 0.  0.
          5    1    4    4  502    0 -0.52615536928E+02  0.13683420636E+02  0.18709328426E+02  0.57686737615E+02  0.47000000000E+01 0.  1.
         -5    1    4    4    0  502  0.82688863765E+01 -0.34472622499E+02  0.17029815331E+03  0.17401231912E+03  0.47000000000E+01 0.  1.
          5    1    5    5  503    0  0.73673656238E+02  0.35552126158E+02  0.12523618905E+03  0.14965946126E+03  0.47000000000E+01 0. -1.
         -5    1    5    5    0  503 -0.29327005687E+02 -0.14762924296E+02  0.19946024290E+03  0.20219914860E+03  0.47000000000E+01 0. -1.
<mgrwt>
<rscale>  0 0.27685346E+03</rscale>
<asrwt>0</asrwt>
<pdfrwt beam="1">  1        1 0.84404731E-01 0.27685346E+03</pdfrwt>
<pdfrwt beam="2">  1       -1 0.53733660E-02 0.27685346E+03</pdfrwt>
<totfact> 0.62617971E+03</totfact>
</mgrwt>
</event>
<event>
 9    1  0.7986988E-001  0.2790810E+03  0.7818608E-02  0.1096192E+00
         -2   -1    0    0    0  501 -0.00000000000E+00  0.00000000000E+00  0.14206534756E+02  0.14206534756E+02  0.00000000000E+00 0. -1.
          2   -1    0    0  501    0  0.00000000000E+00 -0.00000000000E+00 -0.13706048830E+04  0.13706048830E+04  0.00000000000E+00 0. -1.
         35    2    1    2    0    0 -0.35527136788E-14  0.71054273576E-14 -0.13563983483E+04  0.13848114178E+04  0.27908096251E+03 0.  0.
         25    2    3    3    0    0 -0.19708262455E+01  0.58018564558E+02 -0.56826916753E+03  0.58470372476E+03  0.12481410579E+03 0.  0.
         25    2    3    3    0    0  0.19708262455E+01 -0.58018564558E+02 -0.78812918076E+03  0.80010769303E+03  0.12511865127E+03 0.  0.
          5    1    4    4  502    0  0.22698698192E+02  0.87936673633E+02 -0.29623752222E+03  0.30988199212E+03  0.47000000000E+01 0. -1.
         -5    1    4    4    0  502 -0.24669524437E+02 -0.29918109075E+02 -0.27203164530E+03  0.27482173264E+03  0.47000000000E+01 0. -1.
          5    1    5    5  503    0 -0.45171027747E+02  0.95688307245E+01 -0.43460757191E+03  0.43707872956E+03  0.47000000000E+01 0.  1.
         -5    1    5    5    0  503  0.47141853993E+02 -0.67587395283E+02 -0.35352160885E+03  0.36302896347E+03  0.47000000000E+01 0.  1.
<mgrwt>
<rscale>  0 0.27908096E+03</rscale>
<asrwt>0</asrwt>
<pdfrwt beam="1">  1        2 0.21086234E+00 0.27908096E+03</pdfrwt>
<pdfrwt beam="2">  1       -2 0.21856203E-02 0.27908096E+03</pdfrwt>
<totfact> 0.10875636E+04</totfact>
</mgrwt>
</event>
<event>
 9    1  0.7986988E-001  0.2834143E+03  0.7818608E-02  0.1093839E+00
          1   -1    0    0  501    0  0.00000000000E+00  0.00000000000E+00  0.27435075483E+04  0.27435075483E+04  0.00000000000E+00 0.  1.
         -1   -1    0    0    0  501 -0.00000000000E+00 -0.00000000000E+00 -0.73194298700E+01  0.73194298700E+01  0.00000000000E+00 0.  1.
         35    2    1    2    0    0  0.00000000000E+00  0.00000000000E+00  0.27361881184E+04  0.27508269782E+04  0.28341426286E+03 0.  0.
         25    2    3    3    0    0 -0.17296600432E+02 -0.24277373896E+02  0.79949143354E+03  0.80973832912E+03  0.12490414756E+03 0.  0.
         25    2    3    3    0    0  0.17296600432E+02  0.24277373896E+02  0.19366966849E+04  0.19410886491E+04  0.12705326019E+03 0.  0.
          5    1    4    4  502    0 -0.24861356959E+02 -0.61709990419E+02  0.24507503322E+03  0.25398833024E+03  0.47000000000E+01 0.  1.
         -5    1    4    4    0  502  0.75647565275E+01  0.37432616523E+02  0.55441640032E+03  0.55574999889E+03  0.47000000000E+01 0.  1.
          5    1    5    5  503    0 -0.26673060151E+02 -0.20846956598E+02  0.14379642461E+04  0.14383703664E+04  0.47000000000E+01 0.  1.
         -5    1    5    5    0  503  0.43969660583E+02  0.45124330495E+02  0.49873243876E+03  0.50271828266E+03  0.47000000000E+01 0.  1.
<mgrwt>
<rscale>  0 0.28341426E+03</rscale>
<asrwt>0</asrwt>
<pdfrwt beam="1">  1        1 0.42207726E+00 0.28341426E+03</pdfrwt>
<pdfrwt beam="2">  1       -1 0.11260683E-02 0.28341426E+03</pdfrwt>
<totfact> 0.17212754E+03</totfact>
</mgrwt>
</event>
<event>
 9    1  0.7986988E-001  0.2778245E+03  0.7818608E-02  0.1096883E+00
         -1   -1    0    0    0  501 -0.00000000000E+00  0.00000000000E+00  0.61337568300E+01  0.61337568300E+01  0.00000000000E+00 0. -1.
          1   -1    0    0  501    0  0.00000000000E+00 -0.00000000000E+00 -0.31459702222E+04  0.31459702222E+04  0.00000000000E+00 0. -1.
         35    2    1    2    0    0  0.00000000000E+00 -0.35527136788E-14 -0.31398364654E+04  0.31521039791E+04  0.27782452259E+03 0.  0.
         25    2    3    3    0    0  0.59048476356E+02 -0.12975893584E+02 -0.17008915434E+04  0.17065520809E+04  0.12503146130E+03 0.  0.
         25    2    3    3    0    0 -0.59048476356E+02  0.12975893584E+02 -0.14389449220E+04  0.14455518981E+04  0.12410763522E+03 0.  0.
          5    1    4    4  502    0 -0.37684403066E+02  0.89068699761E+01 -0.41233685828E+03  0.41417776529E+03  0.47000000000E+01 0.  1.
         -5    1    4    4    0  502  0.96732879421E+02 -0.21882763560E+02 -0.12885546851E+04  0.12923743156E+04  0.47000000000E+01 0.  1.
          5    1    5    5  503    0 -0.18129009635E+02 -0.47785723436E+02 -0.92124913164E+03  0.92267772754E+03  0.47000000000E+01 0.  1.
         -5    1    5    5    0  503 -0.40919466721E+02  0.60761617020E+02 -0.51769579041E+03  0.52287417058E+03  0.47000000000E+01 0.  1.
<mgrwt>
<rscale>  0 0.27782452E+03</rscale>
<asrwt>0</asrwt>
<pdfrwt beam="1">  1        1 0.48399557E+00 0.27782452E+03</pdfrwt>
<pdfrwt beam="2">  1       -1 0.94365460E-03 0.27782452E+03</pdfrwt>
<totfact> 0.11670453E+03</totfact>
</mgrwt>
</event>
<event>
 9    1  0.7986988E-001  0.2755693E+03  0.7818608E-02  0.1098134E+00
         -2   -1    0    0    0  501 -0.00000000000E+00  0.00000000000E+00  0.11896816288E+03  0.11896816288E+03  0.00000000000E+00 0. -1.
          2   -1    0    0  501    0  0.00000000000E+00 -0.00000000000E+00 -0.15957722055E+03  0.15957722055E+03  0.00000000000E+00 0. -1.
         35    2    1    2    0    0  0.00000000000E+00  0.00000000000E+00 -0.40609057667E+02  0.27854538343E+03  0.27556929267E+03 0.  0.
         25    2    3    3    0    0 -0.22196320100E+02  0.43258665445E+01  0.34441855975E+02  0.13176637618E+03  0.12515888583E+03 0.  0.
         25    2    3    3    0    0  0.22196320100E+02 -0.43258665445E+01 -0.75050913642E+02  0.14677900724E+03  0.12409692817E+03 0.  0.
          5    1    4    4  502    0  0.18397402158E+02  0.57011776502E+02  0.11000491643E+02  0.61089343444E+02  0.47000000000E+01 0. -1.
         -5    1    4    4    0  502 -0.40593722257E+02 -0.52685909957E+02  0.23441364332E+02  0.70677032737E+02  0.47000000000E+01 0. -1.
          5    1    5    5  503    0 -0.22420811140E+02 -0.27420536957E+02  0.18687462091E+02  0.40322324568E+02  0.47000000000E+01 0. -1.
         -5    1    5    5    0  503  0.44617131239E+02  0.23094670412E+02 -0.93738375732E+02  0.10645668268E+03  0.47000000000E+01 0. -1.
<mgrwt>
<rscale>  0 0.27556929E+03</rscale>
<asrwt>0</asrwt>
<pdfrwt beam="1">  1        2 0.24550342E-01 0.27556929E+03</pdfrwt>
<pdfrwt beam="2">  1       -2 0.18302794E-01 0.27556929E+03</pdfrwt>
<totfact> 0.53366656E+03</totfact>
</mgrwt>
</event>
<event>
 9    1  0.7986988E-001  0.2763878E+03  0.7818608E-02  0.1097678E+00
         -1   -1    0    0    0  501 -0.00000000000E+00  0.00000000000E+00  0.98000030294E+02  0.98000030294E+02  0.00000000000E+00 0. -1.
          1   -1    0    0  501    0  0.00000000000E+00 -0.00000000000E+00 -0.19487293644E+03  0.19487293644E+03  0.00000000000E+00 0. -1.
         35    2    1    2    0    0 -0.35527136788E-14  0.00000000000E+00 -0.96872906142E+02  0.29287296673E+03  0.27638779766E+03 0.  0.
         25    2    3    3    0    0 -0.77526396388E+01 -0.52127628297E+02 -0.24166908856E+02  0.13902669506E+03  0.12636055319E+03 0.  0.
         25    2    3    3    0    0  0.77526396388E+01  0.52127628297E+02 -0.72705997286E+02  0.15384627167E+03  0.12492045554E+03 0.  0.
          5    1    4    4  502    0  0.24227640352E+02 -0.84257912707E+02 -0.30645234494E+02  0.92992444898E+02  0.47000000000E+01 0. -1.
         -5    1    4    4    0  502 -0.31980279991E+02  0.32130284411E+02  0.64783256377E+01  0.46034250159E+02  0.47000000000E+01 0. -1.
          5    1    5    5  503    0  0.34226434883E+02  0.43625842808E+02  0.18292942572E+02  0.58578022785E+02  0.47000000000E+01 0. -1.
         -5    1    5    5    0  503 -0.26473795244E+02  0.85017854890E+01 -0.90998939858E+02  0.95268248889E+02  0.47000000000E+01 0. -1.
<mgrwt>
<rscale>  0 0.27638780E+03</rscale>
<asrwt>0</asrwt>
<pdfrwt beam="1">  1        1 0.29980451E-01 0.27638780E+03</pdfrwt>
<pdfrwt beam="2">  1       -1 0.15076928E-01 0.27638780E+03</pdfrwt>
<totfact> 0.48012557E+03</totfact>
</mgrwt>
</event>
<event>
 9    1  0.7986988E-001  0.2755109E+03  0.7818608E-02  0.1098166E+00
         -1   -1    0    0    0  501 -0.00000000000E+00  0.00000000000E+00  0.44165321246E+03  0.44165321246E+03  0.00000000000E+00 0. -1.
          1   -1    0    0  501    0  0.00000000000E+00 -0.00000000000E+00 -0.42967109203E+02  0.42967109203E+02  0.00000000000E+00 0. -1.
         35    2    1    2    0    0  0.71054273576E-14 -0.10658141036E-13  0.39868610325E+03  0.48462032166E+03  0.27551088406E+03 0.  0.
         25    2    3    3    0    0  0.51053009151E+02 -0.29822071185E+02  0.17173133978E+03  0.22046369802E+03  0.12496728936E+03 0.  0.
         25    2    3    3    0    0 -0.51053009151E+02  0.29822071185E+02  0.22695476347E+03  0.26415662364E+03  0.12155036600E+03 0.  0.
          5    1    4    4  502    0 -0.38584801759E+02 -0.25942508634E+02  0.43175363065E+02  0.63623915761E+02  0.47000000000E+01 0.  1.
         -5    1    4    4    0  502  0.89637810910E+02 -0.38795625508E+01  0.12855597672E+03  0.15683978226E+03  0.47000000000E+01 0.  1.
          5    1    5    5  503    0 -0.42327258886E+01 -0.32828731847E+02  0.12257879638E+02  0.35608808129E+02  0.47000000000E+01 0.  1.
         -5    1    5    5    0  503 -0.46820283262E+02  0.62650803032E+02  0.21469688383E+03  0.22854781551E+03  0.47000000000E+01 0.  1.
<mgrwt>
<rscale>  0 0.27551088E+03</rscale>
<asrwt>0</asrwt>
<pdfrwt beam="1">  1        1 0.66103248E-02 0.27551088E+03</pdfrwt>
<pdfrwt beam="2">  1       -1 0.67946645E-01 0.27551088E+03</pdfrwt>
<totfact> 0.25658935E+03</totfact>
</mgrwt>
</event>
<event>
 9    1  0.7986988E-001  0.2758901E+03  0.7818608E-02  0.1097955E+00
         -1   -1    0    0    0  501 -0.00000000000E+00  0.00000000000E+00  0.24798157856E+02  0.24798157856E+02  0.00000000000E+00 0. -1.
          1   -1    0    0  501    0  0.00000000000E+00 -0.00000000000E+00 -0.76734880225E+03  0.76734880225E+03  0.00000000000E+00 0. -1.
         35    2    1    2    0    0  0.00000000000E+00  0.00000000000E+00 -0.74255064440E+03  0.79214696011E+03  0.27589009934E+03 0.  0.
         25    2    3    3    0    0  0.20306049422E+02  0.56964618037E+02 -0.36998534049E+03  0.39517490065E+03  0.12496698194E+03 0.  0.
         25    2    3    3    0    0 -0.20306049422E+02 -0.56964618037E+02 -0.37256530391E+03  0.39697205946E+03  0.12298214083E+03 0.  0.
          5    1    4    4  502    0  0.31714215884E+02  0.89181010776E+02 -0.19484919647E+03  0.21667335677E+03  0.47000000000E+01 0.  1.
         -5    1    4    4    0  502 -0.11408166462E+02 -0.32216392739E+02 -0.17513614402E+03  0.17850154388E+03  0.47000000000E+01 0.  1.
          5    1    5    5  503    0 -0.58821030637E+02 -0.42465807144E+01 -0.95994676625E+02  0.11276087545E+03  0.47000000000E+01 0.  1.
         -5    1    5    5    0  503  0.38514981215E+02 -0.52718037322E+02 -0.27657062728E+03  0.28421118400E+03  0.47000000000E+01 0.  1.
<mgrwt>
<rscale>  0 0.27589010E+03</rscale>
<asrwt>0</asrwt>
<pdfrwt beam="1">  1        1 0.11805365E+00 0.27589010E+03</pdfrwt>
<pdfrwt beam="2">  1       -1 0.38151018E-02 0.27589010E+03</pdfrwt>
<totfact> 0.64705537E+03</totfact>
</mgrwt>
</event>
<event>
 9    1  0.7986988E-001  0.2801990E+03  0.7818608E-02  0.1095580E+00
         -3   -1    0    0    0  501 -0.00000000000E+00  0.00000000000E+00  0.79773060159E+01  0.79773060159E+01  0.00000000000E+00 0.  1.
          3   -1    0    0  501    0  0.00000000000E+00 -0.00000000000E+00 -0.24604631411E+04  0.24604631411E+04  0.00000000000E+00 0.  1.
         35    2    1    2    0    0  0.00000000000E+00  0.00000000000E+00 -0.24524858350E+04  0.24684404471E+04  0.28019898228E+03 0.  0.
         25    2    3    3    0    0 -0.42081360519E+02 -0.45599461286E+02 -0.10735349723E+04  0.10824432149E+04  0.12391862270E+03 0.  0.
         25    2    3    3    0    0  0.42081360519E+02  0.45599461286E+02 -0.13789508628E+04  0.13859972322E+04  0.12503077159E+03 0.  0.
          5    1    4    4  502    0 -0.11459345538E+02 -0.19238643382E+02 -0.28190225753E+02  0.36307310936E+02  0.47000000000E+01 0.  1.
         -5    1    4    4    0  502 -0.30622014981E+02 -0.26360817904E+02 -0.10453447465E+04  0.10461359040E+04  0.47000000000E+01 0.  1.
          5    1    5    5  503    0 -0.25560261677E+02  0.19529096741E+02 -0.97661039245E+03  0.97715129905E+03  0.47000000000E+01 0.  1.
         -5    1    5    5    0  503  0.67641622196E+02  0.26070364545E+02 -0.40234047034E+03  0.40884593312E+03  0.47000000000E+01 0.  1.
<mgrwt>
<rscale>  0 0.28019898E+03</rscale>
<asrwt>0</asrwt>
<pdfrwt beam="1">  1        3 0.37853342E+00 0.28019898E+03</pdfrwt>
<pdfrwt beam="2">  1       -3 0.12272758E-02 0.28019898E+03</pdfrwt>
<totfact> 0.88087972E+01</totfact>
</mgrwt>
</event>
<event>
 9    1  0.7986988E-001  0.2752630E+03  0.7818608E-02  0.1098305E+00
          2   -1    0    0  501    0  0.00000000000E+00  0.00000000000E+00  0.23032851262E+04  0.23032851262E+04  0.00000000000E+00 0.  1.
         -2   -1    0    0    0  501 -0.00000000000E+00 -0.00000000000E+00 -0.82240897141E+01  0.82240897141E+01  0.00000000000E+00 0.  1.
         35    2    1    2    0    0  0.35527136788E-14  0.00000000000E+00  0.22950610365E+04  0.23115092159E+04  0.27526295439E+03 0.  0.
         25    2    3    3    0    0  0.10896013626E+02  0.52701995831E+02  0.97856467170E+03  0.98782963621E+03  0.12378348034E+03 0.  0.
         25    2    3    3    0    0 -0.10896013626E+02 -0.52701995831E+02  0.13164963648E+04  0.13236795797E+04  0.12676248556E+03 0.  0.
          5    1    4    4  502    0 -0.24788864521E+02  0.31018136679E+02  0.87706289097E+03  0.87797381358E+03  0.47000000000E+01 0.  1.
         -5    1    4    4    0  502  0.35684878147E+02  0.21683859151E+02  0.10150178072E+03  0.10985582263E+03  0.47000000000E+01 0.  1.
          5    1    5    5  503    0  0.38304134278E+02 -0.74284222687E+02  0.77962742706E+03  0.78410864519E+03  0.47000000000E+01 0.  1.
         -5    1    5    5    0  503 -0.49200147904E+02  0.21582226857E+02  0.53686893774E+03  0.53957093452E+03  0.47000000000E+01 0.  1.
<mgrwt>
<rscale>  0 0.27526295E+03</rscale>
<asrwt>0</asrwt>
<pdfrwt beam="1">  1        2 0.35435104E+00 0.27526295E+03</pdfrwt>
<pdfrwt beam="2">  1       -2 0.12652464E-02 0.27526295E+03</pdfrwt>
<totfact> 0.77595377E+03</totfact>
</mgrwt>
</event>
<event>
 9    1  0.7986988E-001  0.2760064E+03  0.7818608E-02  0.1097890E+00
          1   -1    0    0  501    0  0.00000000000E+00  0.00000000000E+00  0.16230341344E+03  0.16230341344E+03  0.00000000000E+00 0. -1.
         -1   -1    0    0    0  501 -0.00000000000E+00 -0.00000000000E+00 -0.11734125853E+03  0.11734125853E+03  0.00000000000E+00 0. -1.
         35    2    1    2    0    0  0.35527136788E-14  0.71054273576E-14  0.44962154919E+02  0.27964467197E+03  0.27600642599E+03 0.  0.
         25    2    3    3    0    0  0.17371897553E+02 -0.30001903692E+00  0.81021668368E+02  0.14829336722E+03  0.12298186525E+03 0.  0.
         25    2    3    3    0    0 -0.17371897553E+02  0.30001903692E+00 -0.36059513449E+02  0.13135130475E+03  0.12510397241E+03 0.  0.
          5    1    4    4  502    0 -0.40791265511E+02 -0.36989752582E+02  0.35169824083E+02  0.65507065757E+02  0.47000000000E+01 0. -1.
         -5    1    4    4    0  502  0.58163163064E+02  0.36689733546E+02  0.45851844285E+02  0.82786301461E+02  0.47000000000E+01 0. -1.
          5    1    5    5  503    0 -0.35175209919E+02  0.52915651366E+02 -0.40392293699E+02  0.75438643563E+02  0.47000000000E+01 0.  1.
         -5    1    5    5    0  503  0.17803312366E+02 -0.52615632329E+02  0.43327802495E+01  0.55912661189E+02  0.47000000000E+01 0.  1.
<mgrwt>
<rscale>  0 0.27600643E+03</rscale>
<asrwt>0</asrwt>
<pdfrwt beam="1">  1        1 0.24969756E-01 0.27600643E+03</pdfrwt>
<pdfrwt beam="2">  1       -1 0.18052501E-01 0.27600643E+03</pdfrwt>
<totfact> 0.45385907E+03</totfact>
</mgrwt>
</event>
<event>
 9    1  0.7986988E-001  0.2773996E+03  0.7818608E-02  0.1097118E+00
         -4   -1    0    0    0  501 -0.00000000000E+00  0.00000000000E+00  0.10675925073E+03  0.10675925073E+03  0.00000000000E+00 0. -1.
          4   -1    0    0  501    0  0.00000000000E+00 -0.00000000000E+00 -0.18019646629E+03  0.18019646629E+03  0.00000000000E+00 0. -1.
         35    2    1    2    0    0  0.35527136788E-14  0.00000000000E+00 -0.73437215559E+02  0.28695571703E+03  0.27739963754E+03 0.  0.
         25    2    3    3    0    0 -0.29788414270E+02 -0.22442974432E+02 -0.84316155182E+02  0.15309600963E+03  0.12222167326E+03 0.  0.
         25    2    3    3    0    0  0.29788414270E+02  0.22442974432E+02  0.10878939623E+02  0.13385970740E+03  0.12809774866E+03 0.  0.
          5    1    4    4  502    0  0.13924886327E+02  0.32226084151E+02 -0.74194450380E+02  0.82215141100E+02  0.47000000000E+01 0. -1.
         -5    1    4    4    0  502 -0.43713300598E+02 -0.54669058582E+02 -0.10121704803E+02  0.70880868530E+02  0.47000000000E+01 0. -1.
          5    1    5    5  503    0 -0.46049800977E+02  0.22329675087E+02  0.24050835560E+02  0.56742675744E+02  0.47000000000E+01 0. -1.
         -5    1    5    5    0  503  0.75838215247E+02  0.11329934502E+00 -0.13171895937E+02  0.77117031654E+02  0.47000000000E+01 0. -1.
<mgrwt>
<rscale>  0 0.27739964E+03</rscale>
<asrwt>0</asrwt>
<pdfrwt beam="1">  1        4 0.27722533E-01 0.27739964E+03</pdfrwt>
<pdfrwt beam="2">  1       -4 0.16424500E-01 0.27739964E+03</pdfrwt>
<totfact> 0.74443514E+02</totfact>
</mgrwt>
</event>
<event>
 9    1  0.7986988E-001  0.2745648E+03  0.7818608E-02  0.1098695E+00
          1   -1    0    0  501    0  0.00000000000E+00  0.00000000000E+00  0.85106975889E+02  0.85106975889E+02  0.00000000000E+00 0.  1.
         -1   -1    0    0    0  501 -0.00000000000E+00 -0.00000000000E+00 -0.22144430655E+03  0.22144430655E+03  0.00000000000E+00 0.  1.
         35    2    1    2    0    0  0.00000000000E+00  0.00000000000E+00 -0.13633733066E+03  0.30655128244E+03  0.27456478476E+03 0.  0.
         25    2    3    3    0    0 -0.38014782691E+02  0.38192154194E+02 -0.71089858319E+02  0.15513276412E+03  0.12691982588E+03 0.  0.
         25    2    3    3    0    0  0.38014782691E+02 -0.38192154194E+02 -0.65247472339E+02  0.15141851832E+03  0.12556500587E+03 0.  0.
          5    1    4    4  502    0  0.22450031567E+02 -0.24478449407E+02  0.11061834726E+02  0.35322126072E+02  0.47000000000E+01 0. -1.
         -5    1    4    4    0  502 -0.60464814258E+02  0.62670603602E+02 -0.82151693044E+02  0.11981063805E+03  0.47000000000E+01 0. -1.
          5    1    5    5  503    0  0.96654392263E+01 -0.73777438667E+02 -0.35829388558E+01  0.74642204031E+02  0.47000000000E+01 0.  1.
         -5    1    5    5    0  503  0.28349343465E+02  0.35585284473E+02 -0.61664533483E+02  0.76776314288E+02  0.47000000000E+01 0.  1.
<mgrwt>
<rscale>  0 0.27456478E+03</rscale>
<asrwt>0</asrwt>
<pdfrwt beam="1">  1        1 0.13093381E-01 0.27456478E+03</pdfrwt>
<pdfrwt beam="2">  1       -1 0.34068355E-01 0.27456478E+03</pdfrwt>
<totfact> 0.36416966E+03</totfact>
</mgrwt>
</event>
<event>
 9    1  0.7986988E-001  0.2782915E+03  0.7818608E-02  0.1096626E+00
         -2   -1    0    0    0  501 -0.00000000000E+00  0.00000000000E+00  0.59014929584E+02  0.59014929584E+02  0.00000000000E+00 0.  1.
          2   -1    0    0  501    0  0.00000000000E+00 -0.00000000000E+00 -0.32807869890E+03  0.32807869890E+03  0.00000000000E+00 0.  1.
         35    2    1    2    0    0 -0.14210854715E-13  0.00000000000E+00 -0.26906376932E+03  0.38709362849E+03  0.27829151129E+03 0.  0.
         25    2    3    3    0    0  0.55574627939E+02  0.18409928660E+02 -0.11842802361E+03  0.18208140846E+03  0.12530354260E+03 0.  0.
         25    2    3    3    0    0 -0.55574627939E+02 -0.18409928660E+02 -0.15063574571E+03  0.20501222003E+03  0.12614046825E+03 0.  0.
          5    1    4    4  502    0  0.69544954628E+02 -0.26398573914E+02 -0.11191470296E+03  0.13446328926E+03  0.47000000000E+01 0.  1.
         -5    1    4    4    0  502 -0.13970326689E+02  0.44808502575E+02 -0.65133206512E+01  0.47618119206E+02  0.47000000000E+01 0.  1.
          5    1    5    5  503    0 -0.61817948525E+02  0.39764835831E+02 -0.11431009944E+03  0.13598378492E+03  0.47000000000E+01 0. -1.
         -5    1    5    5    0  503  0.62433205858E+01 -0.58174764492E+02 -0.36325646269E+02  0.69028435100E+02  0.47000000000E+01 0. -1.
<mgrwt>
<rscale>  0 0.27829151E+03</rscale>
<asrwt>0</asrwt>
<pdfrwt beam="1">  1        2 0.50473647E-01 0.27829151E+03</pdfrwt>
<pdfrwt beam="2">  1       -2 0.90792197E-02 0.27829151E+03</pdfrwt>
<totfact> 0.76272500E+03</totfact>
</mgrwt>
</event>
<event>
 9    1  0.7986988E-001  0.2789881E+03  0.7818608E-02  0.1096243E+00
         -2   -1    0    0    0  501 -0.00000000000E+00  0.00000000000E+00  0.15957337900E+02  0.15957337900E+02  0.00000000000E+00 0.  1.
          2   -1    0    0  501    0  0.00000000000E+00 -0.00000000000E+00 -0.12194129105E+04  0.12194129105E+04  0.00000000000E+00 0.  1.
         35    2    1    2    0    0  0.14210854715E-13 -0.71054273576E-14 -0.12034555726E+04  0.12353702484E+04  0.27898805603E+03 0.  0.
         25    2    3    3    0    0  0.38570992041E+02  0.45149674638E+02 -0.52022621114E+03  0.53831726475E+03  0.12499580883E+03 0.  0.
         25    2    3    3    0    0 -0.38570992041E+02 -0.45149674638E+02 -0.68322936148E+03  0.69705298366E+03  0.12471682768E+03 0.  0.
          5    1    4    4  502    0  0.75556173096E+02  0.61525663268E+02 -0.35696032681E+03  0.37004987157E+03  0.47000000000E+01 0.  1.
         -5    1    4    4    0  502 -0.36985181055E+02 -0.16375988630E+02 -0.16326588432E+03  0.16826739317E+03  0.47000000000E+01 0.  1.
          5    1    5    5  503    0 -0.49078255085E+02 -0.99766623036E+00 -0.60094332863E+03  0.60296322001E+03  0.47000000000E+01 0. -1.
         -5    1    5    5    0  503  0.10507263044E+02 -0.44152008408E+02 -0.82286032850E+02  0.94089763658E+02  0.47000000000E+01 0. -1.
<mgrwt>
<rscale>  0 0.27898806E+03</rscale>
<asrwt>0</asrwt>
<pdfrwt beam="1">  1        2 0.18760198E+00 0.27898806E+03</pdfrwt>
<pdfrwt beam="2">  1       -2 0.24549752E-02 0.27898806E+03</pdfrwt>
<totfact> 0.11112591E+04</totfact>
</mgrwt>
</event>
<event>
 9    1  0.7986988E-001  0.2737504E+03  0.7818608E-02  0.1099152E+00
         -2   -1    0    0    0  501 -0.00000000000E+00  0.00000000000E+00  0.10500287394E+02  0.10500287394E+02  0.00000000000E+00 0. -1.
          2   -1    0    0  501    0  0.00000000000E+00 -0.00000000000E+00 -0.17842195019E+04  0.17842195019E+04  0.00000000000E+00 0. -1.
         35    2    1    2    0    0 -0.71054273576E-14  0.00000000000E+00 -0.17737192145E+04  0.17947197893E+04  0.27375037932E+03 0.  0.
         25    2    3    3    0    0  0.44982096683E+02 -0.11905199093E+01 -0.73022063565E+03  0.74225860803E+03  0.12530306502E+03 0.  0.
         25    2    3    3    0    0 -0.44982096683E+02  0.11905199093E+01 -0.10434985789E+04  0.10524611813E+04  0.12946214751E+03 0.  0.
          5    1    4    4  502    0 -0.78658022043E+01 -0.49186898319E+02 -0.16196558575E+03  0.16951744092E+03  0.47000000000E+01 0. -1.
         -5    1    4    4    0  502  0.52847898887E+02  0.47996378409E+02 -0.56825504990E+03  0.57274116711E+03  0.47000000000E+01 0. -1.
          5    1    5    5  503    0 -0.32009887413E+02  0.95330342018E+01 -0.10322518473E+04  0.10328027295E+04  0.47000000000E+01 0.  1.
         -5    1    5    5    0  503 -0.12972209270E+02 -0.83425142925E+01 -0.11246731530E+02  0.19658451825E+02  0.47000000000E+01 0.  1.
<mgrwt>
<rscale>  0 0.27375038E+03</rscale>
<asrwt>0</asrwt>
<pdfrwt beam="1">  1        2 0.27449539E+00 0.27375038E+03</pdfrwt>
<pdfrwt beam="2">  1       -2 0.16154283E-02 0.27375038E+03</pdfrwt>
<totfact> 0.10208099E+04</totfact>
</mgrwt>
</event>
<event>
 9    1  0.7986988E-001  0.2729400E+03  0.7818608E-02  0.1099609E+00
          1   -1    0    0  501    0  0.00000000000E+00  0.00000000000E+00  0.11894661471E+04  0.11894661471E+04  0.00000000000E+00 0. -1.
         -1   -1    0    0    0  501 -0.00000000000E+00 -0.00000000000E+00 -0.15657500079E+02  0.15657500079E+02  0.00000000000E+00 0. -1.
         35    2    1    2    0    0  0.00000000000E+00 -0.71054273576E-14  0.11738086470E+04  0.12051236472E+04  0.27294003952E+03 0.  0.
         25    2    3    3    0    0 -0.41038252009E+02 -0.27214414846E+02  0.67827340171E+03  0.69150036393E+03  0.12527243645E+03 0.  0.
         25    2    3    3    0    0  0.41038252009E+02  0.27214414846E+02  0.49553524533E+03  0.51362328328E+03  0.12581309652E+03 0.  0.
          5    1    4    4  502    0 -0.26950771257E+02 -0.71432314035E+02  0.27176934649E+03  0.28232886365E+03  0.47000000000E+01 0.  1.
         -5    1    4    4    0  502 -0.14087480753E+02  0.44217899190E+02  0.40650405523E+03  0.40917150028E+03  0.47000000000E+01 0.  1.
          5    1    5    5  503    0  0.42845207014E+02  0.64584896755E+02  0.18258448432E+03  0.19840893268E+03  0.47000000000E+01 0. -1.
         -5    1    5    5    0  503 -0.18069550048E+01 -0.37370481910E+02  0.31295076102E+03  0.31521435060E+03  0.47000000000E+01 0. -1.
<mgrwt>
<rscale>  0 0.27294004E+03</rscale>
<asrwt>0</asrwt>
<pdfrwt beam="1">  1        1 0.18299472E+00 0.27294004E+03</pdfrwt>
<pdfrwt beam="2">  1       -1 0.24088471E-02 0.27294004E+03</pdfrwt>
<totfact> 0.60732781E+03</totfact>
</mgrwt>
</event>
<event>
 9    1  0.7986988E-001  0.2764553E+03  0.7818608E-02  0.1097641E+00
          1   -1    0    0  501    0  0.00000000000E+00  0.00000000000E+00  0.20392650552E+03  0.20392650552E+03  0.00000000000E+00 0.  1.
         -1   -1    0    0    0  501 -0.00000000000E+00 -0.00000000000E+00 -0.93694946175E+02  0.93694946175E+02  0.00000000000E+00 0.  1.
         35    2    1    2    0    0  0.00000000000E+00 -0.71054273576E-14  0.11023155935E+03  0.29762145170E+03  0.27645529808E+03 0.  0.
         25    2    3    3    0    0  0.16771940736E+02 -0.48046783256E+02  0.21352376986E+02  0.13599713140E+03  0.12429603521E+03 0.  0.
         25    2    3    3    0    0 -0.16771940736E+02  0.48046783256E+02  0.88879182364E+02  0.16162432030E+03  0.12503247769E+03 0.  0.
          5    1    4    4  502    0 -0.16158230093E+02  0.22795012301E+02  0.45929789109E+02  0.53966068165E+02  0.47000000000E+01 0. -1.
         -5    1    4    4    0  502  0.32930170829E+02 -0.70841795557E+02 -0.24577412124E+02  0.82031063233E+02  0.47000000000E+01 0. -1.
          5    1    5    5  503    0 -0.98764255604E+01 -0.42527314088E+02  0.25730517945E+02  0.50894653738E+02  0.47000000000E+01 0. -1.
         -5    1    5    5    0  503 -0.68955151755E+01  0.90574097344E+02  0.63148664418E+02  0.11072966656E+03  0.47000000000E+01 0. -1.
<mgrwt>
<rscale>  0 0.27645530E+03</rscale>
<asrwt>0</asrwt>
<pdfrwt beam="1">  1        1 0.31373308E-01 0.27645530E+03</pdfrwt>
<pdfrwt beam="2">  1       -1 0.14414607E-01 0.27645530E+03</pdfrwt>
<totfact> 0.48686508E+03</totfact>
</mgrwt>
</event>
<event>
 9    1  0.7986988E-001  0.2969352E+03  0.7818608E-02  0.1086783E+00
          2   -1    0    0  501    0  0.00000000000E+00  0.00000000000E+00  0.82308893711E+03  0.82308893711E+03  0.00000000000E+00 0. -1.
         -2   -1    0    0    0  501 -0.00000000000E+00 -0.00000000000E+00 -0.26780368834E+02  0.26780368834E+02  0.00000000000E+00 0. -1.
         35    2    1    2    0    0 -0.14210854715E-13  0.00000000000E+00  0.79630856827E+03  0.84986930594E+03  0.29693518026E+03 0.  0.
         25    2    3    3    0    0  0.61292141804E+02 -0.39401705378E+02  0.49829109041E+03  0.51867680874E+03  0.12418695630E+03 0.  0.
         25    2    3    3    0    0 -0.61292141804E+02  0.39401705378E+02  0.29801747787E+03  0.33119249720E+03  0.12475909607E+03 0.  0.
          5    1    4    4  502    0  0.50303322621E+02 -0.37940034450E+01  0.58938513564E+02  0.77721664354E+02  0.47000000000E+01 0.  1.
         -5    1    4    4    0  502  0.10988819183E+02 -0.35607701933E+02  0.43935257684E+03  0.44095514439E+03  0.47000000000E+01 0.  1.
          5    1    5    5  503    0 -0.94403078718E+02  0.36778637307E+02  0.26656550892E+03  0.28520846758E+03  0.47000000000E+01 0. -1.
         -5    1    5    5    0  503  0.33110936914E+02  0.26230680709E+01  0.31451968950E+02  0.45984029622E+02  0.47000000000E+01 0. -1.
<mgrwt>
<rscale>  0 0.29693518E+03</rscale>
<asrwt>0</asrwt>
<pdfrwt beam="1">  1        2 0.12662905E+00 0.29693518E+03</pdfrwt>
<pdfrwt beam="2">  1       -2 0.41200574E-02 0.29693518E+03</pdfrwt>
<totfact> 0.89869203E+03</totfact>
</mgrwt>
</event>
<event>
 9    1  0.7986988E-001  0.2764881E+03  0.7818608E-02  0.1097623E+00
         -2   -1    0    0    0  501 -0.00000000000E+00  0.00000000000E+00  0.14114033206E+02  0.14114033206E+02  0.00000000000E+00 0. -1.
          2   -1    0    0  501    0  0.00000000000E+00 -0.00000000000E+00 -0.13540722925E+04  0.13540722925E+04  0.00000000000E+00 0. -1.
         35    2    1    2    0    0  0.35527136788E-14  0.00000000000E+00 -0.13399582593E+04  0.13681863257E+04  0.27648812850E+03 0.  0.
         25    2    3    3    0    0 -0.24007278451E+02 -0.47967806332E+02 -0.67639640100E+03  0.69070104069E+03  0.12914556305E+03 0.  0.
         25    2    3    3    0    0  0.24007278451E+02  0.47967806332E+02 -0.66356185827E+03  0.67748528500E+03  0.12567701371E+03 0.  0.
          5    1    4    4  502    0 -0.13324315184E+02 -0.25310274008E+02 -0.23523497698E+02  0.37330849032E+02  0.47000000000E+01 0.  1.
         -5    1    4    4    0  502 -0.10682963267E+02 -0.22657532325E+02 -0.65287290331E+03  0.65337019166E+03  0.47000000000E+01 0.  1.
          5    1    5    5  503    0 -0.28901647662E+01  0.46826423515E+02 -0.77014860618E+02  0.90301969788E+02  0.47000000000E+01 0. -1.
         -5    1    5    5    0  503  0.26897443217E+02  0.11413828177E+01 -0.58654699765E+03  0.58718331521E+03  0.47000000000E+01 0. -1.
<mgrwt>
<rscale>  0 0.27648813E+03</rscale>
<asrwt>0</asrwt>
<pdfrwt beam="1">  1        2 0.20831883E+00 0.27648813E+03</pdfrwt>
<pdfrwt beam="2">  1       -2 0.21713895E-02 0.27648813E+03</pdfrwt>
<totfact> 0.11209539E+04</totfact>
</mgrwt>
</event>
<event>
 9    1  0.7986988E-001  0.2805964E+03  0.7818608E-02  0.1095364E+00
         -3   -1    0    0    0  501 -0.00000000000E+00  0.00000000000E+00  0.23557495384E+02  0.23557495384E+02  0.00000000000E+00 0.  1.
          3   -1    0    0  501    0  0.00000000000E+00 -0.00000000000E+00 -0.83555529265E+03  0.83555529265E+03  0.00000000000E+00 0.  1.
         35    2    1    2    0    0 -0.71054273576E-14  0.00000000000E+00 -0.81199779727E+03  0.85911278804E+03  0.28059643583E+03 0.  0.
         25    2    3    3    0    0 -0.19267717141E+02  0.16369333098E+02 -0.58475171721E+03  0.59850788718E+03  0.12505167032E+03 0.  0.
         25    2    3    3    0    0  0.19267717141E+02 -0.16369333098E+02 -0.22724608006E+03  0.26060490086E+03  0.12503972752E+03 0.  0.
          5    1    4    4  502    0  0.13504286234E+02  0.61324224614E+02 -0.19867215463E+03  0.20841243076E+03  0.47000000000E+01 0. -1.
         -5    1    4    4    0  502 -0.32772003375E+02 -0.44954891517E+02 -0.38607956258E+03  0.39009545642E+03  0.47000000000E+01 0. -1.
          5    1    5    5  503    0  0.17756774720E+02 -0.63401799009E+02 -0.18766573234E+03  0.19893619143E+03  0.47000000000E+01 0.  1.
         -5    1    5    5    0  503  0.15109424211E+01  0.47032465911E+02 -0.39580347721E+02  0.61668709428E+02  0.47000000000E+01 0.  1.
<mgrwt>
<rscale>  0 0.28059644E+03</rscale>
<asrwt>0</asrwt>
<pdfrwt beam="1">  1        3 0.12854696E+00 0.28059644E+03</pdfrwt>
<pdfrwt beam="2">  1       -3 0.36242304E-02 0.28059644E+03</pdfrwt>
<totfact> 0.48395545E+02</totfact>
</mgrwt>
</event>
<event>
 9    1  0.7986988E-001  0.2715989E+03  0.7818608E-02  0.1100368E+00
         -1   -1    0    0    0  501 -0.00000000000E+00  0.00000000000E+00  0.36567641569E+01  0.36567641569E+01  0.00000000000E+00 0. -1.
          1   -1    0    0  501    0  0.00000000000E+00 -0.00000000000E+00 -0.50431158981E+04  0.50431158981E+04  0.00000000000E+00 0. -1.
         35    2    1    2    0    0 -0.35527136788E-14  0.14210854715E-13 -0.50394591340E+04  0.50467726623E+04  0.27159886197E+03 0.  0.
         25    2    3    3    0    0 -0.25838598277E+02  0.41918181584E+02 -0.28790592172E+04  0.28821986446E+04  0.12514904699E+03 0.  0.
         25    2    3    3    0    0  0.25838598277E+02 -0.41918181584E+02 -0.21603999168E+04  0.21645740176E+04  0.12501244071E+03 0.  0.
          5    1    4    4  502    0 -0.35363025238E+02  0.83789896090E+02 -0.18736635098E+04  0.18758753499E+04  0.47000000000E+01 0. -1.
         -5    1    4    4    0  502  0.95244269605E+01 -0.41871714506E+02 -0.10053957073E+04  0.10063232947E+04  0.47000000000E+01 0. -1.
          5    1    5    5  503    0  0.80032867414E+01  0.44112328021E+02 -0.88076029887E+03  0.88191311598E+03  0.47000000000E+01 0.  1.
         -5    1    5    5    0  503  0.17835311536E+02 -0.86030509605E+02 -0.12796396179E+04  0.12826609017E+04  0.47000000000E+01 0.  1.
<mgrwt>
<rscale>  0 0.27159886E+03</rscale>
<asrwt>0</asrwt>
<pdfrwt beam="1">  1        1 0.77586299E+00 0.27159886E+03</pdfrwt>
<pdfrwt beam="2">  1       -1 0.56257982E-03 0.27159886E+03</pdfrwt>
<totfact> 0.48059851E+01</totfact>
</mgrwt>
</event>
<event>
 9    1  0.7986988E-001  0.2606412E+03  0.7818608E-02  0.1106759E+00
         -1   -1    0    0    0  501 -0.00000000000E+00  0.00000000000E+00  0.64005983349E+01  0.64005983349E+01  0.00000000000E+00 0.  1.
          1   -1    0    0  501    0  0.00000000000E+00 -0.00000000000E+00 -0.26534175359E+04  0.26534175359E+04  0.00000000000E+00 0.  1.
         35    2    1    2    0    0  0.00000000000E+00 -0.17763568394E-14 -0.26470169375E+04  0.26598181342E+04  0.26064120827E+03 0.  0.
         25    2    3    3    0    0 -0.35312603128E+02  0.48291849119E+01 -0.14100242149E+04  0.14160052484E+04  0.12502910026E+03 0.  0.
         25    2    3    3    0    0  0.35312603128E+02 -0.48291849119E+01 -0.12369927227E+04  0.12438128858E+04  0.12509675491E+03 0.  0.
          5    1    4    4  502    0  0.28437857612E+02  0.42915821306E+01 -0.10463295444E+04  0.10467352745E+04  0.47000000000E+01 0.  1.
         -5    1    4    4    0  502 -0.63750460740E+02  0.53760278130E+00 -0.36369467047E+03  0.36926997385E+03  0.47000000000E+01 0.  1.
          5    1    5    5  503    0  0.53607834966E+02  0.13819678491E+02 -0.23537383198E+03  0.24184233348E+03  0.47000000000E+01 0. -1.
         -5    1    5    5    0  503 -0.18295231838E+02 -0.18648863403E+02 -0.10016188907E+04  0.10019705523E+04  0.47000000000E+01 0. -1.
<mgrwt>
<rscale>  0 0.26064121E+03</rscale>
<asrwt>0</asrwt>
<pdfrwt beam="1">  1        1 0.40821822E+00 0.26064121E+03</pdfrwt>
<pdfrwt beam="2">  1       -1 0.98470710E-03 0.26064121E+03</pdfrwt>
<totfact> 0.24095725E+03</totfact>
</mgrwt>
</event>
<event>
 9    1  0.7986988E-001  0.2764124E+03  0.7818608E-02  0.1097665E+00
         -2   -1    0    0    0  501 -0.00000000000E+00  0.00000000000E+00  0.70534515097E+01  0.70534515097E+01  0.00000000000E+00 0. -1.
          2   -1    0    0  501    0  0.00000000000E+00 -0.00000000000E+00 -0.27080285196E+04  0.27080285196E+04  0.00000000000E+00 0. -1.
         35    2    1    2    0    0  0.00000000000E+00  0.00000000000E+00 -0.27009750681E+04  0.27150819711E+04  0.27641235754E+03 0.  0.
         25    2    3    3    0    0 -0.54309882886E+02  0.12378104826E+02 -0.11709308777E+04  0.11788997391E+04  0.12499077439E+03 0.  0.
         25    2    3    3    0    0  0.54309882886E+02 -0.12378104826E+02 -0.15300441904E+04  0.15361822320E+04  0.12537082787E+03 0.  0.
          5    1    4    4  502    0  0.58047877381E+01 -0.16639630926E+02 -0.24633431223E+02  0.30650755486E+02  0.47000000000E+01 0. -1.
         -5    1    4    4    0  502 -0.60114670625E+02  0.29017735752E+02 -0.11462974465E+04  0.11482489836E+04  0.47000000000E+01 0. -1.
          5    1    5    5  503    0 -0.35597391901E+02 -0.22943190201E+02 -0.33384577482E+03  0.33655409023E+03  0.47000000000E+01 0. -1.
         -5    1    5    5    0  503  0.89907274788E+02  0.10565085375E+02 -0.11961984156E+04  0.11996281418E+04  0.47000000000E+01 0. -1.
<mgrwt>
<rscale>  0 0.27641236E+03</rscale>
<asrwt>0</asrwt>
<pdfrwt beam="1">  1        2 0.41662020E+00 0.27641236E+03</pdfrwt>
<pdfrwt beam="2">  1       -2 0.10851453E-02 0.27641236E+03</pdfrwt>
<totfact> 0.58170781E+03</totfact>
</mgrwt>
</event>
<event>
 9    1  0.7986988E-001  0.2752768E+03  0.7818608E-02  0.1098297E+00
          1   -1    0    0  501    0  0.00000000000E+00  0.00000000000E+00  0.22806161641E+02  0.22806161641E+02  0.00000000000E+00 0.  1.
         -1   -1    0    0    0  501 -0.00000000000E+00 -0.00000000000E+00 -0.83066723360E+03  0.83066723360E+03  0.00000000000E+00 0.  1.
         35    2    1    2    0    0  0.00000000000E+00 -0.71054273576E-14 -0.80786107196E+03  0.85347339524E+03  0.27527681485E+03 0.  0.
         25    2    3    3    0    0  0.35650881414E+02  0.24539521783E+01 -0.26162399175E+03  0.29194683857E+03  0.12453447823E+03 0.  0.
         25    2    3    3    0    0 -0.35650881414E+02 -0.24539521783E+01 -0.54623708021E+03  0.56152655667E+03  0.12514039643E+03 0.  0.
          5    1    4    4  502    0  0.23988707065E+01 -0.56983950117E+02 -0.83873808176E+02  0.10153733722E+03  0.47000000000E+01 0.  1.
         -5    1    4    4    0  502  0.33252010707E+02  0.59437902295E+02 -0.17775018357E+03  0.19040950135E+03  0.47000000000E+01 0.  1.
          5    1    5    5  503    0  0.32989788875E+02  0.37042330338E+02 -0.24525031431E+03  0.25026039854E+03  0.47000000000E+01 0. -1.
         -5    1    5    5    0  503 -0.68640670289E+02 -0.39496282517E+02 -0.30098676590E+03  0.31126615813E+03  0.47000000000E+01 0. -1.
<mgrwt>
<rscale>  0 0.27527681E+03</rscale>
<asrwt>0</asrwt>
<pdfrwt beam="1">  1        1 0.35086407E-02 0.27527681E+03</pdfrwt>
<pdfrwt beam="2">  1       -1 0.12779494E+00 0.27527681E+03</pdfrwt>
<totfact> 0.15513043E+03</totfact>
</mgrwt>
</event>
<event>
 9    1  0.7986988E-001  0.2766088E+03  0.7818608E-02  0.1097556E+00
          2   -1    0    0  501    0  0.00000000000E+00  0.00000000000E+00  0.18085842552E+04  0.18085842552E+04  0.00000000000E+00 0. -1.
         -2   -1    0    0    0  501 -0.00000000000E+00 -0.00000000000E+00 -0.10576289750E+02  0.10576289750E+02  0.00000000000E+00 0. -1.
         35    2    1    2    0    0 -0.35527136788E-14  0.14210854715E-13  0.17980079654E+04  0.18191605449E+04  0.27660882936E+03 0.  0.
         25    2    3    3    0    0  0.14505773769E+02 -0.52387891304E+02  0.94327114086E+03  0.95324200291E+03  0.12631295387E+03 0.  0.
         25    2    3    3    0    0 -0.14505773769E+02  0.52387891304E+02  0.85473682456E+03  0.86591854200E+03  0.12761259146E+03 0.  0.
          5    1    4    4  502    0  0.48689231267E+02 -0.19105210615E+02  0.15778981344E+03  0.16629902447E+03  0.47000000000E+01 0.  1.
         -5    1    4    4    0  502 -0.34183457499E+02 -0.33282680689E+02  0.78548132742E+03  0.78694297844E+03  0.47000000000E+01 0.  1.
          5    1    5    5  503    0  0.16948789891E+02  0.41365907819E+02  0.80261690446E+03  0.80387460784E+03  0.47000000000E+01 0.  1.
         -5    1    5    5    0  503 -0.31454563660E+02  0.11021983485E+02  0.52119920096E+02  0.62043934158E+02  0.47000000000E+01 0.  1.
<mgrwt>
<rscale>  0 0.27660883E+03</rscale>
<asrwt>0</asrwt>
<pdfrwt beam="1">  1        2 0.27824349E+00 0.27660883E+03</pdfrwt>
<pdfrwt beam="2">  1       -2 0.16271229E-02 0.27660883E+03</pdfrwt>
<totfact> 0.98090502E+03</totfact>
</mgrwt>
</event>
<event>
 9    1  0.7986988E-001  0.2765433E+03  0.7818608E-02  0.1097592E+00
         -1   -1    0    0    0  501 -0.00000000000E+00  0.00000000000E+00  0.69750269149E+03  0.69750269149E+03  0.00000000000E+00 0. -1.
          1   -1    0    0  501    0  0.00000000000E+00 -0.00000000000E+00 -0.27410716290E+02  0.27410716290E+02  0.00000000000E+00 0. -1.
         35    2    1    2    0    0  0.35527136788E-14 -0.71054273576E-14  0.67009197520E+03  0.72491340778E+03  0.27654329417E+03 0.  0.
         25    2    3    3    0    0 -0.39624618637E+01  0.55101512404E+02  0.28949744297E+03  0.32044209564E+03  0.12578747713E+03 0.  0.
         25    2    3    3    0    0  0.39624618637E+01 -0.55101512404E+02  0.38059453223E+03  0.40447131213E+03  0.12527157141E+03 0.  0.
          5    1    4    4  502    0 -0.47645794135E+02 -0.13943508864E+02  0.68115592474E+02  0.84417812553E+02  0.47000000000E+01 0. -1.
         -5    1    4    4    0  502  0.43683332271E+02  0.69045021268E+02  0.22138185049E+03  0.23602428309E+03  0.47000000000E+01 0. -1.
          5    1    5    5  503    0 -0.24381480915E+02 -0.44772307313E+02  0.36783538046E+03  0.37138116974E+03  0.47000000000E+01 0. -1.
         -5    1    5    5    0  503  0.28343942778E+02 -0.10329205091E+02  0.12759151764E+02  0.33090142396E+02  0.47000000000E+01 0. -1.
<mgrwt>
<rscale>  0 0.27654329E+03</rscale>
<asrwt>0</asrwt>
<pdfrwt beam="1">  1        1 0.42170338E-02 0.27654329E+03</pdfrwt>
<pdfrwt beam="2">  1       -1 0.10730809E+00 0.27654329E+03</pdfrwt>
<totfact> 0.18125238E+03</totfact>
</mgrwt>
</event>
<event>
 9    1  0.7986988E-001  0.2739259E+03  0.7818608E-02  0.1099054E+00
          2   -1    0    0  501    0  0.00000000000E+00  0.00000000000E+00  0.33767738363E+04  0.33767738363E+04  0.00000000000E+00 0. -1.
         -2   -1    0    0    0  501 -0.00000000000E+00 -0.00000000000E+00 -0.55552576298E+01  0.55552576298E+01  0.00000000000E+00 0. -1.
         35    2    1    2    0    0 -0.14210854715E-13 -0.71054273576E-14  0.33712185787E+04  0.33823290940E+04  0.27392589230E+03 0.  0.
         25    2    3    3    0    0 -0.46845225343E+02 -0.16738929334E+02  0.13763319218E+04  0.13828798952E+04  0.12487024809E+03 0.  0.
         25    2    3    3    0    0  0.46845225343E+02  0.16738929334E+02  0.19948866569E+04  0.19994491987E+04  0.12549763904E+03 0.  0.
          5    1    4    4  502    0 -0.48181968852E+02  0.13966965665E+02  0.12922741676E+04  0.12932560429E+04  0.47000000000E+01 0. -1.
         -5    1    4    4    0  502  0.13367435090E+01 -0.30705894999E+02  0.84057754206E+02  0.89623852367E+02  0.47000000000E+01 0. -1.
          5    1    5    5  503    0  0.15562675222E+01  0.60914161751E+02  0.13670766487E+04  0.13684420377E+04  0.47000000000E+01 0. -1.
         -5    1    5    5    0  503  0.45288957821E+02 -0.44175232417E+02  0.62781000821E+03  0.63100716103E+03  0.47000000000E+01 0. -1.
<mgrwt>
<rscale>  0 0.27392589E+03</rscale>
<asrwt>0</asrwt>
<pdfrwt beam="1">  1        2 0.51950202E+00 0.27392589E+03</pdfrwt>
<pdfrwt beam="2">  1       -2 0.85465772E-03 0.27392589E+03</pdfrwt>
<totfact> 0.32688711E+03</totfact>
</mgrwt>
</event>
<event>
 9    1  0.7986988E-001  0.2746817E+03  0.7818608E-02  0.1098630E+00
         -2   -1    0    0    0  501 -0.00000000000E+00  0.00000000000E+00  0.58955522008E+02  0.58955522008E+02  0.00000000000E+00 0.  1.
          2   -1    0    0  501    0  0.00000000000E+00 -0.00000000000E+00 -0.31994476599E+03  0.31994476599E+03  0.00000000000E+00 0.  1.
         35    2    1    2    0    0  0.00000000000E+00  0.17763568394E-14 -0.26098924398E+03  0.37890028800E+03  0.27468171175E+03 0.  0.
         25    2    3    3    0    0 -0.32818452090E+02  0.81374189824E+01 -0.66273593844E+02  0.14515702459E+03  0.12463989795E+03 0.  0.
         25    2    3    3    0    0  0.32818452090E+02 -0.81374189824E+01 -0.19471565014E+03  0.23374326341E+03  0.12481370275E+03 0.  0.
          5    1    4    4  502    0 -0.68066096250E+02 -0.22544791522E+02 -0.66911213732E+02  0.98185852374E+02  0.47000000000E+01 0. -1.
         -5    1    4    4    0  502  0.35247644160E+02  0.30682210504E+02  0.63761988737E+00  0.46971172216E+02  0.47000000000E+01 0. -1.
          5    1    5    5  503    0  0.67952450520E+02 -0.20232129982E+02 -0.17997365219E+03  0.19349284250E+03  0.47000000000E+01 0.  1.
         -5    1    5    5    0  503 -0.35133998430E+02  0.12094710999E+02 -0.14741997948E+02  0.40250420909E+02  0.47000000000E+01 0.  1.
<mgrwt>
<rscale>  0 0.27468171E+03</rscale>
<asrwt>0</asrwt>
<pdfrwt beam="1">  1        2 0.49222272E-01 0.27468171E+03</pdfrwt>
<pdfrwt beam="2">  1       -2 0.90700803E-02 0.27468171E+03</pdfrwt>
<totfact> 0.78447884E+03</totfact>
</mgrwt>
</event>
<event>
 9    1  0.7986988E-001  0.2762582E+03  0.7818608E-02  0.1097750E+00
          1   -1    0    0  501    0  0.00000000000E+00  0.00000000000E+00  0.21342744864E+04  0.21342744864E+04  0.00000000000E+00 0. -1.
         -1   -1    0    0    0  501 -0.00000000000E+00 -0.00000000000E+00 -0.89396392088E+01  0.89396392088E+01  0.00000000000E+00 0. -1.
         35    2    1    2    0    0 -0.14210854715E-13  0.17763568394E-14  0.21253348472E+04  0.21432141256E+04  0.27625816825E+03 0.  0.
         25    2    3    3    0    0 -0.46240689581E+02 -0.13380027313E+02  0.77229336840E+03  0.78363005754E+03  0.12378123326E+03 0.  0.
         25    2    3    3    0    0  0.46240689581E+02  0.13380027313E+02  0.13530414788E+04  0.13595840680E+04  0.12421903358E+03 0.  0.
          5    1    4    4  502    0 -0.87816328975E+02 -0.10644217808E+02  0.45149317111E+03  0.46010127208E+03  0.47000000000E+01 0.  1.
         -5    1    4    4    0  502  0.41575639394E+02 -0.27358095047E+01  0.32080019728E+03  0.32352878546E+03  0.47000000000E+01 0.  1.
          5    1    5    5  503    0 -0.18895245361E+02 -0.88116178565E+01  0.45982881645E+02  0.50706905949E+02  0.47000000000E+01 0. -1.
         -5    1    5    5    0  503  0.65135934942E+02  0.22191645169E+02  0.13070585971E+04  0.13088771621E+04  0.47000000000E+01 0. -1.
<mgrwt>
<rscale>  0 0.27625817E+03</rscale>
<asrwt>0</asrwt>
<pdfrwt beam="1">  1        1 0.32834952E+00 0.27625817E+03</pdfrwt>
<pdfrwt beam="2">  1       -1 0.13753308E-02 0.27625817E+03</pdfrwt>
<totfact> 0.32674713E+03</totfact>
</mgrwt>
</event>
<event>
 9    1  0.7986988E-001  0.2733699E+03  0.7818608E-02  0.1099366E+00
          2   -1    0    0  501    0  0.00000000000E+00  0.00000000000E+00  0.55695203426E+02  0.55695203426E+02  0.00000000000E+00 0.  1.
         -2   -1    0    0    0  501 -0.00000000000E+00 -0.00000000000E+00 -0.33544668556E+03  0.33544668556E+03  0.00000000000E+00 0.  1.
         35    2    1    2    0    0  0.00000000000E+00  0.35527136788E-14 -0.27975148214E+03  0.39114188899E+03  0.27336986953E+03 0.  0.
         25    2    3    3    0    0 -0.51981066189E+02 -0.12537482150E+02 -0.10971126042E+03  0.17300815635E+03  0.12262153889E+03 0.  0.
         25    2    3    3    0    0  0.51981066189E+02  0.12537482150E+02 -0.17004022172E+03  0.21813373264E+03  0.12573555032E+03 0.  0.
          5    1    4    4  502    0 -0.44399693322E+02  0.51674114608E+02 -0.47727261654E+02  0.83315835185E+02  0.47000000000E+01 0. -1.
         -5    1    4    4    0  502 -0.75813728672E+01 -0.64211596758E+02 -0.61983998767E+02  0.89692321164E+02  0.47000000000E+01 0. -1.
          5    1    5    5  503    0 -0.22231385778E+02  0.31093184295E+02 -0.86508295700E+01  0.39470843359E+02  0.47000000000E+01 0. -1.
         -5    1    5    5    0  503  0.74212451967E+02 -0.18555702145E+02 -0.16138939215E+03  0.17866288928E+03  0.47000000000E+01 0. -1.
<mgrwt>
<rscale>  0 0.27336987E+03</rscale>
<asrwt>0</asrwt>
<pdfrwt beam="1">  1        2 0.85684928E-02 0.27336987E+03</pdfrwt>
<pdfrwt beam="2">  1       -2 0.51607183E-01 0.27336987E+03</pdfrwt>
<totfact> 0.27965710E+03</totfact>
</mgrwt>
</event>
<event>
 9    1  0.7986988E-001  0.2728715E+03  0.7818608E-02  0.1099647E+00
          2   -1    0    0  501    0  0.00000000000E+00  0.00000000000E+00  0.20833304267E+03  0.20833304267E+03  0.00000000000E+00 0. -1.
         -2   -1    0    0    0  501 -0.00000000000E+00 -0.00000000000E+00 -0.89350738764E+02  0.89350738764E+02  0.00000000000E+00 0. -1.
         35    2    1    2    0    0  0.00000000000E+00  0.00000000000E+00  0.11898230390E+03  0.29768378143E+03  0.27287148089E+03 0.  0.
         25    2    3    3    0    0 -0.33874129408E+02 -0.11688433131E+01  0.14178238952E+02  0.13130499829E+03  0.12606013358E+03 0.  0.
         25    2    3    3    0    0  0.33874129408E+02  0.11688433131E+01  0.10480406495E+03  0.16637878314E+03  0.12469636968E+03 0.  0.
          5    1    4    4  502    0 -0.79505039796E+02 -0.39187042389E+01 -0.82564456799E+01  0.80166492321E+02  0.47000000000E+01 0. -1.
         -5    1    4    4    0  502  0.45630910388E+02  0.27498609257E+01  0.22434684632E+02  0.51138505967E+02  0.47000000000E+01 0. -1.
          5    1    5    5  503    0  0.67353035851E+02  0.17378197763E+02  0.10821848027E+03  0.12873135853E+03  0.47000000000E+01 0. -1.
         -5    1    5    5    0  503 -0.33478906443E+02 -0.16209354449E+02 -0.34144153214E+01  0.37647424617E+02  0.47000000000E+01 0. -1.
<mgrwt>
<rscale>  0 0.27287148E+03</rscale>
<asrwt>0</asrwt>
<pdfrwt beam="1">  1        2 0.32051237E-01 0.27287148E+03</pdfrwt>
<pdfrwt beam="2">  1       -2 0.13746268E-01 0.27287148E+03</pdfrwt>
<totfact> 0.63963240E+03</totfact>
</mgrwt>
</event>
<event>
 9    1  0.7986988E-001  0.2928055E+03  0.7818608E-02  0.1088893E+00
         -2   -1    0    0    0  501 -0.00000000000E+00  0.00000000000E+00  0.44715456494E+03  0.44715456494E+03  0.00000000000E+00 0.  1.
          2   -1    0    0  501    0  0.00000000000E+00 -0.00000000000E+00 -0.47933690361E+02  0.47933690361E+02  0.00000000000E+00 0.  1.
         35    2    1    2    0    0  0.00000000000E+00  0.00000000000E+00  0.39922087458E+03  0.49508825530E+03  0.29280552221E+03 0.  0.
         25    2    3    3    0    0  0.53586606755E+01 -0.38598753595E+02  0.31009145445E+03  0.33660266833E+03  0.12500426864E+03 0.  0.
         25    2    3    3    0    0 -0.53586606755E+01  0.38598753595E+02  0.89129420132E+02  0.15848558698E+03  0.12512013716E+03 0.  0.
          5    1    4    4  502    0  0.10479898264E+02 -0.42913028411E+02  0.32038718300E+03  0.32345230453E+03  0.47000000000E+01 0. -1.
         -5    1    4    4    0  502 -0.51212375882E+01  0.43142748161E+01 -0.10295728549E+02  0.13150363796E+02  0.47000000000E+01 0. -1.
          5    1    5    5  503    0  0.39726448740E+01  0.34905411531E+02  0.12029527482E+03  0.12540818476E+03  0.47000000000E+01 0.  1.
         -5    1    5    5    0  503 -0.93313055495E+01  0.36933420643E+01 -0.31165854688E+02  0.33077402215E+02  0.47000000000E+01 0.  1.
<mgrwt>
<rscale>  0 0.29280552E+03</rscale>
<asrwt>0</asrwt>
<pdfrwt beam="1">  1        2 0.73744142E-02 0.29280552E+03</pdfrwt>
<pdfrwt beam="2">  1       -2 0.68793007E-01 0.29280552E+03</pdfrwt>
<totfact> 0.18703956E+03</totfact>
</mgrwt>
</event>
<event>
 9    1  0.7986988E-001  0.2760410E+03  0.7818608E-02  0.1097871E+00
          1   -1    0    0  501    0  0.00000000000E+00  0.00000000000E+00  0.85362105465E+02  0.85362105465E+02  0.00000000000E+00 0. -1.
         -1   -1    0    0    0  501 -0.00000000000E+00 -0.00000000000E+00 -0.22316289853E+03  0.22316289853E+03  0.00000000000E+00 0. -1.
         35    2    1    2    0    0  0.00000000000E+00  0.00000000000E+00 -0.13780079306E+03  0.30852500399E+03  0.27604097435E+03 0.  0.
         25    2    3    3    0    0  0.11058117932E+02  0.72168983055E+01 -0.47381252607E+01  0.12553643643E+03  0.12475007594E+03 0.  0.
         25    2    3    3    0    0 -0.11058117932E+02 -0.72168983055E+01 -0.13306266780E+03  0.18298856756E+03  0.12491908062E+03 0.  0.
          5    1    4    4  502    0 -0.26662003392E+02  0.18245920748E+02 -0.53535841426E+02  0.62705281804E+02  0.47000000000E+01 0. -1.
         -5    1    4    4    0  502  0.37720121325E+02 -0.11029022443E+02  0.48797716166E+02  0.62831154627E+02  0.47000000000E+01 0. -1.
          5    1    5    5  503    0  0.31924056837E+02 -0.44979114359E+02 -0.10586600207E+03  0.11946533609E+03  0.47000000000E+01 0.  1.
         -5    1    5    5    0  503 -0.42982174769E+02  0.37762216053E+02 -0.27196665727E+02  0.63523231465E+02  0.47000000000E+01 0.  1.
<mgrwt>
<rscale>  0 0.27604097E+03</rscale>
<asrwt>0</asrwt>
<pdfrwt beam="1">  1        1 0.13132632E-01 0.27604097E+03</pdfrwt>
<pdfrwt beam="2">  1       -1 0.34332753E-01 0.27604097E+03</pdfrwt>
<totfact> 0.35796049E+03</totfact>
</mgrwt>
</event>
<event>
 9    1  0.7986988E-001  0.2749158E+03  0.7818608E-02  0.1098499E+00
          2   -1    0    0  501    0  0.00000000000E+00  0.00000000000E+00  0.98356144031E+03  0.98356144031E+03  0.00000000000E+00 0. -1.
         -2   -1    0    0    0  501 -0.00000000000E+00 -0.00000000000E+00 -0.19210463864E+02  0.19210463864E+02  0.00000000000E+00 0. -1.
         35    2    1    2    0    0  0.00000000000E+00 -0.13322676296E-14  0.96435097644E+03  0.10027719042E+04  0.27491577988E+03 0.  0.
         25    2    3    3    0    0  0.42806292205E+02  0.79738485691E+00  0.35494685661E+03  0.37910545068E+03  0.12609780825E+03 0.  0.
         25    2    3    3    0    0 -0.42806292205E+02 -0.79738485691E+00  0.60940411984E+03  0.62366645349E+03  0.12551274621E+03 0.  0.
          5    1    4    4  502    0  0.25046785770E+02 -0.18208912377E+02  0.35098144797E+03  0.35237618079E+03  0.47000000000E+01 0. -1.
         -5    1    4    4    0  502  0.17759506435E+02  0.19006297234E+02  0.39654086384E+01  0.26729269894E+02  0.47000000000E+01 0. -1.
          5    1    5    5  503    0  0.38847685165E+02  0.14846841942E+01  0.94346513040E+02  0.10215038645E+03  0.47000000000E+01 0.  1.
         -5    1    5    5    0  503 -0.81653977370E+02 -0.22820690511E+01  0.51505760680E+03  0.52151606704E+03  0.47000000000E+01 0.  1.
<mgrwt>
<rscale>  0 0.27491578E+03</rscale>
<asrwt>0</asrwt>
<pdfrwt beam="1">  1        2 0.15131711E+00 0.27491578E+03</pdfrwt>
<pdfrwt beam="2">  1       -2 0.29554568E-02 0.27491578E+03</pdfrwt>
<totfact> 0.11612495E+04</totfact>
</mgrwt>
</event>
<event>
 9    1  0.7986988E-001  0.2724256E+03  0.7818608E-02  0.1099899E+00
         -2   -1    0    0    0  501 -0.00000000000E+00  0.00000000000E+00  0.22148307646E+02  0.22148307646E+02  0.00000000000E+00 0.  1.
          2   -1    0    0  501    0  0.00000000000E+00 -0.00000000000E+00 -0.83771334640E+03  0.83771334640E+03  0.00000000000E+00 0.  1.
         35    2    1    2    0    0  0.00000000000E+00  0.35527136788E-14 -0.81556503875E+03  0.85986165404E+03  0.27242564428E+03 0.  0.
         25    2    3    3    0    0  0.11665597242E+02 -0.50655255609E+01 -0.23139874231E+03  0.26239977612E+03  0.12307119427E+03 0.  0.
         25    2    3    3    0    0 -0.11665597242E+02  0.50655255609E+01 -0.58416629644E+03  0.59746187792E+03  0.12469437822E+03 0.  0.
          5    1    4    4  502    0  0.15139470263E+02  0.55899838235E+02 -0.14744588254E+03  0.15848146186E+03  0.47000000000E+01 0. -1.
         -5    1    4    4    0  502 -0.34738730210E+01 -0.60965363796E+02 -0.83952859773E+02  0.10391831427E+03  0.47000000000E+01 0. -1.
          5    1    5    5  503    0  0.32082312741E+02 -0.20498362792E+02 -0.62597636566E+02  0.73416699541E+02  0.47000000000E+01 0.  1.
         -5    1    5    5    0  503 -0.43747909983E+02  0.25563888353E+02 -0.52156865988E+03  0.52404517838E+03  0.47000000000E+01 0.  1.
<mgrwt>
<rscale>  0 0.27242564E+03</rscale>
<asrwt>0</asrwt>
<pdfrwt beam="1">  1        2 0.12887898E+00 0.27242564E+03</pdfrwt>
<pdfrwt beam="2">  1       -2 0.34074318E-02 0.27242564E+03</pdfrwt>
<totfact> 0.11651971E+04</totfact>
</mgrwt>
</event>
<event>
 9    1  0.7986988E-001  0.2640763E+03  0.7818608E-02  0.1104719E+00
         -2   -1    0    0    0  501 -0.00000000000E+00  0.00000000000E+00  0.60990968063E+02  0.60990968063E+02  0.00000000000E+00 0.  1.
          2   -1    0    0  501    0  0.00000000000E+00 -0.00000000000E+00 -0.28584669547E+03  0.28584669547E+03  0.00000000000E+00 0.  1.
         35    2    1    2    0    0  0.71054273576E-14 -0.71054273576E-14 -0.22485572740E+03  0.34683766353E+03  0.26407625167E+03 0.  0.
         25    2    3    3    0    0  0.16408316487E+02 -0.28268200019E+02 -0.79717355949E+02  0.15184175003E+03  0.12503094109E+03 0.  0.
         25    2    3    3    0    0 -0.16408316487E+02  0.28268200019E+02 -0.14513837145E+03  0.19499591350E+03  0.12605528721E+03 0.  0.
          5    1    4    4  502    0  0.20975246318E+02  0.42223021795E+02 -0.63473637708E+02  0.79206926537E+02  0.47000000000E+01 0.  1.
         -5    1    4    4    0  502 -0.45669298308E+01 -0.70491221814E+02 -0.16243718242E+02  0.72634823488E+02  0.47000000000E+01 0.  1.
          5    1    5    5  503    0 -0.52072922233E+02  0.80765589735E+00 -0.14000250069E+03  0.14944909413E+03  0.47000000000E+01 0.  1.
         -5    1    5    5    0  503  0.35664605746E+02  0.27460544122E+02 -0.51358707672E+01  0.45546819373E+02  0.47000000000E+01 0.  1.
<mgrwt>
<rscale>  0 0.26407625E+03</rscale>
<asrwt>0</asrwt>
<pdfrwt beam="1">  1        2 0.43976415E-01 0.26407625E+03</pdfrwt>
<pdfrwt beam="2">  1       -2 0.93832258E-02 0.26407625E+03</pdfrwt>
<totfact> 0.83798974E+03</totfact>
</mgrwt>
</event>
<event>
 9    1  0.7986988E-001  0.2754647E+03  0.7818608E-02  0.1098192E+00
         -1   -1    0    0    0  501 -0.00000000000E+00  0.00000000000E+00  0.11820332734E+02  0.11820332734E+02  0.00000000000E+00 0.  1.
          1   -1    0    0  501    0  0.00000000000E+00 -0.00000000000E+00 -0.16048790700E+04  0.16048790700E+04  0.00000000000E+00 0.  1.
         35    2    1    2    0    0  0.00000000000E+00  0.71054273576E-14 -0.15930587372E+04  0.16166994027E+04  0.27546473171E+03 0.  0.
         25    2    3    3    0    0  0.43744482977E+02 -0.22080454658E+02 -0.97237774577E+03  0.98157050701E+03  0.12474395170E+03 0.  0.
         25    2    3    3    0    0 -0.43744482977E+02  0.22080454658E+02 -0.62068099145E+03  0.63512889568E+03  0.12546989565E+03 0.  0.
          5    1    4    4  502    0 -0.19828375925E+02  0.39670171342E+02 -0.37324115402E+03  0.37589617721E+03  0.47000000000E+01 0.  1.
         -5    1    4    4    0  502  0.63572858901E+02 -0.61750626001E+02 -0.59913659175E+03  0.60567432980E+03  0.47000000000E+01 0.  1.
          5    1    5    5  503    0 -0.22176344929E+02 -0.38664808744E+02 -0.90165675354E+02  0.10069109554E+03  0.47000000000E+01 0. -1.
         -5    1    5    5    0  503 -0.21568138047E+02  0.60745263403E+02 -0.53051531609E+03  0.53443780014E+03  0.47000000000E+01 0. -1.
<mgrwt>
<rscale>  0 0.27546473E+03</rscale>
<asrwt>0</asrwt>
<pdfrwt beam="1">  1        1 0.24690453E+00 0.27546473E+03</pdfrwt>
<pdfrwt beam="2">  1       -1 0.18185123E-02 0.27546473E+03</pdfrwt>
<totfact> 0.48089181E+03</totfact>
</mgrwt>
</event>
<event>
 9    1  0.7986988E-001  0.2760288E+03  0.7818608E-02  0.1097878E+00
         -2   -1    0    0    0  501 -0.00000000000E+00  0.00000000000E+00  0.17949792989E+02  0.17949792989E+02  0.00000000000E+00 0.  1.
          2   -1    0    0  501    0  0.00000000000E+00 -0.00000000000E+00 -0.10611810991E+04  0.10611810991E+04  0.00000000000E+00 0.  1.
         35    2    1    2    0    0  0.00000000000E+00 -0.71054273576E-14 -0.10432313061E+04  0.10791308921E+04  0.27602884670E+03 0.  0.
         25    2    3    3    0    0 -0.14665460629E+02 -0.27359066967E+02 -0.70926999608E+03  0.72113568132E+03  0.12652726684E+03 0.  0.
         25    2    3    3    0    0  0.14665460629E+02  0.27359066967E+02 -0.33396131002E+03  0.35799521076E+03  0.12516716844E+03 0.  0.
          5    1    4    4  502    0  0.41253070379E+02 -0.63216526075E+00 -0.52551862114E+03  0.52715664333E+03  0.47000000000E+01 0. -1.
         -5    1    4    4    0  502 -0.55918531008E+02 -0.26726901706E+02 -0.18375137494E+03  0.19397903799E+03  0.47000000000E+01 0. -1.
          5    1    5    5  503    0 -0.32817596464E+02 -0.23939514767E+01 -0.27317025289E+03  0.27518503358E+03  0.47000000000E+01 0.  1.
         -5    1    5    5    0  503  0.47483057093E+02  0.29753018444E+02 -0.60791057125E+02  0.82810177175E+02  0.47000000000E+01 0.  1.
<mgrwt>
<rscale>  0 0.27602885E+03</rscale>
<asrwt>0</asrwt>
<pdfrwt beam="1">  1        2 0.16325862E+00 0.27602885E+03</pdfrwt>
<pdfrwt beam="2">  1       -2 0.27615068E-02 0.27602885E+03</pdfrwt>
<totfact> 0.11526628E+04</totfact>
</mgrwt>
</event>
<event>
 9    1  0.7986988E-001  0.2779296E+03  0.7818608E-02  0.1096825E+00
          2   -1    0    0  501    0  0.00000000000E+00  0.00000000000E+00  0.20661813994E+03  0.20661813994E+03  0.00000000000E+00 0. -1.
         -2   -1    0    0    0  501 -0.00000000000E+00 -0.00000000000E+00 -0.93463306163E+02  0.93463306163E+02  0.00000000000E+00 0. -1.
         35    2    1    2    0    0  0.00000000000E+00  0.35527136788E-14  0.11315483378E+03  0.30008144610E+03  0.27792959160E+03 0.  0.
         25    2    3    3    0    0 -0.85826491606E+01  0.21420051025E+02  0.11888044252E+03  0.17443481939E+03  0.12554866048E+03 0.  0.
         25    2    3    3    0    0  0.85826491606E+01 -0.21420051025E+02 -0.57256087481E+01  0.12564662671E+03  0.12337670670E+03 0.  0.
          5    1    4    4  502    0  0.13162078637E+02  0.61241631951E+02  0.20638476014E+02  0.66119698201E+02  0.47000000000E+01 0.  1.
         -5    1    4    4    0  502 -0.21744727798E+02 -0.39821580925E+02  0.98241966511E+02  0.10831512119E+03  0.47000000000E+01 0.  1.
          5    1    5    5  503    0 -0.56751998170E+02 -0.17694039692E+02 -0.68774999389E+01  0.60027146711E+02  0.47000000000E+01 0. -1.
         -5    1    5    5    0  503  0.65334647330E+02 -0.37260113339E+01  0.11518911908E+01  0.65619480001E+02  0.47000000000E+01 0. -1.
<mgrwt>
<rscale>  0 0.27792959E+03</rscale>
<asrwt>0</asrwt>
<pdfrwt beam="1">  1        2 0.31787406E-01 0.27792959E+03</pdfrwt>
<pdfrwt beam="2">  1       -2 0.14378970E-01 0.27792959E+03</pdfrwt>
<totfact> 0.59989624E+03</totfact>
</mgrwt>
</event>
<event>
 9    1  0.7986988E-001  0.2721456E+03  0.7818608E-02  0.1100058E+00
         -2   -1    0    0    0  501 -0.00000000000E+00  0.00000000000E+00  0.11795824138E+03  0.11795824138E+03  0.00000000000E+00 0.  1.
          2   -1    0    0  501    0  0.00000000000E+00 -0.00000000000E+00 -0.15696912693E+03  0.15696912693E+03  0.00000000000E+00 0.  1.
         35    2    1    2    0    0  0.00000000000E+00  0.00000000000E+00 -0.39010885556E+02  0.27492736831E+03  0.27214556519E+03 0.  0.
         25    2    3    3    0    0  0.48714357523E+02 -0.21980278102E+02 -0.26105460318E+02  0.13840470934E+03  0.12497258601E+03 0.  0.
         25    2    3    3    0    0 -0.48714357523E+02  0.21980278102E+02 -0.12905425238E+02  0.13652265897E+03  0.12496265505E+03 0.  0.
          5    1    4    4  502    0  0.60565482353E+02  0.24539266818E+02  0.23129361151E+02  0.69479569773E+02  0.47000000000E+01 0. -1.
         -5    1    4    4    0  502 -0.11851124831E+02 -0.46519544920E+02 -0.49234821469E+02  0.68925139568E+02  0.47000000000E+01 0. -1.
          5    1    5    5  503    0 -0.79798649993E+02  0.49098932368E+02 -0.31017557032E+01  0.93862881848E+02  0.47000000000E+01 0. -1.
         -5    1    5    5    0  503  0.31084292470E+02 -0.27118654266E+02 -0.98036695347E+01  0.42659777120E+02  0.47000000000E+01 0. -1.
<mgrwt>
<rscale>  0 0.27214557E+03</rscale>
<asrwt>0</asrwt>
<pdfrwt beam="1">  1        2 0.24149096E-01 0.27214557E+03</pdfrwt>
<pdfrwt beam="2">  1       -2 0.18147422E-01 0.27214557E+03</pdfrwt>
<totfact> 0.55125149E+03</totfact>
</mgrwt>
</event>
<event>
 9    1  0.7986988E-001  0.2740021E+03  0.7818608E-02  0.1099011E+00
         -2   -1    0    0    0  501 -0.00000000000E+00  0.00000000000E+00  0.80542857144E+01  0.80542857144E+01  0.00000000000E+00 0.  1.
          2   -1    0    0  501    0  0.00000000000E+00 -0.00000000000E+00 -0.23303470432E+04  0.23303470432E+04  0.00000000000E+00 0.  1.
         35    2    1    2    0    0  0.71054273576E-14  0.00000000000E+00 -0.23222927575E+04  0.23384013289E+04  0.27400205035E+03 0.  0.
         25    2    3    3    0    0  0.36919925378E+02 -0.77237786170E+01 -0.15197131238E+04  0.15253135025E+04  0.12502225590E+03 0.  0.
         25    2    3    3    0    0 -0.36919925378E+02  0.77237786170E+01 -0.80257963366E+03  0.81308782643E+03  0.12471971571E+03 0.  0.
          5    1    4    4  502    0 -0.12193332393E+02 -0.35792234850E+01 -0.13008270472E+04  0.13008976074E+04  0.47000000000E+01 0.  1.
         -5    1    4    4    0  502  0.49113257770E+02 -0.41445551320E+01 -0.21888607660E+03  0.22441589506E+03  0.47000000000E+01 0.  1.
          5    1    5    5  503    0 -0.10517617380E+02 -0.16150204496E+02 -0.15462197453E+02  0.25151917038E+02  0.47000000000E+01 0.  1.
         -5    1    5    5    0  503 -0.26402307997E+02  0.23873983113E+02 -0.78711743620E+03  0.78793590939E+03  0.47000000000E+01 0.  1.
<mgrwt>
<rscale>  0 0.27400205E+03</rscale>
<asrwt>0</asrwt>
<pdfrwt beam="1">  1        2 0.35851482E+00 0.27400205E+03</pdfrwt>
<pdfrwt beam="2">  1       -2 0.12391213E-02 0.27400205E+03</pdfrwt>
<totfact> 0.77358204E+03</totfact>
</mgrwt>
</event>
<event>
 9    1  0.7986988E-001  0.2768667E+03  0.7818608E-02  0.1097413E+00
          1   -1    0    0  501    0  0.00000000000E+00  0.00000000000E+00  0.11700255049E+04  0.11700255049E+04  0.00000000000E+00 0. -1.
         -1   -1    0    0    0  501 -0.00000000000E+00 -0.00000000000E+00 -0.16378957965E+02  0.16378957965E+02  0.00000000000E+00 0. -1.
         35    2    1    2    0    0  0.00000000000E+00  0.35527136788E-14  0.11536465470E+04  0.11864044629E+04  0.27686674458E+03 0.  0.
         25    2    3    3    0    0  0.32126198383E+02 -0.28774900687E+02  0.78915720699E+03  0.80011698497E+03  0.12473173115E+03 0.  0.
         25    2    3    3    0    0 -0.32126198383E+02  0.28774900687E+02  0.36448933996E+03  0.38628747791E+03  0.12043856989E+03 0.  0.
          5    1    4    4  502    0 -0.45504840362E+02 -0.14678902896E+01  0.19680824903E+03  0.20206044166E+03  0.47000000000E+01 0.  1.
         -5    1    4    4    0  502  0.77631038745E+02 -0.27307010397E+02  0.59234895796E+03  0.59805654331E+03  0.47000000000E+01 0.  1.
          5    1    5    5  503    0 -0.16569930005E+02 -0.11386742554E+02  0.14782401092E+01  0.20700137202E+02  0.47000000000E+01 0.  1.
         -5    1    5    5    0  503 -0.15556268378E+02  0.40161643240E+02  0.36301109985E+03  0.36558734071E+03  0.47000000000E+01 0.  1.
<mgrwt>
<rscale>  0 0.27686674E+03</rscale>
<asrwt>0</asrwt>
<pdfrwt beam="1">  1        1 0.18000386E+00 0.27686674E+03</pdfrwt>
<pdfrwt beam="2">  1       -1 0.25198406E-02 0.27686674E+03</pdfrwt>
<totfact> 0.58677461E+03</totfact>
</mgrwt>
</event>
<event>
 9    1  0.7986988E-001  0.2756258E+03  0.7818608E-02  0.1098102E+00
         -2   -1    0    0    0  501 -0.00000000000E+00  0.00000000000E+00  0.30080362440E+02  0.30080362440E+02  0.00000000000E+00 0. -1.
          2   -1    0    0  501    0  0.00000000000E+00 -0.00000000000E+00 -0.63138865140E+03  0.63138865140E+03  0.00000000000E+00 0. -1.
         35    2    1    2    0    0 -0.71054273576E-14  0.00000000000E+00 -0.60130828896E+03  0.66146901384E+03  0.27562582952E+03 0.  0.
         25    2    3    3    0    0  0.53986411856E+02  0.12361181675E+01 -0.36112334237E+03  0.38604784413E+03  0.12532680838E+03 0.  0.
         25    2    3    3    0    0 -0.53986411856E+02 -0.12361181675E+01 -0.24018494659E+03  0.27542116971E+03  0.12349879150E+03 0.  0.
          5    1    4    4  502    0  0.87141221035E+01  0.14059874998E+02  0.41797853924E+01  0.17696796742E+02  0.47000000000E+01 0. -1.
         -5    1    4    4    0  502  0.45272289753E+02 -0.12823756831E+02 -0.36530312776E+03  0.36835104739E+03  0.47000000000E+01 0. -1.
          5    1    5    5  503    0 -0.36815012790E+02  0.51410196248E+02 -0.61653755851E+02  0.88439974308E+02  0.47000000000E+01 0.  1.
         -5    1    5    5    0  503 -0.17171399066E+02 -0.52646314415E+02 -0.17853119074E+03  0.18698119540E+03  0.47000000000E+01 0.  1.
<mgrwt>
<rscale>  0 0.27562583E+03</rscale>
<asrwt>0</asrwt>
<pdfrwt beam="1">  1        2 0.97136702E-01 0.27562583E+03</pdfrwt>
<pdfrwt beam="2">  1       -2 0.46277487E-02 0.27562583E+03</pdfrwt>
<totfact> 0.10420308E+04</totfact>
</mgrwt>
</event>
<event>
 9    1  0.7986988E-001  0.2749461E+03  0.7818608E-02  0.1098482E+00
         -1   -1    0    0    0  501 -0.00000000000E+00  0.00000000000E+00  0.76285189527E+03  0.76285189527E+03  0.00000000000E+00 0.  1.
          1   -1    0    0  501    0  0.00000000000E+00 -0.00000000000E+00 -0.24773925393E+02  0.24773925393E+02  0.00000000000E+00 0.  1.
         35    2    1    2    0    0  0.71054273576E-14  0.35527136788E-14  0.73807796987E+03  0.78762582066E+03  0.27494607427E+03 0.  0.
         25    2    3    3    0    0 -0.18567182775E+02  0.22726822848E+02  0.22505304151E+03  0.25902379469E+03  0.12483271194E+03 0.  0.
         25    2    3    3    0    0  0.18567182775E+02 -0.22726822848E+02  0.51302492837E+03  0.52860202597E+03  0.12395271672E+03 0.  0.
          5    1    4    4  502    0 -0.68580106888E+02  0.87561204743E+00  0.89763311518E+02  0.11306431732E+03  0.47000000000E+01 0.  1.
         -5    1    4    4    0  502  0.50012924113E+02  0.21851210801E+02  0.13528972999E+03  0.14595947736E+03  0.47000000000E+01 0.  1.
          5    1    5    5  503    0  0.23948134444E+02 -0.35214625210E+02  0.52107432575E+02  0.67460043741E+02  0.47000000000E+01 0.  1.
         -5    1    5    5    0  503 -0.53809516692E+01  0.12487802361E+02  0.46091749579E+03  0.46114198223E+03  0.47000000000E+01 0.  1.
<mgrwt>
<rscale>  0 0.27494607E+03</rscale>
<asrwt>0</asrwt>
<pdfrwt beam="1">  1        1 0.38113737E-02 0.27494607E+03</pdfrwt>
<pdfrwt beam="2">  1       -1 0.11736181E+00 0.27494607E+03</pdfrwt>
<totfact> 0.16955860E+03</totfact>
</mgrwt>
</event>
<event>
 9    1  0.7986988E-001  0.2729044E+03  0.7818608E-02  0.1099629E+00
          1   -1    0    0  501    0  0.00000000000E+00  0.00000000000E+00  0.21860147331E+03  0.21860147331E+03  0.00000000000E+00 0.  1.
         -1   -1    0    0    0  501 -0.00000000000E+00 -0.00000000000E+00 -0.85174168243E+02  0.85174168243E+02  0.00000000000E+00 0.  1.
         35    2    1    2    0    0  0.00000000000E+00  0.71054273576E-14  0.13342730506E+03  0.30377564155E+03  0.27290436908E+03 0.  0.
         25    2    3    3    0    0 -0.40049591381E+02  0.27121339627E+02  0.43779508384E+02  0.14047344252E+03  0.12440500740E+03 0.  0.
         25    2    3    3    0    0  0.40049591381E+02 -0.27121339627E+02  0.89647796680E+02  0.16330219903E+03  0.12763754904E+03 0.  0.
          5    1    4    4  502    0 -0.44294185371E+02  0.73366942536E+02  0.20183554454E+02  0.88171134649E+02  0.47000000000E+01 0. -1.
         -5    1    4    4    0  502  0.42445939904E+01 -0.46245602909E+02  0.23595953929E+02  0.52302307869E+02  0.47000000000E+01 0. -1.
          5    1    5    5  503    0  0.80340793929E+01  0.38477958818E+02 -0.88989523699E+01  0.40575621989E+02  0.47000000000E+01 0. -1.
         -5    1    5    5    0  503  0.32015511988E+02 -0.65599298446E+02  0.98546749049E+02  0.12272657704E+03  0.47000000000E+01 0. -1.
<mgrwt>
<rscale>  0 0.27290437E+03</rscale>
<asrwt>0</asrwt>
<pdfrwt beam="1">  1        1 0.33630996E-01 0.27290437E+03</pdfrwt>
<pdfrwt beam="2">  1       -1 0.13103718E-01 0.27290437E+03</pdfrwt>
<totfact> 0.51823645E+03</totfact>
</mgrwt>
</event>
<event>
 9    1  0.7986988E-001  0.2734549E+03  0.7818608E-02  0.1099318E+00
          2   -1    0    0  501    0  0.00000000000E+00  0.00000000000E+00  0.35458990749E+04  0.35458990749E+04  0.00000000000E+00 0.  1.
         -2   -1    0    0    0  501 -0.00000000000E+00 -0.00000000000E+00 -0.52721158005E+01  0.52721158005E+01  0.00000000000E+00 0.  1.
         35    2    1    2    0    0  0.00000000000E+00 -0.14210854715E-13  0.35406269591E+04  0.35511711907E+04  0.27345486311E+03 0.  0.
         25    2    3    3    0    0  0.39339320136E+02  0.39115094146E+02  0.15375613375E+04  0.15435191326E+04  0.12360774007E+03 0.  0.
         25    2    3    3    0    0 -0.39339320136E+02 -0.39115094146E+02  0.20030656216E+04  0.20076520581E+04  0.12376319846E+03 0.  0.
          5    1    4    4  502    0 -0.23698612982E+02 -0.31913588346E+02  0.50964867376E+03  0.51121811592E+03  0.47000000000E+01 0. -1.
         -5    1    4    4    0  502  0.63037933118E+02  0.71028682492E+02  0.10279126638E+04  0.10323010167E+04  0.47000000000E+01 0. -1.
          5    1    5    5  503    0 -0.75901442316E+02 -0.33167439104E+02  0.17368672643E+04  0.17388476333E+04  0.47000000000E+01 0.  1.
         -5    1    5    5    0  503  0.36562122180E+02 -0.59476550422E+01  0.26619835730E+03  0.26880442483E+03  0.47000000000E+01 0.  1.
<mgrwt>
<rscale>  0 0.27345486E+03</rscale>
<asrwt>0</asrwt>
<pdfrwt beam="1">  1        2 0.54552103E+00 0.27345486E+03</pdfrwt>
<pdfrwt beam="2">  1       -2 0.81109757E-03 0.27345486E+03</pdfrwt>
<totfact> 0.27313378E+03</totfact>
</mgrwt>
</event>
<event>
 9    1  0.7986988E-001  0.2740223E+03  0.7818608E-02  0.1098999E+00
          1   -1    0    0  501    0  0.00000000000E+00  0.00000000000E+00  0.98032101686E+02  0.98032101686E+02  0.00000000000E+00 0.  1.
         -1   -1    0    0    0  501 -0.00000000000E+00 -0.00000000000E+00 -0.19148889727E+03  0.19148889727E+03  0.00000000000E+00 0.  1.
         35    2    1    2    0    0  0.71054273576E-14  0.35527136788E-14 -0.93456795582E+02  0.28952099895E+03  0.27402232791E+03 0.  0.
         25    2    3    3    0    0  0.19822845553E+02 -0.26552254315E+02  0.52793436188E+00  0.12902671446E+03  0.12469822338E+03 0.  0.
         25    2    3    3    0    0 -0.19822845553E+02  0.26552254315E+02 -0.93984729944E+02  0.16049428450E+03  0.12580667104E+03 0.  0.
          5    1    4    4  502    0  0.70979740546E+02 -0.18618113521E+02 -0.14434656934E+02  0.74934685159E+02  0.47000000000E+01 0. -1.
         -5    1    4    4    0  502 -0.51156894992E+02 -0.79341407938E+01  0.14962591296E+02  0.54092029299E+02  0.47000000000E+01 0. -1.
          5    1    5    5  503    0 -0.65791229988E+02 -0.15005065573E+02 -0.43472831358E+02  0.80409048014E+02  0.47000000000E+01 0.  1.
         -5    1    5    5    0  503  0.45968384435E+02  0.41557319888E+02 -0.50511898586E+02  0.80085236483E+02  0.47000000000E+01 0.  1.
<mgrwt>
<rscale>  0 0.27402233E+03</rscale>
<asrwt>0</asrwt>
<pdfrwt beam="1">  1        1 0.15081862E-01 0.27402233E+03</pdfrwt>
<pdfrwt beam="2">  1       -1 0.29459830E-01 0.27402233E+03</pdfrwt>
<totfact> 0.38775319E+03</totfact>
</mgrwt>
</event>
<event>
 9    1  0.7986988E-001  0.2746911E+03  0.7818608E-02  0.1098624E+00
         -2   -1    0    0    0  501 -0.00000000000E+00  0.00000000000E+00  0.16788302143E+02  0.16788302143E+02  0.00000000000E+00 0. -1.
          2   -1    0    0  501    0  0.00000000000E+00 -0.00000000000E+00 -0.11236279952E+04  0.11236279952E+04  0.00000000000E+00 0. -1.
         35    2    1    2    0    0 -0.14210854715E-13 -0.35527136788E-14 -0.11068396931E+04  0.11404162973E+04  0.27469114496E+03 0.  0.
         25    2    3    3    0    0  0.48527121061E+02  0.20139057904E+02 -0.59763861381E+03  0.61282094664E+03  0.12496854322E+03 0.  0.
         25    2    3    3    0    0 -0.48527121061E+02 -0.20139057904E+02 -0.50920107924E+03  0.52759535070E+03  0.12771316237E+03 0.  0.
          5    1    4    4  502    0 -0.36611352738E+02 -0.18170318134E+02 -0.15096554090E+03  0.15647119910E+03  0.47000000000E+01 0.  1.
         -5    1    4    4    0  502  0.85138473799E+02  0.38309376038E+02 -0.44667307291E+03  0.45634974754E+03  0.47000000000E+01 0.  1.
          5    1    5    5  503    0 -0.71242322506E+02 -0.49938015528E+02 -0.23176923614E+03  0.24760521548E+03  0.47000000000E+01 0. -1.
         -5    1    5    5    0  503  0.22715201445E+02  0.29798957625E+02 -0.27743184310E+03  0.27999013522E+03  0.47000000000E+01 0. -1.
<mgrwt>
<rscale>  0 0.27469114E+03</rscale>
<asrwt>0</asrwt>
<pdfrwt beam="1">  1        2 0.17286583E+00 0.27469114E+03</pdfrwt>
<pdfrwt beam="2">  1       -2 0.25828159E-02 0.27469114E+03</pdfrwt>
<totfact> 0.11692968E+04</totfact>
</mgrwt>
</event>
<event>
 9    1  0.7986988E-001  0.2771128E+03  0.7818608E-02  0.1097276E+00
          1   -1    0    0  501    0  0.00000000000E+00  0.00000000000E+00  0.11617337921E+04  0.11617337921E+04  0.00000000000E+00 0. -1.
         -1   -1    0    0    0  501 -0.00000000000E+00 -0.00000000000E+00 -0.16525191494E+02  0.16525191494E+02  0.00000000000E+00 0. -1.
         35    2    1    2    0    0 -0.71054273576E-14  0.00000000000E+00  0.11452086006E+04  0.11782589836E+04  0.27711278122E+03 0.  0.
         25    2    3    3    0    0 -0.31712932225E+02  0.39706884853E+02  0.70753590041E+03  0.72027147146E+03  0.12490634673E+03 0.  0.
         25    2    3    3    0    0  0.31712932225E+02 -0.39706884853E+02  0.43767270019E+03  0.45798751213E+03  0.12495127850E+03 0.  0.
          5    1    4    4  502    0 -0.57576871311E+02  0.60370500211E+02  0.30159387510E+03  0.31295470743E+03  0.47000000000E+01 0. -1.
         -5    1    4    4    0  502  0.25863939087E+02 -0.20663615358E+02  0.40594202531E+03  0.40731676403E+03  0.47000000000E+01 0. -1.
          5    1    5    5  503    0  0.65693382378E+00 -0.44803092265E+02  0.43812638563E+02  0.62844140032E+02  0.47000000000E+01 0. -1.
         -5    1    5    5    0  503  0.31055998401E+02  0.50962074118E+01  0.39386006163E+03  0.39514337210E+03  0.47000000000E+01 0. -1.
<mgrwt>
<rscale>  0 0.27711278E+03</rscale>
<asrwt>0</asrwt>
<pdfrwt beam="1">  1        1 0.17872821E+00 0.27711278E+03</pdfrwt>
<pdfrwt beam="2">  1       -1 0.25423381E-02 0.27711278E+03</pdfrwt>
<totfact> 0.58703193E+03</totfact>
</mgrwt>
</event>
<event>
 9    1  0.7986988E-001  0.2737215E+03  0.7818608E-02  0.1099168E+00
          2   -1    0    0  501    0  0.00000000000E+00  0.00000000000E+00  0.20968541024E+04  0.20968541024E+04  0.00000000000E+00 0.  1.
         -2   -1    0    0    0  501 -0.00000000000E+00 -0.00000000000E+00 -0.89328391806E+01  0.89328391806E+01  0.00000000000E+00 0.  1.
         35    2    1    2    0    0  0.00000000000E+00  0.00000000000E+00  0.20879212632E+04  0.21057869416E+04  0.27372146779E+03 0.  0.
         25    2    3    3    0    0 -0.22955926183E+02 -0.21700720887E+02  0.13433802773E+04  0.13503825994E+04  0.13365889236E+03 0.  0.
         25    2    3    3    0    0  0.22955926183E+02  0.21700720887E+02  0.74454098586E+03  0.75540434211E+03  0.12367920046E+03 0.  0.
          5    1    4    4  502    0 -0.46285756462E+02 -0.50004486357E+02  0.12112787485E+04  0.12132028340E+04  0.47000000000E+01 0.  1.
         -5    1    4    4    0  502  0.23329830279E+02  0.28303765469E+02  0.13210152885E+03  0.13717976544E+03  0.47000000000E+01 0.  1.
          5    1    5    5  503    0  0.16212586083E+02  0.71470010159E+02  0.34772166941E+03  0.35539169894E+03  0.47000000000E+01 0.  1.
         -5    1    5    5    0  503  0.67433400994E+01 -0.49769289271E+02  0.39681931644E+03  0.40001264317E+03  0.47000000000E+01 0.  1.
<mgrwt>
<rscale>  0 0.27372147E+03</rscale>
<asrwt>0</asrwt>
<pdfrwt beam="1">  1        2 0.32259255E+00 0.27372147E+03</pdfrwt>
<pdfrwt beam="2">  1       -2 0.13742846E-02 0.27372147E+03</pdfrwt>
<totfact> 0.88568125E+03</totfact>
</mgrwt>
</event>
<event>
 9    1  0.7986988E-001  0.2857721E+03  0.7818608E-02  0.1092577E+00
         -1   -1    0    0    0  501 -0.00000000000E+00  0.00000000000E+00  0.32416700511E+03  0.32416700511E+03  0.00000000000E+00 0. -1.
          1   -1    0    0  501    0  0.00000000000E+00 -0.00000000000E+00 -0.62981181672E+02  0.62981181672E+02  0.00000000000E+00 0. -1.
         35    2    1    2    0    0  0.00000000000E+00  0.71054273576E-14  0.26118582344E+03  0.38714818678E+03  0.28577208430E+03 0.  0.
         25    2    3    3    0    0 -0.24670596106E+02  0.58017602237E+02  0.14939714896E+03  0.20746651762E+03  0.12941471066E+03 0.  0.
         25    2    3    3    0    0  0.24670596106E+02 -0.58017602237E+02  0.11178867448E+03  0.17968166916E+03  0.12575418088E+03 0.  0.
          5    1    4    4  502    0  0.68916869089E+01  0.53355615508E+02 -0.63507212836E+00  0.54007502917E+02  0.47000000000E+01 0. -1.
         -5    1    4    4    0  502 -0.31562283015E+02  0.46619867292E+01  0.15003222109E+03  0.15345901471E+03  0.47000000000E+01 0. -1.
          5    1    5    5  503    0  0.29764042727E+02 -0.65013461267E+02  0.43461176915E+01  0.71788767397E+02  0.47000000000E+01 0.  1.
         -5    1    5    5    0  503 -0.50934466210E+01  0.69958590301E+01  0.10744255679E+03  0.10789290176E+03  0.47000000000E+01 0.  1.
<mgrwt>
<rscale>  0 0.28577208E+03</rscale>
<asrwt>0</asrwt>
<pdfrwt beam="1">  1        1 0.96894128E-02 0.28577208E+03</pdfrwt>
<pdfrwt beam="2">  1       -1 0.49871846E-01 0.28577208E+03</pdfrwt>
<totfact> 0.27584845E+03</totfact>
</mgrwt>
</event>
<event>
 9    1  0.7986988E-001  0.2581109E+03  0.7818608E-02  0.1108284E+00
          2   -1    0    0  501    0  0.00000000000E+00  0.00000000000E+00  0.32325895721E+02  0.32325895721E+02  0.00000000000E+00 0. -1.
         -2   -1    0    0    0  501 -0.00000000000E+00 -0.00000000000E+00 -0.51523101779E+03  0.51523101779E+03  0.00000000000E+00 0. -1.
         35    2    1    2    0    0  0.35527136788E-14  0.53290705182E-14 -0.48290512207E+03  0.54755691351E+03  0.25811086109E+03 0.  0.
         25    2    3    3    0    0  0.13302760976E+02  0.14742316451E+01 -0.30218367247E+03  0.32726398934E+03  0.12493042064E+03 0.  0.
         25    2    3    3    0    0 -0.13302760976E+02 -0.14742316451E+01 -0.18072144960E+03  0.22029292418E+03  0.12525810668E+03 0.  0.
          5    1    4    4  502    0 -0.53445099640E+02  0.12514590518E+02 -0.16990805781E+03  0.17861643754E+03  0.47000000000E+01 0. -1.
         -5    1    4    4    0  502  0.66747860616E+02 -0.11040358873E+02 -0.13227561466E+03  0.14864755180E+03  0.47000000000E+01 0. -1.
          5    1    5    5  503    0 -0.13188558850E+02 -0.43331834516E+02 -0.17114170991E+03  0.17709647325E+03  0.47000000000E+01 0.  1.
         -5    1    5    5    0  503 -0.11420212651E+00  0.41857602871E+02 -0.95797396933E+01  0.43196450928E+02  0.47000000000E+01 0.  1.
<mgrwt>
<rscale>  0 0.25811086E+03</rscale>
<asrwt>0</asrwt>
<pdfrwt beam="1">  1        2 0.49732149E-02 0.25811086E+03</pdfrwt>
<pdfrwt beam="2">  1       -2 0.79266308E-01 0.25811086E+03</pdfrwt>
<totfact> 0.22904562E+03</totfact>
</mgrwt>
</event>
<event>
 9    1  0.7986988E-001  0.2742271E+03  0.7818608E-02  0.1098884E+00
         -2   -1    0    0    0  501 -0.00000000000E+00  0.00000000000E+00  0.16154934411E+02  0.16154934411E+02  0.00000000000E+00 0.  1.
          2   -1    0    0  501    0  0.00000000000E+00 -0.00000000000E+00 -0.11637384776E+04  0.11637384776E+04  0.00000000000E+00 0.  1.
         35    2    1    2    0    0  0.71054273576E-14  0.35527136788E-14 -0.11475835431E+04  0.11798934120E+04  0.27422705028E+03 0.  0.
         25    2    3    3    0    0  0.22474104847E+02 -0.40625243482E+01 -0.39445477115E+03  0.41475268596E+03  0.12610961317E+03 0.  0.
         25    2    3    3    0    0 -0.22474104847E+02  0.40625243482E+01 -0.75312877199E+03  0.76514072600E+03  0.13310069081E+03 0.  0.
          5    1    4    4  502    0  0.23934826035E+02  0.45412032297E+02 -0.72362431017E+02  0.88845596387E+02  0.47000000000E+01 0.  1.
         -5    1    4    4    0  502 -0.14607211874E+01 -0.49474556645E+02 -0.32209234013E+03  0.32590708957E+03  0.47000000000E+01 0.  1.
          5    1    5    5  503    0  0.38324184833E+02  0.19426449583E+02 -0.99356317730E+02  0.10835080968E+03  0.47000000000E+01 0.  1.
         -5    1    5    5    0  503 -0.60798289680E+02 -0.15363925235E+02 -0.65377245426E+03  0.65678991632E+03  0.47000000000E+01 0.  1.
<mgrwt>
<rscale>  0 0.27422705E+03</rscale>
<asrwt>0</asrwt>
<pdfrwt beam="1">  1        2 0.17903671E+00 0.27422705E+03</pdfrwt>
<pdfrwt beam="2">  1       -2 0.24853743E-02 0.27422705E+03</pdfrwt>
<totfact> 0.11733577E+04</totfact>
</mgrwt>
</event>
<event>
 9    1  0.7986988E-001  0.2712163E+03  0.7818608E-02  0.1100585E+00
         -1   -1    0    0    0  501 -0.00000000000E+00  0.00000000000E+00  0.36424351669E+03  0.36424351669E+03  0.00000000000E+00 0. -1.
          1   -1    0    0  501    0  0.00000000000E+00 -0.00000000000E+00 -0.50487031863E+02  0.50487031863E+02  0.00000000000E+00 0. -1.
         35    2    1    2    0    0 -0.14210854715E-13 -0.35527136788E-14  0.31375648483E+03  0.41473054856E+03  0.27121632719E+03 0.  0.
         25    2    3    3    0    0  0.33669835941E+02 -0.66005509152E+01  0.96726430570E+02  0.16198445131E+03  0.12532252379E+03 0.  0.
         25    2    3    3    0    0 -0.33669835941E+02  0.66005509152E+01  0.21703005426E+03  0.25274609725E+03  0.12490524447E+03 0.  0.
          5    1    4    4  502    0 -0.41405809451E+02  0.24603158770E+02  0.39206942814E+02  0.62281866081E+02  0.47000000000E+01 0. -1.
         -5    1    4    4    0  502  0.75075645392E+02 -0.31203709685E+02  0.57519487756E+02  0.99702585227E+02  0.47000000000E+01 0. -1.
          5    1    5    5  503    0  0.45211649242E+01 -0.52956207739E+02  0.12976134289E+03  0.14030287588E+03  0.47000000000E+01 0.  1.
         -5    1    5    5    0  503 -0.38191000865E+02  0.59556758654E+02  0.87268711371E+02  0.11244322137E+03  0.47000000000E+01 0.  1.
<mgrwt>
<rscale>  0 0.27121633E+03</rscale>
<asrwt>0</asrwt>
<pdfrwt beam="1">  1        1 0.77672359E-02 0.27121633E+03</pdfrwt>
<pdfrwt beam="2">  1       -1 0.56037462E-01 0.27121633E+03</pdfrwt>
<totfact> 0.29887969E+03</totfact>
</mgrwt>
</event>
<event>
 9    1  0.7986988E-001  0.2771895E+03  0.7818608E-02  0.1097234E+00
          2   -1    0    0  501    0  0.00000000000E+00  0.00000000000E+00  0.21346474935E+04  0.21346474935E+04  0.00000000000E+00 0.  1.
         -2   -1    0    0    0  501 -0.00000000000E+00 -0.00000000000E+00 -0.89984424382E+01  0.89984424382E+01  0.00000000000E+00 0.  1.
         35    2    1    2    0    0  0.00000000000E+00  0.35527136788E-14  0.21256490510E+04  0.21436459359E+04  0.27718948462E+03 0.  0.
         25    2    3    3    0    0 -0.20641656229E+02 -0.21453685441E+02  0.64914167555E+03  0.66176674027E+03  0.12515576297E+03 0.  0.
         25    2    3    3    0    0  0.20641656229E+02  0.21453685441E+02  0.14765073755E+04  0.14818791956E+04  0.12249727350E+03 0.  0.
          5    1    4    4  502    0 -0.55250839332E+01 -0.74157519048E+01 -0.17595807334E+01  0.10521694404E+02  0.47000000000E+01 0.  1.
         -5    1    4    4    0  502 -0.15116572296E+02 -0.14037933536E+02  0.65090125628E+03  0.65124504587E+03  0.47000000000E+01 0.  1.
          5    1    5    5  503    0  0.38977650120E+02 -0.43372501790E+02  0.66990254410E+03  0.67245218396E+03  0.47000000000E+01 0.  1.
         -5    1    5    5    0  503 -0.18335993892E+02  0.64826187231E+02  0.80660483139E+03  0.80942701168E+03  0.47000000000E+01 0.  1.
<mgrwt>
<rscale>  0 0.27718948E+03</rscale>
<asrwt>0</asrwt>
<pdfrwt beam="1">  1        2 0.32840690E+00 0.27718948E+03</pdfrwt>
<pdfrwt beam="2">  1       -2 0.13843775E-02 0.27718948E+03</pdfrwt>
<totfact> 0.83690481E+03</totfact>
</mgrwt>
</event>
<event>
 9    1  0.7986988E-001  0.2736645E+03  0.7818608E-02  0.1099200E+00
          2   -1    0    0  501    0  0.00000000000E+00  0.00000000000E+00  0.13493629380E+04  0.13493629380E+04  0.00000000000E+00 0.  1.
         -2   -1    0    0    0  501 -0.00000000000E+00 -0.00000000000E+00 -0.13875483542E+02  0.13875483542E+02  0.00000000000E+00 0.  1.
         35    2    1    2    0    0  0.71054273576E-14  0.00000000000E+00  0.13354874545E+04  0.13632384216E+04  0.27366448976E+03 0.  0.
         25    2    3    3    0    0 -0.19628174697E+02 -0.44066020643E+02  0.79319287040E+03  0.80443074867E+03  0.12500728114E+03 0.  0.
         25    2    3    3    0    0  0.19628174697E+02  0.44066020643E+02  0.54229458407E+03  0.55880767288E+03  0.12591870371E+03 0.  0.
          5    1    4    4  502    0 -0.48520053268E+02  0.27113634172E+02  0.28039206116E+03  0.28588659060E+03  0.47000000000E+01 0. -1.
         -5    1    4    4    0  502  0.28891878571E+02 -0.71179654815E+02  0.51280080924E+03  0.51854415807E+03  0.47000000000E+01 0. -1.
          5    1    5    5  503    0  0.63056004130E+02  0.30332104604E+01  0.16396862874E+03  0.17576422057E+03  0.47000000000E+01 0. -1.
         -5    1    5    5    0  503 -0.43427829433E+02  0.41032810183E+02  0.37832595533E+03  0.38304345231E+03  0.47000000000E+01 0. -1.
<mgrwt>
<rscale>  0 0.27366449E+03</rscale>
<asrwt>0</asrwt>
<pdfrwt beam="1">  1        2 0.20759420E+00 0.27366449E+03</pdfrwt>
<pdfrwt beam="2">  1       -2 0.21346908E-02 0.27366449E+03</pdfrwt>
<totfact> 0.11560385E+04</totfact>
</mgrwt>
</event>
<event>
 9    1  0.7986988E-001  0.2747007E+03  0.7818608E-02  0.1098619E+00
          2   -1    0    0  501    0  0.00000000000E+00  0.00000000000E+00  0.74065631978E+03  0.74065631978E+03  0.00000000000E+00 0.  1.
         -2   -1    0    0    0  501 -0.00000000000E+00 -0.00000000000E+00 -0.25470809067E+02  0.25470809067E+02  0.00000000000E+00 0.  1.
         35    2    1    2    0    0  0.35527136788E-14  0.00000000000E+00  0.71518551071E+03  0.76612712885E+03  0.27470067860E+03 0.  0.
         25    2    3    3    0    0 -0.11386942559E+02  0.45961583977E+02  0.26526361176E+03  0.29667706647E+03  0.12413850483E+03 0.  0.
         25    2    3    3    0    0  0.11386942559E+02 -0.45961583977E+02  0.44992189895E+03  0.46945006237E+03  0.12534558727E+03 0.  0.
          5    1    4    4  502    0 -0.14728919765E+02  0.88379824853E+02  0.18915597482E+03  0.20935617337E+03  0.47000000000E+01 0. -1.
         -5    1    4    4    0  502  0.33419772061E+01 -0.42418240876E+02  0.76107636942E+02  0.87320893099E+02  0.47000000000E+01 0. -1.
          5    1    5    5  503    0  0.27330616881E+02 -0.85697329845E+02  0.27870671621E+03  0.29290018542E+03  0.47000000000E+01 0.  1.
         -5    1    5    5    0  503 -0.15943674322E+02  0.39735745868E+02  0.17121518274E+03  0.17654987695E+03  0.47000000000E+01 0.  1.
<mgrwt>
<rscale>  0 0.27470068E+03</rscale>
<asrwt>0</asrwt>
<pdfrwt beam="1">  1        2 0.11394711E+00 0.27470068E+03</pdfrwt>
<pdfrwt beam="2">  1       -2 0.39185866E-02 0.27470068E+03</pdfrwt>
<totfact> 0.11046764E+04</totfact>
</mgrwt>
</event>
<event>
 9    1  0.7986988E-001  0.2758572E+03  0.7818608E-02  0.1097973E+00
          2   -1    0    0  501    0  0.00000000000E+00  0.00000000000E+00  0.13506986722E+03  0.13506986722E+03  0.00000000000E+00 0.  1.
         -2   -1    0    0    0  501 -0.00000000000E+00 -0.00000000000E+00 -0.14084786754E+03  0.14084786754E+03  0.00000000000E+00 0.  1.
         35    2    1    2    0    0  0.00000000000E+00  0.35527136788E-14 -0.57780003204E+01  0.27591773476E+03  0.27585722950E+03 0.  0.
         25    2    3    3    0    0 -0.55828693979E+01  0.26252855336E+02  0.25997498361E+02  0.14266478499E+03  0.13768438586E+03 0.  0.
         25    2    3    3    0    0  0.55828693979E+01 -0.26252855336E+02 -0.31775498681E+02  0.13325294977E+03  0.12659496618E+03 0.  0.
          5    1    4    4  502    0 -0.24843693678E+02  0.64225749348E+02 -0.27352220468E+02  0.74245470969E+02  0.47000000000E+01 0. -1.
         -5    1    4    4    0  502  0.19260824280E+02 -0.37972894012E+02  0.53349718829E+02  0.68419314018E+02  0.47000000000E+01 0. -1.
          5    1    5    5  503    0 -0.45355025128E+02 -0.37734729068E+02 -0.50275495642E+02  0.77657604549E+02  0.47000000000E+01 0. -1.
         -5    1    5    5    0  503  0.50937894526E+02  0.11481873732E+02  0.18499996961E+02  0.55595345225E+02  0.47000000000E+01 0. -1.
<mgrwt>
<rscale>  0 0.27585723E+03</rscale>
<asrwt>0</asrwt>
<pdfrwt beam="1">  1        2 0.20779980E-01 0.27585723E+03</pdfrwt>
<pdfrwt beam="2">  1       -2 0.21668903E-01 0.27585723E+03</pdfrwt>
<totfact> 0.48275558E+03</totfact>
</mgrwt>
</event>
<event>
 9    1  0.7986988E-001  0.2751206E+03  0.7818608E-02  0.1098384E+00
         -1   -1    0    0    0  501 -0.00000000000E+00  0.00000000000E+00  0.64024823661E+03  0.64024823661E+03  0.00000000000E+00 0. -1.
          1   -1    0    0  501    0  0.00000000000E+00 -0.00000000000E+00 -0.29555467051E+02  0.29555467051E+02  0.00000000000E+00 0. -1.
         35    2    1    2    0    0  0.00000000000E+00  0.00000000000E+00  0.61069276956E+03  0.66980370367E+03  0.27512059655E+03 0.  0.
         25    2    3    3    0    0  0.47482364040E+02  0.27842098669E+02  0.32707798453E+03  0.35478256316E+03  0.12594007227E+03 0.  0.
         25    2    3    3    0    0 -0.47482364040E+02 -0.27842098669E+02  0.28361478503E+03  0.31502114051E+03  0.12558349941E+03 0.  0.
          5    1    4    4  502    0 -0.15210160290E+02  0.60912710803E+01 -0.36488123978E+01  0.17431477026E+02  0.47000000000E+01 0.  1.
         -5    1    4    4    0  502  0.62692524330E+02  0.21750827589E+02  0.33072679693E+03  0.33735108613E+03  0.47000000000E+01 0.  1.
          5    1    5    5  503    0 -0.81826328299E+02 -0.21472323850E+02  0.25771027138E+03  0.27128081883E+03  0.47000000000E+01 0. -1.
         -5    1    5    5    0  503  0.34343964259E+02 -0.63697748196E+01  0.25904513654E+02  0.43740321672E+02  0.47000000000E+01 0. -1.
<mgrwt>
<rscale>  0 0.27512060E+03</rscale>
<asrwt>0</asrwt>
<pdfrwt beam="1">  1        1 0.45469954E-02 0.27512060E+03</pdfrwt>
<pdfrwt beam="2">  1       -1 0.98499718E-01 0.27512060E+03</pdfrwt>
<totfact> 0.19790598E+03</totfact>
</mgrwt>
</event>
<event>
 9    1  0.7986988E-001  0.2747067E+03  0.7818608E-02  0.1098616E+00
         -2   -1    0    0    0  501 -0.00000000000E+00  0.00000000000E+00  0.20081483899E+02  0.20081483899E+02  0.00000000000E+00 0.  1.
          2   -1    0    0  501    0  0.00000000000E+00 -0.00000000000E+00 -0.93946926231E+03  0.93946926231E+03  0.00000000000E+00 0.  1.
         35    2    1    2    0    0 -0.35527136788E-14  0.00000000000E+00 -0.91938777841E+03  0.95955074621E+03  0.27470665710E+03 0.  0.
         25    2    3    3    0    0  0.20334439950E+02  0.66409392969E+01 -0.63884566163E+03  0.65143329149E+03  0.12563424036E+03 0.  0.
         25    2    3    3    0    0 -0.20334439950E+02 -0.66409392969E+01 -0.28054211678E+03  0.30811745472E+03  0.12559814924E+03 0.  0.
          5    1    4    4  502    0 -0.48431935574E+01  0.54966023373E+02 -0.48506945896E+03  0.48822043204E+03  0.47000000000E+01 0.  1.
         -5    1    4    4    0  502  0.25177633507E+02 -0.48325084076E+02 -0.15377620268E+03  0.16321285945E+03  0.47000000000E+01 0.  1.
          5    1    5    5  503    0 -0.13883612335E+01 -0.65119388858E+02 -0.13130677160E+03  0.14664931170E+03  0.47000000000E+01 0.  1.
         -5    1    5    5    0  503 -0.18946078716E+02  0.58478449561E+02 -0.14923534518E+03  0.16146814302E+03  0.47000000000E+01 0.  1.
<mgrwt>
<rscale>  0 0.27470666E+03</rscale>
<asrwt>0</asrwt>
<pdfrwt beam="1">  1        2 0.14453375E+00 0.27470666E+03</pdfrwt>
<pdfrwt beam="2">  1       -2 0.30894588E-02 0.27470666E+03</pdfrwt>
<totfact> 0.11581790E+04</totfact>
</mgrwt>
</event>
<event>
 9    1  0.7986988E-001  0.2778073E+03  0.7818608E-02  0.1096893E+00
         -2   -1    0    0    0  501 -0.00000000000E+00  0.00000000000E+00  0.58868509600E+02  0.58868509600E+02  0.00000000000E+00 0.  1.
          2   -1    0    0  501    0  0.00000000000E+00 -0.00000000000E+00 -0.32775128387E+03  0.32775128387E+03  0.00000000000E+00 0.  1.
         35    2    1    2    0    0 -0.71054273576E-14 -0.71054273576E-14 -0.26888277427E+03  0.38661979347E+03  0.27780734044E+03 0.  0.
         25    2    3    3    0    0 -0.56254006550E+02  0.22606822520E+02 -0.12929600665E+03  0.18972545202E+03  0.12491080069E+03 0.  0.
         25    2    3    3    0    0  0.56254006550E+02 -0.22606822520E+02 -0.13958676762E+03  0.19689434146E+03  0.12492931731E+03 0.  0.
          5    1    4    4  502    0 -0.14874345392E+02  0.69841066441E+02 -0.45109111434E+02  0.84592804936E+02  0.47000000000E+01 0. -1.
         -5    1    4    4    0  502 -0.41379661158E+02 -0.47234243921E+02 -0.84186895215E+02  0.10513264708E+03  0.47000000000E+01 0. -1.
          5    1    5    5  503    0 -0.91288182688E+01  0.37214783432E+02 -0.10081434411E+02  0.39899884068E+02  0.47000000000E+01 0.  1.
         -5    1    5    5    0  503  0.65382824818E+02 -0.59821605952E+02 -0.12950533321E+03  0.15699445739E+03  0.47000000000E+01 0.  1.
<mgrwt>
<rscale>  0 0.27780734E+03</rscale>
<asrwt>0</asrwt>
<pdfrwt beam="1">  1        2 0.50423275E-01 0.27780734E+03</pdfrwt>
<pdfrwt beam="2">  1       -2 0.90566936E-02 0.27780734E+03</pdfrwt>
<totfact> 0.76649353E+03</totfact>
</mgrwt>
</event>
<event>
 9    1  0.7986988E-001  0.2751560E+03  0.7818608E-02  0.1098364E+00
         -2   -1    0    0    0  501 -0.00000000000E+00  0.00000000000E+00  0.47882507617E+02  0.47882507617E+02  0.00000000000E+00 0. -1.
          2   -1    0    0  501    0  0.00000000000E+00 -0.00000000000E+00 -0.39529468137E+03  0.39529468137E+03  0.00000000000E+00 0. -1.
         35    2    1    2    0    0 -0.71054273576E-14  0.35527136788E-14 -0.34741217375E+03  0.44317718899E+03  0.27515596008E+03 0.  0.
         25    2    3    3    0    0 -0.56708794341E+01 -0.30945844640E+02 -0.22271896656E+03  0.25724336249E+03  0.12482229489E+03 0.  0.
         25    2    3    3    0    0  0.56708794341E+01  0.30945844640E+02 -0.12469320719E+03  0.18593382650E+03  0.13428770511E+03 0.  0.
          5    1    4    4  502    0  0.44189908276E+02 -0.36903779110E+02 -0.47121231646E+02  0.74546209681E+02  0.47000000000E+01 0.  1.
         -5    1    4    4    0  502 -0.49860787710E+02  0.59579344700E+01 -0.17559773492E+03  0.18269715280E+03  0.47000000000E+01 0.  1.
          5    1    5    5  503    0 -0.55011014957E+02  0.42036093536E+01 -0.14496983247E+02  0.57237528086E+02  0.47000000000E+01 0. -1.
         -5    1    5    5    0  503  0.60681894391E+02  0.26742235286E+02 -0.11019622394E+03  0.12869629842E+03  0.47000000000E+01 0. -1.
<mgrwt>
<rscale>  0 0.27515596E+03</rscale>
<asrwt>0</asrwt>
<pdfrwt beam="1">  1        2 0.60814565E-01 0.27515596E+03</pdfrwt>
<pdfrwt beam="2">  1       -2 0.73665398E-02 0.27515596E+03</pdfrwt>
<totfact> 0.86451550E+03</totfact>
</mgrwt>
</event>
<event>
 9    1  0.7986988E-001  0.2757908E+03  0.7818608E-02  0.1098010E+00
         -1   -1    0    0    0  501 -0.00000000000E+00  0.00000000000E+00  0.25124802276E+02  0.25124802276E+02  0.00000000000E+00 0.  1.
          1   -1    0    0  501    0  0.00000000000E+00 -0.00000000000E+00 -0.75682725998E+03  0.75682725998E+03  0.00000000000E+00 0.  1.
         35    2    1    2    0    0 -0.35527136788E-14  0.00000000000E+00 -0.73170245770E+03  0.78195206225E+03  0.27579075593E+03 0.  0.
         25    2    3    3    0    0  0.75067862601E+01 -0.44616364987E+02 -0.46753988590E+03  0.48616291799E+03  0.12535496024E+03 0.  0.
         25    2    3    3    0    0 -0.75067862601E+01  0.44616364987E+02 -0.26416257180E+03  0.29578914426E+03  0.12514943731E+03 0.  0.
          5    1    4    4  502    0  0.48530706066E+02 -0.41539834543E+02 -0.41166150936E+03  0.41661502082E+03  0.47000000000E+01 0. -1.
         -5    1    4    4    0  502 -0.41023919806E+02 -0.30765304441E+01 -0.55878376540E+02  0.69547897169E+02  0.47000000000E+01 0. -1.
          5    1    5    5  503    0  0.21139776502E+02  0.17382057748E+02  0.87149845178E+00  0.27782649112E+02  0.47000000000E+01 0.  1.
         -5    1    5    5    0  503 -0.28646562762E+02  0.27234307239E+02 -0.26503407025E+03  0.26800649515E+03  0.47000000000E+01 0.  1.
<mgrwt>
<rscale>  0 0.27579076E+03</rscale>
<asrwt>0</asrwt>
<pdfrwt beam="1">  1        1 0.11643498E+00 0.27579076E+03</pdfrwt>
<pdfrwt beam="2">  1       -1 0.38653537E-02 0.27579076E+03</pdfrwt>
<totfact> 0.64793970E+03</totfact>
</mgrwt>
</event>
<event>
 9    1  0.7986988E-001  0.2736146E+03  0.7818608E-02  0.1099228E+00
          2   -1    0    0  501    0  0.00000000000E+00  0.00000000000E+00  0.96542002111E+02  0.96542002111E+02  0.00000000000E+00 0. -1.
         -2   -1    0    0    0  501 -0.00000000000E+00 -0.00000000000E+00 -0.19386632245E+03  0.19386632245E+03  0.00000000000E+00 0. -1.
         35    2    1    2    0    0  0.35527136788E-14 -0.71054273576E-14 -0.97324320342E+02  0.29040832456E+03  0.27361464077E+03 0.  0.
         25    2    3    3    0    0 -0.30781856275E+02 -0.12366608902E+02 -0.93845932374E+02  0.15974318226E+03  0.12494146455E+03 0.  0.
         25    2    3    3    0    0  0.30781856275E+02  0.12366608902E+02 -0.34783879673E+01  0.13066514230E+03  0.12633615689E+03 0.  0.
          5    1    4    4  502    0  0.24062533270E+02 -0.53183037059E+02 -0.28800622529E+02  0.65261066466E+02  0.47000000000E+01 0.  1.
         -5    1    4    4    0  502 -0.54844389545E+02  0.40816428157E+02 -0.65045309845E+02  0.94482115794E+02  0.47000000000E+01 0.  1.
          5    1    5    5  503    0 -0.74283494120E+01  0.58382537985E+02  0.25167368019E+02  0.64180896921E+02  0.47000000000E+01 0.  1.
         -5    1    5    5    0  503  0.38210205687E+02 -0.46015929083E+02 -0.28645755986E+02  0.66484245382E+02  0.47000000000E+01 0.  1.
<mgrwt>
<rscale>  0 0.27361464E+03</rscale>
<asrwt>0</asrwt>
<pdfrwt beam="1">  1        2 0.14852616E-01 0.27361464E+03</pdfrwt>
<pdfrwt beam="2">  1       -2 0.29825588E-01 0.27361464E+03</pdfrwt>
<totfact> 0.40521582E+03</totfact>
</mgrwt>
</event>
<event>
 9    1  0.7986988E-001  0.2792642E+03  0.7818608E-02  0.1096092E+00
         -2   -1    0    0    0  501 -0.00000000000E+00  0.00000000000E+00  0.47860251028E+02  0.47860251028E+02  0.00000000000E+00 0. -1.
          2   -1    0    0  501    0  0.00000000000E+00 -0.00000000000E+00 -0.40737609216E+03  0.40737609216E+03  0.00000000000E+00 0. -1.
         35    2    1    2    0    0  0.00000000000E+00  0.00000000000E+00 -0.35951584113E+03  0.45523634319E+03  0.27926419057E+03 0.  0.
         25    2    3    3    0    0  0.27329890412E+02 -0.32250052582E+02 -0.10017284076E+03  0.16403488468E+03  0.12282449497E+03 0.  0.
         25    2    3    3    0    0 -0.27329890412E+02  0.32250052582E+02 -0.25934300037E+03  0.29120145851E+03  0.12550899886E+03 0.  0.
          5    1    4    4  502    0 -0.19602994056E+02 -0.22326316355E+02 -0.11068669861E+03  0.11470125120E+03  0.47000000000E+01 0. -1.
         -5    1    4    4    0  502  0.46932884467E+02 -0.99237362267E+01  0.10513857850E+02  0.49333633477E+02  0.47000000000E+01 0. -1.
          5    1    5    5  503    0 -0.60151429162E+02  0.32269867910E+01 -0.53525295816E+02  0.80719608313E+02  0.47000000000E+01 0. -1.
         -5    1    5    5    0  503  0.32821538750E+02  0.29023065791E+02 -0.20581770456E+03  0.21048185020E+03  0.47000000000E+01 0. -1.
<mgrwt>
<rscale>  0 0.27926419E+03</rscale>
<asrwt>0</asrwt>
<pdfrwt beam="1">  1        2 0.62673246E-01 0.27926419E+03</pdfrwt>
<pdfrwt beam="2">  1       -2 0.73631154E-02 0.27926419E+03</pdfrwt>
<totfact> 0.83774558E+03</totfact>
</mgrwt>
</event>
<event>
 9    1  0.7986988E-001  0.2778102E+03  0.7818608E-02  0.1096891E+00
          2   -1    0    0  501    0  0.00000000000E+00  0.00000000000E+00  0.14267452298E+03  0.14267452298E+03  0.00000000000E+00 0. -1.
         -2   -1    0    0    0  501 -0.00000000000E+00 -0.00000000000E+00 -0.13523525527E+03  0.13523525527E+03  0.00000000000E+00 0. -1.
         35    2    1    2    0    0  0.00000000000E+00 -0.71054273576E-14  0.74392677113E+01  0.27790977824E+03  0.27781019085E+03 0.  0.
         25    2    3    3    0    0 -0.51202347316E+02  0.22994850076E+02  0.26158282432E+02  0.13980940342E+03  0.12534739743E+03 0.  0.
         25    2    3    3    0    0  0.51202347316E+02 -0.22994850076E+02 -0.18719014721E+02  0.13810037483E+03  0.12478328620E+03 0.  0.
          5    1    4    4  502    0 -0.14041774630E+02  0.70917463359E+02  0.30983461667E+02  0.78794180882E+02  0.47000000000E+01 0.  1.
         -5    1    4    4    0  502 -0.37160572686E+02 -0.47922613282E+02 -0.48251792352E+01  0.61015222534E+02  0.47000000000E+01 0.  1.
          5    1    5    5  503    0  0.51700542650E+02 -0.47520376331E+02  0.35189951733E+02  0.78686434536E+02  0.47000000000E+01 0. -1.
         -5    1    5    5    0  503 -0.49819533366E+00  0.24525526255E+02 -0.53908966454E+02  0.59413940290E+02  0.47000000000E+01 0. -1.
<mgrwt>
<rscale>  0 0.27781019E+03</rscale>
<asrwt>0</asrwt>
<pdfrwt beam="1">  1        2 0.21949927E-01 0.27781019E+03</pdfrwt>
<pdfrwt beam="2">  1       -2 0.20805424E-01 0.27781019E+03</pdfrwt>
<totfact> 0.48668377E+03</totfact>
</mgrwt>
</event>
<event>
 9    1  0.7986988E-001  0.2751937E+03  0.7818608E-02  0.1098343E+00
          1   -1    0    0  501    0  0.00000000000E+00  0.00000000000E+00  0.25504426987E+04  0.25504426987E+04  0.00000000000E+00 0. -1.
         -1   -1    0    0    0  501 -0.00000000000E+00 -0.00000000000E+00 -0.74233755625E+01  0.74233755625E+01  0.00000000000E+00 0. -1.
         35    2    1    2    0    0 -0.14210854715E-13 -0.71054273576E-14  0.25430193231E+04  0.25578660742E+04  0.27519370634E+03 0.  0.
         25    2    3    3    0    0  0.41418352069E+02  0.37202544353E+02  0.11121493840E+04  0.11204986388E+04  0.12466530371E+03 0.  0.
         25    2    3    3    0    0 -0.41418352069E+02 -0.37202544353E+02  0.14308699391E+04  0.14373674354E+04  0.12464691214E+03 0.  0.
          5    1    4    4  502    0  0.75158691627E+02  0.15684075069E+02  0.40739156779E+03  0.41458991623E+03  0.47000000000E+01 0. -1.
         -5    1    4    4    0  502 -0.33740339558E+02  0.21518469285E+02  0.70475781624E+03  0.70590872256E+03  0.47000000000E+01 0. -1.
          5    1    5    5  503    0 -0.82211495554E+01 -0.54318409884E+02  0.13005798504E+04  0.13017480993E+04  0.47000000000E+01 0. -1.
         -5    1    5    5    0  503 -0.33197202514E+02  0.17115865531E+02  0.13029008871E+03  0.13561933609E+03  0.47000000000E+01 0. -1.
<mgrwt>
<rscale>  0 0.27519371E+03</rscale>
<asrwt>0</asrwt>
<pdfrwt beam="1">  1        1 0.39237510E+00 0.27519371E+03</pdfrwt>
<pdfrwt beam="2">  1       -1 0.11420598E-02 0.27519371E+03</pdfrwt>
<totfact> 0.22769805E+03</totfact>
</mgrwt>
</event>
<event>
 9    1  0.7986988E-001  0.2757846E+03  0.7818608E-02  0.1098014E+00
          2   -1    0    0  501    0  0.00000000000E+00  0.00000000000E+00  0.11434383561E+04  0.11434383561E+04  0.00000000000E+00 0. -1.
         -2   -1    0    0    0  501 -0.00000000000E+00 -0.00000000000E+00 -0.16629038617E+02  0.16629038617E+02  0.00000000000E+00 0. -1.
         35    2    1    2    0    0 -0.35527136788E-14  0.00000000000E+00  0.11268093175E+04  0.11600673947E+04  0.27578455779E+03 0.  0.
         25    2    3    3    0    0 -0.26084549018E+02  0.41260954981E+02  0.43533803725E+03  0.45565859480E+03  0.12539010423E+03 0.  0.
         25    2    3    3    0    0  0.26084549018E+02 -0.41260954981E+02  0.69147128021E+03  0.70440879989E+03  0.12520525510E+03 0.  0.
          5    1    4    4  502    0  0.31765562873E+02  0.84572464542E+01  0.32536435910E+03  0.32705447891E+03  0.47000000000E+01 0.  1.
         -5    1    4    4    0  502 -0.57850111891E+02  0.32803708527E+02  0.10997367815E+03  0.12860411589E+03  0.47000000000E+01 0.  1.
          5    1    5    5  503    0  0.31845413570E+02  0.12012449474E+02  0.49890199614E+02  0.60576821684E+02  0.47000000000E+01 0. -1.
         -5    1    5    5    0  503 -0.57608645520E+01 -0.53273404455E+02  0.64158108060E+03  0.64383197821E+03  0.47000000000E+01 0. -1.
<mgrwt>
<rscale>  0 0.27578456E+03</rscale>
<asrwt>0</asrwt>
<pdfrwt beam="1">  1        2 0.17591353E+00 0.27578456E+03</pdfrwt>
<pdfrwt beam="2">  1       -2 0.25583145E-02 0.27578456E+03</pdfrwt>
<totfact> 0.11550698E+04</totfact>
</mgrwt>
</event>
<event>
 9    1  0.7986988E-001  0.2756135E+03  0.7818608E-02  0.1098109E+00
         -1   -1    0    0    0  501 -0.00000000000E+00  0.00000000000E+00  0.77681586046E+01  0.77681586046E+01  0.00000000000E+00 0.  1.
          1   -1    0    0  501    0  0.00000000000E+00 -0.00000000000E+00 -0.24446844808E+04  0.24446844808E+04  0.00000000000E+00 0.  1.
         35    2    1    2    0    0  0.00000000000E+00  0.00000000000E+00 -0.24369163222E+04  0.24524526394E+04  0.27561347417E+03 0.  0.
         25    2    3    3    0    0  0.22081270994E+02  0.51914258871E+02 -0.11069697593E+04  0.11153479741E+04  0.12424323948E+03 0.  0.
         25    2    3    3    0    0 -0.22081270994E+02 -0.51914258871E+02 -0.13299465629E+04  0.13371046653E+04  0.12612831949E+03 0.  0.
          5    1    4    4  502    0 -0.33148389906E+02  0.31530277392E+01 -0.75355477827E+03  0.75430474689E+03  0.47000000000E+01 0.  1.
         -5    1    4    4    0  502  0.55229660900E+02  0.48761231131E+02 -0.35341498103E+03  0.36104322721E+03  0.47000000000E+01 0.  1.
          5    1    5    5  503    0 -0.72302278764E+02 -0.24208658252E+02 -0.59027094023E+03  0.59519370925E+03  0.47000000000E+01 0.  1.
         -5    1    5    5    0  503  0.50221007770E+02 -0.27705600618E+02 -0.73967562272E+03  0.74191095609E+03  0.47000000000E+01 0.  1.
<mgrwt>
<rscale>  0 0.27561347E+03</rscale>
<asrwt>0</asrwt>
<pdfrwt beam="1">  1        1 0.37610550E+00 0.27561347E+03</pdfrwt>
<pdfrwt beam="2">  1       -1 0.11951007E-02 0.27561347E+03</pdfrwt>
<totfact> 0.25066074E+03</totfact>
</mgrwt>
</event>
<event>
 9    1  0.7986988E-001  0.2753829E+03  0.7818608E-02  0.1098238E+00
         -2   -1    0    0    0  501 -0.00000000000E+00  0.00000000000E+00  0.10472408929E+02  0.10472408929E+02  0.00000000000E+00 0. -1.
          2   -1    0    0  501    0  0.00000000000E+00 -0.00000000000E+00 -0.18103705880E+04  0.18103705880E+04  0.00000000000E+00 0. -1.
         35    2    1    2    0    0 -0.35527136788E-14  0.14210854715E-13 -0.17998981790E+04  0.18208429969E+04  0.27538294145E+03 0.  0.
         25    2    3    3    0    0  0.18893958856E+02 -0.43920694252E+02 -0.70229024998E+03  0.71492176826E+03  0.12496211604E+03 0.  0.
         25    2    3    3    0    0 -0.18893958856E+02  0.43920694252E+02 -0.10976079291E+04  0.11059212286E+04  0.12661986006E+03 0.  0.
          5    1    4    4  502    0 -0.38729108131E+02  0.99580901549E+01 -0.41536830637E+03  0.41731526130E+03  0.47000000000E+01 0. -1.
         -5    1    4    4    0  502  0.57623066987E+02 -0.53878784407E+02 -0.28692194361E+03  0.29760650696E+03  0.47000000000E+01 0. -1.
          5    1    5    5  503    0  0.15746764816E+02  0.29536767907E+02 -0.10092600560E+04  0.10098258919E+04  0.47000000000E+01 0. -1.
         -5    1    5    5    0  503 -0.34640723673E+02  0.14383926345E+02 -0.88347873007E+02  0.96095336715E+02  0.47000000000E+01 0. -1.
<mgrwt>
<rscale>  0 0.27538294E+03</rscale>
<asrwt>0</asrwt>
<pdfrwt beam="1">  1        2 0.27851864E+00 0.27538294E+03</pdfrwt>
<pdfrwt beam="2">  1       -2 0.16111393E-02 0.27538294E+03</pdfrwt>
<totfact> 0.99298446E+03</totfact>
</mgrwt>
</event>
<event>
 9    1  0.7986988E-001  0.2756789E+03  0.7818608E-02  0.1098073E+00
          1   -1    0    0  501    0  0.00000000000E+00  0.00000000000E+00  0.23989603928E+04  0.23989603928E+04  0.00000000000E+00 0. -1.
         -1   -1    0    0    0  501 -0.00000000000E+00 -0.00000000000E+00 -0.79199787301E+01  0.79199787301E+01  0.00000000000E+00 0. -1.
         35    2    1    2    0    0  0.35527136788E-14  0.00000000000E+00  0.23910404140E+04  0.24068803715E+04  0.27567890950E+03 0.  0.
         25    2    3    3    0    0 -0.58473681938E-01 -0.18238696442E+02  0.69997623783E+03  0.71108625510E+03  0.12387201138E+03 0.  0.
         25    2    3    3    0    0  0.58473681938E-01  0.18238696442E+02  0.16910641762E+04  0.16957941164E+04  0.12524768932E+03 0.  0.
          5    1    4    4  502    0  0.26659140716E+02  0.18508326027E+02  0.51831004852E+02  0.61333604003E+02  0.47000000000E+01 0.  1.
         -5    1    4    4    0  502 -0.26717614398E+02 -0.36747022469E+02  0.64814523297E+03  0.64975265110E+03  0.47000000000E+01 0.  1.
          5    1    5    5  503    0  0.54252440346E+02 -0.21849515584E+02  0.72614114328E+03  0.72850791250E+03  0.47000000000E+01 0.  1.
         -5    1    5    5    0  503 -0.54193966664E+02  0.40088212026E+02  0.96492303294E+03  0.96728620391E+03  0.47000000000E+01 0.  1.
<mgrwt>
<rscale>  0 0.27567891E+03</rscale>
<asrwt>0</asrwt>
<pdfrwt beam="1">  1        1 0.36907025E+00 0.27567891E+03</pdfrwt>
<pdfrwt beam="2">  1       -1 0.12184602E-02 0.27567891E+03</pdfrwt>
<totfact> 0.26129482E+03</totfact>
</mgrwt>
</event>
<event>
 9    1  0.7986988E-001  0.2777799E+03  0.7818608E-02  0.1096908E+00
         -2   -1    0    0    0  501 -0.00000000000E+00  0.00000000000E+00  0.94508223792E+01  0.94508223792E+01  0.00000000000E+00 0. -1.
          2   -1    0    0  501    0  0.00000000000E+00 -0.00000000000E+00 -0.20411359343E+04  0.20411359343E+04  0.00000000000E+00 0. -1.
         35    2    1    2    0    0  0.71054273576E-14  0.00000000000E+00 -0.20316851120E+04  0.20505867567E+04  0.27777986368E+03 0.  0.
         25    2    3    3    0    0 -0.22311268657E+02 -0.33479555184E+02 -0.73612617516E+03  0.74781511103E+03  0.12540742085E+03 0.  0.
         25    2    3    3    0    0  0.22311268657E+02  0.33479555184E+02 -0.12955589368E+04  0.13027716457E+04  0.13085231662E+03 0.  0.
          5    1    4    4  502    0  0.36393209011E+02  0.88055107506E+01 -0.48408339330E+03  0.48555208202E+03  0.47000000000E+01 0.  1.
         -5    1    4    4    0  502 -0.58704477668E+02 -0.42285065935E+02 -0.25204278186E+03  0.26226302902E+03  0.47000000000E+01 0.  1.
          5    1    5    5  503    0 -0.14863292698E+02 -0.44652975138E+02 -0.33676135965E+03  0.34006633031E+03  0.47000000000E+01 0. -1.
         -5    1    5    5    0  503  0.37174561355E+02  0.78132530322E+02 -0.95879757714E+03  0.96270531537E+03  0.47000000000E+01 0. -1.
<mgrwt>
<rscale>  0 0.27777986E+03</rscale>
<asrwt>0</asrwt>
<pdfrwt beam="1">  1        2 0.31402061E+00 0.27777986E+03</pdfrwt>
<pdfrwt beam="2">  1       -2 0.14539741E-02 0.27777986E+03</pdfrwt>
<totfact> 0.87287588E+03</totfact>
</mgrwt>
</event>
<event>
 9    1  0.7986988E-001  0.2748629E+03  0.7818608E-02  0.1098528E+00
         -2   -1    0    0    0  501 -0.00000000000E+00  0.00000000000E+00  0.92960476002E+01  0.92960476002E+01  0.00000000000E+00 0.  1.
          2   -1    0    0  501    0  0.00000000000E+00 -0.00000000000E+00 -0.20317670801E+04  0.20317670801E+04  0.00000000000E+00 0.  1.
         35    2    1    2    0    0  0.71054273576E-14 -0.35527136788E-14 -0.20224710325E+04  0.20410631277E+04  0.27486290029E+03 0.  0.
         25    2    3    3    0    0  0.50991595680E+02 -0.15539441533E+02 -0.12081888365E+04  0.12156050406E+04  0.12301923789E+03 0.  0.
         25    2    3    3    0    0 -0.50991595680E+02  0.15539441533E+02 -0.81428219594E+03  0.82545808709E+03  0.12443448817E+03 0.  0.
          5    1    4    4  502    0 -0.16285222097E+02 -0.88988106477E+01 -0.30780533164E+02  0.36248151836E+02  0.47000000000E+01 0. -1.
         -5    1    4    4    0  502  0.67276817777E+02 -0.66406308849E+01 -0.11774083034E+04  0.11793568888E+04  0.47000000000E+01 0. -1.
          5    1    5    5  503    0  0.73041355979E+01 -0.44807776047E+02 -0.41008706629E+03  0.41261916961E+03  0.47000000000E+01 0.  1.
         -5    1    5    5    0  503 -0.58295731278E+02  0.60347217580E+02 -0.40419512965E+03  0.41283891748E+03  0.47000000000E+01 0.  1.
<mgrwt>
<rscale>  0 0.27486290E+03</rscale>
<asrwt>0</asrwt>
<pdfrwt beam="1">  1        2 0.31257944E+00 0.27486290E+03</pdfrwt>
<pdfrwt beam="2">  1       -2 0.14301617E-02 0.27486290E+03</pdfrwt>
<totfact> 0.90435271E+03</totfact>
</mgrwt>
</event>
<event>
 9    1  0.7986988E-001  0.2740353E+03  0.7818608E-02  0.1098992E+00
          2   -1    0    0  501    0  0.00000000000E+00  0.00000000000E+00  0.14185803527E+04  0.14185803527E+04  0.00000000000E+00 0. -1.
         -2   -1    0    0    0  501 -0.00000000000E+00 -0.00000000000E+00 -0.13234238573E+02  0.13234238573E+02  0.00000000000E+00 0. -1.
         35    2    1    2    0    0  0.35527136788E-14  0.00000000000E+00  0.14053461141E+04  0.14318145913E+04  0.27403525921E+03 0.  0.
         25    2    3    3    0    0  0.21095516016E+02 -0.22509698645E+01  0.43178701942E+03  0.44997494178E+03  0.12484923080E+03 0.  0.
         25    2    3    3    0    0 -0.21095516016E+02  0.22509698645E+01  0.97355909469E+03  0.98183964948E+03  0.12546592670E+03 0.  0.
          5    1    4    4  502    0  0.55669824739E+02  0.41339940705E+02  0.20693960260E+03  0.21829844069E+03  0.47000000000E+01 0. -1.
         -5    1    4    4    0  502 -0.34574308722E+02 -0.43590910569E+02  0.22484741682E+03  0.23167650109E+03  0.47000000000E+01 0. -1.
          5    1    5    5  503    0  0.76397945696E+01 -0.21619682472E+02  0.88863692166E+03  0.88894513085E+03  0.47000000000E+01 0. -1.
         -5    1    5    5    0  503 -0.28735310586E+02  0.23870652336E+02  0.84922173034E+02  0.92894518623E+02  0.47000000000E+01 0. -1.
<mgrwt>
<rscale>  0 0.27403526E+03</rscale>
<asrwt>0</asrwt>
<pdfrwt beam="1">  1        2 0.21824301E+00 0.27403526E+03</pdfrwt>
<pdfrwt beam="2">  1       -2 0.20360378E-02 0.27403526E+03</pdfrwt>
<totfact> 0.11364699E+04</totfact>
</mgrwt>
</event>
<event>
 9    1  0.7986988E-001  0.2722117E+03  0.7818608E-02  0.1100020E+00
          2   -1    0    0  501    0  0.00000000000E+00  0.00000000000E+00  0.18691368966E+04  0.18691368966E+04  0.00000000000E+00 0. -1.
         -2   -1    0    0    0  501 -0.00000000000E+00 -0.00000000000E+00 -0.99108866408E+01  0.99108866408E+01  0.00000000000E+00 0. -1.
         35    2    1    2    0    0  0.71054273576E-14  0.17763568394E-14  0.18592260099E+04  0.18790477832E+04  0.27221171098E+03 0.  0.
         25    2    3    3    0    0  0.16409648121E+02 -0.20037418181E+01  0.59011009353E+03  0.60363195347E+03  0.12596952502E+03 0.  0.
         25    2    3    3    0    0 -0.16409648121E+02  0.20037418181E+01  0.12691159164E+04  0.12754158297E+04  0.12552704074E+03 0.  0.
          5    1    4    4  502    0  0.62239587783E+01 -0.13851310886E+02  0.28552565829E+01  0.16150509784E+02  0.47000000000E+01 0.  1.
         -5    1    4    4    0  502  0.10185689343E+02  0.11847569068E+02  0.58725483694E+03  0.58748144368E+03  0.47000000000E+01 0.  1.
          5    1    5    5  503    0 -0.67093039667E+02  0.17653897852E+02  0.55947667461E+03  0.56378131887E+03  0.47000000000E+01 0.  1.
         -5    1    5    5    0  503  0.50683391546E+02 -0.15650156034E+02  0.70963924179E+03  0.71163451086E+03  0.47000000000E+01 0.  1.
<mgrwt>
<rscale>  0 0.27221171E+03</rscale>
<asrwt>0</asrwt>
<pdfrwt beam="1">  1        2 0.28755924E+00 0.27221171E+03</pdfrwt>
<pdfrwt beam="2">  1       -2 0.15247533E-02 0.27221171E+03</pdfrwt>
<totfact> 0.10024672E+04</totfact>
</mgrwt>
</event>
<event>
 9    1  0.7986988E-001  0.2756297E+03  0.7818608E-02  0.1098100E+00
          2   -1    0    0  501    0  0.00000000000E+00  0.00000000000E+00  0.91372781061E+03  0.91372781061E+03  0.00000000000E+00 0. -1.
         -2   -1    0    0    0  501 -0.00000000000E+00 -0.00000000000E+00 -0.20786197973E+02  0.20786197973E+02  0.00000000000E+00 0. -1.
         35    2    1    2    0    0  0.00000000000E+00 -0.35527136788E-14  0.89294161264E+03  0.93451400858E+03  0.27562965853E+03 0.  0.
         25    2    3    3    0    0 -0.48728800766E+02 -0.84951640494E+01  0.34599351744E+03  0.37143308112E+03  0.12571537616E+03 0.  0.
         25    2    3    3    0    0  0.48728800766E+02  0.84951640494E+01  0.54694809520E+03  0.56308092746E+03  0.12434326759E+03 0.  0.
          5    1    4    4  502    0 -0.25479194803E+02  0.29435743804E+02  0.23218175684E+02  0.45572207136E+02  0.47000000000E+01 0.  1.
         -5    1    4    4    0  502 -0.23249605963E+02 -0.37930907854E+02  0.32277534176E+03  0.32586087399E+03  0.47000000000E+01 0.  1.
          5    1    5    5  503    0  0.33613196588E+02  0.30596826445E+02  0.52792891181E+03  0.52990285779E+03  0.47000000000E+01 0.  1.
         -5    1    5    5    0  503  0.15115604179E+02 -0.22101662395E+02  0.19019183391E+02  0.33178069673E+02  0.47000000000E+01 0.  1.
<mgrwt>
<rscale>  0 0.27562966E+03</rscale>
<asrwt>0</asrwt>
<pdfrwt beam="1">  1        2 0.14057348E+00 0.27562966E+03</pdfrwt>
<pdfrwt beam="2">  1       -2 0.31978773E-02 0.27562966E+03</pdfrwt>
<totfact> 0.11425375E+04</totfact>
</mgrwt>
</event>
<event>
 9    1  0.7986988E-001  0.2795411E+03  0.7818608E-02  0.1095940E+00
         -2   -1    0    0    0  501 -0.00000000000E+00  0.00000000000E+00  0.74144264973E+01  0.74144264973E+01  0.00000000000E+00 0. -1.
          2   -1    0    0  501    0  0.00000000000E+00 -0.00000000000E+00 -0.26348374838E+04  0.26348374838E+04  0.00000000000E+00 0. -1.
         35    2    1    2    0    0  0.35527136788E-14  0.00000000000E+00 -0.26274230573E+04  0.26422519103E+04  0.27954111580E+03 0.  0.
         25    2    3    3    0    0  0.17187669795E+02  0.31440886171E+02 -0.84395989496E+03  0.85410755551E+03  0.12628327978E+03 0.  0.
         25    2    3    3    0    0 -0.17187669795E+02 -0.31440886171E+02 -0.17834631623E+04  0.17881443548E+04  0.12423943347E+03 0.  0.
          5    1    4    4  502    0  0.66844914031E+01  0.55074996351E+02 -0.80607911230E+03  0.80799972954E+03  0.47000000000E+01 0.  1.
         -5    1    4    4    0  502  0.10503178391E+02 -0.23634110180E+02 -0.37880782660E+02  0.46107825966E+02  0.47000000000E+01 0.  1.
          5    1    5    5  503    0  0.29661423852E+02 -0.66048103686E-01 -0.14188078320E+04  0.14191256317E+04  0.47000000000E+01 0.  1.
         -5    1    5    5    0  503 -0.46849093646E+02 -0.31374838067E+02 -0.36465533029E+03  0.36901872303E+03  0.47000000000E+01 0.  1.
<mgrwt>
<rscale>  0 0.27954112E+03</rscale>
<asrwt>0</asrwt>
<pdfrwt beam="1">  1        2 0.40535946E+00 0.27954112E+03</pdfrwt>
<pdfrwt beam="2">  1       -2 0.11406814E-02 0.27954112E+03</pdfrwt>
<totfact> 0.59452275E+03</totfact>
</mgrwt>
</event>
<event>
 9    1  0.7986988E-001  0.2651457E+03  0.7818608E-02  0.1104090E+00
         -2   -1    0    0    0  501 -0.00000000000E+00  0.00000000000E+00  0.28657749554E+02  0.28657749554E+02  0.00000000000E+00 0.  1.
          2   -1    0    0  501    0  0.00000000000E+00 -0.00000000000E+00 -0.61329187710E+03  0.61329187710E+03  0.00000000000E+00 0.  1.
         35    2    1    2    0    0  0.00000000000E+00  0.00000000000E+00 -0.58463412755E+03  0.64194962665E+03  0.26514573365E+03 0.  0.
         25    2    3    3    0    0  0.34979095777E+02  0.58989307783E+01 -0.21116201385E+03  0.24701459988E+03  0.12316039109E+03 0.  0.
         25    2    3    3    0    0 -0.34979095777E+02 -0.58989307783E+01 -0.37347211370E+03  0.39493502678E+03  0.12342577178E+03 0.  0.
          5    1    4    4  502    0  0.57833537883E+02  0.30527118056E+02 -0.20126440999E+03  0.21167445705E+03  0.47000000000E+01 0. -1.
         -5    1    4    4    0  502 -0.22854442106E+02 -0.24628187278E+02 -0.98976038584E+01  0.35340142822E+02  0.47000000000E+01 0. -1.
          5    1    5    5  503    0  0.28537224310E+02 -0.25549614005E+02 -0.42869712760E+02  0.57680657236E+02  0.47000000000E+01 0.  1.
         -5    1    5    5    0  503 -0.63516320087E+02  0.19650683227E+02 -0.33060240094E+03  0.33725436954E+03  0.47000000000E+01 0.  1.
<mgrwt>
<rscale>  0 0.26514573E+03</rscale>
<asrwt>0</asrwt>
<pdfrwt beam="1">  1        2 0.94352592E-01 0.26514573E+03</pdfrwt>
<pdfrwt beam="2">  1       -2 0.44088848E-02 0.26514573E+03</pdfrwt>
<totfact> 0.11583412E+04</totfact>
</mgrwt>
</event>
<event>
 9    1  0.7986988E-001  0.2847247E+03  0.7818608E-02  0.1093136E+00
         -2   -1    0    0    0  501 -0.00000000000E+00  0.00000000000E+00  0.11839665166E+02  0.11839665166E+02  0.00000000000E+00 0. -1.
          2   -1    0    0  501    0  0.00000000000E+00 -0.00000000000E+00 -0.17117915310E+04  0.17117915310E+04  0.00000000000E+00 0. -1.
         35    2    1    2    0    0  0.00000000000E+00  0.00000000000E+00 -0.16999518658E+04  0.17236311961E+04  0.28472469904E+03 0.  0.
         25    2    3    3    0    0  0.52540394266E+02 -0.38066085054E+02 -0.96679294907E+03  0.97703306496E+03  0.12528161793E+03 0.  0.
         25    2    3    3    0    0 -0.52540394266E+02  0.38066085054E+02 -0.73315891674E+03  0.74659813119E+03  0.12520883527E+03 0.  0.
          5    1    4    4  502    0  0.44888143539E+02 -0.83104389120E+02 -0.69128898210E+03  0.69772761999E+03  0.47000000000E+01 0.  1.
         -5    1    4    4    0  502  0.76522507276E+01  0.45038304066E+02 -0.27550396697E+03  0.27930544497E+03  0.47000000000E+01 0.  1.
          5    1    5    5  503    0  0.86159218891E+01  0.48492226916E+02 -0.56730971060E+03  0.56946301717E+03  0.47000000000E+01 0. -1.
         -5    1    5    5    0  503 -0.61156316155E+02 -0.10426141862E+02 -0.16584920614E+03  0.17713511402E+03  0.47000000000E+01 0. -1.
<mgrwt>
<rscale>  0 0.28472470E+03</rscale>
<asrwt>0</asrwt>
<pdfrwt beam="1">  1        2 0.26335240E+00 0.28472470E+03</pdfrwt>
<pdfrwt beam="2">  1       -2 0.18214879E-02 0.28472470E+03</pdfrwt>
<totfact> 0.93496149E+03</totfact>
</mgrwt>
</event>
<event>
 9    1  0.7986988E-001  0.2753783E+03  0.7818608E-02  0.1098240E+00
         -4   -1    0    0    0  501 -0.00000000000E+00  0.00000000000E+00  0.31845440798E+03  0.31845440798E+03  0.00000000000E+00 0.  1.
          4   -1    0    0  501    0  0.00000000000E+00 -0.00000000000E+00 -0.59532223739E+02  0.59532223739E+02  0.00000000000E+00 0.  1.
         35    2    1    2    0    0 -0.71054273576E-14  0.00000000000E+00  0.25892218424E+03  0.37798663172E+03  0.27537827849E+03 0.  0.
         25    2    3    3    0    0 -0.40131106055E+02 -0.46406486587E+02  0.13654098195E+03  0.19209721888E+03  0.12039034047E+03 0.  0.
         25    2    3    3    0    0  0.40131106055E+02  0.46406486587E+02  0.12238120229E+03  0.18588941284E+03  0.12575232587E+03 0.  0.
          5    1    4    4  502    0  0.33923676997E+02  0.12849193098E+02  0.59370119230E+02  0.69733913426E+02  0.47000000000E+01 0. -1.
         -5    1    4    4    0  502 -0.74054783052E+02 -0.59255679685E+02  0.77170862723E+02  0.12236330545E+03  0.47000000000E+01 0. -1.
          5    1    5    5  503    0  0.13350214991E+02  0.51729389262E+02  0.14209920622E+03  0.15188295613E+03  0.47000000000E+01 0.  1.
         -5    1    5    5    0  503  0.26780891064E+02 -0.53229026746E+01 -0.19718003932E+02  0.34006456712E+02  0.47000000000E+01 0.  1.
<mgrwt>
<rscale>  0 0.27537828E+03</rscale>
<asrwt>0</asrwt>
<pdfrwt beam="1">  1        4 0.91588039E-02 0.27537828E+03</pdfrwt>
<pdfrwt beam="2">  1       -4 0.48992985E-01 0.27537828E+03</pdfrwt>
<totfact> 0.66738901E+02</totfact>
</mgrwt>
</event>
<event>
 9    1  0.7986988E-001  0.2576598E+03  0.7818608E-02  0.1108557E+00
          2   -1    0    0  501    0  0.00000000000E+00  0.00000000000E+00  0.46260813216E+02  0.46260813216E+02  0.00000000000E+00 0.  1.
         -2   -1    0    0    0  501 -0.00000000000E+00 -0.00000000000E+00 -0.35877324042E+03  0.35877324042E+03  0.00000000000E+00 0.  1.
         35    2    1    2    0    0  0.35527136788E-14  0.71054273576E-14 -0.31251242721E+03  0.40503405364E+03  0.25765979013E+03 0.  0.
         25    2    3    3    0    0 -0.31355483411E+02  0.24937757596E+01 -0.15922387587E+03  0.20495690333E+03  0.12516271138E+03 0.  0.
         25    2    3    3    0    0  0.31355483411E+02 -0.24937757596E+01 -0.15328855134E+03  0.20007715031E+03  0.12467598344E+03 0.  0.
          5    1    4    4  502    0  0.29441903558E+02  0.45526161251E+02 -0.66799919783E+02  0.86161338931E+02  0.47000000000E+01 0. -1.
         -5    1    4    4    0  502 -0.60797386969E+02 -0.43032385491E+02 -0.92423956083E+02  0.11879556440E+03  0.47000000000E+01 0. -1.
          5    1    5    5  503    0  0.30031891703E+02  0.20892104333E+02  0.74022310425E+01  0.37620175001E+02  0.47000000000E+01 0.  1.
         -5    1    5    5    0  503  0.13235917077E+01 -0.23385880093E+02 -0.16069078238E+03  0.16245697531E+03  0.47000000000E+01 0.  1.
<mgrwt>
<rscale>  0 0.25765979E+03</rscale>
<asrwt>0</asrwt>
<pdfrwt beam="1">  1        2 0.71170482E-02 0.25765979E+03</pdfrwt>
<pdfrwt beam="2">  1       -2 0.55195883E-01 0.25765979E+03</pdfrwt>
<totfact> 0.30861528E+03</totfact>
</mgrwt>
</event>
<event>
 9    1  0.7986988E-001  0.2727000E+03  0.7818608E-02  0.1099744E+00
         -2   -1    0    0    0  501 -0.00000000000E+00  0.00000000000E+00  0.65504390920E+01  0.65504390920E+01  0.00000000000E+00 0.  1.
          2   -1    0    0  501    0  0.00000000000E+00 -0.00000000000E+00 -0.28381786126E+04  0.28381786126E+04  0.00000000000E+00 0.  1.
         35    2    1    2    0    0  0.00000000000E+00  0.71054273576E-14 -0.28316281735E+04  0.28447290516E+04  0.27269995331E+03 0.  0.
         25    2    3    3    0    0  0.29805496092E+02  0.41397069768E+02 -0.16005886614E+04  0.16062836704E+04  0.12514424316E+03 0.  0.
         25    2    3    3    0    0 -0.29805496092E+02 -0.41397069768E+02 -0.12310395120E+04  0.12384453813E+04  0.12524614666E+03 0.  0.
          5    1    4    4  502    0  0.50955098740E+02 -0.22155088461E+02 -0.40623713607E+03  0.41004630318E+03  0.47000000000E+01 0.  1.
         -5    1    4    4    0  502 -0.21149602647E+02  0.63552158230E+02 -0.11943515254E+04  0.11962373672E+04  0.47000000000E+01 0.  1.
          5    1    5    5  503    0  0.38179588354E+01 -0.44100516495E+02 -0.11456490065E+04  0.11465134838E+04  0.47000000000E+01 0. -1.
         -5    1    5    5    0  503 -0.33623454928E+02  0.27034467268E+01 -0.85390505511E+02  0.91931897494E+02  0.47000000000E+01 0. -1.
<mgrwt>
<rscale>  0 0.27269995E+03</rscale>
<asrwt>0</asrwt>
<pdfrwt beam="1">  1        2 0.43664373E+00 0.27269995E+03</pdfrwt>
<pdfrwt beam="2">  1       -2 0.10077579E-02 0.27269995E+03</pdfrwt>
<totfact> 0.54618343E+03</totfact>
</mgrwt>
</event>
<event>
 9    1  0.7986988E-001  0.2771663E+03  0.7818608E-02  0.1097247E+00
          2   -1    0    0  501    0  0.00000000000E+00  0.00000000000E+00  0.31960788433E+03  0.31960788433E+03  0.00000000000E+00 0. -1.
         -2   -1    0    0    0  501 -0.00000000000E+00 -0.00000000000E+00 -0.60090143472E+02  0.60090143472E+02  0.00000000000E+00 0. -1.
         35    2    1    2    0    0 -0.71054273576E-14  0.00000000000E+00  0.25951774086E+03  0.37969802780E+03  0.27716625786E+03 0.  0.
         25    2    3    3    0    0  0.38731954017E+02 -0.10112632034E+02  0.58235938047E+02  0.13997701493E+03  0.12082926235E+03 0.  0.
         25    2    3    3    0    0 -0.38731954017E+02  0.10112632034E+02  0.20128180281E+03  0.23972101288E+03  0.12389257557E+03 0.  0.
          5    1    4    4  502    0  0.33630460111E+02 -0.47782304845E+02  0.77443827886E+02  0.97127714794E+02  0.47000000000E+01 0. -1.
         -5    1    4    4    0  502  0.51014939057E+01  0.37669672811E+02 -0.19207889839E+02  0.42849300132E+02  0.47000000000E+01 0. -1.
          5    1    5    5  503    0 -0.79054702245E+02  0.30311360786E+02  0.13456255826E+03  0.15905218208E+03  0.47000000000E+01 0. -1.
         -5    1    5    5    0  503  0.40322748228E+02 -0.20198728752E+02  0.66719244557E+02  0.80668830797E+02  0.47000000000E+01 0. -1.
<mgrwt>
<rscale>  0 0.27716626E+03</rscale>
<asrwt>0</asrwt>
<pdfrwt beam="1">  1        2 0.49170443E-01 0.27716626E+03</pdfrwt>
<pdfrwt beam="2">  1       -2 0.92446376E-02 0.27716626E+03</pdfrwt>
<totfact> 0.76235197E+03</totfact>
</mgrwt>
</event>
<event>
 9    1  0.7986988E-001  0.2766316E+03  0.7818608E-02  0.1097543E+00
          2   -1    0    0  501    0  0.00000000000E+00  0.00000000000E+00  0.18825110624E+04  0.18825110624E+04  0.00000000000E+00 0. -1.
         -2   -1    0    0    0  501 -0.00000000000E+00 -0.00000000000E+00 -0.10162627059E+02  0.10162627059E+02  0.00000000000E+00 0. -1.
         35    2    1    2    0    0  0.00000000000E+00  0.00000000000E+00  0.18723484354E+04  0.18926736895E+04  0.27663158071E+03 0.  0.
         25    2    3    3    0    0  0.13441031801E+02 -0.48191144997E+02  0.61980243838E+03  0.63316983357E+03  0.11935630579E+03 0.  0.
         25    2    3    3    0    0 -0.13441031801E+02  0.48191144997E+02  0.12525459970E+04  0.12595038559E+04  0.12237418313E+03 0.  0.
          5    1    4    4  502    0  0.32418316476E+01  0.39947685389E+02  0.21078587027E+03  0.21461383960E+03  0.47000000000E+01 0.  1.
         -5    1    4    4    0  502  0.10199200153E+02 -0.88138830387E+02  0.40901656811E+03  0.41855599397E+03  0.47000000000E+01 0.  1.
          5    1    5    5  503    0 -0.13228480044E+02  0.71681564904E+02  0.39956878287E+03  0.40619027767E+03  0.47000000000E+01 0. -1.
         -5    1    5    5    0  503 -0.21255175631E+00 -0.23490419907E+02  0.85297721413E+03  0.85331357825E+03  0.47000000000E+01 0. -1.
<mgrwt>
<rscale>  0 0.27663158E+03</rscale>
<asrwt>0</asrwt>
<pdfrwt beam="1">  1        2 0.28961681E+00 0.27663158E+03</pdfrwt>
<pdfrwt beam="2">  1       -2 0.15634826E-02 0.27663158E+03</pdfrwt>
<totfact> 0.95103572E+03</totfact>
</mgrwt>
</event>
<event>
 9    1  0.7986988E-001  0.2737293E+03  0.7818608E-02  0.1099164E+00
         -1   -1    0    0    0  501 -0.00000000000E+00  0.00000000000E+00  0.63903833813E+03  0.63903833813E+03  0.00000000000E+00 0. -1.
          1   -1    0    0  501    0  0.00000000000E+00 -0.00000000000E+00 -0.29312680974E+02  0.29312680974E+02  0.00000000000E+00 0. -1.
         35    2    1    2    0    0  0.00000000000E+00  0.00000000000E+00  0.60972565715E+03  0.66835101910E+03  0.27372925993E+03 0.  0.
         25    2    3    3    0    0  0.29540173597E+02  0.45002657808E+02  0.27811495680E+03  0.30986169036E+03  0.12557259611E+03 0.  0.
         25    2    3    3    0    0 -0.29540173597E+02 -0.45002657808E+02  0.33161070036E+03  0.35848932874E+03  0.12510428116E+03 0.  0.
          5    1    4    4  502    0  0.74855001557E+02  0.92193857196E+01  0.12391420679E+03  0.14513817201E+03  0.47000000000E+01 0. -1.
         -5    1    4    4    0  502 -0.45314827960E+02  0.35783272089E+02  0.15420075001E+03  0.16472351835E+03  0.47000000000E+01 0. -1.
          5    1    5    5  503    0  0.39959587444E+02 -0.18981977129E+02  0.48663202465E+02  0.65933916603E+02  0.47000000000E+01 0. -1.
         -5    1    5    5    0  503 -0.69499761041E+02 -0.26020680680E+02  0.28294749789E+03  0.29255541214E+03  0.47000000000E+01 0. -1.
<mgrwt>
<rscale>  0 0.27372926E+03</rscale>
<asrwt>0</asrwt>
<pdfrwt beam="1">  1        1 0.45096437E-02 0.27372926E+03</pdfrwt>
<pdfrwt beam="2">  1       -1 0.98313579E-01 0.27372926E+03</pdfrwt>
<totfact> 0.20100787E+03</totfact>
</mgrwt>
</event>
<event>
 9    1  0.7986988E-001  0.2740363E+03  0.7818608E-02  0.1098991E+00
          1   -1    0    0  501    0  0.00000000000E+00  0.00000000000E+00  0.71247895036E+02  0.71247895036E+02  0.00000000000E+00 0. -1.
         -1   -1    0    0    0  501 -0.00000000000E+00 -0.00000000000E+00 -0.26350224325E+03  0.26350224325E+03  0.00000000000E+00 0. -1.
         35    2    1    2    0    0  0.00000000000E+00  0.00000000000E+00 -0.19225434822E+03  0.33475013829E+03  0.27403634919E+03 0.  0.
         25    2    3    3    0    0 -0.13248228889E+02  0.30740316718E+02 -0.40339916967E+02  0.13527279956E+03  0.12470340316E+03 0.  0.
         25    2    3    3    0    0  0.13248228889E+02 -0.30740316718E+02 -0.15191443125E+03  0.19947733872E+03  0.12487085970E+03 0.  0.
          5    1    4    4  502    0  0.39250576595E+02 -0.27562719338E+02 -0.30750651639E+01  0.48289308196E+02  0.47000000000E+01 0.  1.
         -5    1    4    4    0  502 -0.52498805483E+02  0.58303036055E+02 -0.37264851803E+02  0.86983491367E+02  0.47000000000E+01 0.  1.
          5    1    5    5  503    0 -0.42693538934E+02  0.25210404208E+02 -0.53059766513E+02  0.72771777287E+02  0.47000000000E+01 0. -1.
         -5    1    5    5    0  503  0.55941767822E+02 -0.55950720926E+02 -0.98854664736E+02  0.12670556144E+03  0.47000000000E+01 0. -1.
<mgrwt>
<rscale>  0 0.27403635E+03</rscale>
<asrwt>0</asrwt>
<pdfrwt beam="1">  1        1 0.10961215E-01 0.27403635E+03</pdfrwt>
<pdfrwt beam="2">  1       -1 0.40538807E-01 0.27403635E+03</pdfrwt>
<totfact> 0.34001169E+03</totfact>
</mgrwt>
</event>
<event>
 9    1  0.7986988E-001  0.2686474E+03  0.7818608E-02  0.1102056E+00
          1   -1    0    0  501    0  0.00000000000E+00  0.00000000000E+00  0.18170947770E+03  0.18170947770E+03  0.00000000000E+00 0.  1.
         -1   -1    0    0    0  501 -0.00000000000E+00 -0.00000000000E+00 -0.99295050173E+02  0.99295050173E+02  0.00000000000E+00 0.  1.
         35    2    1    2    0    0  0.00000000000E+00  0.00000000000E+00  0.82414427525E+02  0.28100452787E+03  0.26864736518E+03 0.  0.
         25    2    3    3    0    0  0.34063027371E+02  0.32833549835E+02  0.28395722725E+02  0.13622387956E+03  0.12454836998E+03 0.  0.
         25    2    3    3    0    0 -0.34063027371E+02 -0.32833549835E+02  0.54018704800E+02  0.14478064831E+03  0.12571827165E+03 0.  0.
          5    1    4    4  502    0  0.58529092227E+02  0.31837158912E+02 -0.29628229645E+02  0.73069701768E+02  0.47000000000E+01 0. -1.
         -5    1    4    4    0  502 -0.24466064856E+02  0.99639092374E+00  0.58023952370E+02  0.63154177796E+02  0.47000000000E+01 0. -1.
          5    1    5    5  503    0 -0.32363451552E+02  0.37492961618E+02  0.55140794206E+02  0.74267841983E+02  0.47000000000E+01 0. -1.
         -5    1    5    5    0  503 -0.16995758195E+01 -0.70326511453E+02 -0.11220894056E+01  0.70512806324E+02  0.47000000000E+01 0. -1.
<mgrwt>
<rscale>  0 0.26864737E+03</rscale>
<asrwt>0</asrwt>
<pdfrwt beam="1">  1        1 0.27955304E-01 0.26864737E+03</pdfrwt>
<pdfrwt beam="2">  1       -1 0.15276162E-01 0.26864737E+03</pdfrwt>
<totfact> 0.51317780E+03</totfact>
</mgrwt>
</event>
<event>
 9    1  0.7986988E-001  0.2720682E+03  0.7818608E-02  0.1100102E+00
          2   -1    0    0  501    0  0.00000000000E+00  0.00000000000E+00  0.10090230005E+04  0.10090230005E+04  0.00000000000E+00 0.  1.
         -2   -1    0    0    0  501 -0.00000000000E+00 -0.00000000000E+00 -0.18339789765E+02  0.18339789765E+02  0.00000000000E+00 0.  1.
         35    2    1    2    0    0  0.00000000000E+00  0.00000000000E+00  0.99068321074E+03  0.10273627903E+04  0.27206815100E+03 0.  0.
         25    2    3    3    0    0 -0.47760266961E+02 -0.16810314148E+01  0.59935327669E+03  0.61397865173E+03  0.12434454366E+03 0.  0.
         25    2    3    3    0    0  0.47760266961E+02  0.16810314148E+01  0.39132993405E+03  0.41338413854E+03  0.12435216019E+03 0.  0.
          5    1    4    4  502    0  0.28645700613E+02  0.33644378927E+02  0.13776785476E+03  0.14475701089E+03  0.47000000000E+01 0. -1.
         -5    1    4    4    0  502 -0.76405967574E+02 -0.35325410342E+02  0.46158542193E+03  0.46922164084E+03  0.47000000000E+01 0. -1.
          5    1    5    5  503    0  0.39986395367E+00  0.15478935274E+02 -0.25656871112E+01  0.16383835899E+02  0.47000000000E+01 0.  1.
         -5    1    5    5    0  503  0.47360403007E+02 -0.13797903860E+02  0.39389562117E+03  0.39700030264E+03  0.47000000000E+01 0.  1.
<mgrwt>
<rscale>  0 0.27206815E+03</rscale>
<asrwt>0</asrwt>
<pdfrwt beam="1">  1        2 0.15523426E+00 0.27206815E+03</pdfrwt>
<pdfrwt beam="2">  1       -2 0.28215069E-02 0.27206815E+03</pdfrwt>
<totfact> 0.11997613E+04</totfact>
</mgrwt>
</event>
<event>
 9    1  0.7986988E-001  0.2775815E+03  0.7818608E-02  0.1097017E+00
         -2   -1    0    0    0  501 -0.00000000000E+00  0.00000000000E+00  0.52378481293E+02  0.52378481293E+02  0.00000000000E+00 0.  1.
          2   -1    0    0  501    0  0.00000000000E+00 -0.00000000000E+00 -0.36776321958E+03  0.36776321958E+03  0.00000000000E+00 0.  1.
         35    2    1    2    0    0  0.71054273576E-14  0.71054273576E-14 -0.31538473828E+03  0.42014170087E+03  0.27758154778E+03 0.  0.
         25    2    3    3    0    0  0.82315383592E+01 -0.56556285410E+02 -0.18129567036E+03  0.22773709863E+03  0.12541807828E+03 0.  0.
         25    2    3    3    0    0 -0.82315383592E+01  0.56556285410E+02 -0.13408906793E+03  0.19240460224E+03  0.12559172418E+03 0.  0.
          5    1    4    4  502    0  0.64782417713E+02 -0.23434683052E+02 -0.68905602046E+02  0.97550079487E+02  0.47000000000E+01 0.  1.
         -5    1    4    4    0  502 -0.56550879354E+02 -0.33121602358E+02 -0.11239006831E+03  0.13018701914E+03  0.47000000000E+01 0.  1.
          5    1    5    5  503    0  0.36668654870E+02  0.55704759235E+02 -0.13108709980E+03  0.14715137847E+03  0.47000000000E+01 0. -1.
         -5    1    5    5    0  503 -0.44900193229E+02  0.85152617446E+00 -0.30019681247E+01  0.45253223769E+02  0.47000000000E+01 0. -1.
<mgrwt>
<rscale>  0 0.27758155E+03</rscale>
<asrwt>0</asrwt>
<pdfrwt beam="1">  1        2 0.56578957E-01 0.27758155E+03</pdfrwt>
<pdfrwt beam="2">  1       -2 0.80582279E-02 0.27758155E+03</pdfrwt>
<totfact> 0.81309846E+03</totfact>
</mgrwt>
</event>
<event>
 9    1  0.7986988E-001  0.2749386E+03  0.7818608E-02  0.1098486E+00
         -2   -1    0    0    0  501 -0.00000000000E+00  0.00000000000E+00  0.56968700370E+01  0.56968700370E+01  0.00000000000E+00 0. -1.
          2   -1    0    0  501    0  0.00000000000E+00 -0.00000000000E+00 -0.33172258723E+04  0.33172258723E+04  0.00000000000E+00 0. -1.
         35    2    1    2    0    0 -0.71054273576E-14  0.71054273576E-14 -0.33115290023E+04  0.33229227423E+04  0.27493857262E+03 0.  0.
         25    2    3    3    0    0 -0.66198175672E+00  0.57764030846E+02 -0.15197446240E+04  0.15258378923E+04  0.12337110689E+03 0.  0.
         25    2    3    3    0    0  0.66198175672E+00 -0.57764030846E+02 -0.17917843783E+04  0.17970848500E+04  0.12524207941E+03 0.  0.
          5    1    4    4  502    0  0.47186786183E+02  0.37442289713E+02 -0.12262627982E+04  0.12277504055E+04  0.47000000000E+01 0. -1.
         -5    1    4    4    0  502 -0.47848767940E+02  0.20321741133E+02 -0.29348182578E+03  0.29808748685E+03  0.47000000000E+01 0. -1.
          5    1    5    5  503    0  0.42981467398E+02 -0.35871741486E+02 -0.15252559184E+04  0.15262902394E+04  0.47000000000E+01 0. -1.
         -5    1    5    5    0  503 -0.42319485641E+02 -0.21892289360E+02 -0.26652845990E+03  0.27079461061E+03  0.47000000000E+01 0. -1.
<mgrwt>
<rscale>  0 0.27493857E+03</rscale>
<asrwt>0</asrwt>
<pdfrwt beam="1">  1        2 0.51034163E+00 0.27493857E+03</pdfrwt>
<pdfrwt beam="2">  1       -2 0.87644294E-03 0.27493857E+03</pdfrwt>
<totfact> 0.34394820E+03</totfact>
</mgrwt>
</event>
<event>
 9    1  0.7986988E-001  0.2684834E+03  0.7818608E-02  0.1102151E+00
          2   -1    0    0  501    0  0.00000000000E+00  0.00000000000E+00  0.16781129738E+03  0.16781129738E+03  0.00000000000E+00 0.  1.
         -2   -1    0    0    0  501 -0.00000000000E+00 -0.00000000000E+00 -0.10738746927E+03  0.10738746927E+03  0.00000000000E+00 0.  1.
         35    2    1    2    0    0 -0.17763568394E-14  0.00000000000E+00  0.60423828102E+02  0.27519876665E+03  0.26848337409E+03 0.  0.
         25    2    3    3    0    0 -0.20338190622E+01 -0.47996219617E+02  0.41503313943E+02  0.14061447731E+03  0.12546765576E+03 0.  0.
         25    2    3    3    0    0  0.20338190622E+01  0.47996219617E+02  0.18920514160E+02  0.13458428934E+03  0.12428665079E+03 0.  0.
          5    1    4    4  502    0  0.43200460809E+02  0.17821682388E+02 -0.63472514202E+01  0.47394828598E+02  0.47000000000E+01 0.  1.
         -5    1    4    4    0  502 -0.45234279872E+02 -0.65817902005E+02  0.47850565363E+02  0.93219648709E+02  0.47000000000E+01 0.  1.
          5    1    5    5  503    0  0.44214738609E+01  0.86690542645E+02  0.33127416176E+02  0.93028572587E+02  0.47000000000E+01 0. -1.
         -5    1    5    5    0  503 -0.23876547987E+01 -0.38694323027E+02 -0.14206902017E+02  0.41555716753E+02  0.47000000000E+01 0. -1.
<mgrwt>
<rscale>  0 0.26848337E+03</rscale>
<asrwt>0</asrwt>
<pdfrwt beam="1">  1        2 0.25817123E-01 0.26848337E+03</pdfrwt>
<pdfrwt beam="2">  1       -2 0.16521149E-01 0.26848337E+03</pdfrwt>
<totfact> 0.59865357E+03</totfact>
</mgrwt>
</event>
<event>
 9    1  0.7986988E-001  0.2754847E+03  0.7818608E-02  0.1098181E+00
          2   -1    0    0  501    0  0.00000000000E+00  0.00000000000E+00  0.85797150291E+03  0.85797150291E+03  0.00000000000E+00 0. -1.
         -2   -1    0    0    0  501 -0.00000000000E+00 -0.00000000000E+00 -0.22113728498E+02  0.22113728498E+02  0.00000000000E+00 0. -1.
         35    2    1    2    0    0  0.00000000000E+00 -0.17763568394E-14  0.83585777441E+03  0.88008523141E+03  0.27548465565E+03 0.  0.
         25    2    3    3    0    0  0.57895032836E+02 -0.78101761542E+01  0.41515588366E+03  0.43736568875E+03  0.12458532932E+03 0.  0.
         25    2    3    3    0    0 -0.57895032836E+02  0.78101761542E+01  0.42070189075E+03  0.44271954265E+03  0.12489066774E+03 0.  0.
          5    1    4    4  502    0  0.48737869223E+02  0.47173691801E+02  0.31861855502E+03  0.32579228152E+03  0.47000000000E+01 0.  1.
         -5    1    4    4    0  502  0.91571636127E+01 -0.54983867956E+02  0.96537328641E+02  0.11157340723E+03  0.47000000000E+01 0.  1.
          5    1    5    5  503    0 -0.88755680634E+02  0.19500479778E+01  0.18916178836E+03  0.20901111384E+03  0.47000000000E+01 0.  1.
         -5    1    5    5    0  503  0.30860647799E+02  0.58601281764E+01  0.23154010239E+03  0.23370842881E+03  0.47000000000E+01 0.  1.
<mgrwt>
<rscale>  0 0.27548466E+03</rscale>
<asrwt>0</asrwt>
<pdfrwt beam="1">  1        2 0.13199559E+00 0.27548466E+03</pdfrwt>
<pdfrwt beam="2">  1       -2 0.34021127E-02 0.27548466E+03</pdfrwt>
<totfact> 0.11325438E+04</totfact>
</mgrwt>
</event>
<event>
 9    1  0.7986988E-001  0.2718147E+03  0.7818608E-02  0.1100245E+00
         -2   -1    0    0    0  501 -0.00000000000E+00  0.00000000000E+00  0.16085183819E+02  0.16085183819E+02  0.00000000000E+00 0. -1.
          2   -1    0    0  501    0  0.00000000000E+00 -0.00000000000E+00 -0.11483115967E+04  0.11483115967E+04  0.00000000000E+00 0. -1.
         35    2    1    2    0    0  0.00000000000E+00  0.00000000000E+00 -0.11322264129E+04  0.11643967805E+04  0.27181466564E+03 0.  0.
         25    2    3    3    0    0  0.45963446694E+02 -0.61287761536E+01 -0.43353919167E+03  0.45338327401E+03  0.12429787654E+03 0.  0.
         25    2    3    3    0    0 -0.45963446694E+02  0.61287761536E+01 -0.69868722118E+03  0.71101350648E+03  0.12339438001E+03 0.  0.
          5    1    4    4  502    0  0.59935622953E+02 -0.24714730689E+02 -0.10170678293E+03  0.12070400368E+03  0.47000000000E+01 0.  1.
         -5    1    4    4    0  502 -0.13972176260E+02  0.18585954536E+02 -0.33183240874E+03  0.33267927033E+03  0.47000000000E+01 0.  1.
          5    1    5    5  503    0  0.17993734988E+02 -0.41503762628E+02 -0.15655227720E+03  0.16302466779E+03  0.47000000000E+01 0. -1.
         -5    1    5    5    0  503 -0.63957181682E+02  0.47632538781E+02 -0.54213494398E+03  0.54798883869E+03  0.47000000000E+01 0. -1.
<mgrwt>
<rscale>  0 0.27181467E+03</rscale>
<asrwt>0</asrwt>
<pdfrwt beam="1">  1        2 0.17666336E+00 0.27181467E+03</pdfrwt>
<pdfrwt beam="2">  1       -2 0.24746431E-02 0.27181467E+03</pdfrwt>
<totfact> 0.12049861E+04</totfact>
</mgrwt>
</event>
<event>
 9    1  0.7986988E-001  0.2762427E+03  0.7818608E-02  0.1097759E+00
         -2   -1    0    0    0  501 -0.00000000000E+00  0.00000000000E+00  0.35797449435E+02  0.35797449435E+02  0.00000000000E+00 0.  1.
          2   -1    0    0  501    0  0.00000000000E+00 -0.00000000000E+00 -0.53292940126E+03  0.53292940126E+03  0.00000000000E+00 0.  1.
         35    2    1    2    0    0  0.00000000000E+00  0.00000000000E+00 -0.49713195182E+03  0.56872685069E+03  0.27624274321E+03 0.  0.
         25    2    3    3    0    0 -0.43081777728E+02  0.35365614901E+02 -0.21445894076E+03  0.25473915526E+03  0.12566874575E+03 0.  0.
         25    2    3    3    0    0  0.43081777728E+02 -0.35365614901E+02 -0.28267301106E+03  0.31398769544E+03  0.12480975688E+03 0.  0.
          5    1    4    4  502    0 -0.14536983284E+02 -0.31234636375E+02 -0.77175849542E+01  0.35617095755E+02  0.47000000000E+01 0.  1.
         -5    1    4    4    0  502 -0.28544794444E+02  0.66600251276E+02 -0.20674135581E+03  0.21912205950E+03  0.47000000000E+01 0.  1.
          5    1    5    5  503    0  0.31189923989E+00  0.41332960535E+02 -0.14305503853E+03  0.14898102214E+03  0.47000000000E+01 0.  1.
         -5    1    5    5    0  503  0.42769878488E+02 -0.76698575436E+02 -0.13961797253E+03  0.16500667330E+03  0.47000000000E+01 0.  1.
<mgrwt>
<rscale>  0 0.27624274E+03</rscale>
<asrwt>0</asrwt>
<pdfrwt beam="1">  1        2 0.81989135E-01 0.27624274E+03</pdfrwt>
<pdfrwt beam="2">  1       -2 0.55073002E-02 0.27624274E+03</pdfrwt>
<totfact> 0.97252510E+03</totfact>
</mgrwt>
</event>
<event>
 9    1  0.7986988E-001  0.2763953E+03  0.7818608E-02  0.1097674E+00
          2   -1    0    0  501    0  0.00000000000E+00  0.00000000000E+00  0.53462775819E+03  0.53462775819E+03  0.00000000000E+00 0.  1.
         -2   -1    0    0    0  501 -0.00000000000E+00 -0.00000000000E+00 -0.35723149287E+02  0.35723149287E+02  0.00000000000E+00 0.  1.
         35    2    1    2    0    0  0.00000000000E+00  0.00000000000E+00  0.49890460891E+03  0.57035090748E+03  0.27639527651E+03 0.  0.
         25    2    3    3    0    0 -0.13683433976E+02  0.31207402511E+02  0.29247640087E+03  0.32079601417E+03  0.12730474975E+03 0.  0.
         25    2    3    3    0    0  0.13683433976E+02 -0.31207402511E+02  0.20642820804E+03  0.24955489331E+03  0.13602904602E+03 0.  0.
          5    1    4    4  502    0  0.23473070610E+02  0.70786051815E+02  0.13709367775E+03  0.15613589163E+03  0.47000000000E+01 0. -1.
         -5    1    4    4    0  502 -0.37156504587E+02 -0.39578649305E+02  0.15538272311E+03  0.16466012254E+03  0.47000000000E+01 0. -1.
          5    1    5    5  503    0  0.40137217123E+02  0.42976463366E+02  0.66334354720E+02  0.88771105761E+02  0.47000000000E+01 0.  1.
         -5    1    5    5    0  503 -0.26453783147E+02 -0.74183865877E+02  0.14009385332E+03  0.16078378755E+03  0.47000000000E+01 0.  1.
<mgrwt>
<rscale>  0 0.27639528E+03</rscale>
<asrwt>0</asrwt>
<pdfrwt beam="1">  1        2 0.82250419E-01 0.27639528E+03</pdfrwt>
<pdfrwt beam="2">  1       -2 0.54958695E-02 0.27639528E+03</pdfrwt>
<totfact> 0.97212714E+03</totfact>
</mgrwt>
</event>
<event>
 9    1  0.7986988E-001  0.2755762E+03  0.7818608E-02  0.1098130E+00
         -1   -1    0    0    0  501 -0.00000000000E+00  0.00000000000E+00  0.39522401674E+03  0.39522401674E+03  0.00000000000E+00 0. -1.
          1   -1    0    0  501    0  0.00000000000E+00 -0.00000000000E+00 -0.48037483391E+02  0.48037483391E+02  0.00000000000E+00 0. -1.
         35    2    1    2    0    0  0.00000000000E+00 -0.71054273576E-14  0.34718653335E+03  0.44326150013E+03  0.27557624818E+03 0.  0.
         25    2    3    3    0    0  0.48683017074E+02 -0.53051745205E+01  0.22733778387E+03  0.26389060405E+03  0.12473011624E+03 0.  0.
         25    2    3    3    0    0 -0.48683017074E+02  0.53051745205E+01  0.11984874947E+03  0.17937089608E+03  0.12414513516E+03 0.  0.
          5    1    4    4  502    0 -0.15536148681E+02 -0.42307517208E+02  0.14988831806E+03  0.15658830039E+03  0.47000000000E+01 0.  1.
         -5    1    4    4    0  502  0.64219165755E+02  0.37002342688E+02  0.77449465812E+02  0.10730230365E+03  0.47000000000E+01 0.  1.
          5    1    5    5  503    0 -0.22713699115E+02  0.64955038790E+01 -0.23474045270E+02  0.33633681028E+02  0.47000000000E+01 0.  1.
         -5    1    5    5    0  503 -0.25969317959E+02 -0.11903293585E+01  0.14332279474E+03  0.14573721506E+03  0.47000000000E+01 0.  1.
<mgrwt>
<rscale>  0 0.27557625E+03</rscale>
<asrwt>0</asrwt>
<pdfrwt beam="1">  1        1 0.73903823E-02 0.27557625E+03</pdfrwt>
<pdfrwt beam="2">  1       -1 0.60803693E-01 0.27557625E+03</pdfrwt>
<totfact> 0.27374023E+03</totfact>
</mgrwt>
</event>
<event>
 9    1  0.7986988E-001  0.2745971E+03  0.7818608E-02  0.1098677E+00
          1   -1    0    0  501    0  0.00000000000E+00  0.00000000000E+00  0.40868955044E+03  0.40868955044E+03  0.00000000000E+00 0.  1.
         -1   -1    0    0    0  501 -0.00000000000E+00 -0.00000000000E+00 -0.46125208467E+02  0.46125208467E+02  0.00000000000E+00 0.  1.
         35    2    1    2    0    0  0.00000000000E+00  0.71054273576E-14  0.36256434197E+03  0.45481475891E+03  0.27459709185E+03 0.  0.
         25    2    3    3    0    0  0.19414468811E+02 -0.51843570014E+02  0.19635419181E+03  0.23913798330E+03  0.12476910300E+03 0.  0.
         25    2    3    3    0    0 -0.19414468811E+02  0.51843570014E+02  0.16621015016E+03  0.21567677561E+03  0.12580135202E+03 0.  0.
          5    1    4    4  502    0  0.51333770376E+01  0.11652638504E+01  0.18208356627E+03  0.18222026371E+03  0.47000000000E+01 0. -1.
         -5    1    4    4    0  502  0.14281091773E+02 -0.53008833864E+02  0.14270625539E+02  0.56917719588E+02  0.47000000000E+01 0. -1.
          5    1    5    5  503    0 -0.13519317689E+02  0.36535282021E+02  0.18568379556E+03  0.18978451127E+03  0.47000000000E+01 0.  1.
         -5    1    5    5    0  503 -0.58951511218E+01  0.15308287993E+02 -0.19473645395E+02  0.25892264347E+02  0.47000000000E+01 0.  1.
<mgrwt>
<rscale>  0 0.27459709E+03</rscale>
<asrwt>0</asrwt>
<pdfrwt beam="1">  1        1 0.62875313E-01 0.27459709E+03</pdfrwt>
<pdfrwt beam="2">  1       -1 0.70961862E-02 0.27459709E+03</pdfrwt>
<totfact> 0.60620587E+03</totfact>
</mgrwt>
</event>
<event>
 9    1  0.7986988E-001  0.2705077E+03  0.7818608E-02  0.1100989E+00
         -2   -1    0    0    0  501 -0.00000000000E+00  0.00000000000E+00  0.34552804097E+02  0.34552804097E+02  0.00000000000E+00 0.  1.
          2   -1    0    0  501    0  0.00000000000E+00 -0.00000000000E+00 -0.52943901430E+03  0.52943901430E+03  0.00000000000E+00 0.  1.
         35    2    1    2    0    0  0.00000000000E+00  0.71054273576E-14 -0.49488621020E+03  0.56399181839E+03  0.27050768967E+03 0.  0.
         25    2    3    3    0    0 -0.11705037257E+02 -0.43381792969E+02 -0.18879919592E+03  0.23035099301E+03  0.12408648493E+03 0.  0.
         25    2    3    3    0    0  0.11705037257E+02  0.43381792969E+02 -0.30608701428E+03  0.33364082538E+03  0.12493179015E+03 0.  0.
          5    1    4    4  502    0 -0.55727915337E+01  0.22009664724E+02 -0.15426595205E+03  0.15599857470E+03  0.47000000000E+01 0.  1.
         -5    1    4    4    0  502 -0.61322457234E+01 -0.65391457693E+02 -0.34533243872E+02  0.74352418314E+02  0.47000000000E+01 0.  1.
          5    1    5    5  503    0  0.11364183714E+02  0.79835771937E+02 -0.12477039615E+03  0.14863592065E+03  0.47000000000E+01 0. -1.
         -5    1    5    5    0  503  0.34085354318E+00 -0.36453978967E+02 -0.18131661814E+03  0.18500490473E+03  0.47000000000E+01 0. -1.
<mgrwt>
<rscale>  0 0.27050769E+03</rscale>
<asrwt>0</asrwt>
<pdfrwt beam="1">  1        2 0.81452153E-01 0.27050769E+03</pdfrwt>
<pdfrwt beam="2">  1       -2 0.53158162E-02 0.27050769E+03</pdfrwt>
<totfact> 0.10332816E+04</totfact>
</mgrwt>
</event>
<event>
 9    1  0.7986988E-001  0.2726069E+03  0.7818608E-02  0.1099797E+00
          2   -1    0    0  501    0  0.00000000000E+00  0.00000000000E+00  0.11655368646E+02  0.11655368646E+02  0.00000000000E+00 0. -1.
         -2   -1    0    0    0  501 -0.00000000000E+00 -0.00000000000E+00 -0.15939982004E+04  0.15939982004E+04  0.00000000000E+00 0. -1.
         35    2    1    2    0    0 -0.17763568394E-14 -0.17763568394E-14 -0.15823428318E+04  0.16056535691E+04  0.27260694523E+03 0.  0.
         25    2    3    3    0    0  0.67412455286E+01 -0.12524830570E+02 -0.10775907421E+04  0.10849151755E+04  0.12504724983E+03 0.  0.
         25    2    3    3    0    0 -0.67412455286E+01  0.12524830570E+02 -0.50475208962E+03  0.52073839356E+03  0.12724577314E+03 0.  0.
          5    1    4    4  502    0  0.25896945311E+02  0.95065860290E+01 -0.10180615911E+04  0.10184461302E+04  0.47000000000E+01 0. -1.
         -5    1    4    4    0  502 -0.19155699783E+02 -0.22031416599E+02 -0.59529151063E+02  0.66469045260E+02  0.47000000000E+01 0. -1.
          5    1    5    5  503    0 -0.60375465065E+01 -0.57182391633E+02 -0.20610575716E+03  0.21402792111E+03  0.47000000000E+01 0.  1.
         -5    1    5    5    0  503 -0.70369902205E+00  0.69707222202E+02 -0.29864633246E+03  0.30671047245E+03  0.47000000000E+01 0.  1.
<mgrwt>
<rscale>  0 0.27260695E+03</rscale>
<asrwt>0</asrwt>
<pdfrwt beam="1">  1        2 0.17931350E-02 0.27260695E+03</pdfrwt>
<pdfrwt beam="2">  1       -2 0.24523031E+00 0.27260695E+03</pdfrwt>
<totfact> 0.48765845E+02</totfact>
</mgrwt>
</event>
<event>
 9    1  0.7986988E-001  0.2802627E+03  0.7818608E-02  0.1095546E+00
          4   -1    0    0  501    0  0.00000000000E+00  0.00000000000E+00  0.25939093484E+02  0.25939093484E+02  0.00000000000E+00 0.  1.
         -4   -1    0    0    0  501 -0.00000000000E+00 -0.00000000000E+00 -0.75703480871E+03  0.75703480871E+03  0.00000000000E+00 0.  1.
         35    2    1    2    0    0 -0.35527136788E-14  0.00000000000E+00 -0.73109571523E+03  0.78297390219E+03  0.28026271014E+03 0.  0.
         25    2    3    3    0    0  0.13051953765E+02  0.49374150056E+02 -0.28505971455E+03  0.31706658649E+03  0.12908919094E+03 0.  0.
         25    2    3    3    0    0 -0.13051953765E+02 -0.49374150056E+02 -0.44603600068E+03  0.46590731571E+03  0.12455261031E+03 0.  0.
          5    1    4    4  502    0 -0.12001979113E+01  0.32230966071E+02 -0.29155796550E+03  0.29337418580E+03  0.47000000000E+01 0. -1.
         -5    1    4    4    0  502  0.14252151677E+02  0.17143183985E+02  0.64982509571E+01  0.23692400681E+02  0.47000000000E+01 0. -1.
          5    1    5    5  503    0  0.59475160145E+01 -0.77506723818E+02 -0.16129412068E+03  0.17911043674E+03  0.47000000000E+01 0.  1.
         -5    1    5    5    0  503 -0.18999469780E+02  0.28132573762E+02 -0.28474188000E+03  0.28679687897E+03  0.47000000000E+01 0.  1.
<mgrwt>
<rscale>  0 0.28026271E+03</rscale>
<asrwt>0</asrwt>
<pdfrwt beam="1">  1        4 0.39906303E-02 0.28026271E+03</pdfrwt>
<pdfrwt beam="2">  1       -4 0.11646688E+00 0.28026271E+03</pdfrwt>
<totfact> 0.38285684E+02</totfact>
</mgrwt>
</event>
<event>
 9    1  0.7986988E-001  0.2743363E+03  0.7818608E-02  0.1098823E+00
         -1   -1    0    0    0  501 -0.00000000000E+00  0.00000000000E+00  0.12200385629E+02  0.12200385629E+02  0.00000000000E+00 0.  1.
          1   -1    0    0  501    0  0.00000000000E+00 -0.00000000000E+00 -0.15421723787E+04  0.15421723787E+04  0.00000000000E+00 0.  1.
         35    2    1    2    0    0  0.71054273576E-14  0.00000000000E+00 -0.15299719931E+04  0.15543727644E+04  0.27433627341E+03 0.  0.
         25    2    3    3    0    0 -0.20508138026E+02  0.35820340806E+02 -0.51763391895E+03  0.53349340371E+03  0.12233829009E+03 0.  0.
         25    2    3    3    0    0  0.20508138026E+02 -0.35820340806E+02 -0.10123380742E+04  0.10208793606E+04  0.12515035784E+03 0.  0.
          5    1    4    4  502    0  0.46085691148E+02  0.15781716731E+02 -0.11670647347E+03  0.12655214128E+03  0.47000000000E+01 0. -1.
         -5    1    4    4    0  502 -0.66593829174E+02  0.20038624075E+02 -0.40092744548E+03  0.40694126244E+03  0.47000000000E+01 0. -1.
          5    1    5    5  503    0 -0.18092217611E+02 -0.25463666056E+02 -0.91507998783E+03  0.91562503284E+03  0.47000000000E+01 0.  1.
         -5    1    5    5    0  503  0.38600355637E+02 -0.10356674750E+02 -0.97258086324E+02  0.10525432781E+03  0.47000000000E+01 0.  1.
<mgrwt>
<rscale>  0 0.27433627E+03</rscale>
<asrwt>0</asrwt>
<pdfrwt beam="1">  1        1 0.23725728E+00 0.27433627E+03</pdfrwt>
<pdfrwt beam="2">  1       -1 0.18769825E-02 0.27433627E+03</pdfrwt>
<totfact> 0.50494025E+03</totfact>
</mgrwt>
</event>
<event>
 9    1  0.7986988E-001  0.2708864E+03  0.7818608E-02  0.1100773E+00
         -1   -1    0    0    0  501 -0.00000000000E+00  0.00000000000E+00  0.16593943409E+02  0.16593943409E+02  0.00000000000E+00 0. -1.
          1   -1    0    0  501    0  0.00000000000E+00 -0.00000000000E+00 -0.11055155341E+04  0.11055155341E+04  0.00000000000E+00 0. -1.
         35    2    1    2    0    0  0.00000000000E+00 -0.71054273576E-14 -0.10889215907E+04  0.11221094775E+04  0.27088641318E+03 0.  0.
         25    2    3    3    0    0  0.35236002807E+02 -0.17886825700E+02 -0.38504541768E+03  0.40604609837E+03  0.12268637210E+03 0.  0.
         25    2    3    3    0    0 -0.35236002807E+02  0.17886825700E+02 -0.70387617300E+03  0.71606337913E+03  0.12547342978E+03 0.  0.
          5    1    4    4  502    0 -0.10738095871E+01  0.47215378741E+02 -0.21731135422E+03  0.22243371986E+03  0.47000000000E+01 0. -1.
         -5    1    4    4    0  502  0.36309812394E+02 -0.65102204441E+02 -0.16773406345E+03  0.18361237851E+03  0.47000000000E+01 0. -1.
          5    1    5    5  503    0  0.11834198665E+02 -0.34450881497E+02 -0.77899781894E+02  0.86124198185E+02  0.47000000000E+01 0.  1.
         -5    1    5    5    0  503 -0.47070201472E+02  0.52337707197E+02 -0.62597639111E+03  0.62993918094E+03  0.47000000000E+01 0.  1.
<mgrwt>
<rscale>  0 0.27088641E+03</rscale>
<asrwt>0</asrwt>
<pdfrwt beam="1">  1        1 0.17007934E+00 0.27088641E+03</pdfrwt>
<pdfrwt beam="2">  1       -1 0.25529139E-02 0.27088641E+03</pdfrwt>
<totfact> 0.63961761E+03</totfact>
</mgrwt>
</event>
<event>
 9    1  0.7986988E-001  0.2769413E+03  0.7818608E-02  0.1097371E+00
          2   -1    0    0  501    0  0.00000000000E+00  0.00000000000E+00  0.28053175298E+03  0.28053175298E+03  0.00000000000E+00 0. -1.
         -2   -1    0    0    0  501 -0.00000000000E+00 -0.00000000000E+00 -0.68349201142E+02  0.68349201142E+02  0.00000000000E+00 0. -1.
         35    2    1    2    0    0  0.00000000000E+00  0.00000000000E+00  0.21218255184E+03  0.34888095413E+03  0.27694130217E+03 0.  0.
         25    2    3    3    0    0  0.56367403764E+01 -0.50395725482E+02  0.69335751058E+02  0.15235370349E+03  0.12582806763E+03 0.  0.
         25    2    3    3    0    0 -0.56367403764E+01  0.50395725482E+02  0.14284680078E+03  0.19652725064E+03  0.12508497016E+03 0.  0.
          5    1    4    4  502    0  0.62486834780E+02 -0.12957364438E+02  0.50650352136E+02  0.81609104795E+02  0.47000000000E+01 0. -1.
         -5    1    4    4    0  502 -0.56850094404E+02 -0.37438361044E+02  0.18685398922E+02  0.70744598693E+02  0.47000000000E+01 0. -1.
          5    1    5    5  503    0  0.57159273871E+02  0.22246627869E+02  0.42536352676E+02  0.74789881268E+02  0.47000000000E+01 0.  1.
         -5    1    5    5    0  503 -0.62796014248E+02  0.28149097613E+02  0.10031044811E+03  0.12173736937E+03  0.47000000000E+01 0.  1.
<mgrwt>
<rscale>  0 0.27694130E+03</rscale>
<asrwt>0</asrwt>
<pdfrwt beam="1">  1        2 0.43158731E-01 0.27694130E+03</pdfrwt>
<pdfrwt beam="2">  1       -2 0.10515262E-01 0.27694130E+03</pdfrwt>
<totfact> 0.71492223E+03</totfact>
</mgrwt>
</event>
<event>
 9    1  0.7986988E-001  0.2684431E+03  0.7818608E-02  0.1102174E+00
         -2   -1    0    0    0  501 -0.00000000000E+00  0.00000000000E+00  0.30265399276E+02  0.30265399276E+02  0.00000000000E+00 0.  1.
          2   -1    0    0  501    0  0.00000000000E+00 -0.00000000000E+00 -0.59524841293E+03  0.59524841293E+03  0.00000000000E+00 0.  1.
         35    2    1    2    0    0 -0.35527136788E-14  0.17763568394E-14 -0.56498301365E+03  0.62551381221E+03  0.26844314769E+03 0.  0.
         25    2    3    3    0    0 -0.25559976309E+01  0.58819634650E+01 -0.16787871451E+03  0.20962849632E+03  0.12537827987E+03 0.  0.
         25    2    3    3    0    0  0.25559976309E+01 -0.58819634650E+01 -0.39710429914E+03  0.41588531589E+03  0.12340032803E+03 0.  0.
          5    1    4    4  502    0  0.25930452590E+02 -0.35366517686E+01 -0.17615619987E+03  0.17815160125E+03  0.47000000000E+01 0.  1.
         -5    1    4    4    0  502 -0.28486450221E+02  0.94186152336E+01  0.82774853531E+01  0.31476895064E+02  0.47000000000E+01 0.  1.
          5    1    5    5  503    0  0.60389233030E+02  0.10619645097E+02 -0.16557208357E+03  0.17662344461E+03  0.47000000000E+01 0. -1.
         -5    1    5    5    0  503 -0.57833235399E+02 -0.16501608562E+02 -0.23153221557E+03  0.23926187128E+03  0.47000000000E+01 0. -1.
<mgrwt>
<rscale>  0 0.26844315E+03</rscale>
<asrwt>0</asrwt>
<pdfrwt beam="1">  1        2 0.91576668E-01 0.26844315E+03</pdfrwt>
<pdfrwt beam="2">  1       -2 0.46562158E-02 0.26844315E+03</pdfrwt>
<totfact> 0.11048278E+04</totfact>
</mgrwt>
</event>
<event>
 9    1  0.7986988E-001  0.2782110E+03  0.7818608E-02  0.1096670E+00
          2   -1    0    0  501    0  0.00000000000E+00  0.00000000000E+00  0.35502600133E+03  0.35502600133E+03  0.00000000000E+00 0.  1.
         -2   -1    0    0    0  501 -0.00000000000E+00 -0.00000000000E+00 -0.54504016523E+02  0.54504016523E+02  0.00000000000E+00 0.  1.
         35    2    1    2    0    0  0.00000000000E+00 -0.17763568394E-14  0.30052198481E+03  0.40953001786E+03  0.27821102094E+03 0.  0.
         25    2    3    3    0    0 -0.53089889051E+02  0.95910349976E+01  0.11292786497E+03  0.17703124697E+03  0.12520717011E+03 0.  0.
         25    2    3    3    0    0  0.53089889051E+02 -0.95910349976E+01  0.18759411984E+03  0.23249877088E+03  0.12630756269E+03 0.  0.
          5    1    4    4  502    0 -0.82398775762E+02 -0.13245665313E+02  0.11176012747E+03  0.13956153478E+03  0.47000000000E+01 0. -1.
         -5    1    4    4    0  502  0.29308886711E+02  0.22836700311E+02  0.11677375012E+01  0.37469712198E+02  0.47000000000E+01 0. -1.
          5    1    5    5  503    0  0.60042618700E+02 -0.60465179069E+02  0.10774808289E+03  0.13745142162E+03  0.47000000000E+01 0. -1.
         -5    1    5    5    0  503 -0.69527296491E+01  0.50874144071E+02  0.79846036950E+02  0.95047349259E+02  0.47000000000E+01 0. -1.
<mgrwt>
<rscale>  0 0.27821102E+03</rscale>
<asrwt>0</asrwt>
<pdfrwt beam="1">  1        2 0.54619383E-01 0.27821102E+03</pdfrwt>
<pdfrwt beam="2">  1       -2 0.83852335E-02 0.27821102E+03</pdfrwt>
<totfact> 0.79375964E+03</totfact>
</mgrwt>
</event>
<event>
 9    1  0.7986988E-001  0.2727053E+03  0.7818608E-02  0.1099741E+00
         -2   -1    0    0    0  501 -0.00000000000E+00  0.00000000000E+00  0.27218238418E+02  0.27218238418E+02  0.00000000000E+00 0. -1.
          2   -1    0    0  501    0  0.00000000000E+00 -0.00000000000E+00 -0.68307329825E+03  0.68307329825E+03  0.00000000000E+00 0. -1.
         35    2    1    2    0    0  0.00000000000E+00 -0.35527136788E-14 -0.65585505983E+03  0.71029153667E+03  0.27270534933E+03 0.  0.
         25    2    3    3    0    0 -0.44083255376E+02 -0.45797160753E+01 -0.41089462938E+03  0.43190853135E+03  0.12548416552E+03 0.  0.
         25    2    3    3    0    0  0.44083255376E+02  0.45797160753E+01 -0.24496043045E+03  0.27838300532E+03  0.12460809748E+03 0.  0.
          5    1    4    4  502    0  0.15233627650E+02 -0.53220057816E+02 -0.15135495043E+03  0.16122918155E+03  0.47000000000E+01 0.  1.
         -5    1    4    4    0  502 -0.59316883026E+02  0.48640341741E+02 -0.25953967895E+03  0.27067934980E+03  0.47000000000E+01 0.  1.
          5    1    5    5  503    0  0.38403715252E+02  0.24968982123E+02 -0.16528069125E+02  0.48924048099E+02  0.47000000000E+01 0. -1.
         -5    1    5    5    0  503  0.56795401241E+01 -0.20389266047E+02 -0.22843236133E+03  0.22945895722E+03  0.47000000000E+01 0. -1.
<mgrwt>
<rscale>  0 0.27270535E+03</rscale>
<asrwt>0</asrwt>
<pdfrwt beam="1">  1        2 0.10508820E+00 0.27270535E+03</pdfrwt>
<pdfrwt beam="2">  1       -2 0.41874214E-02 0.27270535E+03</pdfrwt>
<totfact> 0.11031408E+04</totfact>
</mgrwt>
</event>
<event>
 9    1  0.7986988E-001  0.2759858E+03  0.7818608E-02  0.1097902E+00
         -2   -1    0    0    0  501 -0.00000000000E+00  0.00000000000E+00  0.23006080931E+02  0.23006080931E+02  0.00000000000E+00 0. -1.
          2   -1    0    0  501    0  0.00000000000E+00 -0.00000000000E+00 -0.82769624243E+03  0.82769624243E+03  0.00000000000E+00 0. -1.
         35    2    1    2    0    0  0.00000000000E+00  0.71054273576E-14 -0.80469016150E+03  0.85070232336E+03  0.27598584558E+03 0.  0.
         25    2    3    3    0    0 -0.15919436808E+01  0.18012733428E+02 -0.22360040992E+03  0.25581057573E+03  0.12294272850E+03 0.  0.
         25    2    3    3    0    0  0.15919436808E+01 -0.18012733428E+02 -0.58108975158E+03  0.59489174763E+03  0.12611066234E+03 0.  0.
          5    1    4    4  502    0 -0.30968376545E+02  0.39138218429E+02 -0.21151401142E+03  0.21737319870E+03  0.47000000000E+01 0.  1.
         -5    1    4    4    0  502  0.29376432864E+02 -0.21125485001E+02 -0.12086398503E+02  0.38437377032E+02  0.47000000000E+01 0.  1.
          5    1    5    5  503    0  0.53088267197E+02 -0.42964582955E+02 -0.36117391280E+03  0.36760441346E+03  0.47000000000E+01 0. -1.
         -5    1    5    5    0  503 -0.51496323517E+02  0.24951849527E+02 -0.21991583878E+03  0.22728733417E+03  0.47000000000E+01 0. -1.
<mgrwt>
<rscale>  0 0.27598585E+03</rscale>
<asrwt>0</asrwt>
<pdfrwt beam="1">  1        2 0.12733789E+00 0.27598585E+03</pdfrwt>
<pdfrwt beam="2">  1       -2 0.35393968E-02 0.27598585E+03</pdfrwt>
<totfact> 0.11185857E+04</totfact>
</mgrwt>
</event>
<event>
 9    1  0.7986988E-001  0.2817307E+03  0.7818608E-02  0.1094747E+00
         -2   -1    0    0    0  501 -0.00000000000E+00  0.00000000000E+00  0.61367440956E+02  0.61367440956E+02  0.00000000000E+00 0. -1.
          2   -1    0    0  501    0  0.00000000000E+00 -0.00000000000E+00 -0.32334805582E+03  0.32334805582E+03  0.00000000000E+00 0. -1.
         35    2    1    2    0    0  0.00000000000E+00  0.00000000000E+00 -0.26198061486E+03  0.38471549677E+03  0.28173067084E+03 0.  0.
         25    2    3    3    0    0  0.11784957500E+02 -0.44755064279E+02 -0.68144157652E+02  0.14929086310E+03  0.12450796995E+03 0.  0.
         25    2    3    3    0    0 -0.11784957500E+02  0.44755064279E+02 -0.19383645721E+03  0.23542463367E+03  0.12534067574E+03 0.  0.
          5    1    4    4  502    0  0.56841739933E+02 -0.38872333796E+02 -0.76299428710E+02  0.10288699896E+03  0.47000000000E+01 0. -1.
         -5    1    4    4    0  502 -0.45056782433E+02 -0.58827304829E+01  0.81552710584E+01  0.46403864140E+02  0.47000000000E+01 0. -1.
          5    1    5    5  503    0 -0.49646519969E+00  0.10046490067E+02 -0.19807130914E+03  0.19838223697E+03  0.47000000000E+01 0.  1.
         -5    1    5    5    0  503 -0.11288492300E+02  0.34708574213E+02  0.42348519366E+01  0.37042396699E+02  0.47000000000E+01 0.  1.
<mgrwt>
<rscale>  0 0.28173067E+03</rscale>
<asrwt>0</asrwt>
<pdfrwt beam="1">  1        2 0.49745856E-01 0.28173067E+03</pdfrwt>
<pdfrwt beam="2">  1       -2 0.94411446E-02 0.28173067E+03</pdfrwt>
<totfact> 0.72867113E+03</totfact>
</mgrwt>
</event>
<event>
 9    1  0.7986988E-001  0.2702311E+03  0.7818608E-02  0.1101147E+00
          2   -1    0    0  501    0  0.00000000000E+00  0.00000000000E+00  0.60561093421E+03  0.60561093421E+03  0.00000000000E+00 0. -1.
         -2   -1    0    0    0  501 -0.00000000000E+00 -0.00000000000E+00 -0.30145125275E+02  0.30145125275E+02  0.00000000000E+00 0. -1.
         35    2    1    2    0    0 -0.53290705182E-14  0.00000000000E+00  0.57546580893E+03  0.63575605948E+03  0.27023114165E+03 0.  0.
         25    2    3    3    0    0 -0.39510359885E+01 -0.49903280095E+02  0.28016565221E+03  0.31038551796E+03  0.12385648562E+03 0.  0.
         25    2    3    3    0    0  0.39510359885E+01  0.49903280095E+02  0.29530015672E+03  0.32537054152E+03  0.12711356608E+03 0.  0.
          5    1    4    4  502    0  0.12121697708E+02 -0.47987870170E+02  0.28767047794E+03  0.29193520705E+03  0.47000000000E+01 0. -1.
         -5    1    4    4    0  502 -0.16072733696E+02 -0.19154099255E+01 -0.75048257231E+01  0.18450310913E+02  0.47000000000E+01 0. -1.
          5    1    5    5  503    0 -0.42105464807E+02 -0.15381806931E+02  0.17622750626E+03  0.18190023121E+03  0.47000000000E+01 0. -1.
         -5    1    5    5    0  503  0.46056500795E+02  0.65285087026E+02  0.11907265046E+03  0.14347031031E+03  0.47000000000E+01 0. -1.
<mgrwt>
<rscale>  0 0.27023114E+03</rscale>
<asrwt>0</asrwt>
<pdfrwt beam="1">  1        2 0.93170904E-01 0.27023114E+03</pdfrwt>
<pdfrwt beam="2">  1       -2 0.46377120E-02 0.27023114E+03</pdfrwt>
<totfact> 0.10897434E+04</totfact>
</mgrwt>
</event>
<event>
 9    1  0.7986988E-001  0.2716007E+03  0.7818608E-02  0.1100367E+00
          1   -1    0    0  501    0  0.00000000000E+00  0.00000000000E+00  0.11941189421E+04  0.11941189421E+04  0.00000000000E+00 0. -1.
         -1   -1    0    0    0  501 -0.00000000000E+00 -0.00000000000E+00 -0.15443805940E+02  0.15443805940E+02  0.00000000000E+00 0. -1.
         35    2    1    2    0    0 -0.35527136788E-14  0.71054273576E-14  0.11786751361E+04  0.12095627480E+04  0.27160074528E+03 0.  0.
         25    2    3    3    0    0  0.38138410180E+01  0.36117850816E+02  0.77011283301E+03  0.78094380230E+03  0.12442026468E+03 0.  0.
         25    2    3    3    0    0 -0.38138410180E+01 -0.36117850816E+02  0.40856230311E+03  0.42861894569E+03  0.12438649667E+03 0.  0.
          5    1    4    4  502    0 -0.14105328586E+02 -0.40673371160E+02  0.16070801784E+03  0.16644050112E+03  0.47000000000E+01 0. -1.
         -5    1    4    4    0  502  0.17919169604E+02  0.76791221976E+02  0.60940481517E+03  0.61450330118E+03  0.47000000000E+01 0. -1.
          5    1    5    5  503    0  0.38596236390E+02 -0.23040014205E+02  0.35936271996E+03  0.36219354800E+03  0.47000000000E+01 0.  1.
         -5    1    5    5    0  503 -0.42410077408E+02 -0.13077836611E+02  0.49199583150E+02  0.66425397690E+02  0.47000000000E+01 0.  1.
<mgrwt>
<rscale>  0 0.27160075E+03</rscale>
<asrwt>0</asrwt>
<pdfrwt beam="1">  1        1 0.18371053E+00 0.27160075E+03</pdfrwt>
<pdfrwt beam="2">  1       -1 0.23759711E-02 0.27160075E+03</pdfrwt>
<totfact> 0.61501028E+03</totfact>
</mgrwt>
</event>
<event>
 9    1  0.7986988E-001  0.2779257E+03  0.7818608E-02  0.1096827E+00
          1   -1    0    0  501    0  0.00000000000E+00  0.00000000000E+00  0.36296624334E+03  0.36296624334E+03  0.00000000000E+00 0.  1.
         -1   -1    0    0    0  501 -0.00000000000E+00 -0.00000000000E+00 -0.53202413716E+02  0.53202413716E+02  0.00000000000E+00 0.  1.
         35    2    1    2    0    0 -0.71054273576E-14  0.71054273576E-14  0.30976382962E+03  0.41616865706E+03  0.27792574723E+03 0.  0.
         25    2    3    3    0    0 -0.49943452896E+02 -0.29388734813E+02  0.16345978083E+03  0.21549475949E+03  0.12790951957E+03 0.  0.
         25    2    3    3    0    0  0.49943452896E+02  0.29388734813E+02  0.14630404879E+03  0.20067389757E+03  0.12452747588E+03 0.  0.
          5    1    4    4  502    0 -0.52595136427E+01 -0.40601300083E+02 -0.43258883914E+01  0.41435870481E+02  0.47000000000E+01 0.  1.
         -5    1    4    4    0  502 -0.44683939254E+02  0.11212565269E+02  0.16778566922E+03  0.17405888901E+03  0.47000000000E+01 0.  1.
          5    1    5    5  503    0 -0.20897095800E+01  0.64986591863E+02  0.10973853059E+03  0.12764113406E+03  0.47000000000E+01 0. -1.
         -5    1    5    5    0  503  0.52033162476E+02 -0.35597857050E+02  0.36565518206E+02  0.73032763507E+02  0.47000000000E+01 0. -1.
<mgrwt>
<rscale>  0 0.27792575E+03</rscale>
<asrwt>0</asrwt>
<pdfrwt beam="1">  1        1 0.55840959E-01 0.27792575E+03</pdfrwt>
<pdfrwt beam="2">  1       -1 0.81849870E-02 0.27792575E+03</pdfrwt>
<totfact> 0.56775882E+03</totfact>
</mgrwt>
</event>
<event>
 9    1  0.7986988E-001  0.2775161E+03  0.7818608E-02  0.1097053E+00
          4   -1    0    0  501    0  0.00000000000E+00  0.00000000000E+00  0.41259955861E+02  0.41259955861E+02  0.00000000000E+00 0.  1.
         -4   -1    0    0    0  501 -0.00000000000E+00 -0.00000000000E+00 -0.46664608892E+03  0.46664608892E+03  0.00000000000E+00 0.  1.
         35    2    1    2    0    0 -0.71054273576E-14  0.00000000000E+00 -0.42538613306E+03  0.50790604478E+03  0.27751610427E+03 0.  0.
         25    2    3    3    0    0  0.54191736153E+02 -0.20991638899E+02 -0.19588305125E+03  0.23983073981E+03  0.12558352128E+03 0.  0.
         25    2    3    3    0    0 -0.54191736153E+02  0.20991638899E+02 -0.22950308181E+03  0.26807530498E+03  0.12575894166E+03 0.  0.
          5    1    4    4  502    0  0.11830937873E+02  0.49057547070E+02 -0.43513129435E+02  0.66798925506E+02  0.47000000000E+01 0. -1.
         -5    1    4    4    0  502  0.42360798279E+02 -0.70049185969E+02 -0.15236992182E+03  0.17303181430E+03  0.47000000000E+01 0. -1.
          5    1    5    5  503    0  0.13347667700E+02  0.29499634457E+01  0.10621160204E+02  0.17937713383E+02  0.47000000000E+01 0.  1.
         -5    1    5    5    0  503 -0.67539403852E+02  0.18041675454E+02 -0.24012424201E+03  0.25013759159E+03  0.47000000000E+01 0.  1.
<mgrwt>
<rscale>  0 0.27751610E+03</rscale>
<asrwt>0</asrwt>
<pdfrwt beam="1">  1        4 0.63476854E-02 0.27751610E+03</pdfrwt>
<pdfrwt beam="2">  1       -4 0.71791708E-01 0.27751610E+03</pdfrwt>
<totfact> 0.54773655E+02</totfact>
</mgrwt>
</event>
<event>
 9    1  0.7986988E-001  0.2766677E+03  0.7818608E-02  0.1097523E+00
         -1   -1    0    0    0  501 -0.00000000000E+00  0.00000000000E+00  0.20352840545E+03  0.20352840545E+03  0.00000000000E+00 0. -1.
          1   -1    0    0  501    0  0.00000000000E+00 -0.00000000000E+00 -0.94022517050E+02  0.94022517050E+02  0.00000000000E+00 0. -1.
         35    2    1    2    0    0 -0.35527136788E-14  0.14210854715E-13  0.10950588840E+03  0.29755092250E+03  0.27666769216E+03 0.  0.
         25    2    3    3    0    0  0.16835786881E+02 -0.51398185359E+02  0.47952977088E+02  0.14439244742E+03  0.12499789471E+03 0.  0.
         25    2    3    3    0    0 -0.16835786881E+02  0.51398185359E+02  0.61552911309E+02  0.15315847508E+03  0.12939683311E+03 0.  0.
          5    1    4    4  502    0 -0.82899988664E+01 -0.89255291010E+01  0.82784178273E+02  0.83807513525E+02  0.47000000000E+01 0.  1.
         -5    1    4    4    0  502  0.25125785747E+02 -0.42472656258E+02 -0.34831201185E+02  0.60584933895E+02  0.47000000000E+01 0.  1.
          5    1    5    5  503    0 -0.60463724950E+02  0.28597093713E+02  0.76281531571E+02  0.10156090716E+03  0.47000000000E+01 0. -1.
         -5    1    5    5    0  503  0.43627938069E+02  0.22801091646E+02 -0.14728620262E+02  0.51597567920E+02  0.47000000000E+01 0. -1.
<mgrwt>
<rscale>  0 0.27666769E+03</rscale>
<asrwt>0</asrwt>
<pdfrwt beam="1">  1        1 0.14465003E-01 0.27666769E+03</pdfrwt>
<pdfrwt beam="2">  1       -1 0.31312062E-01 0.27666769E+03</pdfrwt>
<totfact> 0.36929541E+03</totfact>
</mgrwt>
</event>
<event>
 9    1  0.7986988E-001  0.2722911E+03  0.7818608E-02  0.1099975E+00
          2   -1    0    0  501    0  0.00000000000E+00  0.00000000000E+00  0.57467940593E+03  0.57467940593E+03  0.00000000000E+00 0. -1.
         -2   -1    0    0    0  501 -0.00000000000E+00 -0.00000000000E+00 -0.32253816882E+02  0.32253816882E+02  0.00000000000E+00 0. -1.
         35    2    1    2    0    0  0.00000000000E+00  0.00000000000E+00  0.54242558904E+03  0.60693322281E+03  0.27229105255E+03 0.  0.
         25    2    3    3    0    0 -0.35163438439E+02  0.40864776280E+02  0.26016506521E+03  0.29376948542E+03  0.12533256585E+03 0.  0.
         25    2    3    3    0    0  0.35163438439E+02 -0.40864776280E+02  0.28226052383E+03  0.31316373739E+03  0.12447540222E+03 0.  0.
          5    1    4    4  502    0  0.43585555999E+02  0.27091860563E+02  0.14166212399E+03  0.15074454211E+03  0.47000000000E+01 0. -1.
         -5    1    4    4    0  502 -0.78748994438E+02  0.13772915717E+02  0.11850294122E+03  0.14302494331E+03  0.47000000000E+01 0. -1.
          5    1    5    5  503    0 -0.17638526668E+01 -0.72737616586E+01  0.25675842833E+03  0.25691048889E+03  0.47000000000E+01 0. -1.
         -5    1    5    5    0  503  0.36927291106E+02 -0.33591014622E+02  0.25502095509E+02  0.56253248502E+02  0.47000000000E+01 0. -1.
<mgrwt>
<rscale>  0 0.27229105E+03</rscale>
<asrwt>0</asrwt>
<pdfrwt beam="1">  1        2 0.88412209E-01 0.27229105E+03</pdfrwt>
<pdfrwt beam="2">  1       -2 0.49621261E-02 0.27229105E+03</pdfrwt>
<totfact> 0.10453389E+04</totfact>
</mgrwt>
</event>
<event>
 9    1  0.7986988E-001  0.2760374E+03  0.7818608E-02  0.1097873E+00
         -1   -1    0    0    0  501 -0.00000000000E+00  0.00000000000E+00  0.56072274551E+03  0.56072274551E+03  0.00000000000E+00 0. -1.
          1   -1    0    0  501    0  0.00000000000E+00 -0.00000000000E+00 -0.33972505133E+02  0.33972505133E+02  0.00000000000E+00 0. -1.
         35    2    1    2    0    0  0.00000000000E+00  0.71054273576E-14  0.52675024037E+03  0.59469525064E+03  0.27603736232E+03 0.  0.
         25    2    3    3    0    0  0.16556532271E+01  0.59586324393E+02  0.29981540495E+03  0.33006528242E+03  0.12450117418E+03 0.  0.
         25    2    3    3    0    0 -0.16556532271E+01 -0.59586324393E+02  0.22693483543E+03  0.26462996822E+03  0.12237781379E+03 0.  0.
          5    1    4    4  502    0  0.42537065057E+02  0.90258522877E+01  0.23165942138E+03  0.23575208468E+03  0.47000000000E+01 0. -1.
         -5    1    4    4    0  502 -0.40881411830E+02  0.50560472105E+02  0.68155983564E+02  0.94313197742E+02  0.47000000000E+01 0. -1.
          5    1    5    5  503    0 -0.61113157288E+02 -0.23532699030E+02  0.96034344400E+02  0.11633267478E+03  0.47000000000E+01 0. -1.
         -5    1    5    5    0  503  0.59457504060E+02 -0.36053625363E+02  0.13090049103E+03  0.14829729344E+03  0.47000000000E+01 0. -1.
<mgrwt>
<rscale>  0 0.27603736E+03</rscale>
<asrwt>0</asrwt>
<pdfrwt beam="1">  1        1 0.52265397E-02 0.27603736E+03</pdfrwt>
<pdfrwt beam="2">  1       -1 0.86265031E-01 0.27603736E+03</pdfrwt>
<totfact> 0.21745888E+03</totfact>
</mgrwt>
</event>
<event>
 9    1  0.7986988E-001  0.2777363E+03  0.7818608E-02  0.1096932E+00
         -1   -1    0    0    0  501 -0.00000000000E+00  0.00000000000E+00  0.17603388392E+02  0.17603388392E+02  0.00000000000E+00 0. -1.
          1   -1    0    0  501    0  0.00000000000E+00 -0.00000000000E+00 -0.10954918063E+04  0.10954918063E+04  0.00000000000E+00 0. -1.
         35    2    1    2    0    0  0.71054273576E-14  0.17763568394E-14 -0.10778884179E+04  0.11130951947E+04  0.27773633357E+03 0.  0.
         25    2    3    3    0    0  0.54717661626E+02 -0.48366348373E+01 -0.64782486003E+03  0.66198000735E+03  0.12459159413E+03 0.  0.
         25    2    3    3    0    0 -0.54717661626E+02  0.48366348373E+01 -0.43006355789E+03  0.45111518735E+03  0.12463078634E+03 0.  0.
          5    1    4    4  502    0  0.67013730531E+02  0.22786028603E+02 -0.60610349395E+03  0.61024059072E+03  0.47000000000E+01 0. -1.
         -5    1    4    4    0  502 -0.12296068905E+02 -0.27622663440E+02 -0.41721366079E+02  0.51739416633E+02  0.47000000000E+01 0. -1.
          5    1    5    5  503    0  0.38101865422E+02 -0.87056116722E+01 -0.17326681654E+03  0.17768235573E+03  0.47000000000E+01 0. -1.
         -5    1    5    5    0  503 -0.92819527048E+02  0.13542246509E+02 -0.25679674134E+03  0.27343283162E+03  0.47000000000E+01 0. -1.
<mgrwt>
<rscale>  0 0.27773633E+03</rscale>
<asrwt>0</asrwt>
<pdfrwt beam="1">  1        1 0.16853716E+00 0.27773633E+03</pdfrwt>
<pdfrwt beam="2">  1       -1 0.27082142E-02 0.27773633E+03</pdfrwt>
<totfact> 0.59652582E+03</totfact>
</mgrwt>
</event>
<event>
 9    1  0.7986988E-001  0.2781870E+03  0.7818608E-02  0.1096683E+00
         -2   -1    0    0    0  501 -0.00000000000E+00  0.00000000000E+00  0.12570387772E+03  0.12570387772E+03  0.00000000000E+00 0. -1.
          2   -1    0    0  501    0  0.00000000000E+00 -0.00000000000E+00 -0.15390933058E+03  0.15390933058E+03  0.00000000000E+00 0. -1.
         35    2    1    2    0    0 -0.35527136788E-14 -0.14210854715E-13 -0.28205452860E+02  0.27961320830E+03  0.27818698511E+03 0.  0.
         25    2    3    3    0    0 -0.26634275544E+02  0.49624273292E+02 -0.80224461746E+01  0.14131535857E+03  0.12935887210E+03 0.  0.
         25    2    3    3    0    0  0.26634275544E+02 -0.49624273292E+02 -0.20183006685E+02  0.13829784973E+03  0.12468756293E+03 0.  0.
          5    1    4    4  502    0 -0.32431975544E+01 -0.43235038761E+02 -0.12403080042E+02  0.45339974653E+02  0.47000000000E+01 0.  1.
         -5    1    4    4    0  502 -0.23391077989E+02  0.92859312053E+02  0.43806338671E+01  0.95975383914E+02  0.47000000000E+01 0.  1.
          5    1    5    5  503    0  0.10013392110E+02  0.24598595518E+02  0.35016954694E+02  0.44199955193E+02  0.47000000000E+01 0. -1.
         -5    1    5    5    0  503  0.16620883434E+02 -0.74222868810E+02 -0.55199961379E+02  0.94097894540E+02  0.47000000000E+01 0. -1.
<mgrwt>
<rscale>  0 0.27818699E+03</rscale>
<asrwt>0</asrwt>
<pdfrwt beam="1">  1        2 0.23678359E-01 0.27818699E+03</pdfrwt>
<pdfrwt beam="2">  1       -2 0.19339058E-01 0.27818699E+03</pdfrwt>
<totfact> 0.50634001E+03</totfact>
</mgrwt>
</event>
<event>
 9    1  0.7986988E-001  0.2753237E+03  0.7818608E-02  0.1098271E+00
         -2   -1    0    0    0  501 -0.00000000000E+00  0.00000000000E+00  0.41737140730E+02  0.41737140730E+02  0.00000000000E+00 0. -1.
          2   -1    0    0  501    0  0.00000000000E+00 -0.00000000000E+00 -0.45405093855E+03  0.45405093855E+03  0.00000000000E+00 0. -1.
         35    2    1    2    0    0  0.71054273576E-14  0.00000000000E+00 -0.41231379782E+03  0.49578807928E+03  0.27532372162E+03 0.  0.
         25    2    3    3    0    0 -0.43048590994E+02 -0.36825309056E+02 -0.22382552544E+03  0.26278913705E+03  0.12550290889E+03 0.  0.
         25    2    3    3    0    0  0.43048590994E+02  0.36825309056E+02 -0.18848827238E+03  0.23299894223E+03  0.12470522717E+03 0.  0.
          5    1    4    4  502    0 -0.83384774015E+02 -0.33510572560E+02 -0.18843825485E+03  0.20882299897E+03  0.47000000000E+01 0.  1.
         -5    1    4    4    0  502  0.40336183021E+02 -0.33147364958E+01 -0.35387270590E+02  0.53966138073E+02  0.47000000000E+01 0.  1.
          5    1    5    5  503    0  0.11635128882E+02  0.67652214307E+02 -0.17287249643E+03  0.18606232382E+03  0.47000000000E+01 0. -1.
         -5    1    5    5    0  503  0.31413462113E+02 -0.30826905251E+02 -0.15615775955E+02  0.46936618412E+02  0.47000000000E+01 0. -1.
<mgrwt>
<rscale>  0 0.27532372E+03</rscale>
<asrwt>0</asrwt>
<pdfrwt beam="1">  1        2 0.69853989E-01 0.27532372E+03</pdfrwt>
<pdfrwt beam="2">  1       -2 0.64210987E-02 0.27532372E+03</pdfrwt>
<totfact> 0.91887089E+03</totfact>
</mgrwt>
</event>
<event>
 9    1  0.7986988E-001  0.2748673E+03  0.7818608E-02  0.1098526E+00
          2   -1    0    0  501    0  0.00000000000E+00  0.00000000000E+00  0.53228081176E+03  0.53228081176E+03  0.00000000000E+00 0.  1.
         -2   -1    0    0    0  501 -0.00000000000E+00 -0.00000000000E+00 -0.35485037962E+02  0.35485037962E+02  0.00000000000E+00 0.  1.
         35    2    1    2    0    0  0.00000000000E+00  0.35527136788E-14  0.49679577380E+03  0.56776584972E+03  0.27486727569E+03 0.  0.
         25    2    3    3    0    0  0.48818251943E+02  0.26724572031E+02  0.23260313732E+03  0.27011031138E+03  0.12553061917E+03 0.  0.
         25    2    3    3    0    0 -0.48818251943E+02 -0.26724572031E+02  0.26419263647E+03  0.29765553834E+03  0.12531418860E+03 0.  0.
          5    1    4    4  502    0  0.68479967790E+02 -0.94415730262E+01  0.21354556242E+03  0.22450489198E+03  0.47000000000E+01 0.  1.
         -5    1    4    4    0  502 -0.19661715847E+02  0.36166145057E+02  0.19057574900E+02  0.45605419408E+02  0.47000000000E+01 0.  1.
          5    1    5    5  503    0 -0.26946503900E+02  0.48338194635E+02  0.14243286146E+03  0.15287872696E+03  0.47000000000E+01 0. -1.
         -5    1    5    5    0  503 -0.21871748043E+02 -0.75062766665E+02  0.12175977501E+03  0.14477681138E+03  0.47000000000E+01 0. -1.
<mgrwt>
<rscale>  0 0.27486728E+03</rscale>
<asrwt>0</asrwt>
<pdfrwt beam="1">  1        2 0.81889350E-01 0.27486728E+03</pdfrwt>
<pdfrwt beam="2">  1       -2 0.54592370E-02 0.27486728E+03</pdfrwt>
<totfact> 0.98679893E+03</totfact>
</mgrwt>
</event>
<event>
 9    1  0.7986988E-001  0.2769290E+03  0.7818608E-02  0.1097378E+00
          1   -1    0    0  501    0  0.00000000000E+00  0.00000000000E+00  0.53416689396E+03  0.53416689396E+03  0.00000000000E+00 0.  1.
         -1   -1    0    0    0  501 -0.00000000000E+00 -0.00000000000E+00 -0.35892174392E+02  0.35892174392E+02  0.00000000000E+00 0.  1.
         35    2    1    2    0    0  0.10658141036E-13  0.00000000000E+00  0.49827471957E+03  0.57005906836E+03  0.27692895343E+03 0.  0.
         25    2    3    3    0    0  0.18022720485E+02 -0.54210983201E+02  0.19052796290E+03  0.23494381544E+03  0.12503616524E+03 0.  0.
         25    2    3    3    0    0 -0.18022720485E+02  0.54210983201E+02  0.30774675668E+03  0.33511525291E+03  0.11971013882E+03 0.  0.
          5    1    4    4  502    0 -0.46764347992E+02 -0.25496891539E+02  0.13366704749E+03  0.14396515310E+03  0.47000000000E+01 0.  1.
         -5    1    4    4    0  502  0.64787068477E+02 -0.28714091662E+02  0.56860915405E+02  0.90978662347E+02  0.47000000000E+01 0.  1.
          5    1    5    5  503    0  0.21839083405E+02 -0.30777695994E+02  0.10396436581E+03  0.11070181342E+03  0.47000000000E+01 0.  1.
         -5    1    5    5    0  503 -0.39861803890E+02  0.84988679195E+02  0.20378239086E+03  0.22441343950E+03  0.47000000000E+01 0.  1.
<mgrwt>
<rscale>  0 0.27692895E+03</rscale>
<asrwt>0</asrwt>
<pdfrwt beam="1">  1        1 0.82179516E-01 0.27692895E+03</pdfrwt>
<pdfrwt beam="2">  1       -1 0.55218734E-02 0.27692895E+03</pdfrwt>
<totfact> 0.62316243E+03</totfact>
</mgrwt>
</event>
<event>
 9    1  0.7986988E-001  0.2739215E+03  0.7818608E-02  0.1099056E+00
         -2   -1    0    0    0  501 -0.00000000000E+00  0.00000000000E+00  0.14341159667E+03  0.14341159667E+03  0.00000000000E+00 0. -1.
          2   -1    0    0  501    0  0.00000000000E+00 -0.00000000000E+00 -0.13080010341E+03  0.13080010341E+03  0.00000000000E+00 0. -1.
         35    2    1    2    0    0 -0.35527136788E-14 -0.71054273576E-14  0.12611493256E+02  0.27421170007E+03  0.27392153383E+03 0.  0.
         25    2    3    3    0    0  0.12255803612E+02 -0.55363835704E+02 -0.85009751068E+00  0.13695971256E+03  0.12466708136E+03 0.  0.
         25    2    3    3    0    0 -0.12255803612E+02  0.55363835704E+02  0.13461590767E+02  0.13725198751E+03  0.12426397154E+03 0.  0.
          5    1    4    4  502    0 -0.14178502970E+02  0.37399212138E+02  0.23052007541E+01  0.40337761038E+02  0.47000000000E+01 0.  1.
         -5    1    4    4    0  502  0.26434306582E+02 -0.92763047842E+02 -0.31552982648E+01  0.96621951525E+02  0.47000000000E+01 0.  1.
          5    1    5    5  503    0  0.46036956138E+02  0.39101147029E+02 -0.24838701111E+02  0.65477874907E+02  0.47000000000E+01 0. -1.
         -5    1    5    5    0  503 -0.58292759750E+02  0.16262688675E+02  0.38300291878E+02  0.71774112604E+02  0.47000000000E+01 0. -1.
<mgrwt>
<rscale>  0 0.27392153E+03</rscale>
<asrwt>0</asrwt>
<pdfrwt beam="1">  1        2 0.20123093E-01 0.27392153E+03</pdfrwt>
<pdfrwt beam="2">  1       -2 0.22063323E-01 0.27392153E+03</pdfrwt>
<totfact> 0.48528086E+03</totfact>
</mgrwt>
</event>
<event>
 9    1  0.7986988E-001  0.2819456E+03  0.7818608E-02  0.1094631E+00
          1   -1    0    0  501    0  0.00000000000E+00  0.00000000000E+00  0.11935027242E+02  0.11935027242E+02  0.00000000000E+00 0. -1.
         -1   -1    0    0    0  501 -0.00000000000E+00 -0.00000000000E+00 -0.16651270022E+04  0.16651270022E+04  0.00000000000E+00 0. -1.
         35    2    1    2    0    0  0.00000000000E+00  0.00000000000E+00 -0.16531919750E+04  0.16770620295E+04  0.28194564109E+03 0.  0.
         25    2    3    3    0    0  0.44649639748E+02 -0.43745250108E+02 -0.94265241788E+03  0.95292769024E+03  0.12478126722E+03 0.  0.
         25    2    3    3    0    0 -0.44649639748E+02  0.43745250108E+02 -0.71053955709E+03  0.72413433921E+03  0.12488731644E+03 0.  0.
          5    1    4    4  502    0  0.56436404878E+02 -0.32379855271E+01 -0.83906675681E+03  0.84098196457E+03  0.47000000000E+01 0.  1.
         -5    1    4    4    0  502 -0.11786765130E+02 -0.40507264581E+02 -0.10358566107E+03  0.11194572567E+03  0.47000000000E+01 0.  1.
          5    1    5    5  503    0 -0.22287693882E+02  0.81797719033E+02 -0.58167664219E+03  0.58784131720E+03  0.47000000000E+01 0.  1.
         -5    1    5    5    0  503 -0.22361945866E+02 -0.38052468925E+02 -0.12886291489E+03  0.13629302201E+03  0.47000000000E+01 0.  1.
<mgrwt>
<rscale>  0 0.28194564E+03</rscale>
<asrwt>0</asrwt>
<pdfrwt beam="1">  1        1 0.18361574E-02 0.28194564E+03</pdfrwt>
<pdfrwt beam="2">  1       -1 0.25617348E+00 0.28194564E+03</pdfrwt>
<totfact> 0.49545265E+02</totfact>
</mgrwt>
</event>
<event>
 9    1  0.7986988E-001  0.2691441E+03  0.7818608E-02  0.1101770E+00
         -1   -1    0    0    0  501 -0.00000000000E+00  0.00000000000E+00  0.19308976502E+02  0.19308976502E+02  0.00000000000E+00 0.  1.
          1   -1    0    0  501    0  0.00000000000E+00 -0.00000000000E+00 -0.93788680687E+03  0.93788680687E+03  0.00000000000E+00 0.  1.
         35    2    1    2    0    0 -0.35527136788E-14 -0.71054273576E-14 -0.91857783037E+03  0.95719578337E+03  0.26914408272E+03 0.  0.
         25    2    3    3    0    0 -0.26293509008E+02 -0.32336385728E+02 -0.36913204440E+03  0.39203593796E+03  0.12528655154E+03 0.  0.
         25    2    3    3    0    0  0.26293509008E+02  0.32336385728E+02 -0.54944578597E+03  0.56515984541E+03  0.12561046407E+03 0.  0.
          5    1    4    4  502    0  0.48914646790E+02  0.21009686083E+01 -0.13822755049E+03  0.14671742382E+03  0.47000000000E+01 0.  1.
         -5    1    4    4    0  502 -0.75208155798E+02 -0.34437354336E+02 -0.23090449391E+03  0.24531851414E+03  0.47000000000E+01 0.  1.
          5    1    5    5  503    0 -0.21060379661E+02  0.59656678666E+02 -0.16425248390E+03  0.17607790142E+03  0.47000000000E+01 0. -1.
         -5    1    5    5    0  503  0.47353888669E+02 -0.27320292938E+02 -0.38519330208E+03  0.38908194400E+03  0.47000000000E+01 0. -1.
<mgrwt>
<rscale>  0 0.26914408E+03</rscale>
<asrwt>0</asrwt>
<pdfrwt beam="1">  1        1 0.14429030E+00 0.26914408E+03</pdfrwt>
<pdfrwt beam="2">  1       -1 0.29706113E-02 0.26914408E+03</pdfrwt>
<totfact> 0.68149068E+03</totfact>
</mgrwt>
</event>
<event>
 9    1  0.7986988E-001  0.2743334E+03  0.7818608E-02  0.1098825E+00
          3   -1    0    0  501    0  0.00000000000E+00  0.00000000000E+00  0.26432893437E+02  0.26432893437E+02  0.00000000000E+00 0.  1.
         -3   -1    0    0    0  501 -0.00000000000E+00 -0.00000000000E+00 -0.71179142510E+03  0.71179142510E+03  0.00000000000E+00 0.  1.
         35    2    1    2    0    0  0.10658141036E-13  0.00000000000E+00 -0.68535853166E+03  0.73822431854E+03  0.27433342406E+03 0.  0.
         25    2    3    3    0    0 -0.26390765352E+02 -0.32311524361E+01 -0.20948430312E+03  0.24563288813E+03  0.12547880154E+03 0.  0.
         25    2    3    3    0    0  0.26390765352E+02  0.32311524361E+01 -0.47587422854E+03  0.49259143040E+03  0.12443119815E+03 0.  0.
          5    1    4    4  502    0  0.26851812227E+02 -0.20229893735E+02 -0.17821189720E+03  0.18141620303E+03  0.47000000000E+01 0. -1.
         -5    1    4    4    0  502 -0.53242577580E+02  0.16998741299E+02 -0.31272405926E+02  0.64216685102E+02  0.47000000000E+01 0. -1.
          5    1    5    5  503    0  0.68925986329E+02  0.23211616660E+02 -0.36283991070E+03  0.37008709993E+03  0.47000000000E+01 0.  1.
         -5    1    5    5    0  503 -0.42535220976E+02 -0.19980464224E+02 -0.11303431784E+03  0.12250433047E+03  0.47000000000E+01 0.  1.
<mgrwt>
<rscale>  0 0.27433342E+03</rscale>
<asrwt>0</asrwt>
<pdfrwt beam="1">  1        3 0.40665994E-02 0.27433342E+03</pdfrwt>
<pdfrwt beam="2">  1       -3 0.10950636E+00 0.27433342E+03</pdfrwt>
<totfact> 0.58837255E+02</totfact>
</mgrwt>
</event>
<event>
 9    1  0.7986988E-001  0.2748928E+03  0.7818608E-02  0.1098512E+00
          2   -1    0    0  501    0  0.00000000000E+00  0.00000000000E+00  0.56783807895E+03  0.56783807895E+03  0.00000000000E+00 0. -1.
         -2   -1    0    0    0  501 -0.00000000000E+00 -0.00000000000E+00 -0.33269184881E+02  0.33269184881E+02  0.00000000000E+00 0. -1.
         35    2    1    2    0    0  0.00000000000E+00  0.35527136788E-14  0.53456889407E+03  0.60110726384E+03  0.27489277932E+03 0.  0.
         25    2    3    3    0    0  0.53238574325E+02 -0.24688515971E+02  0.29825498478E+03  0.32875185346E+03  0.12521132771E+03 0.  0.
         25    2    3    3    0    0 -0.53238574325E+02  0.24688515971E+02  0.23631390929E+03  0.27235541038E+03  0.12202187190E+03 0.  0.
          5    1    4    4  502    0 -0.21490056731E+02  0.31629675141E+02  0.13638378490E+03  0.14172115464E+03  0.47000000000E+01 0.  1.
         -5    1    4    4    0  502  0.74728631056E+02 -0.56318191112E+02  0.16187119988E+03  0.18703069882E+03  0.47000000000E+01 0.  1.
          5    1    5    5  503    0 -0.57369935809E+02 -0.37750544269E+02  0.91266297322E+02  0.11431552893E+03  0.47000000000E+01 0.  1.
         -5    1    5    5    0  503  0.41313614838E+01  0.62439060240E+02  0.14504761197E+03  0.15803988145E+03  0.47000000000E+01 0.  1.
<mgrwt>
<rscale>  0 0.27489278E+03</rscale>
<asrwt>0</asrwt>
<pdfrwt beam="1">  1        2 0.87359698E-01 0.27489278E+03</pdfrwt>
<pdfrwt beam="2">  1       -2 0.51183365E-02 0.27489278E+03</pdfrwt>
<totfact> 0.10114035E+04</totfact>
</mgrwt>
</event>
<event>
 9    1  0.7986988E-001  0.2718908E+03  0.7818608E-02  0.1100202E+00
          2   -1    0    0  501    0  0.00000000000E+00  0.00000000000E+00  0.11939031059E+02  0.11939031059E+02  0.00000000000E+00 0.  1.
         -2   -1    0    0    0  501 -0.00000000000E+00 -0.00000000000E+00 -0.15479604290E+04  0.15479604290E+04  0.00000000000E+00 0.  1.
         35    2    1    2    0    0  0.35527136788E-14 -0.71054273576E-14 -0.15360213980E+04  0.15598994601E+04  0.27189076954E+03 0.  0.
         25    2    3    3    0    0 -0.30531895480E+02 -0.14206737826E+02 -0.52070043898E+03  0.53630555988E+03  0.12393820381E+03 0.  0.
         25    2    3    3    0    0  0.30531895480E+02  0.14206737826E+02 -0.10153209590E+04  0.10235939002E+04  0.12543442406E+03 0.  0.
          5    1    4    4  502    0 -0.66838057321E+02 -0.42998602592E+02 -0.27793041337E+03  0.28910830221E+03  0.47000000000E+01 0. -1.
         -5    1    4    4    0  502  0.36306161842E+02  0.28791864766E+02 -0.24277002561E+03  0.24719725767E+03  0.47000000000E+01 0. -1.
          5    1    5    5  503    0 -0.30057268835E+02 -0.38485664678E+02 -0.42355821103E+03  0.42638976762E+03  0.47000000000E+01 0.  1.
         -5    1    5    5    0  503  0.60589164314E+02  0.52692402504E+02 -0.59176274797E+03  0.59720413261E+03  0.47000000000E+01 0.  1.
<mgrwt>
<rscale>  0 0.27189077E+03</rscale>
<asrwt>0</asrwt>
<pdfrwt beam="1">  1        2 0.18367749E-02 0.27189077E+03</pdfrwt>
<pdfrwt beam="2">  1       -2 0.23814764E+00 0.27189077E+03</pdfrwt>
<totfact> 0.51944452E+02</totfact>
</mgrwt>
</event>
<event>
 9    1  0.7986988E-001  0.2709444E+03  0.7818608E-02  0.1100740E+00
         -2   -1    0    0    0  501 -0.00000000000E+00  0.00000000000E+00  0.11669453386E+02  0.11669453386E+02  0.00000000000E+00 0. -1.
          2   -1    0    0  501    0  0.00000000000E+00 -0.00000000000E+00 -0.15727138662E+04  0.15727138662E+04  0.00000000000E+00 0. -1.
         35    2    1    2    0    0 -0.71054273576E-14 -0.71054273576E-14 -0.15610444128E+04  0.15843833196E+04  0.27094435703E+03 0.  0.
         25    2    3    3    0    0 -0.96051872053E+01 -0.50672799638E+02 -0.73366588721E+03  0.74606319743E+03  0.12523844558E+03 0.  0.
         25    2    3    3    0    0  0.96051872053E+01  0.50672799638E+02 -0.82737852558E+03  0.83832012214E+03  0.12476141369E+03 0.  0.
          5    1    4    4  502    0 -0.43476077173E+02 -0.11458253806E+02 -0.61291478294E+03  0.61457959778E+03  0.47000000000E+01 0. -1.
         -5    1    4    4    0  502  0.33870889968E+02 -0.39214545831E+02 -0.12075110428E+03  0.13148359965E+03  0.47000000000E+01 0. -1.
          5    1    5    5  503    0 -0.51137832898E+02  0.18381288027E+02 -0.54164728171E+03  0.54438664337E+03  0.47000000000E+01 0. -1.
         -5    1    5    5    0  503  0.60743020103E+02  0.32291511611E+02 -0.28573124387E+03  0.29393347876E+03  0.47000000000E+01 0. -1.
<mgrwt>
<rscale>  0 0.27094436E+03</rscale>
<asrwt>0</asrwt>
<pdfrwt beam="1">  1        2 0.24195576E+00 0.27094436E+03</pdfrwt>
<pdfrwt beam="2">  1       -2 0.17953021E-02 0.27094436E+03</pdfrwt>
<totfact> 0.11302948E+04</totfact>
</mgrwt>
</event>
<event>
 9    1  0.7986988E-001  0.2641963E+03  0.7818608E-02  0.1104648E+00
         -2   -1    0    0    0  501 -0.00000000000E+00  0.00000000000E+00  0.13720754091E+02  0.13720754091E+02  0.00000000000E+00 0. -1.
          2   -1    0    0  501    0  0.00000000000E+00 -0.00000000000E+00 -0.12717897710E+04  0.12717897710E+04  0.00000000000E+00 0. -1.
         35    2    1    2    0    0 -0.35527136788E-14  0.00000000000E+00 -0.12580690169E+04  0.12855105251E+04  0.26419625057E+03 0.  0.
         25    2    3    3    0    0 -0.85634394193E+01 -0.31414609309E+02 -0.80232286222E+03  0.81207346203E+03  0.12116568129E+03 0.  0.
         25    2    3    3    0    0  0.85634394193E+01  0.31414609309E+02 -0.45574615468E+03  0.47343706305E+03  0.12400760054E+03 0.  0.
          5    1    4    4  502    0 -0.24283513986E+01 -0.21913448956E+02 -0.79908805548E+03  0.79940597105E+03  0.47000000000E+01 0. -1.
         -5    1    4    4    0  502 -0.61350880207E+01 -0.95011603530E+01 -0.32348067336E+01  0.12667490978E+02  0.47000000000E+01 0. -1.
          5    1    5    5  503    0 -0.28841983525E+02  0.18975659736E+02 -0.41531625517E+03  0.41677526016E+03  0.47000000000E+01 0. -1.
         -5    1    5    5    0  503  0.37405422945E+02  0.12438949573E+02 -0.40429899516E+02  0.56661802893E+02  0.47000000000E+01 0. -1.
<mgrwt>
<rscale>  0 0.26419625E+03</rscale>
<asrwt>0</asrwt>
<pdfrwt beam="1">  1        2 0.19566002E+00 0.26419625E+03</pdfrwt>
<pdfrwt beam="2">  1       -2 0.21108847E-02 0.26419625E+03</pdfrwt>
<totfact> 0.12958670E+04</totfact>
</mgrwt>
</event>
<event>
 9    1  0.7986988E-001  0.2751565E+03  0.7818608E-02  0.1098364E+00
          1   -1    0    0  501    0  0.00000000000E+00  0.00000000000E+00  0.39215253534E+03  0.39215253534E+03  0.00000000000E+00 0. -1.
         -1   -1    0    0    0  501 -0.00000000000E+00 -0.00000000000E+00 -0.48266358853E+02  0.48266358853E+02  0.00000000000E+00 0. -1.
         35    2    1    2    0    0  0.00000000000E+00  0.00000000000E+00  0.34388617648E+03  0.44041889419E+03  0.27515650089E+03 0.  0.
         25    2    3    3    0    0  0.36065800189E+01  0.43604912792E+02  0.23068154124E+03  0.26663838852E+03  0.12636321032E+03 0.  0.
         25    2    3    3    0    0 -0.36065800189E+01 -0.43604912792E+02  0.11320463525E+03  0.17378050568E+03  0.12437836979E+03 0.  0.
          5    1    4    4  502    0 -0.46814806838E+02 -0.20950600428E+02  0.82442756187E+02  0.97208291032E+02  0.47000000000E+01 0. -1.
         -5    1    4    4    0  502  0.50421386857E+02  0.64555513220E+02  0.14823878505E+03  0.16943009748E+03  0.47000000000E+01 0. -1.
          5    1    5    5  503    0 -0.58433801930E+02  0.19935054704E+01  0.65129849650E+02  0.87649703864E+02  0.47000000000E+01 0. -1.
         -5    1    5    5    0  503  0.54827221911E+02 -0.45598418262E+02  0.48074785596E+02  0.86130801811E+02  0.47000000000E+01 0. -1.
<mgrwt>
<rscale>  0 0.27515650E+03</rscale>
<asrwt>0</asrwt>
<pdfrwt beam="1">  1        1 0.60331157E-01 0.27515650E+03</pdfrwt>
<pdfrwt beam="2">  1       -1 0.74255939E-02 0.27515650E+03</pdfrwt>
<totfact> 0.59662014E+03</totfact>
</mgrwt>
</event>
<event>
 9    1  0.7986988E-001  0.2726167E+03  0.7818608E-02  0.1099791E+00
         -1   -1    0    0    0  501 -0.00000000000E+00  0.00000000000E+00  0.12525742519E+03  0.12525742519E+03  0.00000000000E+00 0.  1.
          1   -1    0    0  501    0  0.00000000000E+00 -0.00000000000E+00 -0.14833427454E+03  0.14833427454E+03  0.00000000000E+00 0.  1.
         35    2    1    2    0    0 -0.35527136788E-14 -0.71054273576E-14 -0.23076849344E+02  0.27359169973E+03  0.27261672213E+03 0.  0.
         25    2    3    3    0    0  0.15059759656E+02  0.39935599151E+02  0.22760029265E+02  0.13340687278E+03  0.12432910493E+03 0.  0.
         25    2    3    3    0    0 -0.15059759656E+02 -0.39935599151E+02 -0.45836878608E+02  0.14018482695E+03  0.12541577981E+03 0.  0.
          5    1    4    4  502    0 -0.21186230592E+02 -0.17449273610E+02  0.52287143579E+02  0.59239926569E+02  0.47000000000E+01 0.  1.
         -5    1    4    4    0  502  0.36245990249E+02  0.57384872762E+02 -0.29527114314E+02  0.74166946214E+02  0.47000000000E+01 0.  1.
          5    1    5    5  503    0  0.49134671654E+02 -0.16452215963E+02 -0.49170941370E+02  0.71587448927E+02  0.47000000000E+01 0.  1.
         -5    1    5    5    0  503 -0.64194431310E+02 -0.23483383188E+02  0.33340627616E+01  0.68597378023E+02  0.47000000000E+01 0.  1.
<mgrwt>
<rscale>  0 0.27261672E+03</rscale>
<asrwt>0</asrwt>
<pdfrwt beam="1">  1        1 0.22820658E-01 0.27261672E+03</pdfrwt>
<pdfrwt beam="2">  1       -1 0.19270373E-01 0.27261672E+03</pdfrwt>
<totfact> 0.45795529E+03</totfact>
</mgrwt>
</event>
<event>
 9    1  0.7986988E-001  0.2654619E+03  0.7818608E-02  0.1103905E+00
         -1   -1    0    0    0  501 -0.00000000000E+00  0.00000000000E+00  0.16162940198E+02  0.16162940198E+02  0.00000000000E+00 0.  1.
          1   -1    0    0  501    0  0.00000000000E+00 -0.00000000000E+00 -0.10899940613E+04  0.10899940613E+04  0.00000000000E+00 0.  1.
         35    2    1    2    0    0  0.00000000000E+00 -0.71054273576E-14 -0.10738311211E+04  0.11061570015E+04  0.26546192819E+03 0.  0.
         25    2    3    3    0    0  0.35906619231E+02 -0.21077869467E+01 -0.41767284597E+03  0.43726890873E+03  0.12433730019E+03 0.  0.
         25    2    3    3    0    0 -0.35906619231E+02  0.21077869467E+01 -0.65615827518E+03  0.66888809281E+03  0.12479531459E+03 0.  0.
          5    1    4    4  502    0  0.29339203604E+02  0.26425754114E+02 -0.33617754338E+02  0.52070651574E+02  0.47000000000E+01 0.  1.
         -5    1    4    4    0  502  0.65674156268E+01 -0.28533541061E+02 -0.38405509163E+03  0.38519825716E+03  0.47000000000E+01 0.  1.
          5    1    5    5  503    0  0.65363802277E+01  0.45340752047E+02 -0.10848701717E+03  0.11785597549E+03  0.47000000000E+01 0.  1.
         -5    1    5    5    0  503 -0.42442999458E+02 -0.43232965100E+02 -0.54767125801E+03  0.55103211732E+03  0.47000000000E+01 0.  1.
<mgrwt>
<rscale>  0 0.26546193E+03</rscale>
<asrwt>0</asrwt>
<pdfrwt beam="1">  1        1 0.16769141E+00 0.26546193E+03</pdfrwt>
<pdfrwt beam="2">  1       -1 0.24866060E-02 0.26546193E+03</pdfrwt>
<totfact> 0.68188171E+03</totfact>
</mgrwt>
</event>
<event>
 9    1  0.7986988E-001  0.2742866E+03  0.7818608E-02  0.1098851E+00
         -1   -1    0    0    0  501 -0.00000000000E+00  0.00000000000E+00  0.59111620319E+01  0.59111620319E+01  0.00000000000E+00 0. -1.
          1   -1    0    0  501    0  0.00000000000E+00 -0.00000000000E+00 -0.31818247678E+04  0.31818247678E+04  0.00000000000E+00 0. -1.
         35    2    1    2    0    0  0.14210854715E-13  0.00000000000E+00 -0.31759136058E+04  0.31877359299E+04  0.27428657831E+03 0.  0.
         25    2    3    3    0    0  0.36275651115E+02 -0.11609461798E+02 -0.20778754041E+04  0.20820442899E+04  0.12606160278E+03 0.  0.
         25    2    3    3    0    0 -0.36275651115E+02  0.11609461798E+02 -0.10980382017E+04  0.11056916400E+04  0.12415880080E+03 0.  0.
          5    1    4    4  502    0 -0.28824553404E+02 -0.27995497832E+02 -0.14516172344E+04  0.14521808730E+04  0.47000000000E+01 0. -1.
         -5    1    4    4    0  502  0.65100204520E+02  0.16386036034E+02 -0.62625816973E+03  0.62986341690E+03  0.47000000000E+01 0. -1.
          5    1    5    5  503    0 -0.40020982067E+02 -0.50946650414E+02 -0.45952729145E+03  0.46409553087E+03  0.47000000000E+01 0.  1.
         -5    1    5    5    0  503  0.37453309516E+01  0.62556112211E+02 -0.63851091027E+03  0.64159610911E+03  0.47000000000E+01 0.  1.
<mgrwt>
<rscale>  0 0.27428658E+03</rscale>
<asrwt>0</asrwt>
<pdfrwt beam="1">  1        1 0.48951130E+00 0.27428658E+03</pdfrwt>
<pdfrwt beam="2">  1       -1 0.90940992E-03 0.27428658E+03</pdfrwt>
<totfact> 0.11610224E+03</totfact>
</mgrwt>
</event>
<event>
 9    1  0.7986988E-001  0.2694514E+03  0.7818608E-02  0.1101594E+00
         -2   -1    0    0    0  501 -0.00000000000E+00  0.00000000000E+00  0.20641972197E+03  0.20641972197E+03  0.00000000000E+00 0.  1.
          2   -1    0    0  501    0  0.00000000000E+00 -0.00000000000E+00 -0.87932556480E+02  0.87932556480E+02  0.00000000000E+00 0.  1.
         35    2    1    2    0    0  0.71054273576E-14  0.00000000000E+00  0.11848716549E+03  0.29435227845E+03  0.26945139718E+03 0.  0.
         25    2    3    3    0    0 -0.20906183066E+02  0.41268790673E+02  0.56476754724E+02  0.14488980510E+03  0.12515290737E+03 0.  0.
         25    2    3    3    0    0  0.20906183066E+02 -0.41268790673E+02  0.62010410763E+02  0.14946247335E+03  0.12788103191E+03 0.  0.
          5    1    4    4  502    0  0.33098975935E+02  0.52654810091E+02  0.63555098185E+02  0.89047244421E+02  0.47000000000E+01 0.  1.
         -5    1    4    4    0  502 -0.54005159001E+02 -0.11386019418E+02 -0.70783434605E+01  0.55842560678E+02  0.47000000000E+01 0.  1.
          5    1    5    5  503    0  0.53830579092E+02 -0.29467542583E+02  0.86749047547E+02  0.10636519431E+03  0.47000000000E+01 0. -1.
         -5    1    5    5    0  503 -0.32924396026E+02 -0.11801248090E+02 -0.24738636784E+02  0.43097279034E+02  0.47000000000E+01 0. -1.
<mgrwt>
<rscale>  0 0.26945140E+03</rscale>
<asrwt>0</asrwt>
<pdfrwt beam="1">  1        2 0.13528086E-01 0.26945140E+03</pdfrwt>
<pdfrwt beam="2">  1       -2 0.31756880E-01 0.26945140E+03</pdfrwt>
<totfact> 0.40381243E+03</totfact>
</mgrwt>
</event>
<event>
 9    1  0.7986988E-001  0.2791803E+03  0.7818608E-02  0.1096137E+00
         -3   -1    0    0    0  501 -0.00000000000E+00  0.00000000000E+00  0.15410830211E+03  0.15410830211E+03  0.00000000000E+00 0.  1.
          3   -1    0    0  501    0  0.00000000000E+00 -0.00000000000E+00 -0.12643971806E+03  0.12643971806E+03  0.00000000000E+00 0.  1.
         35    2    1    2    0    0  0.00000000000E+00  0.00000000000E+00  0.27668584045E+02  0.28054802017E+03  0.27918030209E+03 0.  0.
         25    2    3    3    0    0 -0.40120972999E+02 -0.42627371158E+02 -0.12124359780E+02  0.13579409083E+03  0.12192723141E+03 0.  0.
         25    2    3    3    0    0  0.40120972999E+02  0.42627371158E+02  0.39792943825E+02  0.14475392933E+03  0.12626732132E+03 0.  0.
          5    1    4    4  502    0  0.43203945050E+02 -0.11098288403E+02  0.43762597062E+01  0.45066556584E+02  0.47000000000E+01 0.  1.
         -5    1    4    4    0  502 -0.83324918049E+02 -0.31529082755E+02 -0.16500619486E+02  0.90727534248E+02  0.47000000000E+01 0.  1.
          5    1    5    5  503    0 -0.34321870497E+02 -0.21055451913E+02  0.57993390059E+01  0.40951742119E+02  0.47000000000E+01 0.  1.
         -5    1    5    5    0  503  0.74442843496E+02  0.63682823071E+02  0.33993604819E+02  0.10380218722E+03  0.47000000000E+01 0.  1.
<mgrwt>
<rscale>  0 0.27918030E+03</rscale>
<asrwt>0</asrwt>
<pdfrwt beam="1">  1        3 0.19452264E-01 0.27918030E+03</pdfrwt>
<pdfrwt beam="2">  1       -3 0.23708969E-01 0.27918030E+03</pdfrwt>
<totfact> 0.99333024E+02</totfact>
</mgrwt>
</event>
<event>
 9    1  0.7986988E-001  0.2907904E+03  0.7818608E-02  0.1089937E+00
         -2   -1    0    0    0  501 -0.00000000000E+00  0.00000000000E+00  0.42232788492E+02  0.42232788492E+02  0.00000000000E+00 0.  1.
          2   -1    0    0  501    0  0.00000000000E+00 -0.00000000000E+00 -0.50055322271E+03  0.50055322271E+03  0.00000000000E+00 0.  1.
         35    2    1    2    0    0  0.71054273576E-14  0.00000000000E+00 -0.45832043421E+03  0.54278601120E+03  0.29079036011E+03 0.  0.
         25    2    3    3    0    0  0.39123849909E+02 -0.20046635799E+02 -0.34114964460E+03  0.36600197038E+03  0.12506725818E+03 0.  0.
         25    2    3    3    0    0 -0.39123849909E+02  0.20046635799E+02 -0.11717078961E+03  0.17678404082E+03  0.12486416584E+03 0.  0.
          5    1    4    4  502    0  0.13709564945E+02  0.49566777221E+02 -0.19941705382E+03  0.20599531288E+03  0.47000000000E+01 0. -1.
         -5    1    4    4    0  502  0.25414284963E+02 -0.69613413021E+02 -0.14173259079E+03  0.16000665750E+03  0.47000000000E+01 0. -1.
          5    1    5    5  503    0 -0.57054175453E+02 -0.11457508752E+01 -0.13277415791E+03  0.14459446286E+03  0.47000000000E+01 0.  1.
         -5    1    5    5    0  503  0.17930325545E+02  0.21192386674E+02  0.15603368296E+02  0.32189577961E+02  0.47000000000E+01 0.  1.
<mgrwt>
<rscale>  0 0.29079036E+03</rscale>
<asrwt>0</asrwt>
<pdfrwt beam="1">  1        2 0.77008184E-01 0.29079036E+03</pdfrwt>
<pdfrwt beam="2">  1       -2 0.64973524E-02 0.29079036E+03</pdfrwt>
<totfact> 0.81117315E+03</totfact>
</mgrwt>
</event>
<event>
 9    1  0.7986988E-001  0.2740146E+03  0.7818608E-02  0.1099004E+00
         -1   -1    0    0    0  501 -0.00000000000E+00  0.00000000000E+00  0.32196279229E+02  0.32196279229E+02  0.00000000000E+00 0.  1.
          1   -1    0    0  501    0  0.00000000000E+00 -0.00000000000E+00 -0.58301768170E+03  0.58301768170E+03  0.00000000000E+00 0.  1.
         35    2    1    2    0    0  0.62172489379E-14  0.00000000000E+00 -0.55082140247E+03  0.61521396093E+03  0.27401459870E+03 0.  0.
         25    2    3    3    0    0  0.24487616878E+01 -0.55527231353E+02 -0.23891703111E+03  0.27460916008E+03  0.12344866620E+03 0.  0.
         25    2    3    3    0    0 -0.24487616878E+01  0.55527231353E+02 -0.31190437136E+03  0.34060480085E+03  0.12505208369E+03 0.  0.
          5    1    4    4  502    0 -0.40877126280E+01 -0.68656226422E+02 -0.50235052886E+02  0.85299691439E+02  0.47000000000E+01 0.  1.
         -5    1    4    4    0  502  0.65364743158E+01  0.13128995070E+02 -0.18868197823E+03  0.18930946864E+03  0.47000000000E+01 0.  1.
          5    1    5    5  503    0 -0.47224954542E+02 -0.16449826609E+02 -0.14298665636E+03  0.15155219241E+03  0.47000000000E+01 0. -1.
         -5    1    5    5    0  503  0.44776192854E+02  0.71977057962E+02 -0.16891771500E+03  0.18905260844E+03  0.47000000000E+01 0. -1.
<mgrwt>
<rscale>  0 0.27401460E+03</rscale>
<asrwt>0</asrwt>
<pdfrwt beam="1">  1        1 0.89695021E-01 0.27401460E+03</pdfrwt>
<pdfrwt beam="2">  1       -1 0.49532741E-02 0.27401460E+03</pdfrwt>
<totfact> 0.65087609E+03</totfact>
</mgrwt>
</event>
<event>
 9    1  0.7986988E-001  0.2748897E+03  0.7818608E-02  0.1098513E+00
         -1   -1    0    0    0  501 -0.00000000000E+00  0.00000000000E+00  0.68166593549E+02  0.68166593549E+02  0.00000000000E+00 0.  1.
          1   -1    0    0  501    0  0.00000000000E+00 -0.00000000000E+00 -0.27713120164E+03  0.27713120164E+03  0.00000000000E+00 0.  1.
         35    2    1    2    0    0  0.00000000000E+00  0.00000000000E+00 -0.20896460809E+03  0.34529779519E+03  0.27488972322E+03 0.  0.
         25    2    3    3    0    0 -0.45436177057E+02 -0.23303455838E+02 -0.73213714376E+02  0.15425473435E+03  0.12580452240E+03 0.  0.
         25    2    3    3    0    0  0.45436177057E+02  0.23303455838E+02 -0.13575089372E+03  0.19104306084E+03  0.12434487811E+03 0.  0.
          5    1    4    4  502    0 -0.21155305463E+02 -0.56361948869E+02 -0.91071951544E+02  0.10927216749E+03  0.47000000000E+01 0. -1.
         -5    1    4    4    0  502 -0.24280871594E+02  0.33058493031E+02  0.17858237168E+02  0.44982566863E+02  0.47000000000E+01 0. -1.
          5    1    5    5  503    0  0.58717337909E+02 -0.34115526757E+02 -0.41318209914E+02  0.79629639002E+02  0.47000000000E+01 0. -1.
         -5    1    5    5    0  503 -0.13281160853E+02  0.57418982595E+02 -0.94432683804E+02  0.11141342184E+03  0.47000000000E+01 0. -1.
<mgrwt>
<rscale>  0 0.27488972E+03</rscale>
<asrwt>0</asrwt>
<pdfrwt beam="1">  1        1 0.42635569E-01 0.27488972E+03</pdfrwt>
<pdfrwt beam="2">  1       -1 0.10487168E-01 0.27488972E+03</pdfrwt>
<totfact> 0.54471722E+03</totfact>
</mgrwt>
</event>
<event>
 9    1  0.7986988E-001  0.2739210E+03  0.7818608E-02  0.1099056E+00
         -2   -1    0    0    0  501 -0.00000000000E+00  0.00000000000E+00  0.67130240013E+02  0.67130240013E+02  0.00000000000E+00 0. -1.
          2   -1    0    0  501    0  0.00000000000E+00 -0.00000000000E+00 -0.27942972008E+03  0.27942972008E+03  0.00000000000E+00 0. -1.
         35    2    1    2    0    0  0.17763568394E-14  0.00000000000E+00 -0.21229948007E+03  0.34655996010E+03  0.27392104100E+03 0.  0.
         25    2    3    3    0    0 -0.97723904350E+01  0.62934379874E+02 -0.11892484448E+03  0.17831332141E+03  0.11660311391E+03 0.  0.
         25    2    3    3    0    0  0.97723904350E+01 -0.62934379874E+02 -0.93374635594E+02  0.16824663869E+03  0.12462693558E+03 0.  0.
          5    1    4    4  502    0 -0.24288548459E+02  0.47266476746E+01 -0.11531204642E+03  0.11803064362E+03  0.47000000000E+01 0. -1.
         -5    1    4    4    0  502  0.14516158024E+02  0.58207732199E+02 -0.36127980590E+01  0.60282677789E+02  0.47000000000E+01 0. -1.
          5    1    5    5  503    0 -0.45634122430E+01  0.21247199504E+02  0.17447112590E+02  0.28262341654E+02  0.47000000000E+01 0.  1.
         -5    1    5    5    0  503  0.14335802678E+02 -0.84181579378E+02 -0.11082174818E+03  0.13998429703E+03  0.47000000000E+01 0.  1.
<mgrwt>
<rscale>  0 0.27392104E+03</rscale>
<asrwt>0</asrwt>
<pdfrwt beam="1">  1        2 0.42989188E-01 0.27392104E+03</pdfrwt>
<pdfrwt beam="2">  1       -2 0.10327729E-01 0.27392104E+03</pdfrwt>
<totfact> 0.73855256E+03</totfact>
</mgrwt>
</event>
<event>
 9    1  0.7986988E-001  0.2968603E+03  0.7818608E-02  0.1086821E+00
         -2   -1    0    0    0  501 -0.00000000000E+00  0.00000000000E+00  0.48087225808E+02  0.48087225808E+02  0.00000000000E+00 0.  1.
          2   -1    0    0  501    0  0.00000000000E+00 -0.00000000000E+00 -0.45815708166E+03  0.45815708166E+03  0.00000000000E+00 0.  1.
         35    2    1    2    0    0  0.00000000000E+00 -0.71054273576E-14 -0.41006985585E+03  0.50624430747E+03  0.29686025697E+03 0.  0.
         25    2    3    3    0    0 -0.14308773523E+02  0.62818361621E+02 -0.28468818999E+03  0.31742861635E+03  0.12475044449E+03 0.  0.
         25    2    3    3    0    0  0.14308773523E+02 -0.62818361621E+02 -0.12538166586E+03  0.18881569112E+03  0.12561813373E+03 0.  0.
          5    1    4    4  502    0  0.17400760661E+02  0.24106203498E+02 -0.18468460785E+01  0.30156199348E+02  0.47000000000E+01 0.  1.
         -5    1    4    4    0  502 -0.31709534184E+02  0.38712158123E+02 -0.28284134391E+03  0.28727241700E+03  0.47000000000E+01 0.  1.
          5    1    5    5  503    0 -0.35174014270E+02 -0.79139118556E+02 -0.61901919632E+02  0.10655584930E+03  0.47000000000E+01 0.  1.
         -5    1    5    5    0  503  0.49482787793E+02  0.16320756935E+02 -0.63479746230E+02  0.82259841819E+02  0.47000000000E+01 0.  1.
<mgrwt>
<rscale>  0 0.29686026E+03</rscale>
<asrwt>0</asrwt>
<pdfrwt beam="1">  1        2 0.70485707E-01 0.29686026E+03</pdfrwt>
<pdfrwt beam="2">  1       -2 0.73980345E-02 0.29686026E+03</pdfrwt>
<totfact> 0.73248986E+03</totfact>
</mgrwt>
</event>
<event>
 9    1  0.7986988E-001  0.2794829E+03  0.7818608E-02  0.1095972E+00
          3   -1    0    0  501    0  0.00000000000E+00  0.00000000000E+00  0.11858759868E+02  0.11858759868E+02  0.00000000000E+00 0.  1.
         -3   -1    0    0    0  501 -0.00000000000E+00 -0.00000000000E+00 -0.16466872020E+04  0.16466872020E+04  0.00000000000E+00 0.  1.
         35    2    1    2    0    0 -0.14210854715E-13 -0.35527136788E-14 -0.16348284422E+04  0.16585459619E+04  0.27948286607E+03 0.  0.
         25    2    3    3    0    0  0.52036525414E+02  0.16531206842E+02 -0.65023837998E+03  0.66445463707E+03  0.12533528294E+03 0.  0.
         25    2    3    3    0    0 -0.52036525414E+02 -0.16531206842E+02 -0.98459006218E+03  0.99409132482E+03  0.12577317190E+03 0.  0.
          5    1    4    4  502    0  0.78811250787E+02  0.29141589175E+02 -0.26476832147E+03  0.27782152458E+03  0.47000000000E+01 0. -1.
         -5    1    4    4    0  502 -0.26774725373E+02 -0.12610382333E+02 -0.38547005851E+03  0.38663311249E+03  0.47000000000E+01 0. -1.
          5    1    5    5  503    0 -0.81432880755E+02  0.17496283118E+02 -0.78625520458E+03  0.79066855933E+03  0.47000000000E+01 0.  1.
         -5    1    5    5    0  503  0.29396355341E+02 -0.34027489959E+02 -0.19833485760E+03  0.20342276549E+03  0.47000000000E+01 0.  1.
<mgrwt>
<rscale>  0 0.27948287E+03</rscale>
<asrwt>0</asrwt>
<pdfrwt beam="1">  1        3 0.18244255E-02 0.27948287E+03</pdfrwt>
<pdfrwt beam="2">  1       -3 0.25333637E+00 0.27948287E+03</pdfrwt>
<totfact> 0.21821207E+02</totfact>
</mgrwt>
</event>
<event>
 8    1  0.7986988E-001  0.3384886E+03  0.7818608E-02  0.1067441E+00
         -2   -1    0    0    0  501 -0.00000000000E+00  0.00000000000E+00  0.25410234985E+02  0.25410234985E+02  0.00000000000E+00 0.  1.
          2   -1    0    0  501    0  0.00000000000E+00 -0.00000000000E+00 -0.11272477048E+04  0.11272477048E+04  0.00000000000E+00 0.  1.
         25    2    1    2    0    0  0.45640513918E+02 -0.38533638078E+02 -0.21507296328E+03  0.25540558453E+03  0.12412789896E+03 0.  0.
         25    2    1    2    0    0 -0.45640513918E+02  0.38533638078E+02 -0.88676450651E+03  0.89725235523E+03  0.12305527695E+03 0.  0.
          5    1    3    3  502    0  0.30037730086E+02 -0.37109256614E+02 -0.91552892130E+01  0.48839241146E+02  0.47000000000E+01 0. -1.
         -5    1    3    3    0  502  0.15602783832E+02 -0.14243814647E+01 -0.20591767407E+03  0.20656634339E+03  0.47000000000E+01 0. -1.
          5    1    4    4  503    0 -0.78518009970E+02  0.55421952008E+02 -0.71833555624E+03  0.72475149673E+03  0.47000000000E+01 0.  1.
         -5    1    4    4    0  503  0.32877496052E+02 -0.16888313930E+02 -0.16842895028E+03  0.17250085851E+03  0.47000000000E+01 0.  1.
<mgrwt>
<rscale>  0 0.33848858E+03</rscale>
<asrwt>0</asrwt>
<pdfrwt beam="1">  1        2 0.17342276E+00 0.33848858E+03</pdfrwt>
<pdfrwt beam="2">  1       -2 0.39092662E-02 0.33848858E+03</pdfrwt>
<totfact> 0.62875239E+03</totfact>
</mgrwt>
</event>
<event>
 9    1  0.7986988E-001  0.2729848E+03  0.7818608E-02  0.1099583E+00
          1   -1    0    0  501    0  0.00000000000E+00  0.00000000000E+00  0.25147399992E+02  0.25147399992E+02  0.00000000000E+00 0.  1.
         -1   -1    0    0    0  501 -0.00000000000E+00 -0.00000000000E+00 -0.74083879806E+03  0.74083879806E+03  0.00000000000E+00 0.  1.
         35    2    1    2    0    0  0.00000000000E+00  0.00000000000E+00 -0.71569139807E+03  0.76598619805E+03  0.27298475844E+03 0.  0.
         25    2    3    3    0    0  0.34678661070E+02  0.98081465953E+01 -0.48294068554E+03  0.49996743213E+03  0.12424539493E+03 0.  0.
         25    2    3    3    0    0 -0.34678661070E+02 -0.98081465953E+01 -0.23275071252E+03  0.26601876592E+03  0.12367004637E+03 0.  0.
          5    1    4    4  502    0  0.44088735003E+02 -0.20152559135E+02 -0.45521501655E+03  0.45781300057E+03  0.47000000000E+01 0.  1.
         -5    1    4    4    0  502 -0.94100739328E+01  0.29960705730E+02 -0.27725668994E+02  0.42154431564E+02  0.47000000000E+01 0.  1.
          5    1    5    5  503    0 -0.54426041012E+02 -0.50024118777E+02 -0.18994189444E+03  0.20387402891E+03  0.47000000000E+01 0.  1.
         -5    1    5    5    0  503  0.19747379942E+02  0.40215972181E+02 -0.42808818084E+02  0.62144737016E+02  0.47000000000E+01 0.  1.
<mgrwt>
<rscale>  0 0.27298476E+03</rscale>
<asrwt>0</asrwt>
<pdfrwt beam="1">  1        1 0.38688311E-02 0.27298476E+03</pdfrwt>
<pdfrwt beam="2">  1       -1 0.11397519E+00 0.27298476E+03</pdfrwt>
<totfact> 0.17781842E+03</totfact>
</mgrwt>
</event>
<event>
 9    1  0.7986988E-001  0.2734763E+03  0.7818608E-02  0.1099306E+00
          2   -1    0    0  501    0  0.00000000000E+00  0.00000000000E+00  0.17234844195E+04  0.17234844195E+04  0.00000000000E+00 0.  1.
         -2   -1    0    0    0  501 -0.00000000000E+00 -0.00000000000E+00 -0.10848555425E+02  0.10848555425E+02  0.00000000000E+00 0.  1.
         35    2    1    2    0    0  0.35527136788E-14  0.00000000000E+00  0.17126358641E+04  0.17343329749E+04  0.27347626039E+03 0.  0.
         25    2    3    3    0    0 -0.58288832248E+01 -0.45738359540E+02  0.10232498498E+04  0.10321019760E+04  0.12676064143E+03 0.  0.
         25    2    3    3    0    0  0.58288832248E+01  0.45738359540E+02  0.68938601421E+03  0.70223099892E+03  0.12549631804E+03 0.  0.
          5    1    4    4  502    0 -0.29285328573E+02  0.36321497747E+02  0.27293013597E+03  0.27692928843E+03  0.47000000000E+01 0. -1.
         -5    1    4    4    0  502  0.23456445348E+02 -0.82059857287E+02  0.75031971388E+03  0.75517268756E+03  0.47000000000E+01 0. -1.
          5    1    5    5  503    0  0.51677949417E+02  0.65330522135E+02  0.44850992541E+03  0.45620382590E+03  0.47000000000E+01 0. -1.
         -5    1    5    5    0  503 -0.45849066192E+02 -0.19592162595E+02  0.24087608880E+03  0.24602717301E+03  0.47000000000E+01 0. -1.
<mgrwt>
<rscale>  0 0.27347626E+03</rscale>
<asrwt>0</asrwt>
<pdfrwt beam="1">  1        2 0.26515123E+00 0.27347626E+03</pdfrwt>
<pdfrwt beam="2">  1       -2 0.16690099E-02 0.27347626E+03</pdfrwt>
<totfact> 0.10473553E+04</totfact>
</mgrwt>
</event>
<event>
 9    1  0.7986988E-001  0.2754409E+03  0.7818608E-02  0.1098205E+00
          1   -1    0    0  501    0  0.00000000000E+00  0.00000000000E+00  0.38535903998E+04  0.38535903998E+04  0.00000000000E+00 0. -1.
         -1   -1    0    0    0  501 -0.00000000000E+00 -0.00000000000E+00 -0.49218848542E+01  0.49218848542E+01  0.00000000000E+00 0. -1.
         35    2    1    2    0    0  0.00000000000E+00  0.00000000000E+00  0.38486685150E+04  0.38585122847E+04  0.27544094266E+03 0.  0.
         25    2    3    3    0    0 -0.56564972212E+02  0.16149639596E+01  0.17888538985E+04  0.17941354020E+04  0.12538487250E+03 0.  0.
         25    2    3    3    0    0  0.56564972212E+02 -0.16149639596E+01  0.20598146164E+04  0.20643768827E+04  0.12495381317E+03 0.  0.
          5    1    4    4  502    0  0.38485362350E+01 -0.46302746562E+02  0.33608811523E+03  0.33931705935E+03  0.47000000000E+01 0. -1.
         -5    1    4    4    0  502 -0.60413508447E+02  0.47917710522E+02  0.14527657833E+04  0.14548183427E+04  0.47000000000E+01 0. -1.
          5    1    5    5  503    0  0.17327845473E+02  0.60084015038E+02  0.81594867235E+03  0.81835485518E+03  0.47000000000E+01 0.  1.
         -5    1    5    5    0  503  0.39237126739E+02 -0.61698978998E+02  0.12438659441E+04  0.12460220275E+04  0.47000000000E+01 0.  1.
<mgrwt>
<rscale>  0 0.27544094E+03</rscale>
<asrwt>0</asrwt>
<pdfrwt beam="1">  1        1 0.59285765E+00 0.27544094E+03</pdfrwt>
<pdfrwt beam="2">  1       -1 0.75721614E-03 0.27544094E+03</pdfrwt>
<totfact> 0.46614272E+02</totfact>
</mgrwt>
</event>
<event>
 9    1  0.7986988E-001  0.2710281E+03  0.7818608E-02  0.1100693E+00
          1   -1    0    0  501    0  0.00000000000E+00  0.00000000000E+00  0.13772227875E+04  0.13772227875E+04  0.00000000000E+00 0. -1.
         -1   -1    0    0    0  501 -0.00000000000E+00 -0.00000000000E+00 -0.13334125296E+02  0.13334125296E+02  0.00000000000E+00 0. -1.
         35    2    1    2    0    0  0.35527136788E-14  0.35527136788E-14  0.13638886622E+04  0.13905569128E+04  0.27102812555E+03 0.  0.
         25    2    3    3    0    0  0.16440911170E+02  0.23425872553E+02  0.91919047344E+03  0.92812301837E+03  0.12522833420E+03 0.  0.
         25    2    3    3    0    0 -0.16440911170E+02 -0.23425872553E+02  0.44469818878E+03  0.46243389445E+03  0.12357003102E+03 0.  0.
          5    1    4    4  502    0 -0.48731793137E+02  0.42698563463E+01  0.21011322651E+03  0.21578386708E+03  0.47000000000E+01 0.  1.
         -5    1    4    4    0  502  0.65172704307E+02  0.19156016207E+02  0.70907724693E+03  0.71233915129E+03  0.47000000000E+01 0.  1.
          5    1    5    5  503    0 -0.17784669611E+02 -0.73618990123E+02  0.28742528240E+03  0.29727333070E+03  0.47000000000E+01 0. -1.
         -5    1    5    5    0  503  0.13437584408E+01  0.50193117570E+02  0.15727290638E+03  0.16516056376E+03  0.47000000000E+01 0. -1.
<mgrwt>
<rscale>  0 0.27102813E+03</rscale>
<asrwt>0</asrwt>
<pdfrwt beam="1">  1        1 0.21188032E+00 0.27102813E+03</pdfrwt>
<pdfrwt beam="2">  1       -1 0.20514050E-02 0.27102813E+03</pdfrwt>
<totfact> 0.57107377E+03</totfact>
</mgrwt>
</event>
<event>
 9    1  0.7986988E-001  0.2747609E+03  0.7818608E-02  0.1098585E+00
         -1   -1    0    0    0  501 -0.00000000000E+00  0.00000000000E+00  0.92617933134E+02  0.92617933134E+02  0.00000000000E+00 0. -1.
          1   -1    0    0  501    0  0.00000000000E+00 -0.00000000000E+00 -0.20377683005E+03  0.20377683005E+03  0.00000000000E+00 0. -1.
         35    2    1    2    0    0  0.00000000000E+00 -0.14210854715E-13 -0.11115889691E+03  0.29639476318E+03  0.27476090566E+03 0.  0.
         25    2    3    3    0    0 -0.49976042544E+02  0.23510056406E+02 -0.55825033271E+02  0.14891901902E+03  0.12653107250E+03 0.  0.
         25    2    3    3    0    0  0.49976042544E+02 -0.23510056406E+02 -0.55333863640E+02  0.14747574415E+03  0.12504771517E+03 0.  0.
          5    1    4    4  502    0 -0.14570969716E+02 -0.44393660280E+02 -0.54827267389E+02  0.72188845959E+02  0.47000000000E+01 0.  1.
         -5    1    4    4    0  502 -0.35405072827E+02  0.67903716687E+02 -0.99776588188E+00  0.76730173065E+02  0.47000000000E+01 0.  1.
          5    1    5    5  503    0  0.91915692056E+01 -0.66731354946E+02 -0.56207931882E+02  0.87857727514E+02  0.47000000000E+01 0.  1.
         -5    1    5    5    0  503  0.40784473338E+02  0.43221298540E+02  0.87406824169E+00  0.59618016641E+02  0.47000000000E+01 0.  1.
<mgrwt>
<rscale>  0 0.27476091E+03</rscale>
<asrwt>0</asrwt>
<pdfrwt beam="1">  1        1 0.31350281E-01 0.27476091E+03</pdfrwt>
<pdfrwt beam="2">  1       -1 0.14248913E-01 0.27476091E+03</pdfrwt>
<totfact> 0.49621023E+03</totfact>
</mgrwt>
</event>
<event>
 9    1  0.7986988E-001  0.2737441E+03  0.7818608E-02  0.1099156E+00
         -1   -1    0    0    0  501 -0.00000000000E+00  0.00000000000E+00  0.24494539831E+04  0.24494539831E+04  0.00000000000E+00 0. -1.
          1   -1    0    0  501    0  0.00000000000E+00 -0.00000000000E+00 -0.76482203757E+01  0.76482203757E+01  0.00000000000E+00 0. -1.
         35    2    1    2    0    0 -0.71054273576E-14 -0.71054273576E-14  0.24418057627E+04  0.24571022034E+04  0.27374414231E+03 0.  0.
         25    2    3    3    0    0 -0.44061708683E+02  0.33844405974E+02  0.11290378400E+04  0.11372831830E+04  0.12489882432E+03 0.  0.
         25    2    3    3    0    0  0.44061708683E+02 -0.33844405974E+02  0.13127679227E+04  0.13198190204E+04  0.12440156649E+03 0.  0.
          5    1    4    4  502    0 -0.34125907117E+02  0.40686081574E+02  0.17010850001E+03  0.17826644818E+03  0.47000000000E+01 0. -1.
         -5    1    4    4    0  502 -0.99358015663E+01 -0.68416756008E+01  0.95892933995E+03  0.95901673483E+03  0.47000000000E+01 0. -1.
          5    1    5    5  503    0  0.10649079255E+02 -0.68551536653E+02  0.10708973032E+04  0.10731522912E+04  0.47000000000E+01 0. -1.
         -5    1    5    5    0  503  0.33412629428E+02  0.34707130680E+02  0.24187061953E+03  0.24666672925E+03  0.47000000000E+01 0. -1.
<mgrwt>
<rscale>  0 0.27374414E+03</rscale>
<asrwt>0</asrwt>
<pdfrwt beam="1">  1        1 0.11766512E-02 0.27374414E+03</pdfrwt>
<pdfrwt beam="2">  1       -1 0.37683845E+00 0.27374414E+03</pdfrwt>
<totfact> 0.16066107E+02</totfact>
</mgrwt>
</event>
<event>
 9    1  0.7986988E-001  0.2756608E+03  0.7818608E-02  0.1098083E+00
         -2   -1    0    0    0  501 -0.00000000000E+00  0.00000000000E+00  0.64804237686E+01  0.64804237686E+01  0.00000000000E+00 0.  1.
          2   -1    0    0  501    0  0.00000000000E+00 -0.00000000000E+00 -0.29314775267E+04  0.29314775267E+04  0.00000000000E+00 0.  1.
         35    2    1    2    0    0  0.00000000000E+00  0.00000000000E+00 -0.29249971029E+04  0.29379579504E+04  0.27566078169E+03 0.  0.
         25    2    3    3    0    0  0.41164494999E+02  0.11071767584E+02 -0.11472724823E+04  0.11552963848E+04  0.12906776628E+03 0.  0.
         25    2    3    3    0    0 -0.41164494999E+02 -0.11071767584E+02 -0.17777246206E+04  0.17826615657E+04  0.12554015851E+03 0.  0.
          5    1    4    4  502    0 -0.88174014919E+01  0.52363069691E+02 -0.24733773318E+03  0.25301715730E+03  0.47000000000E+01 0. -1.
         -5    1    4    4    0  502  0.49981896491E+02 -0.41291302108E+02 -0.89993474913E+03  0.90227922745E+03  0.47000000000E+01 0. -1.
          5    1    5    5  503    0 -0.81175533279E+02 -0.12163132974E+02 -0.82539614238E+03  0.82948073568E+03  0.47000000000E+01 0. -1.
         -5    1    5    5    0  503  0.40011038280E+02  0.10913653902E+01 -0.95232847820E+03  0.95318082998E+03  0.47000000000E+01 0. -1.
<mgrwt>
<rscale>  0 0.27566078E+03</rscale>
<asrwt>0</asrwt>
<pdfrwt beam="1">  1        2 0.45099707E+00 0.27566078E+03</pdfrwt>
<pdfrwt beam="2">  1       -2 0.99698711E-03 0.27566078E+03</pdfrwt>
<totfact> 0.48964119E+03</totfact>
</mgrwt>
</event>
<event>
 9    1  0.7986988E-001  0.2765426E+03  0.7818608E-02  0.1097592E+00
         -2   -1    0    0    0  501 -0.00000000000E+00  0.00000000000E+00  0.24368935825E+02  0.24368935825E+02  0.00000000000E+00 0. -1.
          2   -1    0    0  501    0  0.00000000000E+00 -0.00000000000E+00 -0.78456232974E+03  0.78456232974E+03  0.00000000000E+00 0. -1.
         35    2    1    2    0    0  0.14210854715E-13  0.00000000000E+00 -0.76019339392E+03  0.80893126557E+03  0.27654257585E+03 0.  0.
         25    2    3    3    0    0 -0.57262130081E+02 -0.62279502402E+01 -0.38370168901E+03  0.40712775109E+03  0.12332185799E+03 0.  0.
         25    2    3    3    0    0  0.57262130081E+02  0.62279502402E+01 -0.37649170491E+03  0.40180351447E+03  0.12799344308E+03 0.  0.
          5    1    4    4  502    0 -0.40984896923E+02 -0.41015109701E+02 -0.69857993616E+02  0.90907811940E+02  0.47000000000E+01 0.  1.
         -5    1    4    4    0  502 -0.16277233159E+02  0.34787159461E+02 -0.31384369539E+03  0.31621993915E+03  0.47000000000E+01 0.  1.
          5    1    5    5  503    0  0.76736682679E+02 -0.41503370688E+02 -0.20997170289E+03  0.22742307328E+03  0.47000000000E+01 0.  1.
         -5    1    5    5    0  503 -0.19474552597E+02  0.47731320929E+02 -0.16652000202E+03  0.17438044119E+03  0.47000000000E+01 0.  1.
<mgrwt>
<rscale>  0 0.27654258E+03</rscale>
<asrwt>0</asrwt>
<pdfrwt beam="1">  1        2 0.12070191E+00 0.27654258E+03</pdfrwt>
<pdfrwt beam="2">  1       -2 0.37490667E-02 0.27654258E+03</pdfrwt>
<totfact> 0.10988032E+04</totfact>
</mgrwt>
</event>
<event>
 9    1  0.7986988E-001  0.2741184E+03  0.7818608E-02  0.1098945E+00
          2   -1    0    0  501    0  0.00000000000E+00  0.00000000000E+00  0.43428809777E+03  0.43428809777E+03  0.00000000000E+00 0. -1.
         -2   -1    0    0    0  501 -0.00000000000E+00 -0.00000000000E+00 -0.43255219123E+02  0.43255219123E+02  0.00000000000E+00 0. -1.
         35    2    1    2    0    0 -0.71054273576E-14  0.00000000000E+00  0.39103287865E+03  0.47754331689E+03  0.27411841844E+03 0.  0.
         25    2    3    3    0    0 -0.30372789909E+02 -0.21591472092E+02  0.26637571536E+03  0.29645697713E+03  0.12466763621E+03 0.  0.
         25    2    3    3    0    0  0.30372789909E+02  0.21591472092E+02  0.12465716329E+03  0.18108633977E+03  0.12595299146E+03 0.  0.
          5    1    4    4  502    0 -0.11812773042E+02  0.32147000274E+02  0.13313962941E+02  0.37044876066E+02  0.47000000000E+01 0.  1.
         -5    1    4    4    0  502 -0.18560016868E+02 -0.53738472366E+02  0.25306175242E+03  0.25941210106E+03  0.47000000000E+01 0.  1.
          5    1    5    5  503    0 -0.26251784533E+02 -0.34166597424E+01 -0.13158316434E+02  0.29934278785E+02  0.47000000000E+01 0. -1.
         -5    1    5    5    0  503  0.56624574443E+02  0.25008131835E+02  0.13781547972E+03  0.15115206098E+03  0.47000000000E+01 0. -1.
<mgrwt>
<rscale>  0 0.27411842E+03</rscale>
<asrwt>0</asrwt>
<pdfrwt beam="1">  1        2 0.66813550E-01 0.27411842E+03</pdfrwt>
<pdfrwt beam="2">  1       -2 0.66546494E-02 0.27411842E+03</pdfrwt>
<totfact> 0.91305837E+03</totfact>
</mgrwt>
</event>
<event>
 9    1  0.7986988E-001  0.2625552E+03  0.7818608E-02  0.1105618E+00
         -2   -1    0    0    0  501 -0.00000000000E+00  0.00000000000E+00  0.19422213168E+02  0.19422213168E+02  0.00000000000E+00 0.  1.
          2   -1    0    0  501    0  0.00000000000E+00 -0.00000000000E+00 -0.88732448626E+03  0.88732448626E+03  0.00000000000E+00 0.  1.
         35    2    1    2    0    0  0.00000000000E+00  0.00000000000E+00 -0.86790227309E+03  0.90674669943E+03  0.26255517760E+03 0.  0.
         25    2    3    3    0    0 -0.50551941006E+01 -0.39553034438E+02 -0.39283473506E+03  0.41401255433E+03  0.12448802574E+03 0.  0.
         25    2    3    3    0    0  0.50551941006E+01  0.39553034438E+02 -0.47506753803E+03  0.49273414509E+03  0.12453021534E+03 0.  0.
          5    1    4    4  502    0  0.18532071103E+02 -0.80760278889E+02 -0.25226294560E+03  0.26556419944E+03  0.47000000000E+01 0.  1.
         -5    1    4    4    0  502 -0.23587265203E+02  0.41207244452E+02 -0.14057178947E+03  0.14844835489E+03  0.47000000000E+01 0.  1.
          5    1    5    5  503    0 -0.59392003469E+02  0.14047184646E+02 -0.23098534881E+03  0.23895827008E+03  0.47000000000E+01 0.  1.
         -5    1    5    5    0  503  0.64447197570E+02  0.25505849791E+02 -0.24408218922E+03  0.25377587502E+03  0.47000000000E+01 0.  1.
<mgrwt>
<rscale>  0 0.26255518E+03</rscale>
<asrwt>0</asrwt>
<pdfrwt beam="1">  1        2 0.13651147E+00 0.26255518E+03</pdfrwt>
<pdfrwt beam="2">  1       -2 0.29880325E-02 0.26255518E+03</pdfrwt>
<totfact> 0.13123809E+04</totfact>
</mgrwt>
</event>
<event>
 9    1  0.7986988E-001  0.2714578E+03  0.7818608E-02  0.1100448E+00
          2   -1    0    0  501    0  0.00000000000E+00  0.00000000000E+00  0.41283664784E+03  0.41283664784E+03  0.00000000000E+00 0. -1.
         -2   -1    0    0    0  501 -0.00000000000E+00 -0.00000000000E+00 -0.44623770491E+02  0.44623770491E+02  0.00000000000E+00 0. -1.
         35    2    1    2    0    0 -0.14210854715E-13  0.71054273576E-14  0.36821287735E+03  0.45746041833E+03  0.27145775232E+03 0.  0.
         25    2    3    3    0    0  0.46908587973E+02 -0.24254197005E+02  0.15613457525E+03  0.20681739435E+03  0.12492696794E+03 0.  0.
         25    2    3    3    0    0 -0.46908587973E+02  0.24254197005E+02  0.21207830210E+03  0.25064302399E+03  0.12270304622E+03 0.  0.
          5    1    4    4  502    0  0.27128824821E+02  0.35869591187E+02  0.83529369580E+01  0.45983282439E+02  0.47000000000E+01 0.  1.
         -5    1    4    4    0  502  0.19779763152E+02 -0.60123788193E+02  0.14778163829E+03  0.16083411191E+03  0.47000000000E+01 0.  1.
          5    1    5    5  503    0  0.37023126821E+02  0.31950451018E+02  0.81017631703E+02  0.94749616815E+02  0.47000000000E+01 0.  1.
         -5    1    5    5    0  503 -0.83931714794E+02 -0.76962540128E+01  0.13106067040E+03  0.15589340717E+03  0.47000000000E+01 0.  1.
<mgrwt>
<rscale>  0 0.27145775E+03</rscale>
<asrwt>0</asrwt>
<pdfrwt beam="1">  1        2 0.63513328E-01 0.27145775E+03</pdfrwt>
<pdfrwt beam="2">  1       -2 0.68651957E-02 0.27145775E+03</pdfrwt>
<totfact> 0.91933748E+03</totfact>
</mgrwt>
</event>
<event>
 9    1  0.7986988E-001  0.2751121E+03  0.7818608E-02  0.1098389E+00
          4   -1    0    0  501    0  0.00000000000E+00  0.00000000000E+00  0.60241797803E+03  0.60241797803E+03  0.00000000000E+00 0. -1.
         -4   -1    0    0    0  501 -0.00000000000E+00 -0.00000000000E+00 -0.31409537981E+02  0.31409537981E+02  0.00000000000E+00 0. -1.
         35    2    1    2    0    0  0.14210854715E-13  0.00000000000E+00  0.57100844005E+03  0.63382751601E+03  0.27511212522E+03 0.  0.
         25    2    3    3    0    0 -0.34263414795E+02  0.35251183815E+02  0.35605584611E+03  0.38056566140E+03  0.12505130762E+03 0.  0.
         25    2    3    3    0    0  0.34263414795E+02 -0.35251183815E+02  0.21495259394E+03  0.25326185461E+03  0.12458058357E+03 0.  0.
          5    1    4    4  502    0  0.36856550872E+02  0.42269217301E+02  0.10072864248E+03  0.11538388748E+03  0.47000000000E+01 0. -1.
         -5    1    4    4    0  502 -0.71119965667E+02 -0.70180334862E+01  0.25532720363E+03  0.26518177392E+03  0.47000000000E+01 0. -1.
          5    1    5    5  503    0 -0.15333387230E+01 -0.13700147136E+02  0.21047369843E+03  0.21097704351E+03  0.47000000000E+01 0. -1.
         -5    1    5    5    0  503  0.35796753518E+02 -0.21551036679E+02  0.44788955139E+01  0.42284811096E+02  0.47000000000E+01 0. -1.
<mgrwt>
<rscale>  0 0.27511213E+03</rscale>
<asrwt>0</asrwt>
<pdfrwt beam="1">  1        4 0.92679680E-01 0.27511213E+03</pdfrwt>
<pdfrwt beam="2">  1       -4 0.48322371E-02 0.27511213E+03</pdfrwt>
<totfact> 0.48128805E+02</totfact>
</mgrwt>
</event>
<event>
 9    1  0.7986988E-001  0.2767051E+03  0.7818608E-02  0.1097502E+00
          2   -1    0    0  501    0  0.00000000000E+00  0.00000000000E+00  0.12366988113E+04  0.12366988113E+04  0.00000000000E+00 0. -1.
         -2   -1    0    0    0  501 -0.00000000000E+00 -0.00000000000E+00 -0.15477843321E+02  0.15477843321E+02  0.00000000000E+00 0. -1.
         35    2    1    2    0    0  0.00000000000E+00  0.00000000000E+00  0.12212209680E+04  0.12521766546E+04  0.27670511695E+03 0.  0.
         25    2    3    3    0    0  0.27300735831E+02  0.34163660172E+02  0.67057668036E+03  0.68592727825E+03  0.13751603891E+03 0.  0.
         25    2    3    3    0    0 -0.27300735831E+02 -0.34163660172E+02  0.55064428765E+03  0.56624937639E+03  0.12456620286E+03 0.  0.
          5    1    4    4  502    0  0.76496530670E+02 -0.81899531501E+01  0.42137285956E+03  0.42836429742E+03  0.47000000000E+01 0.  1.
         -5    1    4    4    0  502 -0.49195794839E+02  0.42353613322E+02  0.24920382080E+03  0.25756298083E+03  0.47000000000E+01 0.  1.
          5    1    5    5  503    0 -0.62523323326E+02  0.71047253021E+01  0.41992571719E+03  0.42464024896E+03  0.47000000000E+01 0. -1.
         -5    1    5    5    0  503  0.35222587496E+02 -0.41268385474E+02  0.13071857045E+03  0.14160912743E+03  0.47000000000E+01 0. -1.
<mgrwt>
<rscale>  0 0.27670512E+03</rscale>
<asrwt>0</asrwt>
<pdfrwt beam="1">  1        2 0.19026128E+00 0.27670512E+03</pdfrwt>
<pdfrwt beam="2">  1       -2 0.23812076E-02 0.27670512E+03</pdfrwt>
<totfact> 0.11364950E+04</totfact>
</mgrwt>
</event>
<event>
 9    1  0.7986988E-001  0.2742899E+03  0.7818608E-02  0.1098849E+00
         -2   -1    0    0    0  501 -0.00000000000E+00  0.00000000000E+00  0.20857103196E+02  0.20857103196E+02  0.00000000000E+00 0. -1.
          2   -1    0    0  501    0  0.00000000000E+00 -0.00000000000E+00 -0.90179079802E+03  0.90179079802E+03  0.00000000000E+00 0. -1.
         35    2    1    2    0    0  0.14210854715E-13  0.00000000000E+00 -0.88093369483E+03  0.92264790122E+03  0.27428994685E+03 0.  0.
         25    2    3    3    0    0 -0.51586912833E+02  0.24274210483E+02 -0.43914104231E+03  0.45996581023E+03  0.12439149757E+03 0.  0.
         25    2    3    3    0    0  0.51586912833E+02 -0.24274210483E+02 -0.44179265252E+03  0.46268209099E+03  0.12507406860E+03 0.  0.
          5    1    4    4  502    0 -0.91179993885E+02  0.16413729121E+02 -0.34843816483E+03  0.36057516068E+03  0.47000000000E+01 0.  1.
         -5    1    4    4    0  502  0.39593081052E+02  0.78604813620E+01 -0.90702877475E+02  0.99390649543E+02  0.47000000000E+01 0.  1.
          5    1    5    5  503    0  0.56194822732E+02 -0.60894928137E+02 -0.17943775160E+03  0.19770191469E+03  0.47000000000E+01 0. -1.
         -5    1    5    5    0  503 -0.46079098998E+01  0.36620717654E+02 -0.26235490092E+03  0.26498017630E+03  0.47000000000E+01 0. -1.
<mgrwt>
<rscale>  0 0.27428995E+03</rscale>
<asrwt>0</asrwt>
<pdfrwt beam="1">  1        2 0.13873706E+00 0.27428995E+03</pdfrwt>
<pdfrwt beam="2">  1       -2 0.32087848E-02 0.27428995E+03</pdfrwt>
<totfact> 0.11568322E+04</totfact>
</mgrwt>
</event>
<event>
 9    1  0.7986988E-001  0.2738081E+03  0.7818608E-02  0.1099120E+00
         -1   -1    0    0    0  501 -0.00000000000E+00  0.00000000000E+00  0.65307039664E+02  0.65307039664E+02  0.00000000000E+00 0. -1.
          1   -1    0    0  501    0  0.00000000000E+00 -0.00000000000E+00 -0.28699391024E+03  0.28699391024E+03  0.00000000000E+00 0. -1.
         35    2    1    2    0    0  0.71054273576E-14 -0.71054273576E-14 -0.22168687057E+03  0.35230094990E+03  0.27380812756E+03 0.  0.
         25    2    3    3    0    0 -0.16174743560E+02  0.41373060799E+02 -0.64736854323E+02  0.14793187642E+03  0.12537793771E+03 0.  0.
         25    2    3    3    0    0  0.16174743560E+02 -0.41373060799E+02 -0.15695001625E+03  0.20436907348E+03  0.12312618773E+03 0.  0.
          5    1    4    4  502    0  0.33726242818E+01 -0.31080163404E+02  0.17800066753E+02  0.36280621937E+02  0.47000000000E+01 0.  1.
         -5    1    4    4    0  502 -0.19547367842E+02  0.72453224202E+02 -0.82536921076E+02  0.11165125448E+03  0.47000000000E+01 0.  1.
          5    1    5    5  503    0 -0.37622367383E+02 -0.19957394255E+02 -0.13603863694E+03  0.14262657836E+03  0.47000000000E+01 0. -1.
         -5    1    5    5    0  503  0.53797110944E+02 -0.21415666544E+02 -0.20911379307E+02  0.61742495123E+02  0.47000000000E+01 0. -1.
<mgrwt>
<rscale>  0 0.27380813E+03</rscale>
<asrwt>0</asrwt>
<pdfrwt beam="1">  1        1 0.44152910E-01 0.27380813E+03</pdfrwt>
<pdfrwt beam="2">  1       -1 0.10047237E-01 0.27380813E+03</pdfrwt>
<totfact> 0.55699596E+03</totfact>
</mgrwt>
</event>
<event>
 9    1  0.7986988E-001  0.2753272E+03  0.7818608E-02  0.1098269E+00
          1   -1    0    0  501    0  0.00000000000E+00  0.00000000000E+00  0.39299791339E+02  0.39299791339E+02  0.00000000000E+00 0.  1.
         -1   -1    0    0    0  501 -0.00000000000E+00 -0.00000000000E+00 -0.48222305658E+03  0.48222305658E+03  0.00000000000E+00 0.  1.
         35    2    1    2    0    0  0.00000000000E+00 -0.71054273576E-14 -0.44292326524E+03  0.52152284792E+03  0.27532719083E+03 0.  0.
         25    2    3    3    0    0 -0.50687830190E+02  0.18446200503E+02 -0.17310175040E+03  0.21909152411E+03  0.12299333926E+03 0.  0.
         25    2    3    3    0    0  0.50687830190E+02 -0.18446200503E+02 -0.26982151485E+03  0.30243132381E+03  0.12550512861E+03 0.  0.
          5    1    4    4  502    0 -0.17801184610E+02 -0.46232658566E+02 -0.28777010723E+02  0.57485191465E+02  0.47000000000E+01 0. -1.
         -5    1    4    4    0  502 -0.32886645580E+02  0.64678859069E+02 -0.14432473967E+03  0.16160633264E+03  0.47000000000E+01 0. -1.
          5    1    5    5  503    0  0.61459032434E+02  0.41322888233E+02 -0.12577795265E+03  0.14603758808E+03  0.47000000000E+01 0. -1.
         -5    1    5    5    0  503 -0.10771202244E+02 -0.59769088736E+02 -0.14404356220E+03  0.15639373573E+03  0.47000000000E+01 0. -1.
<mgrwt>
<rscale>  0 0.27532719E+03</rscale>
<asrwt>0</asrwt>
<pdfrwt beam="1">  1        1 0.60461219E-02 0.27532719E+03</pdfrwt>
<pdfrwt beam="2">  1       -1 0.74188160E-01 0.27532719E+03</pdfrwt>
<totfact> 0.24316121E+03</totfact>
</mgrwt>
</event>
<event>
 9    1  0.7986988E-001  0.2549074E+03  0.7818608E-02  0.1110242E+00
         -2   -1    0    0    0  501 -0.00000000000E+00  0.00000000000E+00  0.35269279227E+02  0.35269279227E+02  0.00000000000E+00 0.  1.
          2   -1    0    0  501    0  0.00000000000E+00 -0.00000000000E+00 -0.46058361080E+03  0.46058361080E+03  0.00000000000E+00 0.  1.
         35    2    1    2    0    0 -0.71054273576E-14  0.71054273576E-14 -0.42531433157E+03  0.49585289003E+03  0.25490744969E+03 0.  0.
         25    2    3    3    0    0  0.55219931924E+01  0.35809251864E+01 -0.25829193213E+03  0.28708237172E+03  0.12513293136E+03 0.  0.
         25    2    3    3    0    0 -0.55219931924E+01 -0.35809251864E+01 -0.16702239944E+03  0.20877051831E+03  0.12508130143E+03 0.  0.
          5    1    4    4  502    0  0.49813048599E+02  0.40043435017E+02 -0.10128356212E+03  0.11985518952E+03  0.47000000000E+01 0.  1.
         -5    1    4    4    0  502 -0.44291055406E+02 -0.36462509831E+02 -0.15700837001E+03  0.16722718220E+03  0.47000000000E+01 0.  1.
          5    1    5    5  503    0  0.34181349575E+02 -0.37459822021E+02 -0.14168921815E+03  0.15056403111E+03  0.47000000000E+01 0. -1.
         -5    1    5    5    0  503 -0.39703342767E+02  0.33878896835E+02 -0.25333181289E+02  0.58206487197E+02  0.47000000000E+01 0. -1.
<mgrwt>
<rscale>  0 0.25490745E+03</rscale>
<asrwt>0</asrwt>
<pdfrwt beam="1">  1        2 0.70859017E-01 0.25490745E+03</pdfrwt>
<pdfrwt beam="2">  1       -2 0.54260429E-02 0.25490745E+03</pdfrwt>
<totfact> 0.11668906E+04</totfact>
</mgrwt>
</event>
<event>
 9    1  0.7986988E-001  0.2753395E+03  0.7818608E-02  0.1098262E+00
          2   -1    0    0  501    0  0.00000000000E+00  0.00000000000E+00  0.32311707590E+03  0.32311707590E+03  0.00000000000E+00 0.  1.
         -2   -1    0    0    0  501 -0.00000000000E+00 -0.00000000000E+00 -0.58656641078E+02  0.58656641078E+02  0.00000000000E+00 0.  1.
         35    2    1    2    0    0  0.00000000000E+00 -0.35527136788E-14  0.26446043482E+03  0.38177371698E+03  0.27533951658E+03 0.  0.
         25    2    3    3    0    0 -0.38850291314E+02  0.30660582020E+02  0.93181172662E+02  0.16311568986E+03  0.12439686859E+03 0.  0.
         25    2    3    3    0    0  0.38850291314E+02 -0.30660582020E+02  0.17127926216E+03  0.21865802712E+03  0.12659119539E+03 0.  0.
          5    1    4    4  502    0 -0.82987746293E+02  0.96181214719E+01  0.68519820967E+02  0.10815049774E+03  0.47000000000E+01 0. -1.
         -5    1    4    4    0  502  0.44137454979E+02  0.21042460548E+02  0.24661351695E+02  0.54965192126E+02  0.47000000000E+01 0. -1.
          5    1    5    5  503    0  0.70427016797E+02  0.20223718265E+02  0.73429759039E+02  0.10384114304E+03  0.47000000000E+01 0.  1.
         -5    1    5    5    0  503 -0.31576725483E+02 -0.50884300285E+02  0.97849503123E+02  0.11481688408E+03  0.47000000000E+01 0.  1.
<mgrwt>
<rscale>  0 0.27533952E+03</rscale>
<asrwt>0</asrwt>
<pdfrwt beam="1">  1        2 0.49710318E-01 0.27533952E+03</pdfrwt>
<pdfrwt beam="2">  1       -2 0.90240988E-02 0.27533952E+03</pdfrwt>
<totfact> 0.78250989E+03</totfact>
</mgrwt>
</event>
<event>
 9    1  0.7986988E-001  0.2726814E+03  0.7818608E-02  0.1099755E+00
         -1   -1    0    0    0  501 -0.00000000000E+00  0.00000000000E+00  0.11911434348E+03  0.11911434348E+03  0.00000000000E+00 0.  1.
          1   -1    0    0  501    0  0.00000000000E+00 -0.00000000000E+00 -0.15605835761E+03  0.15605835761E+03  0.00000000000E+00 0.  1.
         35    2    1    2    0    0  0.17763568394E-14  0.00000000000E+00 -0.36944014133E+02  0.27517270108E+03  0.27268141712E+03 0.  0.
         25    2    3    3    0    0  0.12003261103E+02 -0.53205672929E+02 -0.90230095874E+01  0.13621584103E+03  0.12449264531E+03 0.  0.
         25    2    3    3    0    0 -0.12003261103E+02  0.53205672929E+02 -0.27921004545E+02  0.13895686006E+03  0.12471769944E+03 0.  0.
          5    1    4    4  502    0  0.76818358842E+01 -0.87164249250E+02  0.21371304314E+02  0.90196671768E+02  0.47000000000E+01 0. -1.
         -5    1    4    4    0  502  0.43214252190E+01  0.33958576321E+02 -0.30394313901E+02  0.46019169258E+02  0.47000000000E+01 0. -1.
          5    1    5    5  503    0 -0.67268706995E+02  0.15921189301E+02 -0.14762437522E+02  0.70841956291E+02  0.47000000000E+01 0. -1.
         -5    1    5    5    0  503  0.55265445892E+02  0.37284483628E+02 -0.13158567023E+02  0.68114903767E+02  0.47000000000E+01 0. -1.
<mgrwt>
<rscale>  0 0.27268142E+03</rscale>
<asrwt>0</asrwt>
<pdfrwt beam="1">  1        1 0.24008978E-01 0.27268142E+03</pdfrwt>
<pdfrwt beam="2">  1       -1 0.18325284E-01 0.27268142E+03</pdfrwt>
<totfact> 0.46555473E+03</totfact>
</mgrwt>
</event>
<event>
 9    1  0.7986988E-001  0.2775174E+03  0.7818608E-02  0.1097053E+00
          1   -1    0    0  501    0  0.00000000000E+00  0.00000000000E+00  0.52183425361E+03  0.52183425361E+03  0.00000000000E+00 0.  1.
         -1   -1    0    0    0  501 -0.00000000000E+00 -0.00000000000E+00 -0.36896725510E+02  0.36896725510E+02  0.00000000000E+00 0.  1.
         35    2    1    2    0    0  0.71054273576E-14  0.71054273576E-14  0.48493752810E+03  0.55873097912E+03  0.27751738841E+03 0.  0.
         25    2    3    3    0    0 -0.27871994626E+02 -0.56801886217E+01  0.12753453418E+03  0.17907261658E+03  0.12244522030E+03 0.  0.
         25    2    3    3    0    0  0.27871994626E+02  0.56801886217E+01  0.35740299392E+03  0.37965836254E+03  0.12487777847E+03 0.  0.
          5    1    4    4  502    0 -0.67109749671E+02  0.24820773966E+02  0.52179539577E+02  0.88682487965E+02  0.47000000000E+01 0.  1.
         -5    1    4    4    0  502  0.39237755045E+02 -0.30500962587E+02  0.75354994604E+02  0.90390128618E+02  0.47000000000E+01 0.  1.
          5    1    5    5  503    0 -0.13628141172E+02 -0.33516190014E+02  0.29863544180E+02  0.47148515309E+02  0.47000000000E+01 0. -1.
         -5    1    5    5    0  503  0.41500135798E+02  0.39196378636E+02  0.32753944974E+03  0.33250984723E+03  0.47000000000E+01 0. -1.
<mgrwt>
<rscale>  0 0.27751739E+03</rscale>
<asrwt>0</asrwt>
<pdfrwt beam="1">  1        1 0.80282187E-01 0.27751739E+03</pdfrwt>
<pdfrwt beam="2">  1       -1 0.56764197E-02 0.27751739E+03</pdfrwt>
<totfact> 0.61692379E+03</totfact>
</mgrwt>
</event>
<event>
 9    1  0.7986988E-001  0.2756540E+03  0.7818608E-02  0.1098087E+00
         -2   -1    0    0    0  501 -0.00000000000E+00  0.00000000000E+00  0.87200071848E+01  0.87200071848E+01  0.00000000000E+00 0.  1.
          2   -1    0    0  501    0  0.00000000000E+00 -0.00000000000E+00 -0.21784702982E+04  0.21784702982E+04  0.00000000000E+00 0.  1.
         35    2    1    2    0    0 -0.71054273576E-14  0.00000000000E+00 -0.21697502910E+04  0.21871903054E+04  0.27565396172E+03 0.  0.
         25    2    3    3    0    0  0.38134939152E+02  0.36684929484E+02 -0.12668822880E+04  0.12741207096E+04  0.12487110634E+03 0.  0.
         25    2    3    3    0    0 -0.38134939152E+02 -0.36684929484E+02 -0.90286800302E+03  0.91306959585E+03  0.12540095036E+03 0.  0.
          5    1    4    4  502    0 -0.12068943062E+02 -0.36704347517E+02 -0.60863515927E+03  0.60987844330E+03  0.47000000000E+01 0. -1.
         -5    1    4    4    0  502  0.50203882214E+02  0.73389277000E+02 -0.65824712875E+03  0.66424226625E+03  0.47000000000E+01 0. -1.
          5    1    5    5  503    0  0.23146696746E+02 -0.36223410286E+02 -0.11589088758E+03  0.12369596941E+03  0.47000000000E+01 0. -1.
         -5    1    5    5    0  503 -0.61281635898E+02 -0.46151919754E+00 -0.78697711544E+03  0.78937362645E+03  0.47000000000E+01 0. -1.
<mgrwt>
<rscale>  0 0.27565396E+03</rscale>
<asrwt>0</asrwt>
<pdfrwt beam="1">  1        2 0.33514900E+00 0.27565396E+03</pdfrwt>
<pdfrwt beam="2">  1       -2 0.13415407E-02 0.27565396E+03</pdfrwt>
<totfact> 0.83052699E+03</totfact>
</mgrwt>
</event>
<event>
 9    1  0.7986988E-001  0.2759375E+03  0.7818608E-02  0.1097929E+00
         -1   -1    0    0    0  501 -0.00000000000E+00  0.00000000000E+00  0.31078439989E+03  0.31078439989E+03  0.00000000000E+00 0. -1.
          1   -1    0    0  501    0  0.00000000000E+00 -0.00000000000E+00 -0.61249476765E+02  0.61249476765E+02  0.00000000000E+00 0. -1.
         35    2    1    2    0    0 -0.35527136788E-14 -0.71054273576E-14  0.24953492312E+03  0.37203387665E+03  0.27593754279E+03 0.  0.
         25    2    3    3    0    0  0.21978490670E+02  0.56514235318E+02  0.13875454934E+03  0.19483553662E+03  0.12260158449E+03 0.  0.
         25    2    3    3    0    0 -0.21978490670E+02 -0.56514235318E+02  0.11078037378E+03  0.17719834004E+03  0.12429822063E+03 0.  0.
          5    1    4    4  502    0 -0.46167151095E+02  0.66579728686E+01  0.25120213995E+02  0.53186930670E+02  0.47000000000E+01 0.  1.
         -5    1    4    4    0  502  0.68145641765E+02  0.49856262449E+02  0.11363433535E+03  0.14164860595E+03  0.47000000000E+01 0.  1.
          5    1    5    5  503    0 -0.46980195147E+02  0.71717061438E+01  0.95739548720E+02  0.10698936066E+03  0.47000000000E+01 0.  1.
         -5    1    5    5    0  503  0.25001704477E+02 -0.63685941462E+02  0.15040825060E+02  0.70208979377E+02  0.47000000000E+01 0.  1.
<mgrwt>
<rscale>  0 0.27593754E+03</rscale>
<asrwt>0</asrwt>
<pdfrwt beam="1">  1        1 0.94229966E-02 0.27593754E+03</pdfrwt>
<pdfrwt beam="2">  1       -1 0.47812984E-01 0.27593754E+03</pdfrwt>
<totfact> 0.30927509E+03</totfact>
</mgrwt>
</event>
<event>
 9    1  0.7986988E-001  0.2745959E+03  0.7818608E-02  0.1098678E+00
         -2   -1    0    0    0  501 -0.00000000000E+00  0.00000000000E+00  0.16923546835E+02  0.16923546835E+02  0.00000000000E+00 0. -1.
          2   -1    0    0  501    0  0.00000000000E+00 -0.00000000000E+00 -0.11138758337E+04  0.11138758337E+04  0.00000000000E+00 0. -1.
         35    2    1    2    0    0 -0.71054273576E-14  0.71054273576E-14 -0.10969522869E+04  0.11307993805E+04  0.27459592015E+03 0.  0.
         25    2    3    3    0    0 -0.39856200654E+02  0.24843166307E+02 -0.67304924546E+03  0.68619711672E+03  0.12516188135E+03 0.  0.
         25    2    3    3    0    0  0.39856200654E+02 -0.24843166307E+02 -0.42390304141E+03  0.44460226382E+03  0.12558536870E+03 0.  0.
          5    1    4    4  502    0  0.41706658031E+02  0.18353627448E+02 -0.34676438729E+03  0.34977697359E+03  0.47000000000E+01 0. -1.
         -5    1    4    4    0  502 -0.81562858686E+02  0.64895388587E+01 -0.32628485817E+03  0.33642014313E+03  0.47000000000E+01 0. -1.
          5    1    5    5  503    0  0.82860414818E+02  0.13033465037E+01 -0.28217833467E+03  0.29413304747E+03  0.47000000000E+01 0. -1.
         -5    1    5    5    0  503 -0.43004214163E+02 -0.26146512811E+02 -0.14172470674E+03  0.15046921635E+03  0.47000000000E+01 0. -1.
<mgrwt>
<rscale>  0 0.27459592E+03</rscale>
<asrwt>0</asrwt>
<pdfrwt beam="1">  1        2 0.17136547E+00 0.27459592E+03</pdfrwt>
<pdfrwt beam="2">  1       -2 0.26036232E-02 0.27459592E+03</pdfrwt>
<totfact> 0.11707047E+04</totfact>
</mgrwt>
</event>
<event>
 9    1  0.7986988E-001  0.2801114E+03  0.7818608E-02  0.1095628E+00
          1   -1    0    0  501    0  0.00000000000E+00  0.00000000000E+00  0.24074298499E+03  0.24074298499E+03  0.00000000000E+00 0.  1.
         -1   -1    0    0    0  501 -0.00000000000E+00 -0.00000000000E+00 -0.81479410689E+02  0.81479410689E+02  0.00000000000E+00 0.  1.
         35    2    1    2    0    0 -0.71054273576E-14  0.71054273576E-14  0.15926357430E+03  0.32222239568E+03  0.28011138173E+03 0.  0.
         25    2    3    3    0    0 -0.39911830222E+02  0.32637857922E+02  0.11750393238E+03  0.17949379661E+03  0.12550962089E+03 0.  0.
         25    2    3    3    0    0  0.39911830222E+02 -0.32637857922E+02  0.41759641922E+02  0.14272859907E+03  0.12637009669E+03 0.  0.
          5    1    4    4  502    0 -0.76103654931E+02  0.42215293155E+02  0.45771060818E+02  0.98442761432E+02  0.47000000000E+01 0.  1.
         -5    1    4    4    0  502  0.36191824709E+02 -0.95774352335E+01  0.71732871558E+02  0.81051035177E+02  0.47000000000E+01 0.  1.
          5    1    5    5  503    0  0.78323498525E+02 -0.47195136820E+02  0.43445392245E+02  0.10134862341E+03  0.47000000000E+01 0.  1.
         -5    1    5    5    0  503 -0.38411668304E+02  0.14557278899E+02 -0.16857503227E+01  0.41379975652E+02  0.47000000000E+01 0.  1.
<mgrwt>
<rscale>  0 0.28011138E+03</rscale>
<asrwt>0</asrwt>
<pdfrwt beam="1">  1        1 0.37037382E-01 0.28011138E+03</pdfrwt>
<pdfrwt beam="2">  1       -1 0.12535294E-01 0.28011138E+03</pdfrwt>
<totfact> 0.49255090E+03</totfact>
</mgrwt>
</event>
<event>
 9    1  0.7986988E-001  0.2741223E+03  0.7818608E-02  0.1098943E+00
         -2   -1    0    0    0  501 -0.00000000000E+00  0.00000000000E+00  0.75956562560E+02  0.75956562560E+02  0.00000000000E+00 0. -1.
          2   -1    0    0  501    0  0.00000000000E+00 -0.00000000000E+00 -0.24732239162E+03  0.24732239162E+03  0.00000000000E+00 0. -1.
         35    2    1    2    0    0  0.00000000000E+00  0.88817841970E-15 -0.17136582906E+03  0.32327895418E+03  0.27412229907E+03 0.  0.
         25    2    3    3    0    0  0.40943233304E+02 -0.73326017828E+01 -0.42440423260E+02  0.13976287502E+03  0.12650042018E+03 0.  0.
         25    2    3    3    0    0 -0.40943233304E+02  0.73326017828E+01 -0.12892540580E+03  0.18351607916E+03  0.12379933621E+03 0.  0.
          5    1    4    4  502    0  0.44783282935E+02  0.66207461411E+00 -0.84915331053E+02  0.96118074372E+02  0.47000000000E+01 0.  1.
         -5    1    4    4    0  502 -0.38400496307E+01 -0.79946763969E+01  0.42474907793E+02  0.43644800651E+02  0.47000000000E+01 0.  1.
          5    1    5    5  503    0 -0.82214228181E+02  0.82048973396E+01 -0.57111933979E+02  0.10055029915E+03  0.47000000000E+01 0.  1.
         -5    1    5    5    0  503  0.41270994877E+02 -0.87229555681E+00 -0.71813471821E+02  0.82965780010E+02  0.47000000000E+01 0.  1.
<mgrwt>
<rscale>  0 0.27412230E+03</rscale>
<asrwt>0</asrwt>
<pdfrwt beam="1">  1        2 0.38049598E-01 0.27412230E+03</pdfrwt>
<pdfrwt beam="2">  1       -2 0.11685625E-01 0.27412230E+03</pdfrwt>
<totfact> 0.69117208E+03</totfact>
</mgrwt>
</event>
<event>
 9    1  0.7986988E-001  0.2795917E+03  0.7818608E-02  0.1095912E+00
          2   -1    0    0  501    0  0.00000000000E+00  0.00000000000E+00  0.26481940049E+04  0.26481940049E+04  0.00000000000E+00 0.  1.
         -2   -1    0    0    0  501 -0.00000000000E+00 -0.00000000000E+00 -0.73797004609E+01  0.73797004609E+01  0.00000000000E+00 0.  1.
         35    2    1    2    0    0  0.00000000000E+00  0.71054273576E-14  0.26408143045E+04  0.26555737054E+04  0.27959169171E+03 0.  0.
         25    2    3    3    0    0 -0.45241877959E+02  0.40122138270E+02  0.11731958173E+04  0.11813703224E+04  0.12486312301E+03 0.  0.
         25    2    3    3    0    0  0.45241877959E+02 -0.40122138270E+02  0.14676184872E+04  0.14742033829E+04  0.12535939116E+03 0.  0.
          5    1    4    4  502    0  0.54596861287E+01 -0.12283594714E+02  0.84579288318E+03  0.84591275325E+03  0.47000000000E+01 0. -1.
         -5    1    4    4    0  502 -0.50701564088E+02  0.52405732984E+02  0.32740293413E+03  0.33545756919E+03  0.47000000000E+01 0. -1.
          5    1    5    5  503    0 -0.36602893034E+02 -0.18233592114E+02  0.82240312911E+03  0.82343259130E+03  0.47000000000E+01 0. -1.
         -5    1    5    5    0  503  0.81844770993E+02 -0.21888546156E+02  0.64521535805E+03  0.65077079165E+03  0.47000000000E+01 0. -1.
<mgrwt>
<rscale>  0 0.27959169E+03</rscale>
<asrwt>0</asrwt>
<pdfrwt beam="1">  1        2 0.40741370E+00 0.27959169E+03</pdfrwt>
<pdfrwt beam="2">  1       -2 0.11353406E-02 0.27959169E+03</pdfrwt>
<totfact> 0.58840213E+03</totfact>
</mgrwt>
</event>
<event>
 9    1  0.7986988E-001  0.2752822E+03  0.7818608E-02  0.1098294E+00
          1   -1    0    0  501    0  0.00000000000E+00  0.00000000000E+00  0.98670897913E+03  0.98670897913E+03  0.00000000000E+00 0. -1.
         -1   -1    0    0    0  501 -0.00000000000E+00 -0.00000000000E+00 -0.19200261064E+02  0.19200261064E+02  0.00000000000E+00 0. -1.
         35    2    1    2    0    0 -0.35527136788E-14  0.00000000000E+00  0.96750871806E+03  0.10059092402E+04  0.27528218245E+03 0.  0.
         25    2    3    3    0    0 -0.72146981410E+01 -0.39910349786E+02  0.31387535000E+03  0.33939911216E+03  0.12259336893E+03 0.  0.
         25    2    3    3    0    0  0.72146981410E+01  0.39910349786E+02  0.65363336806E+03  0.66651012803E+03  0.12391240066E+03 0.  0.
          5    1    4    4  502    0 -0.64078283206E+02 -0.27282157829E+02  0.15087700276E+03  0.16624169897E+03  0.47000000000E+01 0. -1.
         -5    1    4    4    0  502  0.56863585065E+02 -0.12628191957E+02  0.16299834724E+03  0.17315741319E+03  0.47000000000E+01 0. -1.
          5    1    5    5  503    0  0.46697591316E+01 -0.44087130440E+02  0.27890448321E+03  0.28244518490E+03  0.47000000000E+01 0.  1.
         -5    1    5    5    0  503  0.25449390094E+01  0.83997480226E+02  0.37472888485E+03  0.38406494313E+03  0.47000000000E+01 0.  1.
<mgrwt>
<rscale>  0 0.27528218E+03</rscale>
<asrwt>0</asrwt>
<pdfrwt beam="1">  1        1 0.15180134E+00 0.27528218E+03</pdfrwt>
<pdfrwt beam="2">  1       -1 0.29538871E-02 0.27528218E+03</pdfrwt>
<totfact> 0.63115535E+03</totfact>
</mgrwt>
</event>
<event>
 9    1  0.7986988E-001  0.2779772E+03  0.7818608E-02  0.1096799E+00
          2   -1    0    0  501    0  0.00000000000E+00  0.00000000000E+00  0.22952777275E+03  0.22952777275E+03  0.00000000000E+00 0.  1.
         -2   -1    0    0    0  501 -0.00000000000E+00 -0.00000000000E+00 -0.84163357030E+02  0.84163357030E+02  0.00000000000E+00 0.  1.
         35    2    1    2    0    0  0.00000000000E+00  0.17763568394E-14  0.14536441572E+03  0.31369112978E+03  0.27797717810E+03 0.  0.
         25    2    3    3    0    0 -0.56522483289E+02 -0.53601618523E+01  0.93889567573E+02  0.16618755402E+03  0.12481798652E+03 0.  0.
         25    2    3    3    0    0  0.56522483289E+02  0.53601618523E+01  0.51474848151E+02  0.14750357576E+03  0.12603222770E+03 0.  0.
          5    1    4    4  502    0  0.36685493572E+02 -0.20921676203E+02  0.27906872445E+02  0.50837245238E+02  0.47000000000E+01 0.  1.
         -5    1    4    4    0  502 -0.93207976861E+02  0.15561514351E+02  0.65982695128E+02  0.11535030878E+03  0.47000000000E+01 0.  1.
          5    1    5    5  503    0  0.80460379043E+02  0.19348509916E+02 -0.64249615091E+01  0.83136078583E+02  0.47000000000E+01 0. -1.
         -5    1    5    5    0  503 -0.23937895755E+02 -0.13988348064E+02  0.57899809661E+02  0.64367497182E+02  0.47000000000E+01 0. -1.
<mgrwt>
<rscale>  0 0.27797718E+03</rscale>
<asrwt>0</asrwt>
<pdfrwt beam="1">  1        2 0.35311965E-01 0.27797718E+03</pdfrwt>
<pdfrwt beam="2">  1       -2 0.12948209E-01 0.27797718E+03</pdfrwt>
<totfact> 0.63506443E+03</totfact>
</mgrwt>
</event>
<event>
 9    1  0.7986988E-001  0.2735170E+03  0.7818608E-02  0.1099283E+00
         -2   -1    0    0    0  501 -0.00000000000E+00  0.00000000000E+00  0.51998212596E+01  0.51998212596E+01  0.00000000000E+00 0.  1.
          2   -1    0    0  501    0  0.00000000000E+00 -0.00000000000E+00 -0.35968321434E+04  0.35968321434E+04  0.00000000000E+00 0.  1.
         35    2    1    2    0    0  0.00000000000E+00  0.00000000000E+00 -0.35916323221E+04  0.36020319646E+04  0.27351697751E+03 0.  0.
         25    2    3    3    0    0 -0.53626307526E+02  0.10554483137E+02 -0.19949611474E+04  0.19996490449E+04  0.12545574953E+03 0.  0.
         25    2    3    3    0    0  0.53626307526E+02 -0.10554483137E+02 -0.15966711747E+04  0.16023829197E+04  0.12363253364E+03 0.  0.
          5    1    4    4  502    0  0.86535114174E+01 -0.28384558914E+02 -0.13812494039E+03  0.14135471553E+03  0.47000000000E+01 0.  1.
         -5    1    4    4    0  502 -0.62279818943E+02  0.38939042050E+02 -0.18568362070E+04  0.18582943294E+04  0.47000000000E+01 0.  1.
          5    1    5    5  503    0 -0.64652294275E+01  0.29997236090E+02 -0.10989112925E+04  0.10993496952E+04  0.47000000000E+01 0.  1.
         -5    1    5    5    0  503  0.60091536953E+02 -0.40551719226E+02 -0.49775988214E+03  0.50303322456E+03  0.47000000000E+01 0.  1.
<mgrwt>
<rscale>  0 0.27351698E+03</rscale>
<asrwt>0</asrwt>
<pdfrwt beam="1">  1        2 0.55336045E+00 0.27351698E+03</pdfrwt>
<pdfrwt beam="2">  1       -2 0.79997011E-03 0.27351698E+03</pdfrwt>
<totfact> 0.25743769E+03</totfact>
</mgrwt>
</event>
<event>
 9    1  0.7986988E-001  0.2798240E+03  0.7818608E-02  0.1095785E+00
         -1   -1    0    0    0  501 -0.00000000000E+00  0.00000000000E+00  0.80702574329E+03  0.80702574329E+03  0.00000000000E+00 0.  1.
          1   -1    0    0  501    0  0.00000000000E+00 -0.00000000000E+00 -0.24256191152E+02  0.24256191152E+02  0.00000000000E+00 0.  1.
         35    2    1    2    0    0  0.00000000000E+00 -0.17763568394E-14  0.78276955214E+03  0.83128193445E+03  0.27982402108E+03 0.  0.
         25    2    3    3    0    0 -0.61060421584E+02  0.72767475174E+01  0.40850966399E+03  0.43178529001E+03  0.12560678707E+03 0.  0.
         25    2    3    3    0    0  0.61060421584E+02 -0.72767475174E+01  0.37425988815E+03  0.39949664443E+03  0.12548218557E+03 0.  0.
          5    1    4    4  502    0  0.15286777517E+02  0.47731266876E+02  0.10969399484E+03  0.12069308973E+03  0.47000000000E+01 0. -1.
         -5    1    4    4    0  502 -0.76347199102E+02 -0.40454519359E+02  0.29881566915E+03  0.31109220028E+03  0.47000000000E+01 0. -1.
          5    1    5    5  503    0 -0.55787389366E+01  0.28142348876E+01  0.29601771337E+03  0.29612095311E+03  0.47000000000E+01 0. -1.
         -5    1    5    5    0  503  0.66639160521E+02 -0.10090982405E+02  0.78242174785E+02  0.10337569132E+03  0.47000000000E+01 0. -1.
<mgrwt>
<rscale>  0 0.27982402E+03</rscale>
<asrwt>0</asrwt>
<pdfrwt beam="1">  1        1 0.37317223E-02 0.27982402E+03</pdfrwt>
<pdfrwt beam="2">  1       -1 0.12415779E+00 0.27982402E+03</pdfrwt>
<totfact> 0.15269772E+03</totfact>
</mgrwt>
</event>
<event>
 9    1  0.7986988E-001  0.2759400E+03  0.7818608E-02  0.1097927E+00
          1   -1    0    0  501    0  0.00000000000E+00  0.00000000000E+00  0.58467968377E+02  0.58467968377E+02  0.00000000000E+00 0.  1.
         -1   -1    0    0    0  501 -0.00000000000E+00 -0.00000000000E+00 -0.32557510230E+03  0.32557510230E+03  0.00000000000E+00 0.  1.
         35    2    1    2    0    0  0.00000000000E+00  0.00000000000E+00 -0.26710713392E+03  0.38404307068E+03  0.27593995568E+03 0.  0.
         25    2    3    3    0    0 -0.19765358038E+02  0.20552195383E+02 -0.61126621108E+02  0.14180164683E+03  0.12473243813E+03 0.  0.
         25    2    3    3    0    0  0.19765358038E+02 -0.20552195383E+02 -0.20598051281E+03  0.24224142385E+03  0.12425728814E+03 0.  0.
          5    1    4    4  502    0  0.46879693506E+02  0.36029712978E+02 -0.30480271387E+02  0.66685701798E+02  0.47000000000E+01 0.  1.
         -5    1    4    4    0  502 -0.66645051544E+02 -0.15477517594E+02 -0.30646349721E+02  0.75115945028E+02  0.47000000000E+01 0.  1.
          5    1    5    5  503    0 -0.36561250398E+02  0.33109391441E+02 -0.79723964372E+02  0.93866699780E+02  0.47000000000E+01 0. -1.
         -5    1    5    5    0  503  0.56326608436E+02 -0.53661586825E+02 -0.12625654844E+03  0.14837472407E+03  0.47000000000E+01 0. -1.
<mgrwt>
<rscale>  0 0.27593996E+03</rscale>
<asrwt>0</asrwt>
<pdfrwt beam="1">  1        1 0.89950720E-02 0.27593996E+03</pdfrwt>
<pdfrwt beam="2">  1       -1 0.50088478E-01 0.27593996E+03</pdfrwt>
<totfact> 0.30228515E+03</totfact>
</mgrwt>
</event>
<event>
 9    1  0.7986988E-001  0.2718276E+03  0.7818608E-02  0.1100238E+00
         -1   -1    0    0    0  501 -0.00000000000E+00  0.00000000000E+00  0.22472707893E+03  0.22472707893E+03  0.00000000000E+00 0. -1.
          1   -1    0    0  501    0  0.00000000000E+00 -0.00000000000E+00 -0.82200002780E+02  0.82200002780E+02  0.00000000000E+00 0. -1.
         35    2    1    2    0    0  0.35527136788E-14  0.00000000000E+00  0.14252707615E+03  0.30692708171E+03  0.27182764034E+03 0.  0.
         25    2    3    3    0    0 -0.28816850222E+02  0.43332204661E+02  0.62897248522E+02  0.14963779958E+03  0.12540859768E+03 0.  0.
         25    2    3    3    0    0  0.28816850222E+02 -0.43332204661E+02  0.79629827631E+02  0.15728928214E+03  0.12526339453E+03 0.  0.
          5    1    4    4  502    0 -0.66024061586E+01 -0.86551260735E+01 -0.34744656384E+02  0.36712179473E+02  0.47000000000E+01 0.  1.
         -5    1    4    4    0  502 -0.22214444064E+02  0.51987330735E+02  0.97641904906E+02  0.11292562010E+03  0.47000000000E+01 0.  1.
          5    1    5    5  503    0  0.62959355863E+02  0.16643946692E+02  0.28347018914E+02  0.71179666573E+02  0.47000000000E+01 0.  1.
         -5    1    5    5    0  503 -0.34142505640E+02 -0.59976151354E+02  0.51282808716E+02  0.86109615563E+02  0.47000000000E+01 0.  1.
<mgrwt>
<rscale>  0 0.27182764E+03</rscale>
<asrwt>0</asrwt>
<pdfrwt beam="1">  1        1 0.12646154E-01 0.27182764E+03</pdfrwt>
<pdfrwt beam="2">  1       -1 0.34573396E-01 0.27182764E+03</pdfrwt>
<totfact> 0.37161556E+03</totfact>
</mgrwt>
</event>
<event>
 9    1  0.7986988E-001  0.2819563E+03  0.7818608E-02  0.1094625E+00
         -2   -1    0    0    0  501 -0.00000000000E+00  0.00000000000E+00  0.43066455317E+03  0.43066455317E+03  0.00000000000E+00 0.  1.
          2   -1    0    0  501    0  0.00000000000E+00 -0.00000000000E+00 -0.46149238675E+02  0.46149238675E+02  0.00000000000E+00 0.  1.
         35    2    1    2    0    0  0.14210854715E-13  0.35527136788E-14  0.38451531450E+03  0.47681379185E+03  0.28195631756E+03 0.  0.
         25    2    3    3    0    0 -0.53140669305E+02 -0.20856263166E+02  0.15607160469E+03  0.20910301928E+03  0.12691261732E+03 0.  0.
         25    2    3    3    0    0  0.53140669305E+02  0.20856263166E+02  0.22844370980E+03  0.26771077257E+03  0.12737195434E+03 0.  0.
          5    1    4    4  502    0 -0.88712392323E+02 -0.16811674333E+02  0.65637620933E+02  0.11172693600E+03  0.47000000000E+01 0.  1.
         -5    1    4    4    0  502  0.35571723018E+02 -0.40445888328E+01  0.90433983760E+02  0.97376083285E+02  0.47000000000E+01 0.  1.
          5    1    5    5  503    0  0.86285561633E+01  0.63467509882E+01  0.21950528531E+03  0.21981672709E+03  0.47000000000E+01 0. -1.
         -5    1    5    5    0  503  0.44512113142E+02  0.14509512178E+02  0.89384244993E+01  0.47894045481E+02  0.47000000000E+01 0. -1.
<mgrwt>
<rscale>  0 0.28195632E+03</rscale>
<asrwt>0</asrwt>
<pdfrwt beam="1">  1        2 0.70998832E-02 0.28195632E+03</pdfrwt>
<pdfrwt beam="2">  1       -2 0.66256082E-01 0.28195632E+03</pdfrwt>
<totfact> 0.21252966E+03</totfact>
</mgrwt>
</event>
<event>
 9    1  0.7986988E-001  0.2764710E+03  0.7818608E-02  0.1097632E+00
         -2   -1    0    0    0  501 -0.00000000000E+00  0.00000000000E+00  0.78542725142E+02  0.78542725142E+02  0.00000000000E+00 0. -1.
          2   -1    0    0  501    0  0.00000000000E+00 -0.00000000000E+00 -0.24329506348E+03  0.24329506348E+03  0.00000000000E+00 0. -1.
         35    2    1    2    0    0 -0.10658141036E-13  0.71054273576E-14 -0.16475233834E+03  0.32183778863E+03  0.27647102777E+03 0.  0.
         25    2    3    3    0    0  0.19086366351E+02 -0.30469454367E+02 -0.13617249204E+03  0.18824994298E+03  0.12490963299E+03 0.  0.
         25    2    3    3    0    0 -0.19086366351E+02  0.30469454367E+02 -0.28579846303E+02  0.13358784565E+03  0.12544412246E+03 0.  0.
          5    1    4    4  502    0  0.23691536307E+02 -0.73308948896E+02 -0.50499759702E+02  0.92237772148E+02  0.47000000000E+01 0. -1.
         -5    1    4    4    0  502 -0.46051699555E+01  0.42839494530E+02 -0.85672732338E+02  0.96012170833E+02  0.47000000000E+01 0. -1.
          5    1    5    5  503    0 -0.64898717361E+02  0.39412368822E+02  0.44648623485E+01  0.76205008543E+02  0.47000000000E+01 0. -1.
         -5    1    5    5    0  503  0.45812351010E+02 -0.89429144552E+01 -0.33044708652E+02  0.57382837102E+02  0.47000000000E+01 0. -1.
<mgrwt>
<rscale>  0 0.27647103E+03</rscale>
<asrwt>0</asrwt>
<pdfrwt beam="1">  1        2 0.37430009E-01 0.27647103E+03</pdfrwt>
<pdfrwt beam="2">  1       -2 0.12083496E-01 0.27647103E+03</pdfrwt>
<totfact> 0.66677498E+03</totfact>
</mgrwt>
</event>
<event>
 9    1  0.7986988E-001  0.2770747E+03  0.7818608E-02  0.1097298E+00
         -2   -1    0    0    0  501 -0.00000000000E+00  0.00000000000E+00  0.51357991804E+03  0.51357991804E+03  0.00000000000E+00 0.  1.
          2   -1    0    0  501    0  0.00000000000E+00 -0.00000000000E+00 -0.37370215860E+02  0.37370215860E+02  0.00000000000E+00 0.  1.
         35    2    1    2    0    0 -0.71054273576E-14 -0.71054273576E-14  0.47620970218E+03  0.55095013390E+03  0.27707466430E+03 0.  0.
         25    2    3    3    0    0 -0.45314557570E+02 -0.24176058661E+02  0.17518289970E+03  0.22074609619E+03  0.12410439031E+03 0.  0.
         25    2    3    3    0    0  0.45314557570E+02  0.24176058661E+02  0.30102680248E+03  0.33020403771E+03  0.12561719536E+03 0.  0.
          5    1    4    4  502    0 -0.26330193788E+02  0.16866698953E+02  0.17231412714E+03  0.17519136123E+03  0.47000000000E+01 0. -1.
         -5    1    4    4    0  502 -0.18984363782E+02 -0.41042757614E+02  0.28687725580E+01  0.45554734954E+02  0.47000000000E+01 0. -1.
          5    1    5    5  503    0 -0.30223779701E+02  0.41806856671E+02  0.74668221038E+02  0.90877518436E+02  0.47000000000E+01 0.  1.
         -5    1    5    5    0  503  0.75538337271E+02 -0.17630798010E+02  0.22635858144E+03  0.23932651928E+03  0.47000000000E+01 0.  1.
<mgrwt>
<rscale>  0 0.27707466E+03</rscale>
<asrwt>0</asrwt>
<pdfrwt beam="1">  1        2 0.57492643E-02 0.27707466E+03</pdfrwt>
<pdfrwt beam="2">  1       -2 0.79012290E-01 0.27707466E+03</pdfrwt>
<totfact> 0.19103547E+03</totfact>
</mgrwt>
</event>
<event>
 9    1  0.7986988E-001  0.2710400E+03  0.7818608E-02  0.1100686E+00
         -2   -1    0    0    0  501 -0.00000000000E+00  0.00000000000E+00  0.47876760157E+02  0.47876760157E+02  0.00000000000E+00 0.  1.
          2   -1    0    0  501    0  0.00000000000E+00 -0.00000000000E+00 -0.38360293862E+03  0.38360293862E+03  0.00000000000E+00 0.  1.
         35    2    1    2    0    0  0.00000000000E+00  0.17763568394E-14 -0.33572617847E+03  0.43147969878E+03  0.27103996671E+03 0.  0.
         25    2    3    3    0    0 -0.51095240748E+02  0.35615803291E+01 -0.17494937287E+03  0.22112197329E+03  0.12515684370E+03 0.  0.
         25    2    3    3    0    0  0.51095240748E+02 -0.35615803291E+01 -0.16077680560E+03  0.21035772549E+03  0.12560964522E+03 0.  0.
          5    1    4    4  502    0  0.84378934836E+01 -0.15352999504E+02  0.13450191594E+02  0.22581193372E+02  0.47000000000E+01 0. -1.
         -5    1    4    4    0  502 -0.59533134232E+02  0.18914579833E+02 -0.18839956446E+03  0.19854077992E+03  0.47000000000E+01 0. -1.
          5    1    5    5  503    0 -0.32148254433E+02 -0.31144815397E+02 -0.35286148376E+02  0.57190139503E+02  0.47000000000E+01 0. -1.
         -5    1    5    5    0  503  0.83243495181E+02  0.27583235068E+02 -0.12549065722E+03  0.15316758599E+03  0.47000000000E+01 0. -1.
<mgrwt>
<rscale>  0 0.27103997E+03</rscale>
<asrwt>0</asrwt>
<pdfrwt beam="1">  1        2 0.59015836E-01 0.27103997E+03</pdfrwt>
<pdfrwt beam="2">  1       -2 0.73656555E-02 0.27103997E+03</pdfrwt>
<totfact> 0.89276233E+03</totfact>
</mgrwt>
</event>
<event>
 9    1  0.7986988E-001  0.2749220E+03  0.7818608E-02  0.1098495E+00
         -1   -1    0    0    0  501 -0.00000000000E+00  0.00000000000E+00  0.75118759379E+03  0.75118759379E+03  0.00000000000E+00 0.  1.
          1   -1    0    0  501    0  0.00000000000E+00 -0.00000000000E+00 -0.25154206783E+02  0.25154206783E+02  0.00000000000E+00 0.  1.
         35    2    1    2    0    0  0.00000000000E+00  0.35527136788E-14  0.72603338701E+03  0.77634180057E+03  0.27492201125E+03 0.  0.
         25    2    3    3    0    0  0.25410251023E+02  0.27937626935E+02  0.24489376046E+03  0.27781471701E+03  0.12562591779E+03 0.  0.
         25    2    3    3    0    0 -0.25410251023E+02 -0.27937626935E+02  0.48113962655E+03  0.49852708356E+03  0.12493086470E+03 0.  0.
          5    1    4    4  502    0  0.60807173944E+02 -0.11023911930E+02  0.62903484129E+02  0.88306156936E+02  0.47000000000E+01 0. -1.
         -5    1    4    4    0  502 -0.35396922920E+02  0.38961538864E+02  0.18199027633E+03  0.18950856008E+03  0.47000000000E+01 0. -1.
          5    1    5    5  503    0  0.19297291442E+02 -0.11023989361E+02  0.97882165605E+01  0.24734853585E+02  0.47000000000E+01 0.  1.
         -5    1    5    5    0  503 -0.44707542466E+02 -0.16913637574E+02  0.47135140999E+03  0.47379222998E+03  0.47000000000E+01 0.  1.
<mgrwt>
<rscale>  0 0.27492201E+03</rscale>
<asrwt>0</asrwt>
<pdfrwt beam="1">  1        1 0.38698785E-02 0.27492201E+03</pdfrwt>
<pdfrwt beam="2">  1       -1 0.11556730E+00 0.27492201E+03</pdfrwt>
<totfact> 0.17210500E+03</totfact>
</mgrwt>
</event>
<event>
 9    1  0.7986988E-001  0.2760440E+03  0.7818608E-02  0.1097869E+00
         -2   -1    0    0    0  501 -0.00000000000E+00  0.00000000000E+00  0.13539249905E+02  0.13539249905E+02  0.00000000000E+00 0. -1.
          2   -1    0    0  501    0  0.00000000000E+00 -0.00000000000E+00 -0.14070261143E+04  0.14070261143E+04  0.00000000000E+00 0. -1.
         35    2    1    2    0    0 -0.35527136788E-14  0.00000000000E+00 -0.13934868644E+04  0.14205653642E+04  0.27604404130E+03 0.  0.
         25    2    3    3    0    0 -0.25192491546E+01  0.47617950470E+02 -0.87069676642E+03  0.88085659944E+03  0.12458601006E+03 0.  0.
         25    2    3    3    0    0  0.25192491546E+01 -0.47617950470E+02 -0.52279009795E+03  0.53970876474E+03  0.12530861262E+03 0.  0.
          5    1    4    4  502    0 -0.33867984819E+02  0.42724040135E+02 -0.81303376763E+03  0.81487323020E+03  0.47000000000E+01 0.  1.
         -5    1    4    4    0  502  0.31348735665E+02  0.48939103351E+01 -0.57662998796E+02  0.65983369240E+02  0.47000000000E+01 0.  1.
          5    1    5    5  503    0  0.24567707012E+02 -0.25046235809E+02 -0.49813290378E+03  0.49938899266E+03  0.47000000000E+01 0. -1.
         -5    1    5    5    0  503 -0.22048457857E+02 -0.22571714662E+02 -0.24657194172E+02  0.40319772086E+02  0.47000000000E+01 0. -1.
<mgrwt>
<rscale>  0 0.27604404E+03</rscale>
<asrwt>0</asrwt>
<pdfrwt beam="1">  1        2 0.21646559E+00 0.27604404E+03</pdfrwt>
<pdfrwt beam="2">  1       -2 0.20829612E-02 0.27604404E+03</pdfrwt>
<totfact> 0.11151186E+04</totfact>
</mgrwt>
</event>
<event>
 9    1  0.7986988E-001  0.2771947E+03  0.7818608E-02  0.1097231E+00
          2   -1    0    0  501    0  0.00000000000E+00  0.00000000000E+00  0.36019813023E+03  0.36019813023E+03  0.00000000000E+00 0.  1.
         -2   -1    0    0    0  501 -0.00000000000E+00 -0.00000000000E+00 -0.53329615105E+02  0.53329615105E+02  0.00000000000E+00 0.  1.
         35    2    1    2    0    0  0.71054273576E-14  0.71054273576E-14  0.30686851512E+03  0.41352774533E+03  0.27719471601E+03 0.  0.
         25    2    3    3    0    0 -0.49673703918E+02  0.34296963229E+01  0.18601083305E+03  0.23300694859E+03  0.13119820273E+03 0.  0.
         25    2    3    3    0    0  0.49673703918E+02 -0.34296963229E+01  0.12085768207E+03  0.18052079675E+03  0.12450678321E+03 0.  0.
          5    1    4    4  502    0 -0.61041789422E+02 -0.38234544099E+02  0.17331901602E+03  0.18774863976E+03  0.47000000000E+01 0. -1.
         -5    1    4    4    0  502  0.11368085503E+02  0.41664240422E+02  0.12691817029E+02  0.45258308822E+02  0.47000000000E+01 0. -1.
          5    1    5    5  503    0  0.84517306932E+02 -0.28509007660E+02  0.67972536606E+02  0.11224212410E+03  0.47000000000E+01 0.  1.
         -5    1    5    5    0  503 -0.34843603014E+02  0.25079311337E+02  0.52885145464E+02  0.68278672650E+02  0.47000000000E+01 0.  1.
<mgrwt>
<rscale>  0 0.27719472E+03</rscale>
<asrwt>0</asrwt>
<pdfrwt beam="1">  1        2 0.55415095E-01 0.27719472E+03</pdfrwt>
<pdfrwt beam="2">  1       -2 0.82045564E-02 0.27719472E+03</pdfrwt>
<totfact> 0.80846192E+03</totfact>
</mgrwt>
</event>
<event>
 9    1  0.7986988E-001  0.2770161E+03  0.7818608E-02  0.1097330E+00
         -1   -1    0    0    0  501 -0.00000000000E+00  0.00000000000E+00  0.14683459208E+04  0.14683459208E+04  0.00000000000E+00 0.  1.
          1   -1    0    0  501    0  0.00000000000E+00 -0.00000000000E+00 -0.13065367801E+02  0.13065367801E+02  0.00000000000E+00 0.  1.
         35    2    1    2    0    0  0.35527136788E-14  0.71054273576E-14  0.14552805530E+04  0.14814112886E+04  0.27701609710E+03 0.  0.
         25    2    3    3    0    0 -0.29542963432E+02  0.40972437457E+02  0.90151336573E+03  0.91149797058E+03  0.12470234343E+03 0.  0.
         25    2    3    3    0    0  0.29542963432E+02 -0.40972437457E+02  0.55376718723E+03  0.56991331799E+03  0.12486618855E+03 0.  0.
          5    1    4    4  502    0 -0.20715705159E+02  0.50690452637E+02  0.89394305258E+03  0.89563102541E+03  0.47000000000E+01 0.  1.
         -5    1    4    4    0  502 -0.88272582728E+01 -0.97180151803E+01  0.75703131533E+01  0.15866945166E+02  0.47000000000E+01 0.  1.
          5    1    5    5  503    0  0.47101093398E+02 -0.79256924415E+02  0.37942952479E+03  0.39049843450E+03  0.47000000000E+01 0.  1.
         -5    1    5    5    0  503 -0.17558129966E+02  0.38284486959E+02  0.17433766244E+03  0.17941488348E+03  0.47000000000E+01 0.  1.
<mgrwt>
<rscale>  0 0.27701610E+03</rscale>
<asrwt>0</asrwt>
<pdfrwt beam="1">  1        1 0.20100577E-02 0.27701610E+03</pdfrwt>
<pdfrwt beam="2">  1       -1 0.22589924E+00 0.27701610E+03</pdfrwt>
<totfact> 0.67848972E+02</totfact>
</mgrwt>
</event>
<event>
 9    1  0.7986988E-001  0.2751573E+03  0.7818608E-02  0.1098364E+00
          2   -1    0    0  501    0  0.00000000000E+00  0.00000000000E+00  0.48355627919E+03  0.48355627919E+03  0.00000000000E+00 0.  1.
         -2   -1    0    0    0  501 -0.00000000000E+00 -0.00000000000E+00 -0.39143073890E+02  0.39143073890E+02  0.00000000000E+00 0.  1.
         35    2    1    2    0    0 -0.71054273576E-14  0.00000000000E+00  0.44441320530E+03  0.52269935308E+03  0.27515725807E+03 0.  0.
         25    2    3    3    0    0 -0.48484793692E+02  0.60640302355E+01  0.31081211093E+03  0.33907000570E+03  0.12639918030E+03 0.  0.
         25    2    3    3    0    0  0.48484793692E+02 -0.60640302355E+01  0.13360109437E+03  0.18362934738E+03  0.11611605023E+03 0.  0.
          5    1    4    4  502    0  0.26613759943E+02  0.33138400113E+02  0.18588720703E+03  0.19074220697E+03  0.47000000000E+01 0.  1.
         -5    1    4    4    0  502 -0.75098553635E+02 -0.27074369877E+02  0.12492490389E+03  0.14832779873E+03  0.47000000000E+01 0.  1.
          5    1    5    5  503    0 -0.10880334739E+02 -0.33774653270E+01 -0.17380122646E+02  0.21306046542E+02  0.47000000000E+01 0.  1.
         -5    1    5    5    0  503  0.59365128430E+02 -0.26865649086E+01  0.15098121702E+03  0.16232330084E+03  0.47000000000E+01 0.  1.
<mgrwt>
<rscale>  0 0.27515726E+03</rscale>
<asrwt>0</asrwt>
<pdfrwt beam="1">  1        2 0.74393269E-01 0.27515726E+03</pdfrwt>
<pdfrwt beam="2">  1       -2 0.60220117E-02 0.27515726E+03</pdfrwt>
<totfact> 0.94582775E+03</totfact>
</mgrwt>
</event>
<event>
 9    1  0.7986988E-001  0.2764845E+03  0.7818608E-02  0.1097625E+00
         -2   -1    0    0    0  501 -0.00000000000E+00  0.00000000000E+00  0.21729496306E+02  0.21729496306E+02  0.00000000000E+00 0. -1.
          2   -1    0    0  501    0  0.00000000000E+00 -0.00000000000E+00 -0.87949213081E+03  0.87949213081E+03  0.00000000000E+00 0. -1.
         35    2    1    2    0    0 -0.71054273576E-14 -0.35527136788E-14 -0.85776263451E+03  0.90122162712E+03  0.27648450957E+03 0.  0.
         25    2    3    3    0    0 -0.52227932264E+02 -0.22590905660E+02 -0.38123721164E+03  0.40525645901E+03  0.12511147069E+03 0.  0.
         25    2    3    3    0    0  0.52227932264E+02  0.22590905660E+02 -0.47652542286E+03  0.49596516811E+03  0.12516734166E+03 0.  0.
          5    1    4    4  502    0 -0.22449282988E+02  0.44050974211E+02 -0.25117463028E+03  0.25603758226E+03  0.47000000000E+01 0. -1.
         -5    1    4    4    0  502 -0.29778649275E+02 -0.66641879871E+02 -0.13006258136E+03  0.14921887674E+03  0.47000000000E+01 0. -1.
          5    1    5    5  503    0  0.92974099240E+02  0.99205470164E+01 -0.35250287917E+03  0.36472314186E+03  0.47000000000E+01 0. -1.
         -5    1    5    5    0  503 -0.40746166976E+02  0.12670358644E+02 -0.12402254369E+03  0.13124202625E+03  0.47000000000E+01 0. -1.
<mgrwt>
<rscale>  0 0.27648451E+03</rscale>
<asrwt>0</asrwt>
<pdfrwt beam="1">  1        2 0.13530648E+00 0.27648451E+03</pdfrwt>
<pdfrwt beam="2">  1       -2 0.33429996E-02 0.27648451E+03</pdfrwt>
<totfact> 0.11254021E+04</totfact>
</mgrwt>
</event>
<event>
 9    1  0.7986988E-001  0.2736033E+03  0.7818608E-02  0.1099235E+00
         -1   -1    0    0    0  501 -0.00000000000E+00  0.00000000000E+00  0.11655154574E+03  0.11655154574E+03  0.00000000000E+00 0. -1.
          1   -1    0    0  501    0  0.00000000000E+00 -0.00000000000E+00 -0.16057008177E+03  0.16057008177E+03  0.00000000000E+00 0. -1.
         35    2    1    2    0    0  0.88817841970E-15 -0.71054273576E-14 -0.44018536032E+02  0.27712162752E+03  0.27360329845E+03 0.  0.
         25    2    3    3    0    0  0.24326343583E+01 -0.46720871260E+02 -0.53971157409E+02  0.14439456125E+03  0.12549161712E+03 0.  0.
         25    2    3    3    0    0 -0.24326343583E+01  0.46720871260E+02  0.99526213766E+01  0.13272706626E+03  0.12380897352E+03 0.  0.
          5    1    4    4  502    0 -0.11941449199E+02 -0.14202434478E+02 -0.90914108815E+02  0.92907333056E+02  0.47000000000E+01 0. -1.
         -5    1    4    4    0  502  0.14374083557E+02 -0.32518436782E+02  0.36942951406E+02  0.51487228197E+02  0.47000000000E+01 0. -1.
          5    1    5    5  503    0  0.11278308277E+01  0.79980486638E+01 -0.55591206167E+02  0.56371207082E+02  0.47000000000E+01 0.  1.
         -5    1    5    5    0  503 -0.35604651860E+01  0.38722822596E+02  0.65543827543E+02  0.76355859180E+02  0.47000000000E+01 0.  1.
<mgrwt>
<rscale>  0 0.27360330E+03</rscale>
<asrwt>0</asrwt>
<pdfrwt beam="1">  1        1 0.24703089E-01 0.27360330E+03</pdfrwt>
<pdfrwt beam="2">  1       -1 0.17931007E-01 0.27360330E+03</pdfrwt>
<totfact> 0.46500751E+03</totfact>
</mgrwt>
</event>
<event>
 9    1  0.7986988E-001  0.2719798E+03  0.7818608E-02  0.1100152E+00
          2   -1    0    0  501    0  0.00000000000E+00  0.00000000000E+00  0.48016023955E+03  0.48016023955E+03  0.00000000000E+00 0. -1.
         -2   -1    0    0    0  501 -0.00000000000E+00 -0.00000000000E+00 -0.38514765604E+02  0.38514765604E+02  0.00000000000E+00 0. -1.
         35    2    1    2    0    0  0.00000000000E+00  0.35527136788E-14  0.44164547395E+03  0.51867500516E+03  0.27197984542E+03 0.  0.
         25    2    3    3    0    0  0.44522410909E+02 -0.16850279760E+02  0.19019683470E+03  0.23384297799E+03  0.12744224349E+03 0.  0.
         25    2    3    3    0    0 -0.44522410909E+02  0.16850279760E+02  0.25144863925E+03  0.28483202717E+03  0.12504674533E+03 0.  0.
          5    1    4    4  502    0  0.16761813612E+02 -0.28634098501E+02 -0.70537239314E+01  0.34244926833E+02  0.47000000000E+01 0. -1.
         -5    1    4    4    0  502  0.27760597296E+02  0.11783818741E+02  0.19725055863E+03  0.19959805116E+03  0.47000000000E+01 0. -1.
          5    1    5    5  503    0  0.99086649953E+01 -0.22600024592E+02  0.64044787045E+00  0.25128528151E+02  0.47000000000E+01 0.  1.
         -5    1    5    5    0  503 -0.54431075904E+02  0.39450304352E+02  0.25080819138E+03  0.25970349902E+03  0.47000000000E+01 0.  1.
<mgrwt>
<rscale>  0 0.27197985E+03</rscale>
<asrwt>0</asrwt>
<pdfrwt beam="1">  1        2 0.73870802E-01 0.27197985E+03</pdfrwt>
<pdfrwt beam="2">  1       -2 0.59253489E-02 0.27197985E+03</pdfrwt>
<totfact> 0.97677792E+03</totfact>
</mgrwt>
</event>
<event>
 9    1  0.7986988E-001  0.2632492E+03  0.7818608E-02  0.1105207E+00
         -1   -1    0    0    0  501 -0.00000000000E+00  0.00000000000E+00  0.99094085353E+01  0.99094085353E+01  0.00000000000E+00 0. -1.
          1   -1    0    0  501    0  0.00000000000E+00 -0.00000000000E+00 -0.17483423417E+04  0.17483423417E+04  0.00000000000E+00 0. -1.
         35    2    1    2    0    0  0.00000000000E+00  0.00000000000E+00 -0.17384329331E+04  0.17582517502E+04  0.26324922430E+03 0.  0.
         25    2    3    3    0    0 -0.35702417516E+02  0.77972939269E+01 -0.69760218397E+03  0.70962591750E+03  0.12483859701E+03 0.  0.
         25    2    3    3    0    0  0.35702417516E+02 -0.77972939269E+01 -0.10408307492E+04  0.10486258327E+04  0.12227848624E+03 0.  0.
          5    1    4    4  502    0  0.32177893455E+02 -0.32576872743E+02 -0.16987874304E+03  0.17600439427E+03  0.47000000000E+01 0. -1.
         -5    1    4    4    0  502 -0.67880310971E+02  0.40374166670E+02 -0.52772344092E+03  0.53362152323E+03  0.47000000000E+01 0. -1.
          5    1    5    5  503    0  0.49497091206E+02  0.33643638614E+02 -0.87559016696E+03  0.87764576393E+03  0.47000000000E+01 0.  1.
         -5    1    5    5    0  503 -0.13794673691E+02 -0.41440932541E+02 -0.16524058220E+03  0.17098006877E+03  0.47000000000E+01 0.  1.
<mgrwt>
<rscale>  0 0.26324922E+03</rscale>
<asrwt>0</asrwt>
<pdfrwt beam="1">  1        1 0.26897562E+00 0.26324922E+03</pdfrwt>
<pdfrwt beam="2">  1       -1 0.15245251E-02 0.26324922E+03</pdfrwt>
<totfact> 0.50097854E+03</totfact>
</mgrwt>
</event>
<event>
 9    1  0.7986988E-001  0.2737389E+03  0.7818608E-02  0.1099159E+00
          1   -1    0    0  501    0  0.00000000000E+00  0.00000000000E+00  0.20035395224E+04  0.20035395224E+04  0.00000000000E+00 0. -1.
         -1   -1    0    0    0  501 -0.00000000000E+00 -0.00000000000E+00 -0.93500745275E+01  0.93500745275E+01  0.00000000000E+00 0. -1.
         35    2    1    2    0    0  0.00000000000E+00 -0.71054273576E-14  0.19941894479E+04  0.20128895970E+04  0.27373888181E+03 0.  0.
         25    2    3    3    0    0 -0.13278447005E+02  0.43172430400E+02  0.77748300269E+03  0.78896511404E+03  0.12627729728E+03 0.  0.
         25    2    3    3    0    0  0.13278447005E+02 -0.43172430400E+02  0.12167064452E+04  0.12239244829E+04  0.12480540912E+03 0.  0.
          5    1    4    4  502    0 -0.48635494491E+02  0.58801428616E+02  0.67528625623E+03  0.67960035107E+03  0.47000000000E+01 0. -1.
         -5    1    4    4    0  502  0.35357047486E+02 -0.15628998216E+02  0.10219674646E+03  0.10936476297E+03  0.47000000000E+01 0. -1.
          5    1    5    5  503    0  0.47245778570E+00 -0.58640897360E+02  0.11826330476E+04  0.11840954325E+04  0.47000000000E+01 0.  1.
         -5    1    5    5    0  503  0.12805989219E+02  0.15468466960E+02  0.34073397653E+02  0.39829050423E+02  0.47000000000E+01 0.  1.
<mgrwt>
<rscale>  0 0.27373888E+03</rscale>
<asrwt>0</asrwt>
<pdfrwt beam="1">  1        1 0.30823651E+00 0.27373888E+03</pdfrwt>
<pdfrwt beam="2">  1       -1 0.14384746E-02 0.27373888E+03</pdfrwt>
<totfact> 0.37230270E+03</totfact>
</mgrwt>
</event>
<event>
 9    1  0.7986988E-001  0.2748316E+03  0.7818608E-02  0.1098546E+00
         -3   -1    0    0    0  501 -0.00000000000E+00  0.00000000000E+00  0.17387814463E+03  0.17387814463E+03  0.00000000000E+00 0. -1.
          3   -1    0    0  501    0  0.00000000000E+00 -0.00000000000E+00 -0.10859963384E+03  0.10859963384E+03  0.00000000000E+00 0. -1.
         35    2    1    2    0    0  0.71054273576E-14  0.00000000000E+00  0.65278510780E+02  0.28247777847E+03  0.27483160546E+03 0.  0.
         25    2    3    3    0    0  0.35562205255E+02  0.15979805487E+02 -0.11049289858E+02  0.13155340779E+03  0.12515665252E+03 0.  0.
         25    2    3    3    0    0 -0.35562205255E+02 -0.15979805487E+02  0.76327800638E+02  0.15092437068E+03  0.12422643796E+03 0.  0.
          5    1    4    4  502    0 -0.19229299014E+02 -0.41490468792E+02  0.14175727928E+02  0.48106820758E+02  0.47000000000E+01 0.  1.
         -5    1    4    4    0  502  0.54791504269E+02  0.57470274279E+02 -0.25225017786E+02  0.83446587037E+02  0.47000000000E+01 0.  1.
          5    1    5    5  503    0 -0.37276949144E+02  0.15935797285E+02  0.10187017541E+03  0.10974125574E+03  0.47000000000E+01 0. -1.
         -5    1    5    5    0  503  0.17147438883E+01 -0.31915602772E+02 -0.25542374773E+02  0.41183114937E+02  0.47000000000E+01 0. -1.
<mgrwt>
<rscale>  0 0.27483161E+03</rscale>
<asrwt>0</asrwt>
<pdfrwt beam="1">  1        3 0.16707636E-01 0.27483161E+03</pdfrwt>
<pdfrwt beam="2">  1       -3 0.26750484E-01 0.27483161E+03</pdfrwt>
<totfact> 0.10394488E+03</totfact>
</mgrwt>
</event>
<event>
 9    1  0.7986988E-001  0.2741267E+03  0.7818608E-02  0.1098941E+00
          2   -1    0    0  501    0  0.00000000000E+00  0.00000000000E+00  0.13242039534E+04  0.13242039534E+04  0.00000000000E+00 0.  1.
         -2   -1    0    0    0  501 -0.00000000000E+00 -0.00000000000E+00 -0.14186905851E+02  0.14186905851E+02  0.00000000000E+00 0.  1.
         35    2    1    2    0    0  0.71054273576E-14  0.00000000000E+00  0.13100170476E+04  0.13383908593E+04  0.27412666281E+03 0.  0.
         25    2    3    3    0    0  0.50980469546E+02  0.10077209677E+02  0.54617601220E+03  0.56253987943E+03  0.12426713651E+03 0.  0.
         25    2    3    3    0    0 -0.50980469546E+02 -0.10077209677E+02  0.76384103536E+03  0.77585097984E+03  0.12566247323E+03 0.  0.
          5    1    4    4  502    0  0.23580568820E+02 -0.46450657162E+02  0.10958420055E+03  0.12142690717E+03  0.47000000000E+01 0.  1.
         -5    1    4    4    0  502  0.27399900726E+02  0.56527866839E+02  0.43659181165E+03  0.44111297225E+03  0.47000000000E+01 0.  1.
          5    1    5    5  503    0 -0.54161098040E+02 -0.43597375365E+02  0.21615124328E+03  0.22710703567E+03  0.47000000000E+01 0.  1.
         -5    1    5    5    0  503  0.31806284938E+01  0.33520165688E+02  0.54768979209E+03  0.54874394417E+03  0.47000000000E+01 0.  1.
<mgrwt>
<rscale>  0 0.27412666E+03</rscale>
<asrwt>0</asrwt>
<pdfrwt beam="1">  1        2 0.20372359E+00 0.27412666E+03</pdfrwt>
<pdfrwt beam="2">  1       -2 0.21826019E-02 0.27412666E+03</pdfrwt>
<totfact> 0.11550605E+04</totfact>
</mgrwt>
</event>
<event>
 9    1  0.7986988E-001  0.2759144E+03  0.7818608E-02  0.1097942E+00
          2   -1    0    0  501    0  0.00000000000E+00  0.00000000000E+00  0.21259067131E+04  0.21259067131E+04  0.00000000000E+00 0.  1.
         -2   -1    0    0    0  501 -0.00000000000E+00 -0.00000000000E+00 -0.89525053936E+01  0.89525053936E+01  0.00000000000E+00 0.  1.
         35    2    1    2    0    0 -0.71054273576E-14 -0.35527136788E-14  0.21169542077E+04  0.21348592185E+04  0.27591441655E+03 0.  0.
         25    2    3    3    0    0 -0.48445947312E+02  0.22256960631E+02  0.90970741227E+03  0.92002390382E+03  0.12662553274E+03 0.  0.
         25    2    3    3    0    0  0.48445947312E+02 -0.22256960631E+02  0.12072467955E+04  0.12148353147E+04  0.12465004852E+03 0.  0.
          5    1    4    4  502    0 -0.82876496208E+02  0.24881425734E+02  0.40768576284E+03  0.41679415806E+03  0.47000000000E+01 0. -1.
         -5    1    4    4    0  502  0.34430548897E+02 -0.26244651034E+01  0.50202164944E+03  0.50322974576E+03  0.47000000000E+01 0. -1.
          5    1    5    5  503    0  0.51021014885E+01  0.46853147330E+02  0.63772705836E+03  0.63948349456E+03  0.47000000000E+01 0.  1.
         -5    1    5    5    0  503  0.43343845823E+02 -0.69110107961E+02  0.56951973711E+03  0.57535182015E+03  0.47000000000E+01 0.  1.
<mgrwt>
<rscale>  0 0.27591442E+03</rscale>
<asrwt>0</asrwt>
<pdfrwt beam="1">  1        2 0.32706217E+00 0.27591442E+03</pdfrwt>
<pdfrwt beam="2">  1       -2 0.13773102E-02 0.27591442E+03</pdfrwt>
<totfact> 0.85219899E+03</totfact>
</mgrwt>
</event>
<event>
 9    1  0.7986988E-001  0.2770081E+03  0.7818608E-02  0.1097334E+00
          2   -1    0    0  501    0  0.00000000000E+00  0.00000000000E+00  0.74223784967E+02  0.74223784967E+02  0.00000000000E+00 0.  1.
         -2   -1    0    0    0  501 -0.00000000000E+00 -0.00000000000E+00 -0.25845316442E+03  0.25845316442E+03  0.00000000000E+00 0.  1.
         35    2    1    2    0    0 -0.35527136788E-14  0.00000000000E+00 -0.18422937945E+03  0.33267694939E+03  0.27700810169E+03 0.  0.
         25    2    3    3    0    0  0.28577280621E+02 -0.32972116150E+02 -0.13878633125E+03  0.19209154079E+03  0.12543401807E+03 0.  0.
         25    2    3    3    0    0 -0.28577280621E+02  0.32972116150E+02 -0.45443048204E+02  0.14058540860E+03  0.12567961279E+03 0.  0.
          5    1    4    4  502    0  0.33032887626E+02 -0.37454105378E+02 -0.16094202504E+03  0.16857759963E+03  0.47000000000E+01 0. -1.
         -5    1    4    4    0  502 -0.44556070055E+01  0.44819892278E+01  0.22155693789E+02  0.23513941152E+02  0.47000000000E+01 0. -1.
          5    1    5    5  503    0  0.29362519180E+02  0.55588282459E+02 -0.46278900041E+02  0.78205123031E+02  0.47000000000E+01 0. -1.
         -5    1    5    5    0  503 -0.57939799801E+02 -0.22616166309E+02  0.83585183733E+00  0.62380285570E+02  0.47000000000E+01 0. -1.
<mgrwt>
<rscale>  0 0.27700810E+03</rscale>
<asrwt>0</asrwt>
<pdfrwt beam="1">  1        2 0.11419044E-01 0.27700810E+03</pdfrwt>
<pdfrwt beam="2">  1       -2 0.39762025E-01 0.27700810E+03</pdfrwt>
<totfact> 0.32603589E+03</totfact>
</mgrwt>
</event>
<event>
 9    1  0.7986988E-001  0.2737566E+03  0.7818608E-02  0.1099149E+00
          2   -1    0    0  501    0  0.00000000000E+00  0.00000000000E+00  0.30221645703E+04  0.30221645703E+04  0.00000000000E+00 0. -1.
         -2   -1    0    0    0  501 -0.00000000000E+00 -0.00000000000E+00 -0.61994219129E+01  0.61994219129E+01  0.00000000000E+00 0. -1.
         35    2    1    2    0    0  0.00000000000E+00 -0.14210854715E-13  0.30159651484E+04  0.30283639922E+04  0.27375663105E+03 0.  0.
         25    2    3    3    0    0  0.16826297693E+02 -0.51105243274E+02  0.14175329855E+04  0.14240751767E+04  0.12528157787E+03 0.  0.
         25    2    3    3    0    0 -0.16826297693E+02  0.51105243274E+02  0.15984321629E+04  0.16042888155E+04  0.12594583763E+03 0.  0.
          5    1    4    4  502    0  0.60754127750E+02 -0.62517909258E+02  0.10707651605E+04  0.10743182358E+04  0.47000000000E+01 0. -1.
         -5    1    4    4    0  502 -0.43927830057E+02  0.11412665985E+02  0.34676782500E+03  0.34975694082E+03  0.47000000000E+01 0. -1.
          5    1    5    5  503    0  0.30024198992E+02  0.17156347938E+02  0.12687057206E+03  0.13158276808E+03  0.47000000000E+01 0.  1.
         -5    1    5    5    0  503 -0.46850496685E+02  0.33948895336E+02  0.14715615908E+04  0.14727060474E+04  0.47000000000E+01 0.  1.
<mgrwt>
<rscale>  0 0.27375663E+03</rscale>
<asrwt>0</asrwt>
<pdfrwt beam="1">  1        2 0.46494722E+00 0.27375663E+03</pdfrwt>
<pdfrwt beam="2">  1       -2 0.95375963E-03 0.27375663E+03</pdfrwt>
<totfact> 0.46171188E+03</totfact>
</mgrwt>
</event>
<event>
 9    1  0.7986988E-001  0.2795770E+03  0.7818608E-02  0.1095920E+00
         -1   -1    0    0    0  501 -0.00000000000E+00  0.00000000000E+00  0.32812864242E+02  0.32812864242E+02  0.00000000000E+00 0.  1.
          1   -1    0    0  501    0  0.00000000000E+00 -0.00000000000E+00 -0.59552337168E+03  0.59552337168E+03  0.00000000000E+00 0.  1.
         35    2    1    2    0    0  0.00000000000E+00  0.00000000000E+00 -0.56271050744E+03  0.62833623592E+03  0.27957702014E+03 0.  0.
         25    2    3    3    0    0  0.76505199093E+01  0.20690500847E+00 -0.13977483406E+03  0.18672410825E+03  0.12357311641E+03 0.  0.
         25    2    3    3    0    0 -0.76505199093E+01 -0.20690500847E+00 -0.42293567338E+03  0.44161212768E+03  0.12683893025E+03 0.  0.
          5    1    4    4  502    0 -0.17681830980E+02  0.25593308047E+02  0.97106206342E+01  0.32924925462E+02  0.47000000000E+01 0. -1.
         -5    1    4    4    0  502  0.25332350889E+02 -0.25386403039E+02 -0.14948545469E+03  0.15379918278E+03  0.47000000000E+01 0. -1.
          5    1    5    5  503    0 -0.52211069533E+02 -0.24608589186E+02 -0.33481763760E+03  0.33978893286E+03  0.47000000000E+01 0.  1.
         -5    1    5    5    0  503  0.44560549624E+02  0.24401684177E+02 -0.88118035780E+02  0.10182319482E+03  0.47000000000E+01 0.  1.
<mgrwt>
<rscale>  0 0.27957702E+03</rscale>
<asrwt>0</asrwt>
<pdfrwt beam="1">  1        1 0.91618977E-01 0.27957702E+03</pdfrwt>
<pdfrwt beam="2">  1       -1 0.50481332E-02 0.27957702E+03</pdfrwt>
<totfact> 0.61470278E+03</totfact>
</mgrwt>
</event>
<event>
 9    1  0.7986988E-001  0.2786395E+03  0.7818608E-02  0.1096434E+00
         -2   -1    0    0    0  501 -0.00000000000E+00  0.00000000000E+00  0.83194216572E+01  0.83194216572E+01  0.00000000000E+00 0. -1.
          2   -1    0    0  501    0  0.00000000000E+00 -0.00000000000E+00 -0.23330944764E+04  0.23330944764E+04  0.00000000000E+00 0. -1.
         35    2    1    2    0    0 -0.71054273576E-14 -0.17763568394E-14 -0.23247750547E+04  0.23414138981E+04  0.27863952853E+03 0.  0.
         25    2    3    3    0    0 -0.44226763535E+02  0.10656586699E+02 -0.65410862243E+03  0.66554804981E+03  0.11413390035E+03 0.  0.
         25    2    3    3    0    0  0.44226763535E+02 -0.10656586699E+02 -0.16706664323E+04  0.16758658483E+04  0.12381616950E+03 0.  0.
          5    1    4    4  502    0 -0.64424859094E+02  0.76422400462E+01 -0.18737570699E+03  0.19834493155E+03  0.47000000000E+01 0. -1.
         -5    1    4    4    0  502  0.20198095560E+02  0.30143466526E+01 -0.46673291545E+03  0.46720311826E+03  0.47000000000E+01 0. -1.
          5    1    5    5  503    0 -0.36042830655E+02 -0.24558877225E+02 -0.85590485723E+03  0.85702826017E+03  0.47000000000E+01 0. -1.
         -5    1    5    5    0  503  0.80269594189E+02  0.13902290527E+02 -0.81476157508E+03  0.81883758808E+03  0.47000000000E+01 0. -1.
<mgrwt>
<rscale>  0 0.27863953E+03</rscale>
<asrwt>0</asrwt>
<pdfrwt beam="1">  1        2 0.35893808E+00 0.27863953E+03</pdfrwt>
<pdfrwt beam="2">  1       -2 0.12799093E-02 0.27863953E+03</pdfrwt>
<totfact> 0.73537727E+03</totfact>
</mgrwt>
</event>
<event>
 9    1  0.7986988E-001  0.2513081E+03  0.7818608E-02  0.1112481E+00
          1   -1    0    0  501    0  0.00000000000E+00  0.00000000000E+00  0.26571659317E+03  0.26571659317E+03  0.00000000000E+00 0.  1.
         -1   -1    0    0    0  501 -0.00000000000E+00 -0.00000000000E+00 -0.59420214216E+02  0.59420214216E+02  0.00000000000E+00 0.  1.
         35    2    1    2    0    0  0.00000000000E+00  0.00000000000E+00  0.20629637895E+03  0.32513680739E+03  0.25130807299E+03 0.  0.
         25    2    3    3    0    0 -0.10883153581E+02  0.94743239640E+01  0.97573678247E+02  0.15946068467E+03  0.12529517717E+03 0.  0.
         25    2    3    3    0    0  0.10883153581E+02 -0.94743239640E+01  0.10872270071E+03  0.16567612271E+03  0.12417627045E+03 0.  0.
          5    1    4    4  502    0 -0.49615620503E+02 -0.33970919084E+02  0.22553291511E+02  0.64393121521E+02  0.47000000000E+01 0.  1.
         -5    1    4    4    0  502  0.38732466922E+02  0.43445243048E+02  0.75020386736E+02  0.95067563150E+02  0.47000000000E+01 0.  1.
          5    1    5    5  503    0  0.51861967423E+02 -0.43194359180E+02  0.81257007907E+02  0.10573650110E+03  0.47000000000E+01 0. -1.
         -5    1    5    5    0  503 -0.40978813842E+02  0.33720035216E+02  0.27465692799E+02  0.59939621618E+02  0.47000000000E+01 0. -1.
<mgrwt>
<rscale>  0 0.25130807E+03</rscale>
<asrwt>0</asrwt>
<pdfrwt beam="1">  1        1 0.40879475E-01 0.25130807E+03</pdfrwt>
<pdfrwt beam="2">  1       -1 0.91415715E-02 0.25130807E+03</pdfrwt>
<totfact> 0.70733548E+03</totfact>
</mgrwt>
</event>
<event>
 9    1  0.7986988E-001  0.2717962E+03  0.7818608E-02  0.1100256E+00
         -1   -1    0    0    0  501 -0.00000000000E+00  0.00000000000E+00  0.97197202359E+02  0.97197202359E+02  0.00000000000E+00 0.  1.
          1   -1    0    0  501    0  0.00000000000E+00 -0.00000000000E+00 -0.19000843014E+03  0.19000843014E+03  0.00000000000E+00 0.  1.
         35    2    1    2    0    0 -0.71054273576E-14  0.00000000000E+00 -0.92811227776E+02  0.28720563249E+03  0.27179615769E+03 0.  0.
         25    2    3    3    0    0 -0.15492648647E+02  0.42397606090E+02 -0.16681654961E+02  0.13370414769E+03  0.12474350618E+03 0.  0.
         25    2    3    3    0    0  0.15492648647E+02 -0.42397606090E+02 -0.76129572815E+02  0.15350148480E+03  0.12541696383E+03 0.  0.
          5    1    4    4  502    0 -0.64428664054E+02  0.48781875380E+02 -0.21890956547E+02  0.83857188695E+02  0.47000000000E+01 0.  1.
         -5    1    4    4    0  502  0.48936015407E+02 -0.63842692900E+01  0.52093015857E+01  0.49846958997E+02  0.47000000000E+01 0.  1.
          5    1    5    5  503    0  0.41430234651E+02 -0.54109958168E+02 -0.96469366578E+02  0.11820651676E+03  0.47000000000E+01 0.  1.
         -5    1    5    5    0  503 -0.25937586004E+02  0.11712352078E+02  0.20339793763E+02  0.35294968044E+02  0.47000000000E+01 0.  1.
<mgrwt>
<rscale>  0 0.27179616E+03</rscale>
<asrwt>0</asrwt>
<pdfrwt beam="1">  1        1 0.29232066E-01 0.27179616E+03</pdfrwt>
<pdfrwt beam="2">  1       -1 0.14953416E-01 0.27179616E+03</pdfrwt>
<totfact> 0.50193413E+03</totfact>
</mgrwt>
</event>
<event>
 9    1  0.7986988E-001  0.2806551E+03  0.7818608E-02  0.1095332E+00
         -2   -1    0    0    0  501 -0.00000000000E+00  0.00000000000E+00  0.11464259682E+03  0.11464259682E+03  0.00000000000E+00 0.  1.
          2   -1    0    0  501    0  0.00000000000E+00 -0.00000000000E+00 -0.17176708423E+03  0.17176708423E+03  0.00000000000E+00 0.  1.
         35    2    1    2    0    0 -0.14210854715E-13  0.00000000000E+00 -0.57124487408E+02  0.28640968105E+03  0.28065512348E+03 0.  0.
         25    2    3    3    0    0 -0.48499926813E+02 -0.15123484583E+02 -0.67867765771E+02  0.15039234777E+03  0.12422102056E+03 0.  0.
         25    2    3    3    0    0  0.48499926813E+02  0.15123484583E+02  0.10743278363E+02  0.13601733328E+03  0.12571529038E+03 0.  0.
          5    1    4    4  502    0  0.34811061498E+02 -0.49446039180E-01 -0.54076749353E+02  0.64484085386E+02  0.47000000000E+01 0.  1.
         -5    1    4    4    0  502 -0.83310988311E+02 -0.15074038544E+02 -0.13791016419E+02  0.85908262380E+02  0.47000000000E+01 0.  1.
          5    1    5    5  503    0  0.78787134901E+02  0.39478382475E+02 -0.14504472089E+02  0.89433914257E+02  0.47000000000E+01 0. -1.
         -5    1    5    5    0  503 -0.30287208087E+02 -0.24354897892E+02  0.25247750453E+02  0.46583419024E+02  0.47000000000E+01 0. -1.
<mgrwt>
<rscale>  0 0.28065512E+03</rscale>
<asrwt>0</asrwt>
<pdfrwt beam="1">  1        2 0.26425705E-01 0.28065512E+03</pdfrwt>
<pdfrwt beam="2">  1       -2 0.17637323E-01 0.28065512E+03</pdfrwt>
<totfact> 0.52361661E+03</totfact>
</mgrwt>
</event>
<event>
 9    1  0.7986988E-001  0.2823085E+03  0.7818608E-02  0.1094435E+00
          3   -1    0    0  501    0  0.00000000000E+00  0.00000000000E+00  0.35307933551E+02  0.35307933551E+02  0.00000000000E+00 0.  1.
         -3   -1    0    0    0  501 -0.00000000000E+00 -0.00000000000E+00 -0.56430731502E+03  0.56430731502E+03  0.00000000000E+00 0.  1.
         35    2    1    2    0    0 -0.71054273576E-14  0.71054273576E-14 -0.52899938146E+03  0.59961524857E+03  0.28230852046E+03 0.  0.
         25    2    3    3    0    0 -0.65469284412E+01  0.45042369142E+02 -0.16555131076E+03  0.21250477243E+03  0.12521726926E+03 0.  0.
         25    2    3    3    0    0  0.65469284412E+01 -0.45042369142E+02 -0.36344807070E+03  0.38711047614E+03  0.12525311711E+03 0.  0.
          5    1    4    4  502    0 -0.55144901268E+02  0.36591731694E+02 -0.14384372418E+03  0.15840777111E+03  0.47000000000E+01 0. -1.
         -5    1    4    4    0  502  0.48597972827E+02  0.84506374475E+01 -0.21707586587E+02  0.54097001318E+02  0.47000000000E+01 0. -1.
          5    1    5    5  503    0 -0.43589631428E+02  0.22273150800E+02 -0.13055000859E+03  0.13950463777E+03  0.47000000000E+01 0.  1.
         -5    1    5    5    0  503  0.50136559869E+02 -0.67315519942E+02 -0.23289806211E+03  0.24760583837E+03  0.47000000000E+01 0.  1.
<mgrwt>
<rscale>  0 0.28230852E+03</rscale>
<asrwt>0</asrwt>
<pdfrwt beam="1">  1        3 0.54319901E-02 0.28230852E+03</pdfrwt>
<pdfrwt beam="2">  1       -3 0.86816505E-01 0.28230852E+03</pdfrwt>
<totfact> 0.63270473E+02</totfact>
</mgrwt>
</event>
<event>
 9    1  0.7986988E-001  0.3324295E+03  0.7818608E-02  0.1070067E+00
         -2   -1    0    0    0  501 -0.00000000000E+00  0.00000000000E+00  0.19803794915E+02  0.19803794915E+02  0.00000000000E+00 0.  1.
          2   -1    0    0  501    0  0.00000000000E+00 -0.00000000000E+00 -0.13950527201E+04  0.13950527201E+04  0.00000000000E+00 0.  1.
         35    2    1    2    0    0  0.00000000000E+00  0.00000000000E+00 -0.13752489251E+04  0.14148565150E+04  0.33242946900E+03 0.  0.
         25    2    3    3    0    0 -0.26826078106E+02  0.44772662977E+00 -0.23625803861E+03  0.26874675411E+03  0.12524822598E+03 0.  0.
         25    2    3    3    0    0  0.26826078106E+02 -0.44772662977E+00 -0.11389908865E+04  0.11461097609E+04  0.12468963637E+03 0.  0.
          5    1    4    4  502    0 -0.35670993794E+02 -0.47297110891E+02 -0.19807182741E+03  0.20679452437E+03  0.47000000000E+01 0. -1.
         -5    1    4    4    0  502  0.88449156878E+01  0.47744837521E+02 -0.38186211196E+02  0.61952229733E+02  0.47000000000E+01 0. -1.
          5    1    5    5  503    0 -0.37619009791E+01  0.50019116945E+02 -0.82819811980E+03  0.82972903987E+03  0.47000000000E+01 0. -1.
         -5    1    5    5    0  503  0.30587979085E+02 -0.50466843574E+02 -0.31079276673E+03  0.31638072099E+03  0.47000000000E+01 0. -1.
<mgrwt>
<rscale>  0 0.33242947E+03</rscale>
<asrwt>0</asrwt>
<pdfrwt beam="1">  1        2 0.21462356E+00 0.33242947E+03</pdfrwt>
<pdfrwt beam="2">  1       -2 0.30467368E-02 0.33242947E+03</pdfrwt>
<totfact> 0.64556921E+03</totfact>
</mgrwt>
</event>
<event>
 9    1  0.7986988E-001  0.2778956E+03  0.7818608E-02  0.1096844E+00
          2   -1    0    0  501    0  0.00000000000E+00  0.00000000000E+00  0.15679778881E+04  0.15679778881E+04  0.00000000000E+00 0. -1.
         -2   -1    0    0    0  501 -0.00000000000E+00 -0.00000000000E+00 -0.12312983775E+02  0.12312983775E+02  0.00000000000E+00 0. -1.
         35    2    1    2    0    0 -0.26645352591E-14  0.71054273576E-14  0.15556649043E+04  0.15802908719E+04  0.27789556525E+03 0.  0.
         25    2    3    3    0    0  0.28389803093E+01  0.43414724049E+02  0.10100362552E+04  0.10186586665E+04  0.12489733341E+03 0.  0.
         25    2    3    3    0    0 -0.28389803093E+01 -0.43414724049E+02  0.54562864917E+03  0.56163220544E+03  0.12580625312E+03 0.  0.
          5    1    4    4  502    0 -0.45061008183E+01 -0.10232531303E+02  0.84124733629E+03  0.84133476123E+03  0.47000000000E+01 0. -1.
         -5    1    4    4    0  502  0.73450811277E+01  0.53647255352E+02  0.16878891888E+03  0.17732390522E+03  0.47000000000E+01 0. -1.
          5    1    5    5  503    0 -0.61979286300E+02 -0.13270555417E+02  0.20743559463E+03  0.21695427051E+03  0.47000000000E+01 0.  1.
         -5    1    5    5    0  503  0.59140305990E+02 -0.30144168633E+02  0.33819305453E+03  0.34467793493E+03  0.47000000000E+01 0.  1.
<mgrwt>
<rscale>  0 0.27789557E+03</rscale>
<asrwt>0</asrwt>
<pdfrwt beam="1">  1        2 0.24122721E+00 0.27789557E+03</pdfrwt>
<pdfrwt beam="2">  1       -2 0.18943064E-02 0.27789557E+03</pdfrwt>
<totfact> 0.10512085E+04</totfact>
</mgrwt>
</event>
<event>
 9    1  0.7986988E-001  0.2733651E+03  0.7818608E-02  0.1099369E+00
         -1   -1    0    0    0  501 -0.00000000000E+00  0.00000000000E+00  0.19918854684E+03  0.19918854684E+03  0.00000000000E+00 0.  1.
          1   -1    0    0  501    0  0.00000000000E+00 -0.00000000000E+00 -0.93791103125E+02  0.93791103125E+02  0.00000000000E+00 0.  1.
         35    2    1    2    0    0 -0.71054273576E-14  0.35527136788E-14  0.10539744372E+03  0.29297964997E+03  0.27336505657E+03 0.  0.
         25    2    3    3    0    0  0.34119544667E+02  0.24618752517E+02  0.13844586351E+02  0.13299348893E+03  0.12540083422E+03 0.  0.
         25    2    3    3    0    0 -0.34119544667E+02 -0.24618752517E+02  0.91552857367E+02  0.15998616104E+03  0.12427155639E+03 0.  0.
          5    1    4    4  502    0  0.74435179066E+02 -0.39421447459E+00 -0.16620977405E+02  0.76413992027E+02  0.47000000000E+01 0.  1.
         -5    1    4    4    0  502 -0.40315634398E+02  0.25012966992E+02  0.30465563755E+02  0.56579496901E+02  0.47000000000E+01 0.  1.
          5    1    5    5  503    0 -0.57265171574E+02  0.22195586060E+02  0.88021337166E+02  0.10743272180E+03  0.47000000000E+01 0.  1.
         -5    1    5    5    0  503  0.23145626907E+02 -0.46814338577E+02  0.35315202011E+01  0.52553439243E+02  0.47000000000E+01 0.  1.
<mgrwt>
<rscale>  0 0.27336506E+03</rscale>
<asrwt>0</asrwt>
<pdfrwt beam="1">  1        1 0.14429401E-01 0.27336506E+03</pdfrwt>
<pdfrwt beam="2">  1       -1 0.30644392E-01 0.27336506E+03</pdfrwt>
<totfact> 0.38425632E+03</totfact>
</mgrwt>
</event>
<event>
 9    1  0.7986988E-001  0.2570369E+03  0.7818608E-02  0.1108937E+00
          2   -1    0    0  501    0  0.00000000000E+00  0.00000000000E+00  0.39306043216E+03  0.39306043216E+03  0.00000000000E+00 0. -1.
         -2   -1    0    0    0  501 -0.00000000000E+00 -0.00000000000E+00 -0.42021498597E+02  0.42021498597E+02  0.00000000000E+00 0. -1.
         35    2    1    2    0    0 -0.71054273576E-14  0.88817841970E-15  0.35103893357E+03  0.43508193076E+03  0.25703687205E+03 0.  0.
         25    2    3    3    0    0  0.18824694944E+02 -0.29176237006E+01  0.21623265467E+03  0.25040138683E+03  0.12482552589E+03 0.  0.
         25    2    3    3    0    0 -0.18824694944E+02  0.29176237006E+01  0.13480627890E+03  0.18468054393E+03  0.12478497028E+03 0.  0.
          5    1    4    4  502    0 -0.27811822796E+02 -0.33888958735E+02  0.24151267914E+02  0.50272584509E+02  0.47000000000E+01 0.  1.
         -5    1    4    4    0  502  0.46636517741E+02  0.30971335034E+02  0.19208138676E+03  0.20012880232E+03  0.47000000000E+01 0.  1.
          5    1    5    5  503    0  0.44763998275E+02  0.70449283815E+00  0.12476060834E+02  0.46712460283E+02  0.47000000000E+01 0.  1.
         -5    1    5    5    0  503 -0.63588693219E+02  0.22131308625E+01  0.12233021806E+03  0.13796808364E+03  0.47000000000E+01 0.  1.
<mgrwt>
<rscale>  0 0.25703687E+03</rscale>
<asrwt>0</asrwt>
<pdfrwt beam="1">  1        2 0.60470833E-01 0.25703687E+03</pdfrwt>
<pdfrwt beam="2">  1       -2 0.64648462E-02 0.25703687E+03</pdfrwt>
<totfact> 0.10614464E+04</totfact>
</mgrwt>
</event>
<event>
 9    1  0.7986988E-001  0.3299967E+03  0.7818608E-02  0.1071138E+00
         -2   -1    0    0    0  501 -0.00000000000E+00  0.00000000000E+00  0.20622041123E+02  0.20622041123E+02  0.00000000000E+00 0. -1.
          2   -1    0    0  501    0  0.00000000000E+00 -0.00000000000E+00 -0.13201629767E+04  0.13201629767E+04  0.00000000000E+00 0. -1.
         35    2    1    2    0    0  0.71054273576E-14  0.00000000000E+00 -0.12995409356E+04  0.13407850178E+04  0.32999669813E+03 0.  0.
         25    2    3    3    0    0  0.53881896715E+02  0.14583161740E+02 -0.10233543768E+04  0.10325046725E+04  0.12528284377E+03 0.  0.
         25    2    3    3    0    0 -0.53881896715E+02 -0.14583161740E+02 -0.27618655881E+03  0.30828034529E+03  0.12506729640E+03 0.  0.
          5    1    4    4  502    0  0.28961429767E+02 -0.48845663667E+02 -0.26374293742E+03  0.26982789017E+03  0.47000000000E+01 0.  1.
         -5    1    4    4    0  502  0.24920466949E+02  0.63428825408E+02 -0.75961143934E+03  0.76267678235E+03  0.47000000000E+01 0.  1.
          5    1    5    5  503    0 -0.20525965984E+02 -0.48567910292E+02 -0.24616328125E+03  0.25179080251E+03  0.47000000000E+01 0.  1.
         -5    1    5    5    0  503 -0.33355930732E+02  0.33984748551E+02 -0.30023277554E+02  0.56489542786E+02  0.47000000000E+01 0.  1.
<mgrwt>
<rscale>  0 0.32999670E+03</rscale>
<asrwt>0</asrwt>
<pdfrwt beam="1">  1        2 0.20310196E+00 0.32999670E+03</pdfrwt>
<pdfrwt beam="2">  1       -2 0.31726223E-02 0.32999670E+03</pdfrwt>
<totfact> 0.66815608E+03</totfact>
</mgrwt>
</event>
<event>
 9    1  0.7986988E-001  0.2808746E+03  0.7818608E-02  0.1095212E+00
         -1   -1    0    0    0  501 -0.00000000000E+00  0.00000000000E+00  0.22423340629E+02  0.22423340629E+02  0.00000000000E+00 0.  1.
          1   -1    0    0  501    0  0.00000000000E+00 -0.00000000000E+00 -0.87955860724E+03  0.87955860724E+03  0.00000000000E+00 0.  1.
         35    2    1    2    0    0 -0.26645352591E-14 -0.71054273576E-14 -0.85713526661E+03  0.90198194787E+03  0.28087465000E+03 0.  0.
         25    2    3    3    0    0  0.41259162691E+00 -0.63886207530E+02 -0.44176805926E+03  0.46328563713E+03  0.12406831036E+03 0.  0.
         25    2    3    3    0    0 -0.41259162691E+00  0.63886207530E+02 -0.41536720735E+03  0.43869631074E+03  0.12586865526E+03 0.  0.
          5    1    4    4  502    0 -0.61656216633E+01 -0.23365065082E+02 -0.57060539496E+01  0.25270342468E+02  0.47000000000E+01 0. -1.
         -5    1    4    4    0  502  0.65782132902E+01 -0.40521142449E+02 -0.43606200531E+03  0.43801529466E+03  0.47000000000E+01 0. -1.
          5    1    5    5  503    0  0.32420892128E+02  0.36369630878E+02 -0.37945306588E+03  0.38259715564E+03  0.47000000000E+01 0.  1.
         -5    1    5    5    0  503 -0.32833483755E+02  0.27516576653E+02 -0.35914141467E+02  0.56099155105E+02  0.47000000000E+01 0.  1.
<mgrwt>
<rscale>  0 0.28087465E+03</rscale>
<asrwt>0</asrwt>
<pdfrwt beam="1">  1        1 0.13531672E+00 0.28087465E+03</pdfrwt>
<pdfrwt beam="2">  1       -1 0.34497445E-02 0.28087465E+03</pdfrwt>
<totfact> 0.60746970E+03</totfact>
</mgrwt>
</event>
<event>
 9    1  0.7986988E-001  0.2739482E+03  0.7818608E-02  0.1099041E+00
          1   -1    0    0  501    0  0.00000000000E+00  0.00000000000E+00  0.39031523032E+02  0.39031523032E+02  0.00000000000E+00 0. -1.
         -1   -1    0    0    0  501 -0.00000000000E+00 -0.00000000000E+00 -0.48068576651E+03  0.48068576651E+03  0.00000000000E+00 0. -1.
         35    2    1    2    0    0 -0.71054273576E-14  0.00000000000E+00 -0.44165424348E+03  0.51971728954E+03  0.27394815252E+03 0.  0.
         25    2    3    3    0    0  0.36048794291E+02 -0.11992153234E+02 -0.30044850666E+03  0.32746205791E+03  0.12457434288E+03 0.  0.
         25    2    3    3    0    0 -0.36048794291E+02  0.11992153234E+02 -0.14120573681E+03  0.19225523163E+03  0.12481861509E+03 0.  0.
          5    1    4    4  502    0  0.27031710708E+02 -0.61565995361E+02 -0.23647018426E+03  0.24588884320E+03  0.47000000000E+01 0. -1.
         -5    1    4    4    0  502  0.90170835834E+01  0.49573842127E+02 -0.63978322406E+02  0.81573214706E+02  0.47000000000E+01 0. -1.
          5    1    5    5  503    0 -0.34386597025E+02  0.14891761729E+02  0.11470740171E+02  0.39469868285E+02  0.47000000000E+01 0.  1.
         -5    1    5    5    0  503 -0.16621972662E+01 -0.28996084946E+01 -0.15267647699E+03  0.15278536335E+03  0.47000000000E+01 0.  1.
<mgrwt>
<rscale>  0 0.27394815E+03</rscale>
<asrwt>0</asrwt>
<pdfrwt beam="1">  1        1 0.60048500E-02 0.27394815E+03</pdfrwt>
<pdfrwt beam="2">  1       -1 0.73951653E-01 0.27394815E+03</pdfrwt>
<totfact> 0.24703092E+03</totfact>
</mgrwt>
</event>
<event>
 9    1  0.7986988E-001  0.2842868E+03  0.7818608E-02  0.1093370E+00
          4   -1    0    0  501    0  0.00000000000E+00  0.00000000000E+00  0.16755624438E+03  0.16755624438E+03  0.00000000000E+00 0.  1.
         -4   -1    0    0    0  501 -0.00000000000E+00 -0.00000000000E+00 -0.12058487268E+03  0.12058487268E+03  0.00000000000E+00 0.  1.
         35    2    1    2    0    0  0.00000000000E+00  0.00000000000E+00  0.46971371699E+02  0.28814111706E+03  0.28428681571E+03 0.  0.
         25    2    3    3    0    0 -0.20749170378E+02  0.48888919072E+02  0.67938008001E+02  0.15195472001E+03  0.12511598429E+03 0.  0.
         25    2    3    3    0    0  0.20749170378E+02 -0.48888919072E+02 -0.20966636302E+02  0.13618639705E+03  0.12363850704E+03 0.  0.
          5    1    4    4  502    0  0.53635686440E+01  0.39560868351E+01  0.93495440225E+02  0.93850443976E+02  0.47000000000E+01 0.  1.
         -5    1    4    4    0  502 -0.26112739022E+02  0.44932832237E+02 -0.25557432224E+02  0.58104276039E+02  0.47000000000E+01 0.  1.
          5    1    5    5  503    0  0.62119137893E+02  0.54913599996E+01  0.54587742617E+01  0.62776034788E+02  0.47000000000E+01 0. -1.
         -5    1    5    5    0  503 -0.41369967515E+02 -0.54380279072E+02 -0.26425410564E+02  0.73410362263E+02  0.47000000000E+01 0. -1.
<mgrwt>
<rscale>  0 0.28428682E+03</rscale>
<asrwt>0</asrwt>
<pdfrwt beam="1">  1        4 0.25777884E-01 0.28428682E+03</pdfrwt>
<pdfrwt beam="2">  1       -4 0.18551519E-01 0.28428682E+03</pdfrwt>
<totfact> 0.68865780E+02</totfact>
</mgrwt>
</event>
<event>
 9    1  0.7986988E-001  0.2849189E+03  0.7818608E-02  0.1093032E+00
          1   -1    0    0  501    0  0.00000000000E+00  0.00000000000E+00  0.66890792975E+03  0.66890792975E+03  0.00000000000E+00 0.  1.
         -1   -1    0    0    0  501 -0.00000000000E+00 -0.00000000000E+00 -0.30340033259E+02  0.30340033259E+02  0.00000000000E+00 0.  1.
         35    2    1    2    0    0  0.00000000000E+00  0.71054273576E-14  0.63856789649E+03  0.69924796300E+03  0.28491885747E+03 0.  0.
         25    2    3    3    0    0  0.32346644885E+02 -0.49221602308E+02  0.40819648030E+03  0.43068775650E+03  0.12409071482E+03 0.  0.
         25    2    3    3    0    0 -0.32346644885E+02  0.49221602308E+02  0.23037141619E+03  0.26856020650E+03  0.12483798921E+03 0.  0.
          5    1    4    4  502    0 -0.14766082142E+02  0.31291603511E+02  0.53403760551E+02  0.63806373295E+02  0.47000000000E+01 0. -1.
         -5    1    4    4    0  502  0.47112727027E+02 -0.80513205819E+02  0.35479271975E+03  0.36688138321E+03  0.47000000000E+01 0. -1.
          5    1    5    5  503    0 -0.10442981211E+02  0.71151482070E+02  0.55660972995E+02  0.91059448560E+02  0.47000000000E+01 0. -1.
         -5    1    5    5    0  503 -0.21903663674E+02 -0.21929879762E+02  0.17471044319E+03  0.17750075794E+03  0.47000000000E+01 0. -1.
<mgrwt>
<rscale>  0 0.28491886E+03</rscale>
<asrwt>0</asrwt>
<pdfrwt beam="1">  1        1 0.10290890E+00 0.28491886E+03</pdfrwt>
<pdfrwt beam="2">  1       -1 0.46676979E-02 0.28491886E+03</pdfrwt>
<totfact> 0.58694150E+03</totfact>
</mgrwt>
</event>
<event>
 9    1  0.7986988E-001  0.2715743E+03  0.7818608E-02  0.1100382E+00
         -2   -1    0    0    0  501 -0.00000000000E+00  0.00000000000E+00  0.27935413988E+02  0.27935413988E+02  0.00000000000E+00 0.  1.
          2   -1    0    0  501    0  0.00000000000E+00 -0.00000000000E+00 -0.66002802388E+03  0.66002802388E+03  0.00000000000E+00 0.  1.
         35    2    1    2    0    0  0.35527136788E-14  0.00000000000E+00 -0.63209260990E+03  0.68796343787E+03  0.27157434408E+03 0.  0.
         25    2    3    3    0    0  0.37262006421E+01  0.52956117315E+02 -0.32667187432E+03  0.35367489645E+03  0.12471240504E+03 0.  0.
         25    2    3    3    0    0 -0.37262006421E+01 -0.52956117315E+02 -0.30542073558E+03  0.33428854143E+03  0.12509503698E+03 0.  0.
          5    1    4    4  502    0  0.16540694468E+02  0.92248623134E+02 -0.23275085300E+03  0.25095508087E+03  0.47000000000E+01 0.  1.
         -5    1    4    4    0  502 -0.12814493826E+02 -0.39292505819E+02 -0.93921021319E+02  0.10271981557E+03  0.47000000000E+01 0.  1.
          5    1    5    5  503    0  0.38634979674E+02 -0.22681520318E+02 -0.26337457532E+03  0.26719912040E+03  0.47000000000E+01 0.  1.
         -5    1    5    5    0  503 -0.42361180316E+02 -0.30274596997E+02 -0.42046160257E+02  0.67089421025E+02  0.47000000000E+01 0.  1.
<mgrwt>
<rscale>  0 0.27157434E+03</rscale>
<asrwt>0</asrwt>
<pdfrwt beam="1">  1        2 0.10154277E+00 0.27157434E+03</pdfrwt>
<pdfrwt beam="2">  1       -2 0.42977563E-02 0.27157434E+03</pdfrwt>
<totfact> 0.11050512E+04</totfact>
</mgrwt>
</event>
<event>
 9    1  0.7986988E-001  0.2757006E+03  0.7818608E-02  0.1098061E+00
          1   -1    0    0  501    0  0.00000000000E+00  0.00000000000E+00  0.36372603311E+03  0.36372603311E+03  0.00000000000E+00 0.  1.
         -1   -1    0    0    0  501 -0.00000000000E+00 -0.00000000000E+00 -0.52244573330E+02  0.52244573330E+02  0.00000000000E+00 0.  1.
         35    2    1    2    0    0  0.00000000000E+00  0.00000000000E+00  0.31148145978E+03  0.41597060644E+03  0.27570064497E+03 0.  0.
         25    2    3    3    0    0 -0.21335689840E+02  0.28377721975E+02  0.22348021154E+03  0.25843229841E+03  0.12483325337E+03 0.  0.
         25    2    3    3    0    0  0.21335689840E+02 -0.28377721975E+02  0.88001248235E+02  0.15753830802E+03  0.12575210551E+03 0.  0.
          5    1    4    4  502    0 -0.72736475109E+02  0.28231469759E+02  0.13557185312E+03  0.15649098394E+03  0.47000000000E+01 0.  1.
         -5    1    4    4    0  502  0.51400785269E+02  0.14625221570E+00  0.87908358423E+02  0.10194131447E+03  0.47000000000E+01 0.  1.
          5    1    5    5  503    0  0.62126051556E+01 -0.54330424683E+02  0.10800067727E+03  0.12114713286E+03  0.47000000000E+01 0. -1.
         -5    1    5    5    0  503  0.15123084684E+02  0.25952702708E+02 -0.19999429036E+02  0.36391175166E+02  0.47000000000E+01 0. -1.
<mgrwt>
<rscale>  0 0.27570064E+03</rscale>
<asrwt>0</asrwt>
<pdfrwt beam="1">  1        1 0.55957850E-01 0.27570064E+03</pdfrwt>
<pdfrwt beam="2">  1       -1 0.80376269E-02 0.27570064E+03</pdfrwt>
<totfact> 0.58204836E+03</totfact>
</mgrwt>
</event>
<event>
 9    1  0.7986988E-001  0.2750479E+03  0.7818608E-02  0.1098425E+00
         -2   -1    0    0    0  501 -0.00000000000E+00  0.00000000000E+00  0.32317014456E+02  0.32317014456E+02  0.00000000000E+00 0. -1.
          2   -1    0    0  501    0  0.00000000000E+00 -0.00000000000E+00 -0.58522850742E+03  0.58522850742E+03  0.00000000000E+00 0. -1.
         35    2    1    2    0    0  0.00000000000E+00  0.00000000000E+00 -0.55291149297E+03  0.61754552188E+03  0.27504790953E+03 0.  0.
         25    2    3    3    0    0 -0.37521852570E+02  0.39907838976E+02 -0.31505400348E+03  0.34330483226E+03  0.12489458639E+03 0.  0.
         25    2    3    3    0    0  0.37521852570E+02 -0.39907838976E+02 -0.23785748949E+03  0.27424068962E+03  0.12502497954E+03 0.  0.
          5    1    4    4  502    0 -0.23428835036E+02  0.54848258664E+02 -0.31657688917E+03  0.32218047512E+03  0.47000000000E+01 0.  1.
         -5    1    4    4    0  502 -0.14093017535E+02 -0.14940419688E+02  0.15228856909E+01  0.21124357139E+02  0.47000000000E+01 0.  1.
          5    1    5    5  503    0  0.31820397828E+02  0.15333436753E+02 -0.20796767093E+03  0.21099832737E+03  0.47000000000E+01 0.  1.
         -5    1    5    5    0  503  0.57014547423E+01 -0.55241275729E+02 -0.29889818560E+02  0.63242362257E+02  0.47000000000E+01 0.  1.
<mgrwt>
<rscale>  0 0.27504791E+03</rscale>
<asrwt>0</asrwt>
<pdfrwt beam="1">  1        2 0.90035153E-01 0.27504791E+03</pdfrwt>
<pdfrwt beam="2">  1       -2 0.49718485E-02 0.27504791E+03</pdfrwt>
<totfact> 0.10210199E+04</totfact>
</mgrwt>
</event>
<event>
 9    1  0.7986988E-001  0.2760652E+03  0.7818608E-02  0.1097858E+00
         -1   -1    0    0    0  501 -0.00000000000E+00  0.00000000000E+00  0.61736735671E+02  0.61736735671E+02  0.00000000000E+00 0. -1.
          1   -1    0    0  501    0  0.00000000000E+00 -0.00000000000E+00 -0.30861697329E+03  0.30861697329E+03  0.00000000000E+00 0. -1.
         35    2    1    2    0    0 -0.35527136788E-14  0.00000000000E+00 -0.24688023762E+03  0.37035370896E+03  0.27606524231E+03 0.  0.
         25    2    3    3    0    0  0.63198339648E+00 -0.42770401626E+02 -0.15624540545E+03  0.20448935388E+03  0.12479408025E+03 0.  0.
         25    2    3    3    0    0 -0.63198339648E+00  0.42770401626E+02 -0.90634832165E+02  0.16586435508E+03  0.13216128339E+03 0.  0.
          5    1    4    4  502    0  0.23245640477E+02  0.39062807803E+02 -0.68135230343E+02  0.82041223593E+02  0.47000000000E+01 0. -1.
         -5    1    4    4    0  502 -0.22613657081E+02 -0.81833209430E+02 -0.88110175108E+02  0.12244813028E+03  0.47000000000E+01 0. -1.
          5    1    5    5  503    0 -0.45534052269E+02 -0.12430625867E+02 -0.81051335860E+02  0.93911018630E+02  0.47000000000E+01 0. -1.
         -5    1    5    5    0  503  0.44902068873E+02  0.55201027493E+02 -0.95834963054E+01  0.71953336454E+02  0.47000000000E+01 0. -1.
<mgrwt>
<rscale>  0 0.27606524E+03</rscale>
<asrwt>0</asrwt>
<pdfrwt beam="1">  1        1 0.47479533E-01 0.27606524E+03</pdfrwt>
<pdfrwt beam="2">  1       -1 0.94979596E-02 0.27606524E+03</pdfrwt>
<totfact> 0.55460966E+03</totfact>
</mgrwt>
</event>
<event>
 9    1  0.7986988E-001  0.2722378E+03  0.7818608E-02  0.1100006E+00
         -1   -1    0    0    0  501 -0.00000000000E+00  0.00000000000E+00  0.94680320652E+02  0.94680320652E+02  0.00000000000E+00 0.  1.
          1   -1    0    0  501    0  0.00000000000E+00 -0.00000000000E+00 -0.19569387924E+03  0.19569387924E+03  0.00000000000E+00 0.  1.
         35    2    1    2    0    0  0.00000000000E+00 -0.35527136788E-14 -0.10101355859E+03  0.29037419989E+03  0.27223783158E+03 0.  0.
         25    2    3    3    0    0 -0.18545150064E+02  0.30446108557E+02 -0.13207195698E+02  0.13291080331E+03  0.12735762051E+03 0.  0.
         25    2    3    3    0    0  0.18545150064E+02 -0.30446108557E+02 -0.87806362889E+02  0.15746339658E+03  0.12575323368E+03 0.  0.
          5    1    4    4  502    0 -0.23317475588E+02  0.15201079567E+02 -0.69071670663E+02  0.74617445521E+02  0.47000000000E+01 0.  1.
         -5    1    4    4    0  502  0.47723255236E+01  0.15245028989E+02  0.55864474965E+02  0.58293357794E+02  0.47000000000E+01 0.  1.
          5    1    5    5  503    0  0.15134899188E+02  0.27740241781E+02  0.17929475134E+02  0.36635259874E+02  0.47000000000E+01 0. -1.
         -5    1    5    5    0  503  0.34102508763E+01 -0.58186350337E+02 -0.10573583802E+03  0.12082813670E+03  0.47000000000E+01 0. -1.
<mgrwt>
<rscale>  0 0.27223783E+03</rscale>
<asrwt>0</asrwt>
<pdfrwt beam="1">  1        1 0.30106750E-01 0.27223783E+03</pdfrwt>
<pdfrwt beam="2">  1       -1 0.14566203E-01 0.27223783E+03</pdfrwt>
<totfact> 0.50415524E+03</totfact>
</mgrwt>
</event>
<event>
 9    1  0.7986988E-001  0.2746266E+03  0.7818608E-02  0.1098661E+00
         -2   -1    0    0    0  501 -0.00000000000E+00  0.00000000000E+00  0.42235989781E+02  0.42235989781E+02  0.00000000000E+00 0.  1.
          2   -1    0    0  501    0  0.00000000000E+00 -0.00000000000E+00 -0.44641878312E+03  0.44641878312E+03  0.00000000000E+00 0.  1.
         35    2    1    2    0    0 -0.21316282073E-13 -0.35527136788E-14 -0.40418279334E+03  0.48865477291E+03  0.27462657673E+03 0.  0.
         25    2    3    3    0    0  0.50897296642E+02  0.17973844851E+02 -0.17012014426E+03  0.21809209397E+03  0.12533835832E+03 0.  0.
         25    2    3    3    0    0 -0.50897296642E+02 -0.17973844851E+02 -0.23406264909E+03  0.27056267893E+03  0.12452006116E+03 0.  0.
          5    1    4    4  502    0 -0.31872777208E+02  0.29326638883E+02 -0.24079952127E+02  0.49778105323E+02  0.47000000000E+01 0. -1.
         -5    1    4    4    0  502  0.82770073850E+02 -0.11352794031E+02 -0.14604019213E+03  0.16831398865E+03  0.47000000000E+01 0. -1.
          5    1    5    5  503    0  0.25197518803E+02 -0.21724068624E+02 -0.11887470271E+02  0.35640595686E+02  0.47000000000E+01 0. -1.
         -5    1    5    5    0  503 -0.76094815444E+02  0.37502237729E+01 -0.22217517881E+03  0.23492208325E+03  0.47000000000E+01 0. -1.
<mgrwt>
<rscale>  0 0.27462658E+03</rscale>
<asrwt>0</asrwt>
<pdfrwt beam="1">  1        2 0.68679807E-01 0.27462658E+03</pdfrwt>
<pdfrwt beam="2">  1       -2 0.64978451E-02 0.27462658E+03</pdfrwt>
<totfact> 0.91910983E+03</totfact>
</mgrwt>
</event>
<event>
 9    1  0.7986988E-001  0.2776265E+03  0.7818608E-02  0.1096992E+00
         -1   -1    0    0    0  501 -0.00000000000E+00  0.00000000000E+00  0.80226776106E+01  0.80226776106E+01  0.00000000000E+00 0. -1.
          1   -1    0    0  501    0  0.00000000000E+00 -0.00000000000E+00 -0.24018311731E+04  0.24018311731E+04  0.00000000000E+00 0. -1.
         35    2    1    2    0    0 -0.17763568394E-14  0.00000000000E+00 -0.23938084954E+04  0.24098538507E+04  0.27762649136E+03 0.  0.
         25    2    3    3    0    0 -0.49818102969E+00 -0.42179123976E+02 -0.83080695485E+03  0.84125816918E+03  0.12528281726E+03 0.  0.
         25    2    3    3    0    0  0.49818102969E+00  0.42179123976E+02 -0.15630015406E+04  0.15685956815E+04  0.12545624494E+03 0.  0.
          5    1    4    4  502    0 -0.15494544857E+02  0.31506400011E+02 -0.52915883958E+03  0.53034319235E+03  0.47000000000E+01 0. -1.
         -5    1    4    4    0  502  0.14996363827E+02 -0.73685523987E+02 -0.30164811526E+03  0.31091497683E+03  0.47000000000E+01 0. -1.
          5    1    5    5  503    0 -0.46363538993E+02  0.38735262565E+01 -0.11698953441E+04  0.11708295299E+04  0.47000000000E+01 0. -1.
         -5    1    5    5    0  503  0.46861720023E+02  0.38305597720E+02 -0.39310619645E+03  0.39776615154E+03  0.47000000000E+01 0. -1.
<mgrwt>
<rscale>  0 0.27762649E+03</rscale>
<asrwt>0</asrwt>
<pdfrwt beam="1">  1        1 0.36951264E+00 0.27762649E+03</pdfrwt>
<pdfrwt beam="2">  1       -1 0.12342576E-02 0.27762649E+03</pdfrwt>
<totfact> 0.25530812E+03</totfact>
</mgrwt>
</event>
<event>
 9    1  0.7986988E-001  0.2737863E+03  0.7818608E-02  0.1099132E+00
          2   -1    0    0  501    0  0.00000000000E+00  0.00000000000E+00  0.44603566027E+02  0.44603566027E+02  0.00000000000E+00 0.  1.
         -2   -1    0    0    0  501 -0.00000000000E+00 -0.00000000000E+00 -0.42013988801E+03  0.42013988801E+03  0.00000000000E+00 0.  1.
         35    2    1    2    0    0  0.00000000000E+00  0.35527136788E-14 -0.37553632198E+03  0.46474345404E+03  0.27378631986E+03 0.  0.
         25    2    3    3    0    0  0.52830786130E+02 -0.59342844748E+01 -0.14704255893E+03  0.19910052712E+03  0.12326069149E+03 0.  0.
         25    2    3    3    0    0 -0.52830786130E+02  0.59342844748E+01 -0.22849376305E+03  0.26564292692E+03  0.12462125490E+03 0.  0.
          5    1    4    4  502    0 -0.24915539568E+02  0.36990449175E+02 -0.57213638123E+02  0.72695033045E+02  0.47000000000E+01 0. -1.
         -5    1    4    4    0  502  0.77746325698E+02 -0.42924733649E+02 -0.89828920812E+02  0.12640549408E+03  0.47000000000E+01 0. -1.
          5    1    5    5  503    0 -0.73893310960E+02 -0.88061665798E+01 -0.61608285880E+02  0.96723527972E+02  0.47000000000E+01 0.  1.
         -5    1    5    5    0  503  0.21062524829E+02  0.14740451055E+02 -0.16688547717E+03  0.16891939894E+03  0.47000000000E+01 0.  1.
<mgrwt>
<rscale>  0 0.27378632E+03</rscale>
<asrwt>0</asrwt>
<pdfrwt beam="1">  1        2 0.68620871E-02 0.27378632E+03</pdfrwt>
<pdfrwt beam="2">  1       -2 0.64636905E-01 0.27378632E+03</pdfrwt>
<totfact> 0.23377346E+03</totfact>
</mgrwt>
</event>
<event>
 9    1  0.7986988E-001  0.2790411E+03  0.7818608E-02  0.1096214E+00
          1   -1    0    0  501    0  0.00000000000E+00  0.00000000000E+00  0.58930710948E+03  0.58930710948E+03  0.00000000000E+00 0. -1.
         -1   -1    0    0    0  501 -0.00000000000E+00 -0.00000000000E+00 -0.33031985121E+02  0.33031985121E+02  0.00000000000E+00 0. -1.
         35    2    1    2    0    0 -0.71054273576E-14  0.00000000000E+00  0.55627512436E+03  0.62233909460E+03  0.27904109856E+03 0.  0.
         25    2    3    3    0    0  0.43333318869E+02  0.42734467548E+02  0.28703024928E+03  0.31905185772E+03  0.12531445516E+03 0.  0.
         25    2    3    3    0    0 -0.43333318869E+02 -0.42734467548E+02  0.26924487508E+03  0.30328723688E+03  0.12564367894E+03 0.  0.
          5    1    4    4  502    0  0.47948086507E+02 -0.33693613966E+02  0.88816586071E+02  0.10651175796E+03  0.47000000000E+01 0.  1.
         -5    1    4    4    0  502 -0.46147676380E+01  0.76428081513E+02  0.19821366321E+03  0.21254009976E+03  0.47000000000E+01 0.  1.
          5    1    5    5  503    0 -0.38710655421E+02 -0.49278654788E+02  0.28120646105E+03  0.28814243768E+03  0.47000000000E+01 0.  1.
         -5    1    5    5    0  503 -0.46226634476E+01  0.65441872399E+01 -0.11961585965E+02  0.15144799199E+02  0.47000000000E+01 0.  1.
<mgrwt>
<rscale>  0 0.27904110E+03</rscale>
<asrwt>0</asrwt>
<pdfrwt beam="1">  1        1 0.90662625E-01 0.27904110E+03</pdfrwt>
<pdfrwt beam="2">  1       -1 0.50818443E-02 0.27904110E+03</pdfrwt>
<totfact> 0.61747251E+03</totfact>
</mgrwt>
</event>
<event>
 9    1  0.7986988E-001  0.2743931E+03  0.7818608E-02  0.1098791E+00
          1   -1    0    0  501    0  0.00000000000E+00  0.00000000000E+00  0.15738179108E+04  0.15738179108E+04  0.00000000000E+00 0.  1.
         -1   -1    0    0    0  501 -0.00000000000E+00 -0.00000000000E+00 -0.11960019880E+02  0.11960019880E+02  0.00000000000E+00 0.  1.
         35    2    1    2    0    0 -0.35527136788E-14 -0.53290705182E-14  0.15618578909E+04  0.15857779307E+04  0.27439310123E+03 0.  0.
         25    2    3    3    0    0 -0.16087775241E+02 -0.12101551159E+02  0.47497632194E+03  0.49155873209E+03  0.12498886604E+03 0.  0.
         25    2    3    3    0    0  0.16087775241E+02  0.12101551159E+02  0.10868815690E+04  0.10942191986E+04  0.12489533831E+03 0.  0.
          5    1    4    4  502    0 -0.25035630175E+02  0.51269234546E+02  0.29450962861E+03  0.30002221340E+03  0.47000000000E+01 0. -1.
         -5    1    4    4    0  502  0.89478549339E+01 -0.63370785705E+02  0.18046669333E+03  0.19153651868E+03  0.47000000000E+01 0. -1.
          5    1    5    5  503    0 -0.23832526674E+02 -0.15124063613E+02  0.91934592695E+03  0.91979114479E+03  0.47000000000E+01 0.  1.
         -5    1    5    5    0  503  0.39920301915E+02  0.27225614772E+02  0.16753564201E+03  0.17442805379E+03  0.47000000000E+01 0.  1.
<mgrwt>
<rscale>  0 0.27439310E+03</rscale>
<asrwt>0</asrwt>
<pdfrwt beam="1">  1        1 0.24212567E+00 0.27439310E+03</pdfrwt>
<pdfrwt beam="2">  1       -1 0.18400043E-02 0.27439310E+03</pdfrwt>
<totfact> 0.49545551E+03</totfact>
</mgrwt>
</event>
<event>
 9    1  0.7986988E-001  0.2685318E+03  0.7818608E-02  0.1102123E+00
          1   -1    0    0  501    0  0.00000000000E+00  0.00000000000E+00  0.36383821220E+02  0.36383821220E+02  0.00000000000E+00 0. -1.
         -1   -1    0    0    0  501 -0.00000000000E+00 -0.00000000000E+00 -0.49547677174E+03  0.49547677174E+03  0.00000000000E+00 0. -1.
         35    2    1    2    0    0  0.00000000000E+00  0.00000000000E+00 -0.45909295052E+03  0.53186059296E+03  0.26853184751E+03 0.  0.
         25    2    3    3    0    0  0.21383966947E+02  0.96885296255E+00 -0.32243071343E+03  0.34577494233E+03  0.12304687344E+03 0.  0.
         25    2    3    3    0    0 -0.21383966947E+02 -0.96885296255E+00 -0.13666223709E+03  0.18608565063E+03  0.12447124007E+03 0.  0.
          5    1    4    4  502    0 -0.37068611436E+01 -0.41520650201E+02 -0.27143829597E+03  0.27466077938E+03  0.47000000000E+01 0.  1.
         -5    1    4    4    0  502  0.25090828090E+02  0.42489503163E+02 -0.50992417463E+02  0.71114162950E+02  0.47000000000E+01 0.  1.
          5    1    5    5  503    0 -0.27436047336E+02 -0.23042773234E+02  0.10063577831E+02  0.37510954273E+02  0.47000000000E+01 0. -1.
         -5    1    5    5    0  503  0.60520803894E+01  0.22073920271E+02 -0.14672581492E+03  0.14857469635E+03  0.47000000000E+01 0. -1.
<mgrwt>
<rscale>  0 0.26853185E+03</rscale>
<asrwt>0</asrwt>
<pdfrwt beam="1">  1        1 0.55975117E-02 0.26853185E+03</pdfrwt>
<pdfrwt beam="2">  1       -1 0.76227186E-01 0.26853185E+03</pdfrwt>
<totfact> 0.25573255E+03</totfact>
</mgrwt>
</event>
<event>
 9    1  0.7986988E-001  0.2676409E+03  0.7818608E-02  0.1102637E+00
          2   -1    0    0  501    0  0.00000000000E+00  0.00000000000E+00  0.28198025825E+04  0.28198025825E+04  0.00000000000E+00 0.  1.
         -2   -1    0    0    0  501 -0.00000000000E+00 -0.00000000000E+00 -0.63507697295E+01  0.63507697295E+01  0.00000000000E+00 0.  1.
         35    2    1    2    0    0 -0.35527136788E-14  0.00000000000E+00  0.28134518127E+04  0.28261533522E+04  0.26764093023E+03 0.  0.
         25    2    3    3    0    0  0.18590040222E+02  0.43273849993E+02  0.15220935812E+04  0.15279516942E+04  0.12509713860E+03 0.  0.
         25    2    3    3    0    0 -0.18590040222E+02 -0.43273849993E+02  0.12913582315E+04  0.12982016580E+04  0.12451203582E+03 0.  0.
          5    1    4    4  502    0  0.29935808308E+02  0.71734171097E+01  0.87929126471E+02  0.93280393514E+02  0.47000000000E+01 0. -1.
         -5    1    4    4    0  502 -0.11345768086E+02  0.36100432883E+02  0.14341644547E+04  0.14346713007E+04  0.47000000000E+01 0. -1.
          5    1    5    5  503    0 -0.49698597176E+02 -0.23210024992E+02  0.11686335828E+04  0.11699295691E+04  0.47000000000E+01 0.  1.
         -5    1    5    5    0  503  0.31108556954E+02 -0.20063825001E+02  0.12272464875E+03  0.12827208894E+03  0.47000000000E+01 0.  1.
<mgrwt>
<rscale>  0 0.26764093E+03</rscale>
<asrwt>0</asrwt>
<pdfrwt beam="1">  1        2 0.43381478E+00 0.26764093E+03</pdfrwt>
<pdfrwt beam="2">  1       -2 0.97704375E-03 0.26764093E+03</pdfrwt>
<totfact> 0.58551146E+03</totfact>
</mgrwt>
</event>
<event>
 9    1  0.7986988E-001  0.2823355E+03  0.7818608E-02  0.1094420E+00
         -1   -1    0    0    0  501 -0.00000000000E+00  0.00000000000E+00  0.72076187884E+01  0.72076187884E+01  0.00000000000E+00 0.  1.
          1   -1    0    0  501    0  0.00000000000E+00 -0.00000000000E+00 -0.27648976597E+04  0.27648976597E+04  0.00000000000E+00 0.  1.
         35    2    1    2    0    0 -0.71054273576E-14 -0.71054273576E-14 -0.27576900409E+04  0.27721052785E+04  0.28233546231E+03 0.  0.
         25    2    3    3    0    0 -0.53393329972E+02  0.31372069767E+02 -0.11649278807E+04  0.11732274863E+04  0.12478266308E+03 0.  0.
         25    2    3    3    0    0  0.53393329972E+02 -0.31372069767E+02 -0.15927621602E+04  0.15988777922E+04  0.12523514204E+03 0.  0.
          5    1    4    4  502    0 -0.54361782118E+02  0.49577835755E+02 -0.11379146895E+04  0.11403004410E+04  0.47000000000E+01 0. -1.
         -5    1    4    4    0  502  0.96845214590E+00 -0.18205765988E+02 -0.27013191109E+02  0.32927045247E+02  0.47000000000E+01 0. -1.
          5    1    5    5  503    0  0.50993911637E+02 -0.73808034822E+02 -0.12881531152E+04  0.12912817443E+04  0.47000000000E+01 0. -1.
         -5    1    5    5    0  503  0.23994183351E+01  0.42435965055E+02 -0.30460904505E+03  0.30759604787E+03  0.47000000000E+01 0. -1.
<mgrwt>
<rscale>  0 0.28233546E+03</rscale>
<asrwt>0</asrwt>
<pdfrwt beam="1">  1        1 0.42536929E+00 0.28233546E+03</pdfrwt>
<pdfrwt beam="2">  1       -1 0.11088633E-02 0.28233546E+03</pdfrwt>
<totfact> 0.17022075E+03</totfact>
</mgrwt>
</event>
<event>
 9    1  0.7986988E-001  0.2755058E+03  0.7818608E-02  0.1098169E+00
          2   -1    0    0  501    0  0.00000000000E+00  0.00000000000E+00  0.42747482921E+03  0.42747482921E+03  0.00000000000E+00 0. -1.
         -2   -1    0    0    0  501 -0.00000000000E+00 -0.00000000000E+00 -0.44390590019E+02  0.44390590019E+02  0.00000000000E+00 0. -1.
         35    2    1    2    0    0  0.35527136788E-14  0.35527136788E-14  0.38308423919E+03  0.47186541923E+03  0.27550578859E+03 0.  0.
         25    2    3    3    0    0  0.15798013029E+02 -0.37675010294E+01  0.99663296903E+02  0.16171581690E+03  0.12631492947E+03 0.  0.
         25    2    3    3    0    0 -0.15798013029E+02  0.37675010294E+01  0.28342094228E+03  0.31014960232E+03  0.12490626092E+03 0.  0.
          5    1    4    4  502    0  0.28429980668E+02  0.21446108875E+02 -0.18316744919E+02  0.40321117681E+02  0.47000000000E+01 0.  1.
         -5    1    4    4    0  502 -0.12631967639E+02 -0.25213609904E+02  0.11798004182E+03  0.12139469922E+03  0.47000000000E+01 0.  1.
          5    1    5    5  503    0  0.75949251849E+01  0.26489619816E+02  0.27462898229E+03  0.27604809501E+03  0.47000000000E+01 0.  1.
         -5    1    5    5    0  503 -0.23392938214E+02 -0.22722118786E+02  0.87919599961E+01  0.34101507313E+02  0.47000000000E+01 0.  1.
<mgrwt>
<rscale>  0 0.27550579E+03</rscale>
<asrwt>0</asrwt>
<pdfrwt beam="1">  1        2 0.65765356E-01 0.27550579E+03</pdfrwt>
<pdfrwt beam="2">  1       -2 0.68293218E-02 0.27550579E+03</pdfrwt>
<totfact> 0.89272998E+03</totfact>
</mgrwt>
</event>
<event>
 9    1  0.7986988E-001  0.2734861E+03  0.7818608E-02  0.1099301E+00
          2   -1    0    0  501    0  0.00000000000E+00  0.00000000000E+00  0.31718415479E+03  0.31718415479E+03  0.00000000000E+00 0.  1.
         -2   -1    0    0    0  501 -0.00000000000E+00 -0.00000000000E+00 -0.58952086789E+02  0.58952086789E+02  0.00000000000E+00 0.  1.
         35    2    1    2    0    0  0.00000000000E+00  0.00000000000E+00  0.25823206800E+03  0.37613624158E+03  0.27348614459E+03 0.  0.
         25    2    3    3    0    0  0.23498314017E+01  0.30638850470E+01  0.20391200702E+03  0.23924170592E+03  0.12506629500E+03 0.  0.
         25    2    3    3    0    0 -0.23498314017E+01 -0.30638850470E+01  0.54320060980E+02  0.13689453566E+03  0.12559671878E+03 0.  0.
          5    1    4    4  502    0 -0.53813212162E+02  0.18052034504E+02  0.54407586284E+02  0.78765558451E+02  0.47000000000E+01 0.  1.
         -5    1    4    4    0  502  0.56163043563E+02 -0.14988149457E+02  0.14950442074E+03  0.16047614747E+03  0.47000000000E+01 0.  1.
          5    1    5    5  503    0  0.21394429454E+02 -0.31953963985E+02 -0.27029367159E+02  0.47238269602E+02  0.47000000000E+01 0.  1.
         -5    1    5    5    0  503 -0.23744260856E+02  0.28890078938E+02  0.81349428139E+02  0.89656266056E+02  0.47000000000E+01 0.  1.
<mgrwt>
<rscale>  0 0.27348614E+03</rscale>
<asrwt>0</asrwt>
<pdfrwt beam="1">  1        2 0.48797561E-01 0.27348614E+03</pdfrwt>
<pdfrwt beam="2">  1       -2 0.90695520E-02 0.27348614E+03</pdfrwt>
<totfact> 0.79176712E+03</totfact>
</mgrwt>
</event>
<event>
 9    1  0.7986988E-001  0.2826607E+03  0.7818608E-02  0.1094245E+00
          2   -1    0    0  501    0  0.00000000000E+00  0.00000000000E+00  0.92511355218E+03  0.92511355218E+03  0.00000000000E+00 0.  1.
         -2   -1    0    0    0  501 -0.00000000000E+00 -0.00000000000E+00 -0.21591159955E+02  0.21591159955E+02  0.00000000000E+00 0.  1.
         35    2    1    2    0    0  0.00000000000E+00  0.17763568394E-14  0.90352239223E+03  0.94670471214E+03  0.28266074847E+03 0.  0.
         25    2    3    3    0    0  0.18264763903E+02  0.15711409385E+02  0.24929848204E+03  0.27980657827E+03  0.12474589416E+03 0.  0.
         25    2    3    3    0    0 -0.18264763903E+02 -0.15711409385E+02  0.65422391019E+03  0.66689813387E+03  0.12713672291E+03 0.  0.
          5    1    4    4  502    0  0.22459285698E+02  0.68632351108E+02  0.12275110913E+03  0.14249471543E+03  0.47000000000E+01 0. -1.
         -5    1    4    4    0  502 -0.41945217952E+01 -0.52920941723E+02  0.12654737291E+03  0.13731186284E+03  0.47000000000E+01 0. -1.
          5    1    5    5  503    0 -0.59430609595E+02 -0.25939416030E+02  0.55619914056E+03  0.55998609324E+03  0.47000000000E+01 0.  1.
         -5    1    5    5    0  503  0.41165845692E+02  0.10228006645E+02  0.98024769629E+02  0.10691204063E+03  0.47000000000E+01 0.  1.
<mgrwt>
<rscale>  0 0.28266075E+03</rscale>
<asrwt>0</asrwt>
<pdfrwt beam="1">  1        2 0.14232513E+00 0.28266075E+03</pdfrwt>
<pdfrwt beam="2">  1       -2 0.33217176E-02 0.28266075E+03</pdfrwt>
<totfact> 0.10624321E+04</totfact>
</mgrwt>
</event>
<event>
 9    1  0.7986988E-001  0.2654483E+03  0.7818608E-02  0.1103913E+00
         -1   -1    0    0    0  501 -0.00000000000E+00  0.00000000000E+00  0.13232517329E+02  0.13232517329E+02  0.00000000000E+00 0. -1.
          1   -1    0    0  501    0  0.00000000000E+00 -0.00000000000E+00 -0.13312434506E+04  0.13312434506E+04  0.00000000000E+00 0. -1.
         35    2    1    2    0    0 -0.71054273576E-14  0.00000000000E+00 -0.13180109332E+04  0.13444759679E+04  0.26544831533E+03 0.  0.
         25    2    3    3    0    0  0.36444864400E+02  0.34139811599E+01 -0.79145387216E+03  0.80207915528E+03  0.12486735428E+03 0.  0.
         25    2    3    3    0    0 -0.36444864400E+02 -0.34139811599E+01 -0.52655706108E+03  0.54239681262E+03  0.12486825201E+03 0.  0.
          5    1    4    4  502    0  0.19107442555E+02  0.63969739998E+02 -0.41584574557E+03  0.42119709888E+03  0.47000000000E+01 0.  1.
         -5    1    4    4    0  502  0.17337421845E+02 -0.60555758838E+02 -0.37560812660E+03  0.38088205640E+03  0.47000000000E+01 0.  1.
          5    1    5    5  503    0 -0.31731464429E+02  0.46901496602E+02 -0.42584086876E+03  0.42961514373E+03  0.47000000000E+01 0.  1.
         -5    1    5    5    0  503 -0.47133999714E+01 -0.50315477762E+02 -0.10071619232E+03  0.11278166889E+03  0.47000000000E+01 0.  1.
<mgrwt>
<rscale>  0 0.26544832E+03</rscale>
<asrwt>0</asrwt>
<pdfrwt beam="1">  1        1 0.20480670E+00 0.26544832E+03</pdfrwt>
<pdfrwt beam="2">  1       -1 0.20357717E-02 0.26544832E+03</pdfrwt>
<totfact> 0.62017815E+03</totfact>
</mgrwt>
</event>
<event>
 9    1  0.7986988E-001  0.2771112E+03  0.7818608E-02  0.1097277E+00
          2   -1    0    0  501    0  0.00000000000E+00  0.00000000000E+00  0.28588223242E+04  0.28588223242E+04  0.00000000000E+00 0.  1.
         -2   -1    0    0    0  501 -0.00000000000E+00 -0.00000000000E+00 -0.67152317882E+01  0.67152317882E+01  0.00000000000E+00 0.  1.
         35    2    1    2    0    0  0.00000000000E+00  0.00000000000E+00  0.28521070924E+04  0.28655375560E+04  0.27711120185E+03 0.  0.
         25    2    3    3    0    0  0.35759949087E+02 -0.38373513955E+02  0.16998312150E+04  0.17052542666E+04  0.12535810224E+03 0.  0.
         25    2    3    3    0    0 -0.35759949087E+02  0.38373513955E+02  0.11522758774E+04  0.11602832893E+04  0.12556398128E+03 0.  0.
          5    1    4    4  502    0  0.38903527702E+02 -0.60837265128E+02  0.16314866037E+04  0.16330907156E+04  0.47000000000E+01 0.  1.
         -5    1    4    4    0  502 -0.31435786150E+01  0.22463751173E+02  0.68344611325E+02  0.72163551052E+02  0.47000000000E+01 0.  1.
          5    1    5    5  503    0 -0.51147229701E+01 -0.47695874568E+01  0.97921399480E+03  0.97925024737E+03  0.47000000000E+01 0.  1.
         -5    1    5    5    0  503 -0.30645226117E+02  0.43143101412E+02  0.17306188256E+03  0.18103304195E+03  0.47000000000E+01 0.  1.
<mgrwt>
<rscale>  0 0.27711120E+03</rscale>
<asrwt>0</asrwt>
<pdfrwt beam="1">  1        2 0.43981785E+00 0.27711120E+03</pdfrwt>
<pdfrwt beam="2">  1       -2 0.10331149E-02 0.27711120E+03</pdfrwt>
<totfact> 0.51243537E+03</totfact>
</mgrwt>
</event>
<event>
 9    1  0.7986988E-001  0.2756653E+03  0.7818608E-02  0.1098080E+00
         -2   -1    0    0    0  501 -0.00000000000E+00  0.00000000000E+00  0.32887627398E+03  0.32887627398E+03  0.00000000000E+00 0. -1.
          2   -1    0    0  501    0  0.00000000000E+00 -0.00000000000E+00 -0.57765930253E+02  0.57765930253E+02  0.00000000000E+00 0. -1.
         35    2    1    2    0    0  0.00000000000E+00  0.00000000000E+00  0.27111034373E+03  0.38664220423E+03  0.27566533264E+03 0.  0.
         25    2    3    3    0    0 -0.11003647644E+02 -0.95256484391E+01  0.22201810107E+03  0.25527717999E+03  0.12515024244E+03 0.  0.
         25    2    3    3    0    0  0.11003647644E+02  0.95256484391E+01  0.49092242660E+02  0.13136502424E+03  0.12097480343E+03 0.  0.
          5    1    4    4  502    0 -0.45566195464E+02  0.30439307376E+02  0.46834194966E+02  0.72238226866E+02  0.47000000000E+01 0.  1.
         -5    1    4    4    0  502  0.34562547820E+02 -0.39964955815E+02  0.17518390610E+03  0.18303895313E+03  0.47000000000E+01 0.  1.
          5    1    5    5  503    0 -0.50370910291E+02  0.27151406337E+02  0.17883684774E+02  0.60136042859E+02  0.47000000000E+01 0. -1.
         -5    1    5    5    0  503  0.61374557936E+02 -0.17625757898E+02  0.31208557887E+02  0.71228981381E+02  0.47000000000E+01 0. -1.
<mgrwt>
<rscale>  0 0.27566533E+03</rscale>
<asrwt>0</asrwt>
<pdfrwt beam="1">  1        2 0.88870664E-02 0.27566533E+03</pdfrwt>
<pdfrwt beam="2">  1       -2 0.50596349E-01 0.27566533E+03</pdfrwt>
<totfact> 0.27795129E+03</totfact>
</mgrwt>
</event>
<event>
 9    1  0.7986988E-001  0.2768547E+03  0.7818608E-02  0.1097419E+00
          1   -1    0    0  501    0  0.00000000000E+00  0.00000000000E+00  0.44964878939E+03  0.44964878939E+03  0.00000000000E+00 0.  1.
         -1   -1    0    0    0  501 -0.00000000000E+00 -0.00000000000E+00 -0.42615778247E+02  0.42615778247E+02  0.00000000000E+00 0.  1.
         35    2    1    2    0    0  0.00000000000E+00  0.00000000000E+00  0.40703301114E+03  0.49226456764E+03  0.27685471351E+03 0.  0.
         25    2    3    3    0    0  0.17368601892E+02 -0.49111904475E+02  0.25782845935E+03  0.29171420533E+03  0.12612698223E+03 0.  0.
         25    2    3    3    0    0 -0.17368601892E+02  0.49111904475E+02  0.14920455179E+03  0.20055036231E+03  0.12346984269E+03 0.  0.
          5    1    4    4  502    0  0.47657194073E+02 -0.22949309807E+02  0.24306224539E+03  0.24879554679E+03  0.47000000000E+01 0. -1.
         -5    1    4    4    0  502 -0.30288592181E+02 -0.26162594668E+02  0.14766213961E+02  0.42918658540E+02  0.47000000000E+01 0. -1.
          5    1    5    5  503    0 -0.59324972412E+02  0.52532303685E+02  0.53036839578E+02  0.95467751804E+02  0.47000000000E+01 0.  1.
         -5    1    5    5    0  503  0.41956370520E+02 -0.34203992098E+01  0.96167712216E+02  0.10508261051E+03  0.47000000000E+01 0.  1.
<mgrwt>
<rscale>  0 0.27685471E+03</rscale>
<asrwt>0</asrwt>
<pdfrwt beam="1">  1        1 0.69176734E-01 0.27685471E+03</pdfrwt>
<pdfrwt beam="2">  1       -1 0.65562739E-02 0.27685471E+03</pdfrwt>
<totfact> 0.60416580E+03</totfact>
</mgrwt>
</event>
<event>
 9    1  0.7986988E-001  0.2739403E+03  0.7818608E-02  0.1099045E+00
         -1   -1    0    0    0  501 -0.00000000000E+00  0.00000000000E+00  0.91241972258E+02  0.91241972258E+02  0.00000000000E+00 0. -1.
          1   -1    0    0  501    0  0.00000000000E+00 -0.00000000000E+00 -0.20561613932E+03  0.20561613932E+03  0.00000000000E+00 0. -1.
         35    2    1    2    0    0  0.00000000000E+00  0.35527136788E-14 -0.11437416707E+03  0.29685811158E+03  0.27394030065E+03 0.  0.
         25    2    3    3    0    0 -0.57187233739E+01  0.28536285874E+02 -0.39508662700E+01  0.12829288563E+03  0.12488567472E+03 0.  0.
         25    2    3    3    0    0  0.57187233739E+01 -0.28536285874E+02 -0.11042330080E+03  0.16856522595E+03  0.12399155872E+03 0.  0.
          5    1    4    4  502    0 -0.62058435145E+02  0.32841459902E+02  0.63871724590E+01  0.70659018060E+02  0.47000000000E+01 0.  1.
         -5    1    4    4    0  502  0.56339711771E+02 -0.43051740278E+01 -0.10338038729E+02  0.57633867566E+02  0.47000000000E+01 0.  1.
          5    1    5    5  503    0  0.46812767999E+02 -0.28056881961E+02 -0.11457105174E+03  0.12699306977E+03  0.47000000000E+01 0.  1.
         -5    1    5    5    0  503 -0.41094044626E+02 -0.47940391323E+00  0.41477509454E+01  0.41572156183E+02  0.47000000000E+01 0.  1.
<mgrwt>
<rscale>  0 0.27394030E+03</rscale>
<asrwt>0</asrwt>
<pdfrwt beam="1">  1        1 0.31633252E-01 0.27394030E+03</pdfrwt>
<pdfrwt beam="2">  1       -1 0.14037226E-01 0.27394030E+03</pdfrwt>
<totfact> 0.50231621E+03</totfact>
</mgrwt>
</event>
<event>
 9    1  0.7986988E-001  0.2725111E+03  0.7818608E-02  0.1099851E+00
         -1   -1    0    0    0  501 -0.00000000000E+00  0.00000000000E+00  0.36110077862E+03  0.36110077862E+03  0.00000000000E+00 0.  1.
          1   -1    0    0  501    0  0.00000000000E+00 -0.00000000000E+00 -0.51413822061E+02  0.51413822061E+02  0.00000000000E+00 0.  1.
         35    2    1    2    0    0 -0.35527136788E-14  0.00000000000E+00  0.30968695655E+03  0.41251460068E+03  0.27251107264E+03 0.  0.
         25    2    3    3    0    0 -0.20332782866E+02  0.26799124177E+02  0.21986154829E+03  0.25497409679E+03  0.12466384600E+03 0.  0.
         25    2    3    3    0    0  0.20332782866E+02 -0.26799124177E+02  0.89825408266E+02  0.15754050389E+03  0.12497516265E+03 0.  0.
          5    1    4    4  502    0 -0.57759436563E+02 -0.19696731850E+02  0.66703772380E+02  0.90529536658E+02  0.47000000000E+01 0.  1.
         -5    1    4    4    0  502  0.37426653697E+02  0.46495856027E+02  0.15315777591E+03  0.16444456013E+03  0.47000000000E+01 0.  1.
          5    1    5    5  503    0 -0.26346700412E+02 -0.60853961870E+01 -0.21569430741E+02  0.34907177083E+02  0.47000000000E+01 0.  1.
         -5    1    5    5    0  503  0.46679483279E+02 -0.20713727990E+02  0.11139483901E+03  0.12263332681E+03  0.47000000000E+01 0.  1.
<mgrwt>
<rscale>  0 0.27251107E+03</rscale>
<asrwt>0</asrwt>
<pdfrwt beam="1">  1        1 0.79098190E-02 0.27251107E+03</pdfrwt>
<pdfrwt beam="2">  1       -1 0.55553964E-01 0.27251107E+03</pdfrwt>
<totfact> 0.29642803E+03</totfact>
</mgrwt>
</event>
<event>
 9    1  0.7986988E-001  0.2740324E+03  0.7818608E-02  0.1098994E+00
         -2   -1    0    0    0  501 -0.00000000000E+00  0.00000000000E+00  0.35997071809E+02  0.35997071809E+02  0.00000000000E+00 0. -1.
          2   -1    0    0  501    0  0.00000000000E+00 -0.00000000000E+00 -0.52152691662E+03  0.52152691662E+03  0.00000000000E+00 0. -1.
         35    2    1    2    0    0  0.71054273576E-14 -0.71054273576E-14 -0.48552984482E+03  0.55752398843E+03  0.27403242048E+03 0.  0.
         25    2    3    3    0    0 -0.25676638974E+02  0.45881978635E+02 -0.20555328635E+03  0.24623408545E+03  0.12495849534E+03 0.  0.
         25    2    3    3    0    0  0.25676638974E+02 -0.45881978635E+02 -0.27997655847E+03  0.31128990298E+03  0.12549934125E+03 0.  0.
          5    1    4    4  502    0 -0.45043705887E+01  0.87923519375E+02 -0.13822282750E+03  0.16394656037E+03  0.47000000000E+01 0. -1.
         -5    1    4    4    0  502 -0.21172268386E+02 -0.42041540740E+02 -0.67330458842E+02  0.82287525082E+02  0.47000000000E+01 0. -1.
          5    1    5    5  503    0 -0.18433060994E+02  0.19229467689E+00 -0.22822657810E+03  0.22901806843E+03  0.47000000000E+01 0. -1.
         -5    1    5    5    0  503  0.44109699969E+02 -0.46074273312E+02 -0.51749980369E+02  0.82271834554E+02  0.47000000000E+01 0. -1.
<mgrwt>
<rscale>  0 0.27403242E+03</rscale>
<asrwt>0</asrwt>
<pdfrwt beam="1">  1        2 0.80234910E-01 0.27403242E+03</pdfrwt>
<pdfrwt beam="2">  1       -2 0.55380111E-02 0.27403242E+03</pdfrwt>
<totfact> 0.98784467E+03</totfact>
</mgrwt>
</event>
<event>
 9    1  0.7986988E-001  0.2752779E+03  0.7818608E-02  0.1098296E+00
         -2   -1    0    0    0  501 -0.00000000000E+00  0.00000000000E+00  0.87599314211E+01  0.87599314211E+01  0.00000000000E+00 0. -1.
          2   -1    0    0  501    0  0.00000000000E+00 -0.00000000000E+00 -0.21626281937E+04  0.21626281937E+04  0.00000000000E+00 0. -1.
         35    2    1    2    0    0 -0.17763568394E-14  0.71054273576E-14 -0.21538682623E+04  0.21713881252E+04  0.27527785720E+03 0.  0.
         25    2    3    3    0    0 -0.63243069474E+01 -0.46457322246E+01 -0.64239898412E+03  0.65461703193E+03  0.12564005732E+03 0.  0.
         25    2    3    3    0    0  0.63243069474E+01  0.46457322246E+01 -0.15114692782E+04  0.15167710932E+04  0.12646576869E+03 0.  0.
          5    1    4    4  502    0  0.41346087231E+02 -0.39298437706E+02 -0.19185737722E+03  0.20021291000E+03  0.47000000000E+01 0. -1.
         -5    1    4    4    0  502 -0.47670394178E+02  0.34652705482E+02 -0.45054160690E+03  0.45440412193E+03  0.47000000000E+01 0. -1.
          5    1    5    5  503    0 -0.52673712323E+01 -0.26480972637E+02 -0.14022139641E+04  0.14024817568E+04  0.47000000000E+01 0. -1.
         -5    1    5    5    0  503  0.11591678180E+02  0.31126704862E+02 -0.10925531414E+03  0.11428933645E+03  0.47000000000E+01 0. -1.
<mgrwt>
<rscale>  0 0.27527786E+03</rscale>
<asrwt>0</asrwt>
<pdfrwt beam="1">  1        2 0.33271185E+00 0.27527786E+03</pdfrwt>
<pdfrwt beam="2">  1       -2 0.13476825E-02 0.27527786E+03</pdfrwt>
<totfact> 0.84113364E+03</totfact>
</mgrwt>
</event>
<event>
 9    1  0.7986988E-001  0.2756164E+03  0.7818608E-02  0.1098108E+00
          1   -1    0    0  501    0  0.00000000000E+00  0.00000000000E+00  0.14580134114E+04  0.14580134114E+04  0.00000000000E+00 0.  1.
         -1   -1    0    0    0  501 -0.00000000000E+00 -0.00000000000E+00 -0.13025327387E+02  0.13025327387E+02  0.00000000000E+00 0.  1.
         35    2    1    2    0    0  0.00000000000E+00  0.35527136788E-14  0.14449880841E+04  0.14710387388E+04  0.27561641474E+03 0.  0.
         25    2    3    3    0    0 -0.43807556639E+02 -0.18225542018E+02  0.54654944351E+03  0.56262814967E+03  0.12483135903E+03 0.  0.
         25    2    3    3    0    0  0.43807556639E+02  0.18225542018E+02  0.89843864055E+03  0.90841058916E+03  0.12556486481E+03 0.  0.
          5    1    4    4  502    0  0.35078979580E+02 -0.36244548605E+02  0.25713646295E+03  0.26207909625E+03  0.47000000000E+01 0.  1.
         -5    1    4    4    0  502 -0.78886536219E+02  0.18019006587E+02  0.28941298056E+03  0.30054905342E+03  0.47000000000E+01 0.  1.
          5    1    5    5  503    0 -0.36819205505E+02  0.33918275713E+02  0.41295979248E+03  0.41600959548E+03  0.47000000000E+01 0.  1.
         -5    1    5    5    0  503  0.80626762145E+02 -0.15692733695E+02  0.48547884807E+03  0.49240099369E+03  0.47000000000E+01 0.  1.
<mgrwt>
<rscale>  0 0.27561641E+03</rscale>
<asrwt>0</asrwt>
<pdfrwt beam="1">  1        1 0.22430963E+00 0.27561641E+03</pdfrwt>
<pdfrwt beam="2">  1       -1 0.20038977E-02 0.27561641E+03</pdfrwt>
<totfact> 0.52183144E+03</totfact>
</mgrwt>
</event>
<event>
 9    1  0.7986988E-001  0.2770502E+03  0.7818608E-02  0.1097311E+00
          1   -1    0    0  501    0  0.00000000000E+00  0.00000000000E+00  0.12276404479E+03  0.12276404479E+03  0.00000000000E+00 0.  1.
         -1   -1    0    0    0  501 -0.00000000000E+00 -0.00000000000E+00 -0.15630960690E+03  0.15630960690E+03  0.00000000000E+00 0.  1.
         35    2    1    2    0    0 -0.71054273576E-14  0.00000000000E+00 -0.33545562106E+02  0.27907365169E+03  0.27705017294E+03 0.  0.
         25    2    3    3    0    0  0.35074692575E+02 -0.35105850464E+02 -0.50055472116E+02  0.14355929828E+03  0.12506425164E+03 0.  0.
         25    2    3    3    0    0 -0.35074692575E+02  0.35105850464E+02  0.16509910010E+02  0.13551435341E+03  0.12501563124E+03 0.  0.
          5    1    4    4  502    0  0.75164747514E+02 -0.32312977407E+02 -0.37071496053E+01  0.82034753220E+02  0.47000000000E+01 0. -1.
         -5    1    4    4    0  502 -0.40090054939E+02 -0.27928730570E+01 -0.46348322510E+02  0.61524545057E+02  0.47000000000E+01 0. -1.
          5    1    5    5  503    0  0.18592880291E+02  0.32185087032E+02 -0.41759696417E+02  0.56102916766E+02  0.47000000000E+01 0.  1.
         -5    1    5    5    0  503 -0.53667572866E+02  0.29207634317E+01  0.58269606427E+02  0.79411436642E+02  0.47000000000E+01 0.  1.
<mgrwt>
<rscale>  0 0.27705017E+03</rscale>
<asrwt>0</asrwt>
<pdfrwt beam="1">  1        1 0.18886776E-01 0.27705017E+03</pdfrwt>
<pdfrwt beam="2">  1       -1 0.24047632E-01 0.27705017E+03</pdfrwt>
<totfact> 0.40661435E+03</totfact>
</mgrwt>
</event>
<event>
 9    1  0.7986988E-001  0.2738251E+03  0.7818608E-02  0.1099110E+00
          1   -1    0    0  501    0  0.00000000000E+00  0.00000000000E+00  0.19044506091E+03  0.19044506091E+03  0.00000000000E+00 0. -1.
         -1   -1    0    0    0  501 -0.00000000000E+00 -0.00000000000E+00 -0.98427590330E+02  0.98427590330E+02  0.00000000000E+00 0. -1.
         35    2    1    2    0    0  0.35527136788E-14 -0.71054273576E-14  0.92017470585E+02  0.28887265125E+03  0.27382511526E+03 0.  0.
         25    2    3    3    0    0 -0.30527149311E+02  0.38977189526E+02  0.18201355364E+02  0.13612243548E+03  0.12548665250E+03 0.  0.
         25    2    3    3    0    0  0.30527149311E+02 -0.38977189526E+02  0.73816115221E+02  0.15275021576E+03  0.12422834379E+03 0.  0.
          5    1    4    4  502    0 -0.47597854086E+02  0.59474035064E+01 -0.42846651757E+02  0.64489168772E+02  0.47000000000E+01 0.  1.
         -5    1    4    4    0  502  0.17070704775E+02  0.33029786019E+02  0.61048007121E+02  0.71633266709E+02  0.47000000000E+01 0.  1.
          5    1    5    5  503    0  0.63776704522E+02 -0.16865280584E+02  0.88029547989E+02  0.11010539064E+03  0.47000000000E+01 0.  1.
         -5    1    5    5    0  503 -0.33249555212E+02 -0.22111908942E+02 -0.14213432768E+02  0.42644825124E+02  0.47000000000E+01 0.  1.
<mgrwt>
<rscale>  0 0.27382512E+03</rscale>
<asrwt>0</asrwt>
<pdfrwt beam="1">  1        1 0.29299240E-01 0.27382512E+03</pdfrwt>
<pdfrwt beam="2">  1       -1 0.15142706E-01 0.27382512E+03</pdfrwt>
<totfact> 0.49070952E+03</totfact>
</mgrwt>
</event>
<event>
 9    1  0.7986988E-001  0.2785314E+03  0.7818608E-02  0.1096494E+00
          2   -1    0    0  501    0  0.00000000000E+00  0.00000000000E+00  0.32963255394E+03  0.32963255394E+03  0.00000000000E+00 0. -1.
         -2   -1    0    0    0  501 -0.00000000000E+00 -0.00000000000E+00 -0.58838056683E+02  0.58838056683E+02  0.00000000000E+00 0. -1.
         35    2    1    2    0    0  0.88817841970E-15 -0.71054273576E-14  0.27079449726E+03  0.38847061063E+03  0.27853142655E+03 0.  0.
         25    2    3    3    0    0 -0.30508267455E+01  0.54937504655E+02  0.85263537788E+02  0.15815037919E+03  0.12130224483E+03 0.  0.
         25    2    3    3    0    0  0.30508267455E+01 -0.54937504655E+02  0.18553095947E+03  0.23032023144E+03  0.12489289461E+03 0.  0.
          5    1    4    4  502    0 -0.15877583061E+02 -0.22694566855E+02  0.73202510157E+02  0.78408153287E+02  0.47000000000E+01 0.  1.
         -5    1    4    4    0  502  0.12826756315E+02  0.77632071510E+02  0.12061027631E+02  0.79742225903E+02  0.47000000000E+01 0.  1.
          5    1    5    5  503    0  0.13682455222E+01 -0.89099100998E+01 -0.18496334384E+02  0.21105993922E+02  0.47000000000E+01 0. -1.
         -5    1    5    5    0  503  0.16825812233E+01 -0.46027594555E+02  0.20402729386E+03  0.20921423752E+03  0.47000000000E+01 0. -1.
<mgrwt>
<rscale>  0 0.27853143E+03</rscale>
<asrwt>0</asrwt>
<pdfrwt beam="1">  1        2 0.50712700E-01 0.27853143E+03</pdfrwt>
<pdfrwt beam="2">  1       -2 0.90520089E-02 0.27853143E+03</pdfrwt>
<totfact> 0.76247871E+03</totfact>
</mgrwt>
</event>
<event>
 9    1  0.7986988E-001  0.2838603E+03  0.7818608E-02  0.1093599E+00
         -2   -1    0    0    0  501 -0.00000000000E+00  0.00000000000E+00  0.26800842834E+02  0.26800842834E+02  0.00000000000E+00 0.  1.
          2   -1    0    0  501    0  0.00000000000E+00 -0.00000000000E+00 -0.75162426708E+03  0.75162426708E+03  0.00000000000E+00 0.  1.
         35    2    1    2    0    0  0.71054273576E-14  0.00000000000E+00 -0.72482342425E+03  0.77842510991E+03  0.28386027444E+03 0.  0.
         25    2    3    3    0    0  0.56728364094E+02 -0.32950327390E+02 -0.32469774443E+03  0.35423277336E+03  0.12549263372E+03 0.  0.
         25    2    3    3    0    0 -0.56728364094E+02  0.32950327390E+02 -0.40012567982E+03  0.42419233655E+03  0.12463846666E+03 0.  0.
          5    1    4    4  502    0  0.43062790563E+02 -0.80681501552E+02 -0.21815065477E+03  0.23659185700E+03  0.47000000000E+01 0.  1.
         -5    1    4    4    0  502  0.13665573531E+02  0.47731174162E+02 -0.10654708966E+03  0.11764091636E+03  0.47000000000E+01 0.  1.
          5    1    5    5  503    0  0.18598004077E+02  0.24136801685E+02 -0.28237347686E+03  0.28405165267E+03  0.47000000000E+01 0.  1.
         -5    1    5    5    0  503 -0.75326368171E+02  0.88135257054E+01 -0.11775220296E+03  0.14014068388E+03  0.47000000000E+01 0.  1.
<mgrwt>
<rscale>  0 0.28386027E+03</rscale>
<asrwt>0</asrwt>
<pdfrwt beam="1">  1        2 0.11563449E+00 0.28386027E+03</pdfrwt>
<pdfrwt beam="2">  1       -2 0.41232069E-02 0.28386027E+03</pdfrwt>
<totfact> 0.10058467E+04</totfact>
</mgrwt>
</event>
<event>
 9    1  0.7986988E-001  0.2756199E+03  0.7818608E-02  0.1098106E+00
         -1   -1    0    0    0  501 -0.00000000000E+00  0.00000000000E+00  0.16166131195E+02  0.16166131195E+02  0.00000000000E+00 0. -1.
          1   -1    0    0  501    0  0.00000000000E+00 -0.00000000000E+00 -0.11747762726E+04  0.11747762726E+04  0.00000000000E+00 0. -1.
         35    2    1    2    0    0 -0.71054273576E-14  0.00000000000E+00 -0.11586101414E+04  0.11909424038E+04  0.27561993649E+03 0.  0.
         25    2    3    3    0    0  0.30566432274E+02 -0.48851508043E+02 -0.60706171880E+03  0.62214316207E+03  0.12335885482E+03 0.  0.
         25    2    3    3    0    0 -0.30566432274E+02  0.48851508043E+02 -0.55154842258E+03  0.56879924169E+03  0.12651536777E+03 0.  0.
          5    1    4    4  502    0  0.10487120418E+02 -0.89616877957E+02 -0.41533450859E+03  0.42504824259E+03  0.47000000000E+01 0. -1.
         -5    1    4    4    0  502  0.20079311856E+02  0.40765369914E+02 -0.19172721021E+03  0.19709491948E+03  0.47000000000E+01 0. -1.
          5    1    5    5  503    0 -0.77072460830E+02  0.93673350952E+01 -0.31640948802E+03  0.32582965686E+03  0.47000000000E+01 0. -1.
         -5    1    5    5    0  503  0.46506028556E+02  0.39484172947E+02 -0.23513893456E+03  0.24296958483E+03  0.47000000000E+01 0. -1.
<mgrwt>
<rscale>  0 0.27561994E+03</rscale>
<asrwt>0</asrwt>
<pdfrwt beam="1">  1        1 0.18073483E+00 0.27561994E+03</pdfrwt>
<pdfrwt beam="2">  1       -1 0.24870968E-02 0.27561994E+03</pdfrwt>
<totfact> 0.59352002E+03</totfact>
</mgrwt>
</event>
<event>
 9    1  0.7986988E-001  0.2728491E+03  0.7818608E-02  0.1099660E+00
          2   -1    0    0  501    0  0.00000000000E+00  0.00000000000E+00  0.13619184816E+04  0.13619184816E+04  0.00000000000E+00 0. -1.
         -2   -1    0    0    0  501 -0.00000000000E+00 -0.00000000000E+00 -0.13665768266E+02  0.13665768266E+02  0.00000000000E+00 0. -1.
         35    2    1    2    0    0  0.71054273576E-14  0.35527136788E-14  0.13482527133E+04  0.13755842499E+04  0.27284913316E+03 0.  0.
         25    2    3    3    0    0 -0.34539895527E+02  0.28158866269E+02  0.81557149149E+03  0.82638303256E+03  0.12556326149E+03 0.  0.
         25    2    3    3    0    0  0.34539895527E+02 -0.28158866269E+02  0.53268122185E+03  0.54920121731E+03  0.12604271837E+03 0.  0.
          5    1    4    4  502    0 -0.74335898789E+02  0.58591915067E+01  0.65934628305E+03  0.66356594769E+03  0.47000000000E+01 0. -1.
         -5    1    4    4    0  502  0.39796003262E+02  0.22299674762E+02  0.15622520845E+03  0.16281708487E+03  0.47000000000E+01 0. -1.
          5    1    5    5  503    0 -0.36409149602E+02  0.24603527346E+02  0.20949676444E+03  0.21410731898E+03  0.47000000000E+01 0.  1.
         -5    1    5    5    0  503  0.70949045129E+02 -0.52762393615E+02  0.32318445741E+03  0.33509389833E+03  0.47000000000E+01 0.  1.
<mgrwt>
<rscale>  0 0.27284913E+03</rscale>
<asrwt>0</asrwt>
<pdfrwt beam="1">  1        2 0.20952581E+00 0.27284913E+03</pdfrwt>
<pdfrwt beam="2">  1       -2 0.21024270E-02 0.27284913E+03</pdfrwt>
<totfact> 0.11636231E+04</totfact>
</mgrwt>
</event>
<event>
 9    1  0.7986988E-001  0.2720881E+03  0.7818608E-02  0.1100090E+00
          2   -1    0    0  501    0  0.00000000000E+00  0.00000000000E+00  0.81431563903E+02  0.81431563903E+02  0.00000000000E+00 0.  1.
         -2   -1    0    0    0  501 -0.00000000000E+00 -0.00000000000E+00 -0.22728259521E+03  0.22728259521E+03  0.00000000000E+00 0.  1.
         35    2    1    2    0    0  0.88817841970E-15  0.17763568394E-14 -0.14585103131E+03  0.30871415911E+03  0.27208805322E+03 0.  0.
         25    2    3    3    0    0 -0.50629167774E+01 -0.10478951137E+02 -0.13198118933E+03  0.18204656071E+03  0.12484580244E+03 0.  0.
         25    2    3    3    0    0  0.50629167774E+01  0.10478951137E+02 -0.13869841975E+02  0.12666759840E+03  0.12536692716E+03 0.  0.
          5    1    4    4  502    0 -0.56853248492E+01  0.57109625355E+02 -0.58120290870E+02  0.81816199115E+02  0.47000000000E+01 0. -1.
         -5    1    4    4    0  502  0.62240807179E+00 -0.67588576493E+02 -0.73860898461E+02  0.10023036160E+03  0.47000000000E+01 0. -1.
          5    1    5    5  503    0  0.63620041735E+02 -0.61594297027E+01 -0.15636671646E+00  0.64090270207E+02  0.47000000000E+01 0. -1.
         -5    1    5    5    0  503 -0.58557124958E+02  0.16638380840E+02 -0.13713475258E+02  0.62577328194E+02  0.47000000000E+01 0. -1.
<mgrwt>
<rscale>  0 0.27208805E+03</rscale>
<asrwt>0</asrwt>
<pdfrwt beam="1">  1        2 0.12527933E-01 0.27208805E+03</pdfrwt>
<pdfrwt beam="2">  1       -2 0.34966553E-01 0.27208805E+03</pdfrwt>
<totfact> 0.37089215E+03</totfact>
</mgrwt>
</event>
<event>
 9    1  0.7986988E-001  0.2737435E+03  0.7818608E-02  0.1099156E+00
          1   -1    0    0  501    0  0.00000000000E+00  0.00000000000E+00  0.27720713754E+03  0.27720713754E+03  0.00000000000E+00 0.  1.
         -1   -1    0    0    0  501 -0.00000000000E+00 -0.00000000000E+00 -0.67580805109E+02  0.67580805109E+02  0.00000000000E+00 0.  1.
         35    2    1    2    0    0  0.35527136788E-14  0.00000000000E+00  0.20962633243E+03  0.34478794265E+03  0.27374354083E+03 0.  0.
         25    2    3    3    0    0 -0.23440975174E+02 -0.42592369165E+02  0.13754632177E+03  0.19301409685E+03  0.12637983115E+03 0.  0.
         25    2    3    3    0    0  0.23440975174E+02  0.42592369165E+02  0.72080010665E+02  0.15177384580E+03  0.12440330825E+03 0.  0.
          5    1    4    4  502    0  0.21291224247E+02 -0.63381834089E+02  0.12509900378E+03  0.14192400738E+03  0.47000000000E+01 0.  1.
         -5    1    4    4    0  502 -0.44732199422E+02  0.20789464924E+02  0.12447317985E+02  0.51090089469E+02  0.47000000000E+01 0.  1.
          5    1    5    5  503    0 -0.32785473696E+00  0.10476887636E+02 -0.35290983052E+02  0.37113557470E+02  0.47000000000E+01 0.  1.
         -5    1    5    5    0  503  0.23768829911E+02  0.32115481529E+02  0.10737099372E+03  0.11466028834E+03  0.47000000000E+01 0.  1.
<mgrwt>
<rscale>  0 0.27374354E+03</rscale>
<asrwt>0</asrwt>
<pdfrwt beam="1">  1        1 0.42647251E-01 0.27374354E+03</pdfrwt>
<pdfrwt beam="2">  1       -1 0.10397047E-01 0.27374354E+03</pdfrwt>
<totfact> 0.55178331E+03</totfact>
</mgrwt>
</event>
<event>
 9    1  0.7986988E-001  0.2803044E+03  0.7818608E-02  0.1095523E+00
         -1   -1    0    0    0  501 -0.00000000000E+00  0.00000000000E+00  0.21088589702E+02  0.21088589702E+02  0.00000000000E+00 0.  1.
          1   -1    0    0  501    0  0.00000000000E+00 -0.00000000000E+00 -0.93143432459E+03  0.93143432459E+03  0.00000000000E+00 0.  1.
         35    2    1    2    0    0  0.14210854715E-13  0.00000000000E+00 -0.91034573488E+03  0.95252291429E+03  0.28030437960E+03 0.  0.
         25    2    3    3    0    0  0.36133820686E+02  0.48601904727E+02 -0.38889895170E+03  0.41288927900E+03  0.12476924277E+03 0.  0.
         25    2    3    3    0    0 -0.36133820686E+02 -0.48601904727E+02 -0.52144678319E+03  0.53963363529E+03  0.12501965645E+03 0.  0.
          5    1    4    4  502    0 -0.34388773497E+02  0.96321967684E+01 -0.24724888091E+03  0.24985889231E+03  0.47000000000E+01 0. -1.
         -5    1    4    4    0  502  0.70522594183E+02  0.38969707958E+02 -0.14165007079E+03  0.16303038669E+03  0.47000000000E+01 0. -1.
          5    1    5    5  503    0  0.31213553852E+02 -0.43726933666E+02 -0.10836389916E+03  0.12104195683E+03  0.47000000000E+01 0. -1.
         -5    1    5    5    0  503 -0.67347374538E+02 -0.48749710603E+01 -0.41308288402E+03  0.41859167846E+03  0.47000000000E+01 0. -1.
<mgrwt>
<rscale>  0 0.28030438E+03</rscale>
<asrwt>0</asrwt>
<pdfrwt beam="1">  1        1 0.14329758E+00 0.28030438E+03</pdfrwt>
<pdfrwt beam="2">  1       -1 0.32443986E-02 0.28030438E+03</pdfrwt>
<totfact> 0.60574423E+03</totfact>
</mgrwt>
</event>
<event>
 9    1  0.7986988E-001  0.2748367E+03  0.7818608E-02  0.1098543E+00
         -2   -1    0    0    0  501 -0.00000000000E+00  0.00000000000E+00  0.56333870802E+02  0.56333870802E+02  0.00000000000E+00 0. -1.
          2   -1    0    0  501    0  0.00000000000E+00 -0.00000000000E+00 -0.33521226882E+03  0.33521226882E+03  0.00000000000E+00 0. -1.
         35    2    1    2    0    0  0.00000000000E+00  0.00000000000E+00 -0.27887839802E+03  0.39154613962E+03  0.27483671256E+03 0.  0.
         25    2    3    3    0    0 -0.65724402407E+01 -0.44071307283E+02 -0.18953044050E+03  0.23131080692E+03  0.12488964900E+03 0.  0.
         25    2    3    3    0    0  0.65724402407E+01  0.44071307283E+02 -0.89347957522E+02  0.16023533270E+03  0.12532688154E+03 0.  0.
          5    1    4    4  502    0  0.52805338416E+02 -0.15612232909E+02 -0.13434887021E+03  0.14527165763E+03  0.47000000000E+01 0. -1.
         -5    1    4    4    0  502 -0.59377778657E+02 -0.28459074374E+02 -0.55181570285E+02  0.86039149296E+02  0.47000000000E+01 0. -1.
          5    1    5    5  503    0 -0.48226531322E+02  0.48815438270E+02 -0.20064339775E+02  0.71647840633E+02  0.47000000000E+01 0. -1.
         -5    1    5    5    0  503  0.54798971562E+02 -0.47441309874E+01 -0.69283617747E+02  0.88587492070E+02  0.47000000000E+01 0. -1.
<mgrwt>
<rscale>  0 0.27483671E+03</rscale>
<asrwt>0</asrwt>
<pdfrwt beam="1">  1        2 0.51571117E-01 0.27483671E+03</pdfrwt>
<pdfrwt beam="2">  1       -2 0.86667496E-02 0.27483671E+03</pdfrwt>
<totfact> 0.80146986E+03</totfact>
</mgrwt>
</event>
<event>
 9    1  0.7986988E-001  0.2753690E+03  0.7818608E-02  0.1098246E+00
          1   -1    0    0  501    0  0.00000000000E+00  0.00000000000E+00  0.12625037523E+02  0.12625037523E+02  0.00000000000E+00 0.  1.
         -1   -1    0    0    0  501 -0.00000000000E+00 -0.00000000000E+00 -0.15015417360E+04  0.15015417360E+04  0.00000000000E+00 0.  1.
         35    2    1    2    0    0  0.00000000000E+00  0.35527136788E-14 -0.14889166985E+04  0.15141667735E+04  0.27536899433E+03 0.  0.
         25    2    3    3    0    0  0.50222824955E+02 -0.16252202598E+02 -0.61014617231E+03  0.62498852064E+03  0.12468293031E+03 0.  0.
         25    2    3    3    0    0 -0.50222824955E+02  0.16252202598E+02 -0.87877052618E+03  0.88917825290E+03  0.12495543808E+03 0.  0.
          5    1    4    4  502    0 -0.37214030123E+02 -0.17560981648E+02 -0.11669573570E+03  0.12382752863E+03  0.47000000000E+01 0.  1.
         -5    1    4    4    0  502  0.87436855078E+02  0.13087790493E+01 -0.49345043660E+03  0.50116099201E+03  0.47000000000E+01 0.  1.
          5    1    5    5  503    0 -0.37443129488E+02 -0.27700189912E+02 -0.11697210722E+03  0.12599147723E+03  0.47000000000E+01 0.  1.
         -5    1    5    5    0  503 -0.12779695467E+02  0.43952392510E+02 -0.76179841896E+03  0.76318677567E+03  0.47000000000E+01 0.  1.
<mgrwt>
<rscale>  0 0.27536899E+03</rscale>
<asrwt>0</asrwt>
<pdfrwt beam="1">  1        1 0.19423143E-02 0.27536899E+03</pdfrwt>
<pdfrwt beam="2">  1       -1 0.23100632E+00 0.27536899E+03</pdfrwt>
<totfact> 0.66046496E+02</totfact>
</mgrwt>
</event>
<event>
 9    1  0.7986988E-001  0.2804253E+03  0.7818608E-02  0.1095457E+00
          1   -1    0    0  501    0  0.00000000000E+00  0.00000000000E+00  0.96219588703E+02  0.96219588703E+02  0.00000000000E+00 0.  1.
         -1   -1    0    0    0  501 -0.00000000000E+00 -0.00000000000E+00 -0.20431999202E+03  0.20431999202E+03  0.00000000000E+00 0.  1.
         35    2    1    2    0    0  0.53290705182E-14  0.00000000000E+00 -0.10810040331E+03  0.30053958072E+03  0.28042528841E+03 0.  0.
         25    2    3    3    0    0  0.72028514556E+01 -0.28390985476E+02 -0.11239171563E+03  0.17172111248E+03  0.12648444017E+03 0.  0.
         25    2    3    3    0    0 -0.72028514556E+01  0.28390985476E+02  0.42913123160E+01  0.12881846823E+03  0.12537086293E+03 0.  0.
          5    1    4    4  502    0 -0.41559754290E+02 -0.27793131478E+02 -0.12189612188E+01  0.50231934070E+02  0.47000000000E+01 0. -1.
         -5    1    4    4    0  502  0.48762605745E+02 -0.59785399804E+00 -0.11117275441E+03  0.12148917841E+03  0.47000000000E+01 0. -1.
          5    1    5    5  503    0 -0.58727094136E+01  0.78257108761E+02  0.38439049220E+01  0.78711685235E+02  0.47000000000E+01 0. -1.
         -5    1    5    5    0  503 -0.13301420420E+01 -0.49866123284E+02  0.44740739401E+00  0.50106783000E+02  0.47000000000E+01 0. -1.
<mgrwt>
<rscale>  0 0.28042529E+03</rscale>
<asrwt>0</asrwt>
<pdfrwt beam="1">  1        1 0.14803014E-01 0.28042529E+03</pdfrwt>
<pdfrwt beam="2">  1       -1 0.31433845E-01 0.28042529E+03</pdfrwt>
<totfact> 0.35601305E+03</totfact>
</mgrwt>
</event>
<event>
 9    1  0.7986988E-001  0.2710987E+03  0.7818608E-02  0.1100652E+00
         -2   -1    0    0    0  501 -0.00000000000E+00  0.00000000000E+00  0.16800704274E+02  0.16800704274E+02  0.00000000000E+00 0.  1.
          2   -1    0    0  501    0  0.00000000000E+00 -0.00000000000E+00 -0.10936221771E+04  0.10936221771E+04  0.00000000000E+00 0.  1.
         35    2    1    2    0    0 -0.35527136788E-14  0.71054273576E-14 -0.10768214728E+04  0.11104228814E+04  0.27109867418E+03 0.  0.
         25    2    3    3    0    0  0.20981890705E+02 -0.20810219132E+02 -0.71659432504E+03  0.72812271816E+03  0.12562627538E+03 0.  0.
         25    2    3    3    0    0 -0.20981890705E+02  0.20810219132E+02 -0.36022714777E+03  0.38230016319E+03  0.12456529144E+03 0.  0.
          5    1    4    4  502    0  0.61766893428E+01  0.42890690627E+02 -0.49807343020E+03  0.49997699418E+03  0.47000000000E+01 0.  1.
         -5    1    4    4    0  502  0.14805201362E+02 -0.63700909759E+02 -0.21852089484E+03  0.22814572398E+03  0.47000000000E+01 0.  1.
          5    1    5    5  503    0 -0.44476924336E+02  0.64119235444E+02 -0.20656872434E+03  0.22086693059E+03  0.47000000000E+01 0.  1.
         -5    1    5    5    0  503  0.23495033631E+02 -0.43309016312E+02 -0.15365842343E+03  0.16143323261E+03  0.47000000000E+01 0.  1.
<mgrwt>
<rscale>  0 0.27109867E+03</rscale>
<asrwt>0</asrwt>
<pdfrwt beam="1">  1        2 0.16824957E+00 0.27109867E+03</pdfrwt>
<pdfrwt beam="2">  1       -2 0.25847237E-02 0.27109867E+03</pdfrwt>
<totfact> 0.12157440E+04</totfact>
</mgrwt>
</event>
<event>
 9    1  0.7986988E-001  0.2752666E+03  0.7818608E-02  0.1098303E+00
          2   -1    0    0  501    0  0.00000000000E+00  0.00000000000E+00  0.18201867877E+03  0.18201867877E+03  0.00000000000E+00 0.  1.
         -2   -1    0    0    0  501 -0.00000000000E+00 -0.00000000000E+00 -0.10407129296E+03  0.10407129296E+03  0.00000000000E+00 0.  1.
         35    2    1    2    0    0  0.71054273576E-14  0.00000000000E+00  0.77947385814E+02  0.28608997173E+03  0.27526655621E+03 0.  0.
         25    2    3    3    0    0  0.22856914785E+02 -0.39093348175E+02  0.76602465371E+01  0.13561979285E+03  0.12760611431E+03 0.  0.
         25    2    3    3    0    0 -0.22856914785E+02  0.39093348175E+02  0.70287139277E+02  0.15047017888E+03  0.12510101663E+03 0.  0.
          5    1    4    4  502    0  0.74874018634E+02 -0.33613169578E+02 -0.19572374220E+01  0.82230679273E+02  0.47000000000E+01 0. -1.
         -5    1    4    4    0  502 -0.52017103849E+02 -0.54801785968E+01  0.96174839591E+01  0.53389113572E+02  0.47000000000E+01 0. -1.
          5    1    5    5  503    0 -0.48797086384E+00 -0.31472533612E+02  0.69333218373E+02  0.76288555219E+02  0.47000000000E+01 0. -1.
         -5    1    5    5    0  503 -0.22368943921E+02  0.70565881787E+02  0.95392090413E+00  0.74181623665E+02  0.47000000000E+01 0. -1.
<mgrwt>
<rscale>  0 0.27526656E+03</rscale>
<asrwt>0</asrwt>
<pdfrwt beam="1">  1        2 0.28002874E-01 0.27526656E+03</pdfrwt>
<pdfrwt beam="2">  1       -2 0.16010968E-01 0.27526656E+03</pdfrwt>
<totfact> 0.57695838E+03</totfact>
</mgrwt>
</event>
<event>
 9    1  0.7986988E-001  0.2694817E+03  0.7818608E-02  0.1101577E+00
         -1   -1    0    0    0  501 -0.00000000000E+00  0.00000000000E+00  0.29632043149E+02  0.29632043149E+02  0.00000000000E+00 0. -1.
          1   -1    0    0  501    0  0.00000000000E+00 -0.00000000000E+00 -0.61268444159E+03  0.61268444159E+03  0.00000000000E+00 0. -1.
         35    2    1    2    0    0 -0.17763568394E-14 -0.71054273576E-14 -0.58305239844E+03  0.64231648474E+03  0.26948166401E+03 0.  0.
         25    2    3    3    0    0  0.27193186942E+01 -0.33195072517E+02 -0.37975962799E+03  0.40120297637E+03  0.12504857322E+03 0.  0.
         25    2    3    3    0    0 -0.27193186942E+01  0.33195072517E+02 -0.20329277045E+03  0.24111350837E+03  0.12529351885E+03 0.  0.
          5    1    4    4  502    0  0.16621633918E+02  0.39293235213E+02 -0.65158708585E+02  0.78025536538E+02  0.47000000000E+01 0.  1.
         -5    1    4    4    0  502 -0.13902315224E+02 -0.72488307730E+02 -0.31460091940E+03  0.32317743983E+03  0.47000000000E+01 0.  1.
          5    1    5    5  503    0 -0.21202133404E+02  0.43883549819E+02 -0.14508273644E+02  0.51067371283E+02  0.47000000000E+01 0.  1.
         -5    1    5    5    0  503  0.18482814710E+02 -0.10688477302E+02 -0.18878449681E+03  0.19004613709E+03  0.47000000000E+01 0.  1.
<mgrwt>
<rscale>  0 0.26948166E+03</rscale>
<asrwt>0</asrwt>
<pdfrwt beam="1">  1        1 0.94259137E-01 0.26948166E+03</pdfrwt>
<pdfrwt beam="2">  1       -1 0.45587762E-02 0.26948166E+03</pdfrwt>
<totfact> 0.68751079E+03</totfact>
</mgrwt>
</event>
<event>
 9    1  0.7986988E-001  0.2747508E+03  0.7818608E-02  0.1098591E+00
         -2   -1    0    0    0  501 -0.00000000000E+00  0.00000000000E+00  0.13912997022E+02  0.13912997022E+02  0.00000000000E+00 0. -1.
          2   -1    0    0  501    0  0.00000000000E+00 -0.00000000000E+00 -0.13564295291E+04  0.13564295291E+04  0.00000000000E+00 0. -1.
         35    2    1    2    0    0 -0.35527136788E-14 -0.71054273576E-14 -0.13425165320E+04  0.13703425261E+04  0.27475079617E+03 0.  0.
         25    2    3    3    0    0 -0.29563317921E+02  0.50087609369E+02 -0.74455312246E+03  0.75686096780E+03  0.12286746533E+03 0.  0.
         25    2    3    3    0    0  0.29563317921E+02 -0.50087609369E+02 -0.59796340959E+03  0.61348155829E+03  0.12416370153E+03 0.  0.
          5    1    4    4  502    0  0.75295109647E+01  0.35758539937E+02 -0.67932513252E+03  0.68032352039E+03  0.47000000000E+01 0. -1.
         -5    1    4    4    0  502 -0.37092828885E+02  0.14329069432E+02 -0.65227989939E+02  0.76537447416E+02  0.47000000000E+01 0. -1.
          5    1    5    5  503    0  0.30917323573E+02  0.37681113651E+02 -0.23155327161E+03  0.23667436451E+03  0.47000000000E+01 0.  1.
         -5    1    5    5    0  503 -0.13540056525E+01 -0.87768723020E+02 -0.36641013798E+03  0.37680719378E+03  0.47000000000E+01 0.  1.
<mgrwt>
<rscale>  0 0.27475080E+03</rscale>
<asrwt>0</asrwt>
<pdfrwt beam="1">  1        2 0.20868152E+00 0.27475080E+03</pdfrwt>
<pdfrwt beam="2">  1       -2 0.21404605E-02 0.27475080E+03</pdfrwt>
<totfact> 0.11413428E+04</totfact>
</mgrwt>
</event>
<event>
 9    1  0.7986988E-001  0.2785293E+03  0.7818608E-02  0.1096495E+00
         -1   -1    0    0    0  501 -0.00000000000E+00  0.00000000000E+00  0.14686509255E+02  0.14686509255E+02  0.00000000000E+00 0.  1.
          1   -1    0    0  501    0  0.00000000000E+00 -0.00000000000E+00 -0.13205750946E+04  0.13205750946E+04  0.00000000000E+00 0.  1.
         35    2    1    2    0    0 -0.35527136788E-14 -0.14210854715E-13 -0.13058885853E+04  0.13352616039E+04  0.27852926847E+03 0.  0.
         25    2    3    3    0    0 -0.19527842753E+02 -0.35426555717E+02 -0.41062642430E+03  0.43077500921E+03  0.12376053789E+03 0.  0.
         25    2    3    3    0    0  0.19527842753E+02  0.35426555717E+02 -0.89526216105E+03  0.90448659464E+03  0.12233268325E+03 0.  0.
          5    1    4    4  502    0  0.34446001845E+01 -0.39703289850E+02 -0.31804107156E+02  0.51203590961E+02  0.47000000000E+01 0.  1.
         -5    1    4    4    0  502 -0.22972442937E+02  0.42767341323E+01 -0.37882231714E+03  0.37957141825E+03  0.47000000000E+01 0.  1.
          5    1    5    5  503    0  0.70000160022E+02  0.31119881991E+02 -0.59760054954E+03  0.60250890140E+03  0.47000000000E+01 0. -1.
         -5    1    5    5    0  503 -0.50472317269E+02  0.43066737262E+01 -0.29766161151E+03  0.30197769324E+03  0.47000000000E+01 0. -1.
<mgrwt>
<rscale>  0 0.27852927E+03</rscale>
<asrwt>0</asrwt>
<pdfrwt beam="1">  1        1 0.20316537E+00 0.27852927E+03</pdfrwt>
<pdfrwt beam="2">  1       -1 0.22594633E-02 0.27852927E+03</pdfrwt>
<totfact> 0.54171800E+03</totfact>
</mgrwt>
</event>
<event>
 9    1  0.7986988E-001  0.2746535E+03  0.7818608E-02  0.1098645E+00
          2   -1    0    0  501    0  0.00000000000E+00  0.00000000000E+00  0.10447621917E+03  0.10447621917E+03  0.00000000000E+00 0.  1.
         -2   -1    0    0    0  501 -0.00000000000E+00 -0.00000000000E+00 -0.18050645017E+03  0.18050645017E+03  0.00000000000E+00 0.  1.
         35    2    1    2    0    0  0.00000000000E+00  0.00000000000E+00 -0.76030230995E+02  0.28498266934E+03  0.27465346493E+03 0.  0.
         25    2    3    3    0    0  0.34565505881E+02  0.17433200118E+02 -0.25835500162E+02  0.13327464185E+03  0.12488381171E+03 0.  0.
         25    2    3    3    0    0 -0.34565505881E+02 -0.17433200118E+02 -0.50194730833E+02  0.15170802749E+03  0.13783005455E+03 0.  0.
          5    1    4    4  502    0  0.44018675934E+01  0.25539901881E+01  0.49844781891E+02  0.50323866962E+02  0.47000000000E+01 0. -1.
         -5    1    4    4    0  502  0.30163638288E+02  0.14879209930E+02 -0.75680282053E+02  0.82950774888E+02  0.47000000000E+01 0. -1.
          5    1    5    5  503    0  0.83628008103E+01 -0.13964936501E+02  0.44476747894E+02  0.47594400849E+02  0.47000000000E+01 0.  1.
         -5    1    5    5    0  503 -0.42928306692E+02 -0.34682636174E+01 -0.94671478728E+02  0.10411362664E+03  0.47000000000E+01 0.  1.
<mgrwt>
<rscale>  0 0.27465346E+03</rscale>
<asrwt>0</asrwt>
<pdfrwt beam="1">  1        2 0.16073264E-01 0.27465346E+03</pdfrwt>
<pdfrwt beam="2">  1       -2 0.27770223E-01 0.27465346E+03</pdfrwt>
<totfact> 0.41991784E+03</totfact>
</mgrwt>
</event>
<event>
 9    1  0.7986988E-001  0.2700223E+03  0.7818608E-02  0.1101267E+00
         -2   -1    0    0    0  501 -0.00000000000E+00  0.00000000000E+00  0.53553678839E+02  0.53553678839E+02  0.00000000000E+00 0.  1.
          2   -1    0    0  501    0  0.00000000000E+00 -0.00000000000E+00 -0.34036900054E+03  0.34036900054E+03  0.00000000000E+00 0.  1.
         35    2    1    2    0    0  0.00000000000E+00 -0.35527136788E-14 -0.28681532170E+03  0.39392267937E+03  0.27002231124E+03 0.  0.
         25    2    3    3    0    0 -0.67087048310E-01  0.31773691100E+02 -0.86022130006E+02  0.15515480887E+03  0.12515444825E+03 0.  0.
         25    2    3    3    0    0  0.67087048310E-01 -0.31773691100E+02 -0.20079319169E+03  0.23876787051E+03  0.12523026076E+03 0.  0.
          5    1    4    4  502    0  0.58882256997E+02  0.36597918889E+02 -0.51686570306E+02  0.86603229767E+02  0.47000000000E+01 0.  1.
         -5    1    4    4    0  502 -0.58949344046E+02 -0.48242277891E+01 -0.34335559700E+02  0.68551579100E+02  0.47000000000E+01 0.  1.
          5    1    5    5  503    0  0.23206637200E+02 -0.33725984420E+02 -0.49583109141E+01  0.41504998281E+02  0.47000000000E+01 0.  1.
         -5    1    5    5    0  503 -0.23139550151E+02  0.19522933199E+01 -0.19583488078E+03  0.19726287223E+03  0.47000000000E+01 0.  1.
<mgrwt>
<rscale>  0 0.27002231E+03</rscale>
<asrwt>0</asrwt>
<pdfrwt beam="1">  1        2 0.52364460E-01 0.27002231E+03</pdfrwt>
<pdfrwt beam="2">  1       -2 0.82390277E-02 0.27002231E+03</pdfrwt>
<totfact> 0.85291887E+03</totfact>
</mgrwt>
</event>
<event>
 9    1  0.7986988E-001  0.2770199E+03  0.7818608E-02  0.1097328E+00
         -2   -1    0    0    0  501 -0.00000000000E+00  0.00000000000E+00  0.83434092154E+01  0.83434092154E+01  0.00000000000E+00 0. -1.
          2   -1    0    0  501    0  0.00000000000E+00 -0.00000000000E+00 -0.22994211574E+04  0.22994211574E+04  0.00000000000E+00 0. -1.
         35    2    1    2    0    0  0.00000000000E+00 -0.17763568394E-14 -0.22910777482E+04  0.23077645666E+04  0.27701993917E+03 0.  0.
         25    2    3    3    0    0 -0.19542356435E+02  0.69592188810E+01 -0.80233081640E+03  0.81366409721E+03  0.13373178271E+03 0.  0.
         25    2    3    3    0    0  0.19542356435E+02 -0.69592188810E+01 -0.14887469318E+04  0.14941004694E+04  0.12465332479E+03 0.  0.
          5    1    4    4  502    0  0.54945765411E+02  0.52498729556E+01 -0.23491872910E+03  0.24136175667E+03  0.47000000000E+01 0. -1.
         -5    1    4    4    0  502 -0.74488121845E+02  0.17093459254E+01 -0.56741208730E+03  0.57230234053E+03  0.47000000000E+01 0. -1.
          5    1    5    5  503    0 -0.42938690366E+02  0.88578073915E+01 -0.10160847889E+04  0.10170410906E+04  0.47000000000E+01 0. -1.
         -5    1    5    5    0  503  0.62481046800E+02 -0.15817026272E+02 -0.47266214293E+03  0.47705937879E+03  0.47000000000E+01 0. -1.
<mgrwt>
<rscale>  0 0.27701994E+03</rscale>
<asrwt>0</asrwt>
<pdfrwt beam="1">  1        2 0.35375681E+00 0.27701994E+03</pdfrwt>
<pdfrwt beam="2">  1       -2 0.12836025E-02 0.27701994E+03</pdfrwt>
<totfact> 0.76345831E+03</totfact>
</mgrwt>
</event>
<event>
 9    1  0.7986988E-001  0.2777871E+03  0.7818608E-02  0.1096904E+00
          1   -1    0    0  501    0  0.00000000000E+00  0.00000000000E+00  0.37076274351E+02  0.37076274351E+02  0.00000000000E+00 0.  1.
         -1   -1    0    0    0  501 -0.00000000000E+00 -0.00000000000E+00 -0.52031692296E+03  0.52031692296E+03  0.00000000000E+00 0.  1.
         35    2    1    2    0    0  0.00000000000E+00  0.71054273576E-14 -0.48324064861E+03  0.55739319731E+03  0.27778706222E+03 0.  0.
         25    2    3    3    0    0  0.54818022519E+02 -0.23721770434E+02 -0.22671117027E+03  0.26581346103E+03  0.12526413435E+03 0.  0.
         25    2    3    3    0    0 -0.54818022519E+02  0.23721770434E+02 -0.25652947834E+03  0.29157973628E+03  0.12507450326E+03 0.  0.
          5    1    4    4  502    0 -0.94229061552E+00 -0.64072200293E+02 -0.14678339042E+03  0.16022979893E+03  0.47000000000E+01 0.  1.
         -5    1    4    4    0  502  0.55760313134E+02  0.40350429859E+02 -0.79927779849E+02  0.10558366210E+03  0.47000000000E+01 0.  1.
          5    1    5    5  503    0  0.29316640161E+02 -0.73231128019E+01 -0.15336085608E+02  0.34210800827E+02  0.47000000000E+01 0.  1.
         -5    1    5    5    0  503 -0.84134662680E+02  0.31044883236E+02 -0.24119339273E+03  0.25736893545E+03  0.47000000000E+01 0.  1.
<mgrwt>
<rscale>  0 0.27778706E+03</rscale>
<asrwt>0</asrwt>
<pdfrwt beam="1">  1        1 0.57040422E-02 0.27778706E+03</pdfrwt>
<pdfrwt beam="2">  1       -1 0.80048758E-01 0.27778706E+03</pdfrwt>
<totfact> 0.22547137E+03</totfact>
</mgrwt>
</event>
<event>
 9    1  0.7986988E-001  0.2737069E+03  0.7818608E-02  0.1099177E+00
          1   -1    0    0  501    0  0.00000000000E+00  0.00000000000E+00  0.75068791342E+03  0.75068791342E+03  0.00000000000E+00 0. -1.
         -1   -1    0    0    0  501 -0.00000000000E+00 -0.00000000000E+00 -0.24948929658E+02  0.24948929658E+02  0.00000000000E+00 0. -1.
         35    2    1    2    0    0 -0.26645352591E-14  0.00000000000E+00  0.72573898376E+03  0.77563684308E+03  0.27370685009E+03 0.  0.
         25    2    3    3    0    0  0.27440253988E+01  0.10043040612E+02  0.20679636781E+03  0.24179372474E+03  0.12486422722E+03 0.  0.
         25    2    3    3    0    0 -0.27440253988E+01 -0.10043040612E+02  0.51894261595E+03  0.53384311834E+03  0.12481443833E+03 0.  0.
          5    1    4    4  502    0  0.55480442353E+02  0.21081496943E+02  0.56562668562E+02  0.82121461701E+02  0.47000000000E+01 0.  1.
         -5    1    4    4    0  502 -0.52736416954E+02 -0.11038456331E+02  0.15023369925E+03  0.15967226303E+03  0.47000000000E+01 0.  1.
          5    1    5    5  503    0  0.78651146453E+01  0.51544036885E+02  0.34511358831E+03  0.34906178050E+03  0.47000000000E+01 0.  1.
         -5    1    5    5    0  503 -0.10609140044E+02 -0.61587077497E+02  0.17382902764E+03  0.18478133785E+03  0.47000000000E+01 0.  1.
<mgrwt>
<rscale>  0 0.27370685E+03</rscale>
<asrwt>0</asrwt>
<pdfrwt beam="1">  1        1 0.11549043E+00 0.27370685E+03</pdfrwt>
<pdfrwt beam="2">  1       -1 0.38382975E-02 0.27370685E+03</pdfrwt>
<totfact> 0.66265619E+03</totfact>
</mgrwt>
</event>
<event>
 9    1  0.7986988E-001  0.2804715E+03  0.7818608E-02  0.1095432E+00
          2   -1    0    0  501    0  0.00000000000E+00  0.00000000000E+00  0.15165887140E+03  0.15165887140E+03  0.00000000000E+00 0.  1.
         -2   -1    0    0    0  501 -0.00000000000E+00 -0.00000000000E+00 -0.12967300271E+03  0.12967300271E+03  0.00000000000E+00 0.  1.
         35    2    1    2    0    0 -0.17763568394E-14  0.35527136788E-14  0.21985868694E+02  0.28133187412E+03  0.28047146909E+03 0.  0.
         25    2    3    3    0    0 -0.29154843345E+01  0.14902635685E+02  0.73348963613E+02  0.14605716001E+03  0.12538753897E+03 0.  0.
         25    2    3    3    0    0  0.29154843345E+01 -0.14902635685E+02 -0.51363094919E+02  0.13527471410E+03  0.12421953211E+03 0.  0.
          5    1    4    4  502    0 -0.56136549426E+02 -0.51968392188E+01  0.46879165126E+01  0.56766062754E+02  0.47000000000E+01 0. -1.
         -5    1    4    4    0  502  0.53221065091E+02  0.20099474904E+02  0.68661047100E+02  0.89291097260E+02  0.47000000000E+01 0. -1.
          5    1    5    5  503    0 -0.66770711258E+01  0.40278670102E+02 -0.65493115814E+02  0.77320067014E+02  0.47000000000E+01 0.  1.
         -5    1    5    5    0  503  0.95925554603E+01 -0.55181305788E+02  0.14130020895E+02  0.57954647089E+02  0.47000000000E+01 0.  1.
<mgrwt>
<rscale>  0 0.28047147E+03</rscale>
<asrwt>0</asrwt>
<pdfrwt beam="1">  1        2 0.23332134E-01 0.28047147E+03</pdfrwt>
<pdfrwt beam="2">  1       -2 0.19949693E-01 0.28047147E+03</pdfrwt>
<totfact> 0.48832975E+03</totfact>
</mgrwt>
</event>
<event>
 9    1  0.7986988E-001  0.2753403E+03  0.7818608E-02  0.1098262E+00
          1   -1    0    0  501    0  0.00000000000E+00  0.00000000000E+00  0.12652265357E+04  0.12652265357E+04  0.00000000000E+00 0. -1.
         -1   -1    0    0    0  501 -0.00000000000E+00 -0.00000000000E+00 -0.14979978857E+02  0.14979978857E+02  0.00000000000E+00 0. -1.
         35    2    1    2    0    0 -0.35527136788E-14 -0.71054273576E-14  0.12502465568E+04  0.12802065146E+04  0.27534027496E+03 0.  0.
         25    2    3    3    0    0 -0.94987596152E+01  0.58531649890E+02  0.57891537456E+03  0.59530629016E+03  0.12542084251E+03 0.  0.
         25    2    3    3    0    0  0.94987596152E+01 -0.58531649890E+02  0.67133118229E+03  0.68490022440E+03  0.12201057573E+03 0.  0.
          5    1    4    4  502    0 -0.17394281321E+02  0.56071121000E+02  0.98271947291E+02  0.11456874468E+03  0.47000000000E+01 0.  1.
         -5    1    4    4    0  502  0.78955217058E+01  0.24605288908E+01  0.48064342726E+03  0.48073754548E+03  0.47000000000E+01 0.  1.
          5    1    5    5  503    0  0.38036379092E+02  0.89358271909E+01  0.81337017074E+02  0.90357155159E+02  0.47000000000E+01 0. -1.
         -5    1    5    5    0  503 -0.28537619477E+02 -0.67467477081E+02  0.58999416521E+03  0.59454306924E+03  0.47000000000E+01 0. -1.
<mgrwt>
<rscale>  0 0.27534027E+03</rscale>
<asrwt>0</asrwt>
<pdfrwt beam="1">  1        1 0.19465015E+00 0.27534027E+03</pdfrwt>
<pdfrwt beam="2">  1       -1 0.23046131E-02 0.27534027E+03</pdfrwt>
<totfact> 0.57414054E+03</totfact>
</mgrwt>
</event>
<event>
 9    1  0.7986988E-001  0.2765679E+03  0.7818608E-02  0.1097578E+00
          4   -1    0    0  501    0  0.00000000000E+00  0.00000000000E+00  0.29268882386E+02  0.29268882386E+02  0.00000000000E+00 0. -1.
         -4   -1    0    0    0  501 -0.00000000000E+00 -0.00000000000E+00 -0.65333713216E+03  0.65333713216E+03  0.00000000000E+00 0. -1.
         35    2    1    2    0    0  0.00000000000E+00  0.35527136788E-14 -0.62406824977E+03  0.68260601454E+03  0.27656787723E+03 0.  0.
         25    2    3    3    0    0 -0.47209864534E+02 -0.23285131005E+02 -0.23769778473E+03  0.27369290552E+03  0.12504639551E+03 0.  0.
         25    2    3    3    0    0  0.47209864534E+02  0.23285131005E+02 -0.38637046504E+03  0.40891310902E+03  0.12311306122E+03 0.  0.
          5    1    4    4  502    0 -0.26295684940E+02  0.19297164039E+02 -0.22059778663E+03  0.22304554928E+03  0.47000000000E+01 0. -1.
         -5    1    4    4    0  502 -0.20914179594E+02 -0.42582295044E+02 -0.17099998104E+02  0.50647356243E+02  0.47000000000E+01 0. -1.
          5    1    5    5  503    0  0.63943428265E+02 -0.18136820023E+02 -0.10770146476E+03  0.12664675981E+03  0.47000000000E+01 0. -1.
         -5    1    5    5    0  503 -0.16733563731E+02  0.41421951028E+02 -0.27866900028E+03  0.28226634922E+03  0.47000000000E+01 0. -1.
<mgrwt>
<rscale>  0 0.27656788E+03</rscale>
<asrwt>0</asrwt>
<pdfrwt beam="1">  1        4 0.45029052E-02 0.27656788E+03</pdfrwt>
<pdfrwt beam="2">  1       -4 0.10051340E+00 0.27656788E+03</pdfrwt>
<totfact> 0.44711179E+02</totfact>
</mgrwt>
</event>
<event>
 9    1  0.7986988E-001  0.2842508E+03  0.7818608E-02  0.1093390E+00
         -1   -1    0    0    0  501 -0.00000000000E+00  0.00000000000E+00  0.30742097779E+02  0.30742097779E+02  0.00000000000E+00 0.  1.
          1   -1    0    0  501    0  0.00000000000E+00 -0.00000000000E+00 -0.65706720954E+03  0.65706720954E+03  0.00000000000E+00 0.  1.
         35    2    1    2    0    0  0.71054273576E-14  0.35527136788E-14 -0.62632511176E+03  0.68780930732E+03  0.28425076537E+03 0.  0.
         25    2    3    3    0    0 -0.32599997753E+02 -0.42971632492E+01 -0.17112694453E+03  0.21452057754E+03  0.12511363467E+03 0.  0.
         25    2    3    3    0    0  0.32599997753E+02  0.42971632492E+01 -0.45519816723E+03  0.47328872978E+03  0.12536197515E+03 0.  0.
          5    1    4    4  502    0 -0.68026734997E+02  0.33679854518E+02 -0.87138127313E+02  0.11565946786E+03  0.47000000000E+01 0. -1.
         -5    1    4    4    0  502  0.35426737244E+02 -0.37977017767E+02 -0.83988817214E+02  0.98861109680E+02  0.47000000000E+01 0. -1.
          5    1    5    5  503    0  0.76197067462E+02 -0.20124292845E+02 -0.25847303909E+03  0.27026169204E+03  0.47000000000E+01 0. -1.
         -5    1    5    5    0  503 -0.43597069708E+02  0.24421456094E+02 -0.19672512815E+03  0.20302703773E+03  0.47000000000E+01 0. -1.
<mgrwt>
<rscale>  0 0.28425077E+03</rscale>
<asrwt>0</asrwt>
<pdfrwt beam="1">  1        1 0.10108726E+00 0.28425077E+03</pdfrwt>
<pdfrwt beam="2">  1       -1 0.47295535E-02 0.28425077E+03</pdfrwt>
<totfact> 0.59039407E+03</totfact>
</mgrwt>
</event>
<event>
 9    1  0.7986988E-001  0.2745352E+03  0.7818608E-02  0.1098712E+00
          2   -1    0    0  501    0  0.00000000000E+00  0.00000000000E+00  0.24944345607E+03  0.24944345607E+03  0.00000000000E+00 0. -1.
         -2   -1    0    0    0  501 -0.00000000000E+00 -0.00000000000E+00 -0.75537732963E+02  0.75537732963E+02  0.00000000000E+00 0. -1.
         35    2    1    2    0    0  0.71054273576E-14  0.71054273576E-14  0.17390572311E+03  0.32498118903E+03  0.27453519391E+03 0.  0.
         25    2    3    3    0    0  0.43158094803E+02 -0.26511393343E+02  0.54821088117E+02  0.14533025645E+03  0.12469986613E+03 0.  0.
         25    2    3    3    0    0 -0.43158094803E+02  0.26511393343E+02  0.11908463499E+03  0.17965093258E+03  0.12461072250E+03 0.  0.
          5    1    4    4  502    0  0.11672953634E+02 -0.63886346813E+02  0.68354697271E+02  0.94404331440E+02  0.47000000000E+01 0.  1.
         -5    1    4    4    0  502  0.31485141169E+02  0.37374953470E+02 -0.13533609154E+02  0.50925925009E+02  0.47000000000E+01 0.  1.
          5    1    5    5  503    0 -0.27449932829E+01  0.64194539394E+02  0.22430871287E+02  0.68218090437E+02  0.47000000000E+01 0.  1.
         -5    1    5    5    0  503 -0.40413101520E+02 -0.37683146051E+02  0.96653763701E+02  0.11143284214E+03  0.47000000000E+01 0.  1.
<mgrwt>
<rscale>  0 0.27453519E+03</rscale>
<asrwt>0</asrwt>
<pdfrwt beam="1">  1        2 0.38375916E-01 0.27453519E+03</pdfrwt>
<pdfrwt beam="2">  1       -2 0.11621190E-01 0.27453519E+03</pdfrwt>
<totfact> 0.69098449E+03</totfact>
</mgrwt>
</event>
<event>
 9    1  0.7986988E-001  0.2756062E+03  0.7818608E-02  0.1098113E+00
          4   -1    0    0  501    0  0.00000000000E+00  0.00000000000E+00  0.42129575464E+03  0.42129575464E+03  0.00000000000E+00 0. -1.
         -4   -1    0    0    0  501 -0.00000000000E+00 -0.00000000000E+00 -0.45074503652E+02  0.45074503652E+02  0.00000000000E+00 0. -1.
         35    2    1    2    0    0  0.00000000000E+00  0.00000000000E+00  0.37622125098E+03  0.46637025829E+03  0.27560621931E+03 0.  0.
         25    2    3    3    0    0  0.40320937908E+02  0.37297900495E+02  0.21890737928E+03  0.25817928481E+03  0.12537619784E+03 0.  0.
         25    2    3    3    0    0 -0.40320937908E+02 -0.37297900495E+02  0.15731387170E+03  0.20819097348E+03  0.12481552705E+03 0.  0.
          5    1    4    4  502    0 -0.22653450849E+02  0.12378264187E+02  0.17583009605E+03  0.17777714402E+03  0.47000000000E+01 0.  1.
         -5    1    4    4    0  502  0.62974388756E+02  0.24919636308E+02  0.43077283237E+02  0.80402140793E+02  0.47000000000E+01 0.  1.
          5    1    5    5  503    0 -0.28169351710E+02 -0.63153839519E+02  0.26488478403E+02  0.74200062735E+02  0.47000000000E+01 0.  1.
         -5    1    5    5    0  503 -0.12151586198E+02  0.25855939024E+02  0.13082539330E+03  0.13399091074E+03  0.47000000000E+01 0.  1.
<mgrwt>
<rscale>  0 0.27560622E+03</rscale>
<asrwt>0</asrwt>
<pdfrwt beam="1">  1        4 0.64814729E-01 0.27560622E+03</pdfrwt>
<pdfrwt beam="2">  1       -4 0.69345393E-02 0.27560622E+03</pdfrwt>
<totfact> 0.59044127E+02</totfact>
</mgrwt>
</event>
<event>
 9    1  0.7986988E-001  0.2759527E+03  0.7818608E-02  0.1097920E+00
          1   -1    0    0  501    0  0.00000000000E+00  0.00000000000E+00  0.84983421376E+02  0.84983421376E+02  0.00000000000E+00 0.  1.
         -1   -1    0    0    0  501 -0.00000000000E+00 -0.00000000000E+00 -0.22401401688E+03  0.22401401688E+03  0.00000000000E+00 0.  1.
         35    2    1    2    0    0  0.00000000000E+00  0.71054273576E-14 -0.13903059551E+03  0.30899743826E+03  0.27595273212E+03 0.  0.
         25    2    3    3    0    0  0.51305734728E+02 -0.64612982446E+01 -0.40122593096E+02  0.14129505165E+03  0.12522157304E+03 0.  0.
         25    2    3    3    0    0 -0.51305734728E+02  0.64612982446E+01 -0.98908002412E+02  0.16770238661E+03  0.12516896876E+03 0.  0.
          5    1    4    4  502    0  0.83597008793E+02 -0.31411761228E+02 -0.92395601054E+01  0.89903381991E+02  0.47000000000E+01 0. -1.
         -5    1    4    4    0  502 -0.32291274065E+02  0.24950462983E+02 -0.30883032990E+02  0.51391669660E+02  0.47000000000E+01 0. -1.
          5    1    5    5  503    0 -0.31942804724E+02 -0.28679089619E+02  0.15881348095E+02  0.46012391508E+02  0.47000000000E+01 0.  1.
         -5    1    5    5    0  503 -0.19362930004E+02  0.35140387864E+02 -0.11478935051E+03  0.12168999510E+03  0.47000000000E+01 0.  1.
<mgrwt>
<rscale>  0 0.27595273E+03</rscale>
<asrwt>0</asrwt>
<pdfrwt beam="1">  1        1 0.13074373E-01 0.27595273E+03</pdfrwt>
<pdfrwt beam="2">  1       -1 0.34463695E-01 0.27595273E+03</pdfrwt>
<totfact> 0.35770101E+03</totfact>
</mgrwt>
</event>
<event>
 9    1  0.7986988E-001  0.2763465E+03  0.7818608E-02  0.1097701E+00
         -2   -1    0    0    0  501 -0.00000000000E+00  0.00000000000E+00  0.54102080730E+02  0.54102080730E+02  0.00000000000E+00 0. -1.
          2   -1    0    0  501    0  0.00000000000E+00 -0.00000000000E+00 -0.35288569191E+03  0.35288569191E+03  0.00000000000E+00 0. -1.
         35    2    1    2    0    0  0.00000000000E+00  0.00000000000E+00 -0.29878361118E+03  0.40698777264E+03  0.27634652299E+03 0.  0.
         25    2    3    3    0    0 -0.39596858421E+02  0.29649055626E+02 -0.22383969912E+03  0.26130413996E+03  0.12541397434E+03 0.  0.
         25    2    3    3    0    0  0.39596858421E+02 -0.29649055626E+02 -0.74943912062E+02  0.14568363269E+03  0.11471771084E+03 0.  0.
          5    1    4    4  502    0 -0.28358953243E+02  0.59670548946E+02 -0.46250222042E+02  0.80783523564E+02  0.47000000000E+01 0.  1.
         -5    1    4    4    0  502 -0.11237905179E+02 -0.30021493321E+02 -0.17758947708E+03  0.18052061639E+03  0.47000000000E+01 0.  1.
          5    1    5    5  503    0  0.69638657384E+02 -0.51050827627E+02 -0.61626895377E+02  0.10618707001E+03  0.47000000000E+01 0.  1.
         -5    1    5    5    0  503 -0.30041798963E+02  0.21401772002E+02 -0.13317016685E+02  0.39496562675E+02  0.47000000000E+01 0.  1.
<mgrwt>
<rscale>  0 0.27634652E+03</rscale>
<asrwt>0</asrwt>
<pdfrwt beam="1">  1        2 0.54290106E-01 0.27634652E+03</pdfrwt>
<pdfrwt beam="2">  1       -2 0.83233971E-02 0.27634652E+03</pdfrwt>
<totfact> 0.80807772E+03</totfact>
</mgrwt>
</event>
<event>
 9    1  0.7986988E-001  0.2767658E+03  0.7818608E-02  0.1097469E+00
         -2   -1    0    0    0  501 -0.00000000000E+00  0.00000000000E+00  0.30897756272E+02  0.30897756272E+02  0.00000000000E+00 0.  1.
          2   -1    0    0  501    0  0.00000000000E+00 -0.00000000000E+00 -0.61978039118E+03  0.61978039118E+03  0.00000000000E+00 0.  1.
         35    2    1    2    0    0  0.00000000000E+00  0.00000000000E+00 -0.58888263491E+03  0.65067814746E+03  0.27676577440E+03 0.  0.
         25    2    3    3    0    0  0.57520593265E+02 -0.10109267928E+02 -0.31325447357E+03  0.34239762700E+03  0.12528748468E+03 0.  0.
         25    2    3    3    0    0 -0.57520593265E+02  0.10109267928E+02 -0.27562816134E+03  0.30828052046E+03  0.12512066184E+03 0.  0.
          5    1    4    4  502    0  0.16602799002E+02 -0.57365650407E+02 -0.74745783271E+02  0.95788793175E+02  0.47000000000E+01 0.  1.
         -5    1    4    4    0  502  0.40917794264E+02  0.47256382479E+02 -0.23850869030E+03  0.24660883382E+03  0.47000000000E+01 0.  1.
          5    1    5    5  503    0  0.12291374411E+02 -0.17243755212E+02  0.91878219473E+00  0.21710806974E+02  0.47000000000E+01 0.  1.
         -5    1    5    5    0  503 -0.69811967676E+02  0.27353023140E+02 -0.27654694354E+03  0.28656971348E+03  0.47000000000E+01 0.  1.
<mgrwt>
<rscale>  0 0.27676577E+03</rscale>
<asrwt>0</asrwt>
<pdfrwt beam="1">  1        2 0.95350831E-01 0.27676577E+03</pdfrwt>
<pdfrwt beam="2">  1       -2 0.47535009E-02 0.27676577E+03</pdfrwt>
<totfact> 0.10227472E+04</totfact>
</mgrwt>
</event>
<event>
 9    1  0.7986988E-001  0.2722942E+03  0.7818608E-02  0.1099974E+00
          1   -1    0    0  501    0  0.00000000000E+00  0.00000000000E+00  0.25910400396E+03  0.25910400396E+03  0.00000000000E+00 0. -1.
         -1   -1    0    0    0  501 -0.00000000000E+00 -0.00000000000E+00 -0.71538947669E+02  0.71538947669E+02  0.00000000000E+00 0. -1.
         35    2    1    2    0    0  0.17763568394E-14  0.00000000000E+00  0.18756505629E+03  0.33064295162E+03  0.27229416284E+03 0.  0.
         25    2    3    3    0    0  0.33613239243E+01 -0.55155385415E+02  0.89070320994E+02  0.16237606385E+03  0.12401229371E+03 0.  0.
         25    2    3    3    0    0 -0.33613239243E+01  0.55155385415E+02  0.98494735293E+02  0.16826688777E+03  0.12473619202E+03 0.  0.
          5    1    4    4  502    0  0.29821218529E+02 -0.81335830916E+02  0.89782142146E+02  0.12485089312E+03  0.47000000000E+01 0.  1.
         -5    1    4    4    0  502 -0.26459894604E+02  0.26180445501E+02 -0.71182115178E+00  0.37525170732E+02  0.47000000000E+01 0.  1.
          5    1    5    5  503    0 -0.15782269372E+02  0.16668581600E+02  0.11996989943E+03  0.12223660830E+03  0.47000000000E+01 0. -1.
         -5    1    5    5    0  503  0.12420945447E+02  0.38486803815E+02 -0.21475164135E+02  0.46030279473E+02  0.47000000000E+01 0. -1.
<mgrwt>
<rscale>  0 0.27229416E+03</rscale>
<asrwt>0</asrwt>
<pdfrwt beam="1">  1        1 0.39862154E-01 0.27229416E+03</pdfrwt>
<pdfrwt beam="2">  1       -1 0.11005992E-01 0.27229416E+03</pdfrwt>
<totfact> 0.54971703E+03</totfact>
</mgrwt>
</event>
<event>
 9    1  0.7986988E-001  0.2929010E+03  0.7818608E-02  0.1088844E+00
          2   -1    0    0  501    0  0.00000000000E+00  0.00000000000E+00  0.28991618152E+02  0.28991618152E+02  0.00000000000E+00 0. -1.
         -2   -1    0    0    0  501 -0.00000000000E+00 -0.00000000000E+00 -0.73979124318E+03  0.73979124318E+03  0.00000000000E+00 0. -1.
         35    2    1    2    0    0 -0.71054273576E-14  0.00000000000E+00 -0.71079962503E+03  0.76878286133E+03  0.29290097463E+03 0.  0.
         25    2    3    3    0    0  0.32739093398E+02  0.60362991695E+02 -0.25577593938E+03  0.29201108440E+03  0.12301871094E+03 0.  0.
         25    2    3    3    0    0 -0.32739093398E+02 -0.60362991695E+02 -0.45502368565E+03  0.47677177693E+03  0.12469656683E+03 0.  0.
          5    1    4    4  502    0  0.27409181894E+02  0.53453308072E+02 -0.26889805613E+03  0.27556627876E+03  0.47000000000E+01 0.  1.
         -5    1    4    4    0  502  0.53299115036E+01  0.69096836224E+01  0.13122116754E+02  0.16444805639E+02  0.47000000000E+01 0.  1.
          5    1    5    5  503    0  0.23436962196E+01 -0.79642549259E+02 -0.40369188903E+03  0.41150657326E+03  0.47000000000E+01 0.  1.
         -5    1    5    5    0  503 -0.35082789617E+02  0.19279557564E+02 -0.51331796618E+02  0.65265203679E+02  0.47000000000E+01 0.  1.
<mgrwt>
<rscale>  0 0.29290097E+03</rscale>
<asrwt>0</asrwt>
<pdfrwt beam="1">  1        2 0.44602485E-02 0.29290097E+03</pdfrwt>
<pdfrwt beam="2">  1       -2 0.11381405E+00 0.29290097E+03</pdfrwt>
<totfact> 0.11575963E+03</totfact>
</mgrwt>
</event>
<event>
 9    1  0.7986988E-001  0.3028219E+03  0.7818608E-02  0.1083838E+00
          3   -1    0    0  501    0  0.00000000000E+00  0.00000000000E+00  0.55582098259E+02  0.55582098259E+02  0.00000000000E+00 0.  1.
         -3   -1    0    0    0  501 -0.00000000000E+00 -0.00000000000E+00 -0.41245802147E+03  0.41245802147E+03  0.00000000000E+00 0.  1.
         35    2    1    2    0    0  0.17763568394E-14  0.00000000000E+00 -0.35687592321E+03  0.46804011972E+03  0.30282194291E+03 0.  0.
         25    2    3    3    0    0  0.12688881457E+02 -0.67764626061E+02 -0.97869789517E+02  0.17354057110E+03  0.12563750180E+03 0.  0.
         25    2    3    3    0    0 -0.12688881457E+02  0.67764626061E+02 -0.25900613369E+03  0.29449954863E+03  0.12203587421E+03 0.  0.
          5    1    4    4  502    0  0.10044824048E+02 -0.82859237263E+02 -0.11997955133E+03  0.14623178324E+03  0.47000000000E+01 0. -1.
         -5    1    4    4    0  502  0.26440574097E+01  0.15094611202E+02  0.22109761816E+02  0.27308787862E+02  0.47000000000E+01 0. -1.
          5    1    5    5  503    0 -0.44239684725E+02 -0.58013696384E+01 -0.16475614027E+03  0.17075561880E+03  0.47000000000E+01 0. -1.
         -5    1    5    5    0  503  0.31550803267E+02  0.73565995699E+02 -0.94249993416E+02  0.12374392983E+03  0.47000000000E+01 0. -1.
<mgrwt>
<rscale>  0 0.30282194E+03</rscale>
<asrwt>0</asrwt>
<pdfrwt beam="1">  1        3 0.85510923E-02 0.30282194E+03</pdfrwt>
<pdfrwt beam="2">  1       -3 0.63455079E-01 0.30282194E+03</pdfrwt>
<totfact> 0.60001365E+02</totfact>
</mgrwt>
</event>
<event>
 9    1  0.7986988E-001  0.2708299E+03  0.7818608E-02  0.1100806E+00
          2   -1    0    0  501    0  0.00000000000E+00  0.00000000000E+00  0.15749138721E+03  0.15749138721E+03  0.00000000000E+00 0. -1.
         -2   -1    0    0    0  501 -0.00000000000E+00 -0.00000000000E+00 -0.11643307730E+03  0.11643307730E+03  0.00000000000E+00 0. -1.
         35    2    1    2    0    0  0.71054273576E-14  0.00000000000E+00  0.41058309907E+02  0.27392446452E+03  0.27082988655E+03 0.  0.
         25    2    3    3    0    0  0.29684918493E+02 -0.30986347360E+02  0.61041735753E+02  0.14568392549E+03  0.12512539524E+03 0.  0.
         25    2    3    3    0    0 -0.29684918493E+02  0.30986347360E+02 -0.19983425846E+02  0.12824053902E+03  0.11918452262E+03 0.  0.
          5    1    4    4  502    0 -0.47919453284E+02 -0.20338227479E+02  0.13689289545E+02  0.54031510698E+02  0.47000000000E+01 0. -1.
         -5    1    4    4    0  502  0.77604371778E+02 -0.10648119881E+02  0.47352446208E+02  0.91652414796E+02  0.47000000000E+01 0. -1.
          5    1    5    5  503    0 -0.54746857866E+02 -0.21021265331E+02 -0.34931154281E+02  0.68420666335E+02  0.47000000000E+01 0. -1.
         -5    1    5    5    0  503  0.25061939373E+02  0.52007612691E+02  0.14947728435E+02  0.59819872687E+02  0.47000000000E+01 0. -1.
<mgrwt>
<rscale>  0 0.27082989E+03</rscale>
<asrwt>0</asrwt>
<pdfrwt beam="1">  1        2 0.24229444E-01 0.27082989E+03</pdfrwt>
<pdfrwt beam="2">  1       -2 0.17912781E-01 0.27082989E+03</pdfrwt>
<totfact> 0.56129474E+03</totfact>
</mgrwt>
</event>
<event>
 9    1  0.7986988E-001  0.2755902E+03  0.7818608E-02  0.1098122E+00
          1   -1    0    0  501    0  0.00000000000E+00  0.00000000000E+00  0.49971266400E+03  0.49971266400E+03  0.00000000000E+00 0. -1.
         -1   -1    0    0    0  501 -0.00000000000E+00 -0.00000000000E+00 -0.37996809118E+02  0.37996809118E+02  0.00000000000E+00 0. -1.
         35    2    1    2    0    0  0.71054273576E-14  0.88817841970E-15  0.46171585488E+03  0.53770947312E+03  0.27559017913E+03 0.  0.
         25    2    3    3    0    0 -0.58788135306E+02  0.30536209686E+00  0.24599715762E+03  0.28190199516E+03  0.12449094432E+03 0.  0.
         25    2    3    3    0    0  0.58788135306E+02 -0.30536209686E+00  0.21571869727E+03  0.25580747797E+03  0.12428504066E+03 0.  0.
          5    1    4    4  502    0 -0.16115456811E+02  0.67991220660E+01  0.23683531481E+03  0.23752682448E+03  0.47000000000E+01 0.  1.
         -5    1    4    4    0  502 -0.42672678495E+02 -0.64937599691E+01  0.91618428067E+01  0.44375170671E+02  0.47000000000E+01 0.  1.
          5    1    5    5  503    0  0.39372946152E+02 -0.60004208340E+02  0.89996758131E+02  0.11520520987E+03  0.47000000000E+01 0. -1.
         -5    1    5    5    0  503  0.19415189154E+02  0.59698846243E+02  0.12572193914E+03  0.14060226809E+03  0.47000000000E+01 0. -1.
<mgrwt>
<rscale>  0 0.27559018E+03</rscale>
<asrwt>0</asrwt>
<pdfrwt beam="1">  1        1 0.76878867E-01 0.27559018E+03</pdfrwt>
<pdfrwt beam="2">  1       -1 0.58456633E-02 0.27559018E+03</pdfrwt>
<totfact> 0.62522044E+03</totfact>
</mgrwt>
</event>
<event>
 9    1  0.7986988E-001  0.2740249E+03  0.7818608E-02  0.1098998E+00
         -2   -1    0    0    0  501 -0.00000000000E+00  0.00000000000E+00  0.46348851966E+02  0.46348851966E+02  0.00000000000E+00 0.  1.
          2   -1    0    0  501    0  0.00000000000E+00 -0.00000000000E+00 -0.40502438999E+03  0.40502438999E+03  0.00000000000E+00 0.  1.
         35    2    1    2    0    0 -0.71054273576E-14  0.17763568394E-14 -0.35867553802E+03  0.45137324195E+03  0.27402492948E+03 0.  0.
         25    2    3    3    0    0 -0.35112168346E+02 -0.15910440745E+02 -0.24750453295E+03  0.27935755205E+03  0.12367757099E+03 0.  0.
         25    2    3    3    0    0  0.35112168346E+02  0.15910440745E+02 -0.11117100507E+03  0.17201568990E+03  0.12547668593E+03 0.  0.
          5    1    4    4  502    0 -0.13669841240E+02 -0.66602287999E+02 -0.93179010350E+02  0.11544326440E+03  0.47000000000E+01 0. -1.
         -5    1    4    4    0  502 -0.21442327107E+02  0.50691847254E+02 -0.15432552260E+03  0.16391428765E+03  0.47000000000E+01 0. -1.
          5    1    5    5  503    0  0.78021664516E+02 -0.36937029970E+01 -0.92256473153E+02  0.12097260192E+03  0.47000000000E+01 0. -1.
         -5    1    5    5    0  503 -0.42909496170E+02  0.19604143742E+02 -0.18914531920E+02  0.51043087986E+02  0.47000000000E+01 0. -1.
<mgrwt>
<rscale>  0 0.27402493E+03</rscale>
<asrwt>0</asrwt>
<pdfrwt beam="1">  1        2 0.62311443E-01 0.27402493E+03</pdfrwt>
<pdfrwt beam="2">  1       -2 0.71305928E-02 0.27402493E+03</pdfrwt>
<totfact> 0.88545455E+03</totfact>
</mgrwt>
</event>
<event>
 9    1  0.7986988E-001  0.2768031E+03  0.7818608E-02  0.1097448E+00
          4   -1    0    0  501    0  0.00000000000E+00  0.00000000000E+00  0.86677696493E+02  0.86677696493E+02  0.00000000000E+00 0. -1.
         -4   -1    0    0    0  501 -0.00000000000E+00 -0.00000000000E+00 -0.22099093963E+03  0.22099093963E+03  0.00000000000E+00 0. -1.
         35    2    1    2    0    0  0.35527136788E-14  0.00000000000E+00 -0.13431324313E+03  0.30766863612E+03  0.27680307507E+03 0.  0.
         25    2    3    3    0    0  0.96929625458E+01  0.43451609637E+02 -0.22871321834E+02  0.13386966691E+03  0.12416116323E+03 0.  0.
         25    2    3    3    0    0 -0.96929625458E+01 -0.43451609637E+02 -0.11144192130E+03  0.17379896921E+03  0.12571707908E+03 0.  0.
          5    1    4    4  502    0  0.63302646325E+02  0.32506188145E+02  0.64643511035E+01  0.71608345426E+02  0.47000000000E+01 0.  1.
         -5    1    4    4    0  502 -0.53609683779E+02  0.10945421492E+02 -0.29335672937E+02  0.62261321487E+02  0.47000000000E+01 0.  1.
          5    1    5    5  503    0 -0.35142852567E+02 -0.54567592472E+02 -0.67960570371E+01  0.65428729363E+02  0.47000000000E+01 0. -1.
         -5    1    5    5    0  503  0.25449890021E+02  0.11115982835E+02 -0.10464586426E+03  0.10837023984E+03  0.47000000000E+01 0. -1.
<mgrwt>
<rscale>  0 0.27680308E+03</rscale>
<asrwt>0</asrwt>
<pdfrwt beam="1">  1        4 0.13335030E-01 0.27680308E+03</pdfrwt>
<pdfrwt beam="2">  1       -4 0.33998606E-01 0.27680308E+03</pdfrwt>
<totfact> 0.72666318E+02</totfact>
</mgrwt>
</event>
<event>
 9    1  0.7986988E-001  0.2740608E+03  0.7818608E-02  0.1098978E+00
          2   -1    0    0  501    0  0.00000000000E+00  0.00000000000E+00  0.39496861677E+03  0.39496861677E+03  0.00000000000E+00 0.  1.
         -2   -1    0    0    0  501 -0.00000000000E+00 -0.00000000000E+00 -0.47541333846E+02  0.47541333846E+02  0.00000000000E+00 0.  1.
         35    2    1    2    0    0 -0.17763568394E-14  0.00000000000E+00  0.34742728293E+03  0.44250995062E+03  0.27406083170E+03 0.  0.
         25    2    3    3    0    0 -0.22034185497E+01 -0.40656940994E+02  0.10575592320E+03  0.16744668481E+03  0.12327301025E+03 0.  0.
         25    2    3    3    0    0  0.22034185497E+01  0.40656940994E+02  0.24167135973E+03  0.27506326581E+03  0.12488759819E+03 0.  0.
          5    1    4    4  502    0 -0.17958366926E+02 -0.52135713198E+02 -0.43662145688E+01  0.55513866402E+02  0.47000000000E+01 0.  1.
         -5    1    4    4    0  502  0.15754948376E+02  0.11478772204E+02  0.11012213777E+03  0.11193281840E+03  0.47000000000E+01 0.  1.
          5    1    5    5  503    0  0.46903019882E+02  0.16666371883E+02  0.32163150454E+02  0.59449301703E+02  0.47000000000E+01 0.  1.
         -5    1    5    5    0  503 -0.44699601332E+02  0.23990569111E+02  0.20950820927E+03  0.21561396411E+03  0.47000000000E+01 0.  1.
<mgrwt>
<rscale>  0 0.27406083E+03</rscale>
<asrwt>0</asrwt>
<pdfrwt beam="1">  1        2 0.60764400E-01 0.27406083E+03</pdfrwt>
<pdfrwt beam="2">  1       -2 0.73140516E-02 0.27406083E+03</pdfrwt>
<totfact> 0.87481928E+03</totfact>
</mgrwt>
</event>
<event>
 9    1  0.7986988E-001  0.2640208E+03  0.7818608E-02  0.1104751E+00
         -1   -1    0    0    0  501 -0.00000000000E+00  0.00000000000E+00  0.10009963749E+02  0.10009963749E+02  0.00000000000E+00 0. -1.
          1   -1    0    0  501    0  0.00000000000E+00 -0.00000000000E+00 -0.17409402343E+04  0.17409402343E+04  0.00000000000E+00 0. -1.
         35    2    1    2    0    0  0.00000000000E+00  0.00000000000E+00 -0.17309302705E+04  0.17509501980E+04  0.26402082217E+03 0.  0.
         25    2    3    3    0    0 -0.34511529184E+02  0.22566017780E+02 -0.86141044946E+03  0.87145171420E+03  0.12529907000E+03 0.  0.
         25    2    3    3    0    0  0.34511529184E+02 -0.22566017780E+02 -0.86951982104E+03  0.87949848380E+03  0.12550933436E+03 0.  0.
          5    1    4    4  502    0 -0.69417872185E+01 -0.48863795179E+02 -0.22272984844E+03  0.22818092443E+03  0.47000000000E+01 0.  1.
         -5    1    4    4    0  502 -0.27569741966E+02  0.71429812960E+02 -0.63868060102E+03  0.64327078977E+03  0.47000000000E+01 0.  1.
          5    1    5    5  503    0  0.72424017297E+02  0.10350603366E+02 -0.35357770055E+03  0.36109784491E+03  0.47000000000E+01 0. -1.
         -5    1    5    5    0  503 -0.37912488113E+02 -0.32916621146E+02 -0.51594212049E+03  0.51840063889E+03  0.47000000000E+01 0. -1.
<mgrwt>
<rscale>  0 0.26402082E+03</rscale>
<asrwt>0</asrwt>
<pdfrwt beam="1">  1        1 0.26783678E+00 0.26402082E+03</pdfrwt>
<pdfrwt beam="2">  1       -1 0.15399955E-02 0.26402082E+03</pdfrwt>
<totfact> 0.49918815E+03</totfact>
</mgrwt>
</event>
<event>
 9    1  0.7986988E-001  0.2704661E+03  0.7818608E-02  0.1101013E+00
          2   -1    0    0  501    0  0.00000000000E+00  0.00000000000E+00  0.93409086935E+03  0.93409086935E+03  0.00000000000E+00 0.  1.
         -2   -1    0    0    0  501 -0.00000000000E+00 -0.00000000000E+00 -0.19578375255E+02  0.19578375255E+02  0.00000000000E+00 0.  1.
         35    2    1    2    0    0  0.71054273576E-14 -0.71054273576E-14  0.91451249409E+03  0.95366924460E+03  0.27046612773E+03 0.  0.
         25    2    3    3    0    0  0.52466405371E+01 -0.35171252494E+02  0.56884251694E+03  0.58357491233E+03  0.12535280206E+03 0.  0.
         25    2    3    3    0    0 -0.52466405371E+01  0.35171252494E+02  0.34566997716E+03  0.37009433227E+03  0.12734809553E+03 0.  0.
          5    1    4    4  502    0 -0.57611826165E+02 -0.32578685708E+02  0.32495829079E+03  0.33166319366E+03  0.47000000000E+01 0.  1.
         -5    1    4    4    0  502  0.62858466702E+02 -0.25925667858E+01  0.24388422615E+03  0.25191171867E+03  0.47000000000E+01 0.  1.
          5    1    5    5  503    0  0.47112267425E+02  0.54855861243E+02  0.15090058004E+03  0.16739715144E+03  0.47000000000E+01 0. -1.
         -5    1    5    5    0  503 -0.52358907962E+02 -0.19684608750E+02  0.19476939711E+03  0.20269718083E+03  0.47000000000E+01 0. -1.
<mgrwt>
<rscale>  0 0.27046613E+03</rscale>
<asrwt>0</asrwt>
<pdfrwt beam="1">  1        2 0.14370625E+00 0.27046613E+03</pdfrwt>
<pdfrwt beam="2">  1       -2 0.30120585E-02 0.27046613E+03</pdfrwt>
<totfact> 0.12115938E+04</totfact>
</mgrwt>
</event>
<event>
 9    1  0.7986988E-001  0.2591570E+03  0.7818608E-02  0.1107651E+00
          2   -1    0    0  501    0  0.00000000000E+00  0.00000000000E+00  0.67563382550E+03  0.67563382550E+03  0.00000000000E+00 0.  1.
         -2   -1    0    0    0  501 -0.00000000000E+00 -0.00000000000E+00 -0.24851613270E+02  0.24851613270E+02  0.00000000000E+00 0.  1.
         35    2    1    2    0    0  0.00000000000E+00  0.71054273576E-14  0.65078221223E+03  0.70048543877E+03  0.25915702223E+03 0.  0.
         25    2    3    3    0    0 -0.24837137156E+02  0.22807623246E+02  0.30788512064E+03  0.33356760935E+03  0.12384276900E+03 0.  0.
         25    2    3    3    0    0  0.24837137156E+02 -0.22807623246E+02  0.34289709159E+03  0.36691782942E+03  0.12614756069E+03 0.  0.
          5    1    4    4  502    0 -0.84018310525E-01  0.56573256098E+02  0.61854777120E+02  0.83956201779E+02  0.47000000000E+01 0. -1.
         -5    1    4    4    0  502 -0.24753118845E+02 -0.33765632853E+02  0.24603034352E+03  0.24961140757E+03  0.47000000000E+01 0. -1.
          5    1    5    5  503    0  0.47969839979E+02 -0.64905633105E+02  0.18718982659E+03  0.20390185859E+03  0.47000000000E+01 0. -1.
         -5    1    5    5    0  503 -0.23132702824E+02  0.42098009860E+02  0.15570726500E+03  0.16301597083E+03  0.47000000000E+01 0. -1.
<mgrwt>
<rscale>  0 0.25915702E+03</rscale>
<asrwt>0</asrwt>
<pdfrwt beam="1">  1        2 0.10394365E+00 0.25915702E+03</pdfrwt>
<pdfrwt beam="2">  1       -2 0.38233256E-02 0.25915702E+03</pdfrwt>
<totfact> 0.12789309E+04</totfact>
</mgrwt>
</event>
<event>
 9    1  0.7986988E-001  0.2724650E+03  0.7818608E-02  0.1099877E+00
         -2   -1    0    0    0  501 -0.00000000000E+00  0.00000000000E+00  0.21128983466E+02  0.21128983466E+02  0.00000000000E+00 0. -1.
          2   -1    0    0  501    0  0.00000000000E+00 -0.00000000000E+00 -0.87838075918E+03  0.87838075918E+03  0.00000000000E+00 0. -1.
         35    2    1    2    0    0  0.00000000000E+00  0.53290705182E-14 -0.85725177572E+03  0.89950974265E+03  0.27246498885E+03 0.  0.
         25    2    3    3    0    0 -0.47291494857E+02  0.11732013227E+02 -0.50052304242E+03  0.51877126718E+03  0.12738204757E+03 0.  0.
         25    2    3    3    0    0  0.47291494857E+02 -0.11732013227E+02 -0.35672873330E+03  0.38073847546E+03  0.12382355155E+03 0.  0.
          5    1    4    4  502    0  0.23887473834E+02  0.78313481190E+01 -0.18702096757E+02  0.31682800423E+02  0.47000000000E+01 0. -1.
         -5    1    4    4    0  502 -0.71178968690E+02  0.39006651084E+01 -0.48182094566E+03  0.48708846676E+03  0.47000000000E+01 0. -1.
          5    1    5    5  503    0  0.23948002690E+02  0.55920468075E+02 -0.15067804244E+03  0.16256250507E+03  0.47000000000E+01 0.  1.
         -5    1    5    5    0  503  0.23343492166E+02 -0.67652481302E+02 -0.20605069086E+03  0.21817597039E+03  0.47000000000E+01 0.  1.
<mgrwt>
<rscale>  0 0.27246499E+03</rscale>
<asrwt>0</asrwt>
<pdfrwt beam="1">  1        2 0.13513553E+00 0.27246499E+03</pdfrwt>
<pdfrwt beam="2">  1       -2 0.32506121E-02 0.27246499E+03</pdfrwt>
<totfact> 0.11748751E+04</totfact>
</mgrwt>
</event>
<event>
 9    1  0.7986988E-001  0.2759459E+03  0.7818608E-02  0.1097924E+00
          2   -1    0    0  501    0  0.00000000000E+00  0.00000000000E+00  0.88695434299E+02  0.88695434299E+02  0.00000000000E+00 0.  1.
         -2   -1    0    0    0  501 -0.00000000000E+00 -0.00000000000E+00 -0.21462816918E+03  0.21462816918E+03  0.00000000000E+00 0.  1.
         35    2    1    2    0    0  0.35527136788E-14  0.00000000000E+00 -0.12593273488E+03  0.30332360348E+03  0.27594592715E+03 0.  0.
         25    2    3    3    0    0  0.11140753958E+02  0.22883200882E+02 -0.12141649034E+03  0.17611277723E+03  0.12500395552E+03 0.  0.
         25    2    3    3    0    0 -0.11140753958E+02 -0.22883200882E+02 -0.45162445403E+01  0.12721082624E+03  0.12455697719E+03 0.  0.
          5    1    4    4  502    0  0.16427643377E+01  0.39612190259E+01 -0.14438394472E+03  0.14452405829E+03  0.47000000000E+01 0.  1.
         -5    1    4    4    0  502  0.94979896203E+01  0.18921981856E+02  0.22967454378E+02  0.31588718948E+02  0.47000000000E+01 0.  1.
          5    1    5    5  503    0 -0.59333809162E+02 -0.22694786879E+02  0.27266329295E+02  0.69289948581E+02  0.47000000000E+01 0.  1.
         -5    1    5    5    0  503  0.48193055204E+02 -0.18841400367E+00 -0.31782573835E+02  0.57920877664E+02  0.47000000000E+01 0.  1.
<mgrwt>
<rscale>  0 0.27594593E+03</rscale>
<asrwt>0</asrwt>
<pdfrwt beam="1">  1        2 0.13645452E-01 0.27594593E+03</pdfrwt>
<pdfrwt beam="2">  1       -2 0.33019718E-01 0.27594593E+03</pdfrwt>
<totfact> 0.37228040E+03</totfact>
</mgrwt>
</event>
<event>
 9    1  0.7986988E-001  0.2767373E+03  0.7818608E-02  0.1097484E+00
         -1   -1    0    0    0  501 -0.00000000000E+00  0.00000000000E+00  0.25325068988E+02  0.25325068988E+02  0.00000000000E+00 0.  1.
          1   -1    0    0  501    0  0.00000000000E+00 -0.00000000000E+00 -0.75600526974E+03  0.75600526974E+03  0.00000000000E+00 0.  1.
         35    2    1    2    0    0 -0.17763568394E-14 -0.71054273576E-14 -0.73068020075E+03  0.78133033872E+03  0.27673731669E+03 0.  0.
         25    2    3    3    0    0 -0.54999224737E+01 -0.12871883584E+02 -0.20114748522E+03  0.23704487348E+03  0.12463557559E+03 0.  0.
         25    2    3    3    0    0  0.54999224737E+01  0.12871883584E+02 -0.52953271553E+03  0.54428546524E+03  0.12508331751E+03 0.  0.
          5    1    4    4  502    0 -0.24795880914E+02 -0.46259476869E+02 -0.28158458149E+02  0.59747499327E+02  0.47000000000E+01 0. -1.
         -5    1    4    4    0  502  0.19295958440E+02  0.33387593285E+02 -0.17298902707E+03  0.17729737416E+03  0.47000000000E+01 0. -1.
          5    1    5    5  503    0  0.13975787783E+02 -0.54544339369E+02 -0.27872824098E+03  0.28439748578E+03  0.47000000000E+01 0.  1.
         -5    1    5    5    0  503 -0.84758653092E+01  0.67416222953E+02 -0.25080447455E+03  0.25988797946E+03  0.47000000000E+01 0.  1.
<mgrwt>
<rscale>  0 0.27673732E+03</rscale>
<asrwt>0</asrwt>
<pdfrwt beam="1">  1        1 0.11630848E+00 0.27673732E+03</pdfrwt>
<pdfrwt beam="2">  1       -1 0.38961651E-02 0.27673732E+03</pdfrwt>
<totfact> 0.64144400E+03</totfact>
</mgrwt>
</event>
<event>
 9    1  0.7986988E-001  0.2762238E+03  0.7818608E-02  0.1097769E+00
         -2   -1    0    0    0  501 -0.00000000000E+00  0.00000000000E+00  0.18328504249E+02  0.18328504249E+02  0.00000000000E+00 0.  1.
          2   -1    0    0  501    0  0.00000000000E+00 -0.00000000000E+00 -0.10407233962E+04  0.10407233962E+04  0.00000000000E+00 0.  1.
         35    2    1    2    0    0  0.00000000000E+00  0.00000000000E+00 -0.10223948919E+04  0.10590519004E+04  0.27622384538E+03 0.  0.
         25    2    3    3    0    0  0.19312221615E+02  0.88122316382E+01 -0.29804713819E+03  0.32366322198E+03  0.12439922569E+03 0.  0.
         25    2    3    3    0    0 -0.19312221615E+02 -0.88122316382E+01 -0.72434775373E+03  0.73538867844E+03  0.12516478220E+03 0.  0.
          5    1    4    4  502    0 -0.39260846465E+01  0.32706572341E+02 -0.11590743826E+02  0.35235910055E+02  0.47000000000E+01 0. -1.
         -5    1    4    4    0  502  0.23238306261E+02 -0.23894340703E+02 -0.28645639436E+03  0.28842731193E+03  0.47000000000E+01 0. -1.
          5    1    5    5  503    0  0.18467237336E+02  0.15676152116E+02 -0.63260666292E+03  0.63308771949E+03  0.47000000000E+01 0.  1.
         -5    1    5    5    0  503 -0.37779458950E+02 -0.24488383754E+02 -0.91741090818E+02  0.10230095895E+03  0.47000000000E+01 0.  1.
<mgrwt>
<rscale>  0 0.27622385E+03</rscale>
<asrwt>0</asrwt>
<pdfrwt beam="1">  1        2 0.16011134E+00 0.27622385E+03</pdfrwt>
<pdfrwt beam="2">  1       -2 0.28197689E-02 0.27622385E+03</pdfrwt>
<totfact> 0.11494795E+04</totfact>
</mgrwt>
</event>
<event>
 9    1  0.7986988E-001  0.2788858E+03  0.7818608E-02  0.1096299E+00
         -2   -1    0    0    0  501 -0.00000000000E+00  0.00000000000E+00  0.68997147579E+03  0.68997147579E+03  0.00000000000E+00 0.  1.
          2   -1    0    0  501    0  0.00000000000E+00 -0.00000000000E+00 -0.28181351109E+02  0.28181351109E+02  0.00000000000E+00 0.  1.
         35    2    1    2    0    0 -0.17763568394E-14 -0.71054273576E-14  0.66179012469E+03  0.71815282690E+03  0.27888584342E+03 0.  0.
         25    2    3    3    0    0 -0.67210362614E+01 -0.37448283965E+02  0.45763212154E+03  0.47586048379E+03  0.12477377555E+03 0.  0.
         25    2    3    3    0    0  0.67210362614E+01  0.37448283965E+02  0.20415800314E+03  0.24229234311E+03  0.12481002758E+03 0.  0.
          5    1    4    4  502    0  0.14585509672E+02 -0.13249802658E+02  0.34964475449E+01  0.20557468431E+02  0.47000000000E+01 0.  1.
         -5    1    4    4    0  502 -0.21306545934E+02 -0.24198481307E+02  0.45413567400E+03  0.45530301536E+03  0.47000000000E+01 0.  1.
          5    1    5    5  503    0  0.24116117976E+02  0.48049785681E+02  0.21289886830E+03  0.21963239099E+03  0.47000000000E+01 0.  1.
         -5    1    5    5    0  503 -0.17395081715E+02 -0.10601501716E+02 -0.87408651548E+01  0.22659952122E+02  0.47000000000E+01 0.  1.
<mgrwt>
<rscale>  0 0.27888584E+03</rscale>
<asrwt>0</asrwt>
<pdfrwt beam="1">  1        2 0.43355930E-02 0.27888584E+03</pdfrwt>
<pdfrwt beam="2">  1       -2 0.10614944E+00 0.27888584E+03</pdfrwt>
<totfact> 0.14172525E+03</totfact>
</mgrwt>
</event>
<event>
 9    1  0.7986988E-001  0.2764430E+03  0.7818608E-02  0.1097648E+00
         -2   -1    0    0    0  501 -0.00000000000E+00  0.00000000000E+00  0.36742276159E+02  0.36742276159E+02  0.00000000000E+00 0.  1.
          2   -1    0    0  501    0  0.00000000000E+00 -0.00000000000E+00 -0.51997829678E+03  0.51997829678E+03  0.00000000000E+00 0.  1.
         35    2    1    2    0    0  0.00000000000E+00  0.71054273576E-14 -0.48323602062E+03  0.55672057294E+03  0.27644302253E+03 0.  0.
         25    2    3    3    0    0  0.22814146604E+02 -0.50300741439E+02 -0.29049473026E+03  0.32112979786E+03  0.12524579391E+03 0.  0.
         25    2    3    3    0    0 -0.22814146604E+02  0.50300741439E+02 -0.19274129036E+03  0.23559077507E+03  0.12370593525E+03 0.  0.
          5    1    4    4  502    0  0.73524058442E+02 -0.16004501030E+02 -0.16595548098E+03  0.18227792760E+03  0.47000000000E+01 0.  1.
         -5    1    4    4    0  502 -0.50709911838E+02 -0.34296240409E+02 -0.12453924928E+03  0.13885187027E+03  0.47000000000E+01 0.  1.
          5    1    5    5  503    0 -0.62342081187E+02 -0.40276198424E+00 -0.54027319001E+02  0.82630130717E+02  0.47000000000E+01 0.  1.
         -5    1    5    5    0  503  0.39527934583E+02  0.50703503423E+02 -0.13871397136E+03  0.15296064436E+03  0.47000000000E+01 0.  1.
<mgrwt>
<rscale>  0 0.27644302E+03</rscale>
<asrwt>0</asrwt>
<pdfrwt beam="1">  1        2 0.79996660E-01 0.27644302E+03</pdfrwt>
<pdfrwt beam="2">  1       -2 0.56526579E-02 0.27644302E+03</pdfrwt>
<totfact> 0.96092534E+03</totfact>
</mgrwt>
</event>
<event>
 9    1  0.7986988E-001  0.2716068E+03  0.7818608E-02  0.1100364E+00
         -2   -1    0    0    0  501 -0.00000000000E+00  0.00000000000E+00  0.40349581879E+02  0.40349581879E+02  0.00000000000E+00 0. -1.
          2   -1    0    0  501    0  0.00000000000E+00 -0.00000000000E+00 -0.45706943340E+03  0.45706943340E+03  0.00000000000E+00 0. -1.
         35    2    1    2    0    0  0.71054273576E-14  0.00000000000E+00 -0.41671985152E+03  0.49741901527E+03  0.27160677847E+03 0.  0.
         25    2    3    3    0    0 -0.49205069009E+02  0.50134315762E+00 -0.16983221597E+03  0.21687581955E+03  0.12558164422E+03 0.  0.
         25    2    3    3    0    0  0.49205069009E+02 -0.50134315762E+00 -0.24688763555E+03  0.28054319572E+03  0.12381272114E+03 0.  0.
          5    1    4    4  502    0 -0.12409531526E+02 -0.55491102165E+02 -0.12118275897E+03  0.13394256219E+03  0.47000000000E+01 0. -1.
         -5    1    4    4    0  502 -0.36795537483E+02  0.55992445323E+02 -0.48649456992E+02  0.82933257368E+02  0.47000000000E+01 0. -1.
          5    1    5    5  503    0  0.18232518858E+02  0.56402818556E+02 -0.16881541685E+03  0.17898166848E+03  0.47000000000E+01 0. -1.
         -5    1    5    5    0  503  0.30972550151E+02 -0.56904161714E+02 -0.78072218700E+02  0.10156152724E+03  0.47000000000E+01 0. -1.
<mgrwt>
<rscale>  0 0.27160678E+03</rscale>
<asrwt>0</asrwt>
<pdfrwt beam="1">  1        2 0.70318369E-01 0.27160678E+03</pdfrwt>
<pdfrwt beam="2">  1       -2 0.62076285E-02 0.27160678E+03</pdfrwt>
<totfact> 0.96038519E+03</totfact>
</mgrwt>
</event>
<event>
 9    1  0.7986988E-001  0.2716213E+03  0.7818608E-02  0.1100355E+00
          2   -1    0    0  501    0  0.00000000000E+00  0.00000000000E+00  0.14614089606E+04  0.14614089606E+04  0.00000000000E+00 0.  1.
         -2   -1    0    0    0  501 -0.00000000000E+00 -0.00000000000E+00 -0.12621061243E+02  0.12621061243E+02  0.00000000000E+00 0.  1.
         35    2    1    2    0    0 -0.71054273576E-14  0.00000000000E+00  0.14487878994E+04  0.14740300219E+04  0.27162129513E+03 0.  0.
         25    2    3    3    0    0 -0.63191968659E+01 -0.60093642172E+02  0.72340807521E+03  0.73665488834E+03  0.12525974281E+03 0.  0.
         25    2    3    3    0    0  0.63191968659E+01  0.60093642172E+02  0.72537982419E+03  0.73737513354E+03  0.11787714001E+03 0.  0.
          5    1    4    4  502    0  0.30809594995E+02  0.12058102140E+02  0.45461070566E+03  0.45583726556E+03  0.47000000000E+01 0.  1.
         -5    1    4    4    0  502 -0.37128791861E+02 -0.72151744312E+02  0.26879736954E+03  0.28081762278E+03  0.47000000000E+01 0.  1.
          5    1    5    5  503    0  0.31522656414E+02  0.59005931250E+02  0.19194163073E+03  0.20332008606E+03  0.47000000000E+01 0.  1.
         -5    1    5    5    0  503 -0.25203459548E+02  0.10877109217E+01  0.53343819346E+03  0.53405504747E+03  0.47000000000E+01 0.  1.
<mgrwt>
<rscale>  0 0.27162130E+03</rscale>
<asrwt>0</asrwt>
<pdfrwt beam="1">  1        2 0.22483201E+00 0.27162130E+03</pdfrwt>
<pdfrwt beam="2">  1       -2 0.19417029E-02 0.27162130E+03</pdfrwt>
<totfact> 0.11552232E+04</totfact>
</mgrwt>
</event>
<event>
 9    1  0.7986988E-001  0.2751832E+03  0.7818608E-02  0.1098349E+00
         -3   -1    0    0    0  501 -0.00000000000E+00  0.00000000000E+00  0.22067604223E+02  0.22067604223E+02  0.00000000000E+00 0.  1.
          3   -1    0    0  501    0  0.00000000000E+00 -0.00000000000E+00 -0.85788434648E+03  0.85788434648E+03  0.00000000000E+00 0.  1.
         35    2    1    2    0    0 -0.71054273576E-14  0.00000000000E+00 -0.83581674225E+03  0.87995195070E+03  0.27518322788E+03 0.  0.
         25    2    3    3    0    0  0.56419606864E+02  0.81308051575E+01 -0.37965253735E+03  0.40376150780E+03  0.12505208529E+03 0.  0.
         25    2    3    3    0    0 -0.56419606864E+02 -0.81308051575E+01 -0.45616420490E+03  0.47619044290E+03  0.12418644870E+03 0.  0.
          5    1    4    4  502    0 -0.15875352614E+02  0.26457290911E+02 -0.21508560890E+02  0.37904132421E+02  0.47000000000E+01 0. -1.
         -5    1    4    4    0  502  0.72294959478E+02 -0.18326485754E+02 -0.35814397646E+03  0.36585737538E+03  0.47000000000E+01 0. -1.
          5    1    5    5  503    0  0.30172358220E+02 -0.15452433827E+02 -0.48615810438E+02  0.59453645274E+02  0.47000000000E+01 0. -1.
         -5    1    5    5    0  503 -0.86591965084E+02  0.73216286696E+01 -0.40754839446E+03  0.41673679762E+03  0.47000000000E+01 0. -1.
<mgrwt>
<rscale>  0 0.27518323E+03</rscale>
<asrwt>0</asrwt>
<pdfrwt beam="1">  1        3 0.13198218E+00 0.27518323E+03</pdfrwt>
<pdfrwt beam="2">  1       -3 0.33950168E-02 0.27518323E+03</pdfrwt>
<totfact> 0.50206367E+02</totfact>
</mgrwt>
</event>
<event>
 9    1  0.7986988E-001  0.2747640E+03  0.7818608E-02  0.1098584E+00
         -2   -1    0    0    0  501 -0.00000000000E+00  0.00000000000E+00  0.84609823136E+02  0.84609823136E+02  0.00000000000E+00 0. -1.
          2   -1    0    0  501    0  0.00000000000E+00 -0.00000000000E+00 -0.22306879020E+03  0.22306879020E+03  0.00000000000E+00 0. -1.
         35    2    1    2    0    0  0.00000000000E+00  0.71054273576E-14 -0.13845896706E+03  0.30767861333E+03  0.27476397788E+03 0.  0.
         25    2    3    3    0    0  0.49164190612E+02  0.32604183080E+01 -0.43092730357E+02  0.14241758353E+03  0.12648334564E+03 0.  0.
         25    2    3    3    0    0 -0.49164190612E+02 -0.32604183080E+01 -0.95366236703E+02  0.16526102980E+03  0.12565325663E+03 0.  0.
          5    1    4    4  502    0  0.20638490568E+02  0.63259608490E+02 -0.81396102895E+01  0.67201700982E+02  0.47000000000E+01 0. -1.
         -5    1    4    4    0  502  0.28525700045E+02 -0.59999190182E+02 -0.34953120067E+02  0.75215882551E+02  0.47000000000E+01 0. -1.
          5    1    5    5  503    0 -0.20084122759E+02  0.56433172377E+02 -0.17008392079E+02  0.62445578968E+02  0.47000000000E+01 0. -1.
         -5    1    5    5    0  503 -0.29080067854E+02 -0.59693590685E+02 -0.78357844625E+02  0.10281545083E+03  0.47000000000E+01 0. -1.
<mgrwt>
<rscale>  0 0.27476398E+03</rscale>
<asrwt>0</asrwt>
<pdfrwt beam="1">  1        2 0.34318276E-01 0.27476398E+03</pdfrwt>
<pdfrwt beam="2">  1       -2 0.13016896E-01 0.27476398E+03</pdfrwt>
<totfact> 0.64917077E+03</totfact>
</mgrwt>
</event>
<event>
 9    1  0.7986988E-001  0.2718570E+03  0.7818608E-02  0.1100221E+00
          2   -1    0    0  501    0  0.00000000000E+00  0.00000000000E+00  0.24528769880E+03  0.24528769880E+03  0.00000000000E+00 0. -1.
         -2   -1    0    0    0  501 -0.00000000000E+00 -0.00000000000E+00 -0.75326080907E+02  0.75326080907E+02  0.00000000000E+00 0. -1.
         35    2    1    2    0    0  0.00000000000E+00  0.00000000000E+00  0.16996161789E+03  0.32061377971E+03  0.27185702894E+03 0.  0.
         25    2    3    3    0    0  0.44391580920E+02  0.76970798387E+01  0.11604399296E+03  0.17624282067E+03  0.12476163689E+03 0.  0.
         25    2    3    3    0    0 -0.44391580920E+02 -0.76970798387E+01  0.53917624931E+02  0.14437095904E+03  0.12611901538E+03 0.  0.
          5    1    4    4  502    0  0.49949939096E+02 -0.41031088032E+02  0.19216215132E+02  0.67601031980E+02  0.47000000000E+01 0.  1.
         -5    1    4    4    0  502 -0.55583581762E+01  0.48728167870E+02  0.96827777832E+02  0.10864178869E+03  0.47000000000E+01 0.  1.
          5    1    5    5  503    0 -0.25841835763E+02  0.23811040113E+02  0.87559153252E+02  0.94464074785E+02  0.47000000000E+01 0.  1.
         -5    1    5    5    0  503 -0.18549745157E+02 -0.31508119951E+02 -0.33641528322E+02  0.49906884255E+02  0.47000000000E+01 0.  1.
<mgrwt>
<rscale>  0 0.27185703E+03</rscale>
<asrwt>0</asrwt>
<pdfrwt beam="1">  1        2 0.37736569E-01 0.27185703E+03</pdfrwt>
<pdfrwt beam="2">  1       -2 0.11588628E-01 0.27185703E+03</pdfrwt>
<totfact> 0.70657231E+03</totfact>
</mgrwt>
</event>
<event>
 9    1  0.7986988E-001  0.2742089E+03  0.7818608E-02  0.1098895E+00
         -2   -1    0    0    0  501 -0.00000000000E+00  0.00000000000E+00  0.12779413082E+02  0.12779413082E+02  0.00000000000E+00 0.  1.
          2   -1    0    0  501    0  0.00000000000E+00 -0.00000000000E+00 -0.14709310160E+04  0.14709310160E+04  0.00000000000E+00 0.  1.
         35    2    1    2    0    0  0.00000000000E+00  0.00000000000E+00 -0.14581516029E+04  0.14837104291E+04  0.27420893544E+03 0.  0.
         25    2    3    3    0    0 -0.49581744978E+02  0.26253713176E+02 -0.71892611460E+03  0.73198435911E+03  0.12569302619E+03 0.  0.
         25    2    3    3    0    0  0.49581744978E+02 -0.26253713176E+02 -0.73922548834E+03  0.75172607000E+03  0.12445945047E+03 0.  0.
          5    1    4    4  502    0 -0.11477082756E+02 -0.19615064633E+02 -0.58320311109E+03  0.58366465798E+03  0.47000000000E+01 0. -1.
         -5    1    4    4    0  502 -0.38104662222E+02  0.45868777810E+02 -0.13572300351E+03  0.14831970113E+03  0.47000000000E+01 0. -1.
          5    1    5    5  503    0  0.68627759021E+02 -0.71164538982E+01 -0.70253292624E+03  0.70592847773E+03  0.47000000000E+01 0.  1.
         -5    1    5    5    0  503 -0.19046014043E+02 -0.19137259278E+02 -0.36692562101E+02  0.45797592264E+02  0.47000000000E+01 0.  1.
<mgrwt>
<rscale>  0 0.27420894E+03</rscale>
<asrwt>0</asrwt>
<pdfrwt beam="1">  1        2 0.22629697E+00 0.27420894E+03</pdfrwt>
<pdfrwt beam="2">  1       -2 0.19660645E-02 0.27420894E+03</pdfrwt>
<totfact> 0.11211904E+04</totfact>
</mgrwt>
</event>
<event>
 9    1  0.7986988E-001  0.2698947E+03  0.7818608E-02  0.1101340E+00
         -2   -1    0    0    0  501 -0.00000000000E+00  0.00000000000E+00  0.10890306146E+02  0.10890306146E+02  0.00000000000E+00 0. -1.
          2   -1    0    0  501    0  0.00000000000E+00 -0.00000000000E+00 -0.16722010299E+04  0.16722010299E+04  0.00000000000E+00 0. -1.
         35    2    1    2    0    0  0.00000000000E+00  0.00000000000E+00 -0.16613107238E+04  0.16830913361E+04  0.26989465466E+03 0.  0.
         25    2    3    3    0    0  0.16308170265E+02  0.29353168351E+02 -0.60854682661E+03  0.62215930068E+03  0.12500156132E+03 0.  0.
         25    2    3    3    0    0 -0.16308170265E+02 -0.29353168351E+02 -0.10527638972E+04  0.10609320354E+04  0.12703304937E+03 0.  0.
          5    1    4    4  502    0  0.44113959175E+01  0.28796432105E+02 -0.60864038627E+03  0.60935531893E+03  0.47000000000E+01 0.  1.
         -5    1    4    4    0  502  0.11896774347E+02  0.55673624677E+00  0.93559656427E-01  0.12803981745E+02  0.47000000000E+01 0.  1.
          5    1    5    5  503    0  0.35917905553E+02  0.31669558198E+02 -0.50559889093E+03  0.50788323989E+03  0.47000000000E+01 0. -1.
         -5    1    5    5    0  503 -0.52226075818E+02 -0.61022726550E+02 -0.54716500623E+03  0.55304879549E+03  0.47000000000E+01 0. -1.
<mgrwt>
<rscale>  0 0.26989465E+03</rscale>
<asrwt>0</asrwt>
<pdfrwt beam="1">  1        2 0.25726174E+00 0.26989465E+03</pdfrwt>
<pdfrwt beam="2">  1       -2 0.16754314E-02 0.26989465E+03</pdfrwt>
<totfact> 0.11080224E+04</totfact>
</mgrwt>
</event>
<event>
 9    1  0.7986988E-001  0.2758650E+03  0.7818608E-02  0.1097969E+00
          2   -1    0    0  501    0  0.00000000000E+00  0.00000000000E+00  0.69135494453E+03  0.69135494453E+03  0.00000000000E+00 0. -1.
         -2   -1    0    0    0  501 -0.00000000000E+00 -0.00000000000E+00 -0.27518976757E+02  0.27518976757E+02  0.00000000000E+00 0. -1.
         35    2    1    2    0    0  0.00000000000E+00  0.17763568394E-14  0.66383596777E+03  0.71887392129E+03  0.27586504417E+03 0.  0.
         25    2    3    3    0    0  0.31347007602E+02 -0.10130047088E+02  0.45377315161E+03  0.47214385674E+03  0.12619229610E+03 0.  0.
         25    2    3    3    0    0 -0.31347007602E+02  0.10130047088E+02  0.21006281616E+03  0.24673006454E+03  0.12515624346E+03 0.  0.
          5    1    4    4  502    0 -0.29748877226E+02 -0.38981295263E+02  0.30136133610E+03  0.30536090446E+03  0.47000000000E+01 0.  1.
         -5    1    4    4    0  502  0.61095884828E+02  0.28851248175E+02  0.15241181551E+03  0.16678295228E+03  0.47000000000E+01 0.  1.
          5    1    5    5  503    0  0.22216015268E+02 -0.10020010152E+02 -0.39637929540E+01  0.25134708919E+02  0.47000000000E+01 0.  1.
         -5    1    5    5    0  503 -0.53563022870E+02  0.20150057240E+02  0.21402660911E+03  0.22159535562E+03  0.47000000000E+01 0.  1.
<mgrwt>
<rscale>  0 0.27586504E+03</rscale>
<asrwt>0</asrwt>
<pdfrwt beam="1">  1        2 0.10636229E+00 0.27586504E+03</pdfrwt>
<pdfrwt beam="2">  1       -2 0.42336892E-02 0.27586504E+03</pdfrwt>
<totfact> 0.10698140E+04</totfact>
</mgrwt>
</event>
<event>
 9    1  0.7986988E-001  0.2711669E+03  0.7818608E-02  0.1100614E+00
         -2   -1    0    0    0  501 -0.00000000000E+00  0.00000000000E+00  0.26669651090E+02  0.26669651090E+02  0.00000000000E+00 0. -1.
          2   -1    0    0  501    0  0.00000000000E+00 -0.00000000000E+00 -0.68928062622E+03  0.68928062622E+03  0.00000000000E+00 0. -1.
         35    2    1    2    0    0  0.00000000000E+00  0.71054273576E-14 -0.66261097513E+03  0.71595027731E+03  0.27116691394E+03 0.  0.
         25    2    3    3    0    0 -0.41938078551E+02  0.28118070132E+02 -0.30006798046E+03  0.32918072094E+03  0.12557756904E+03 0.  0.
         25    2    3    3    0    0  0.41938078551E+02 -0.28118070132E+02 -0.36254299467E+03  0.38676955636E+03  0.12491532510E+03 0.  0.
          5    1    4    4  502    0 -0.40128358190E+02  0.73163976615E+02 -0.23855041233E+03  0.25276796045E+03  0.47000000000E+01 0.  1.
         -5    1    4    4    0  502 -0.18097203615E+01 -0.45045906483E+02 -0.61517568124E+02  0.76412760496E+02  0.47000000000E+01 0.  1.
          5    1    5    5  503    0 -0.86824751734E+01 -0.39710718870E+02 -0.31019713344E+03  0.31288444858E+03  0.47000000000E+01 0. -1.
         -5    1    5    5    0  503  0.50620553725E+02  0.11592648738E+02 -0.52345861227E+02  0.73885107781E+02  0.47000000000E+01 0. -1.
<mgrwt>
<rscale>  0 0.27116691E+03</rscale>
<asrwt>0</asrwt>
<pdfrwt beam="1">  1        2 0.10604317E+00 0.27116691E+03</pdfrwt>
<pdfrwt beam="2">  1       -2 0.41030234E-02 0.27116691E+03</pdfrwt>
<totfact> 0.11249156E+04</totfact>
</mgrwt>
</event>
<event>
 9    1  0.7986988E-001  0.2755921E+03  0.7818608E-02  0.1098121E+00
          1   -1    0    0  501    0  0.00000000000E+00  0.00000000000E+00  0.37890315969E+03  0.37890315969E+03  0.00000000000E+00 0.  1.
         -1   -1    0    0    0  501 -0.00000000000E+00 -0.00000000000E+00 -0.50112399290E+02  0.50112399290E+02  0.00000000000E+00 0.  1.
         35    2    1    2    0    0 -0.14210854715E-13  0.00000000000E+00  0.32879076040E+03  0.42901555898E+03  0.27559206397E+03 0.  0.
         25    2    3    3    0    0  0.39904598166E+02 -0.41838178946E+01  0.10135851728E+03  0.16642864265E+03  0.12575795315E+03 0.  0.
         25    2    3    3    0    0 -0.39904598166E+02  0.41838178946E+01  0.22743224312E+03  0.26258691633E+03  0.12496632399E+03 0.  0.
          5    1    4    4  502    0  0.63030208403E+02 -0.30054558403E+02  0.10998544984E+03  0.13036476836E+03  0.47000000000E+01 0. -1.
         -5    1    4    4    0  502 -0.23125610237E+02  0.25870740508E+02 -0.86269325614E+01  0.36063874289E+02  0.47000000000E+01 0. -1.
          5    1    5    5  503    0 -0.30826715704E+02  0.34133917460E+02  0.22624236494E+03  0.23091796902E+03  0.47000000000E+01 0.  1.
         -5    1    5    5    0  503 -0.90778824620E+01 -0.29950099565E+02  0.11898781810E+01  0.31668947315E+02  0.47000000000E+01 0.  1.
<mgrwt>
<rscale>  0 0.27559206E+03</rscale>
<asrwt>0</asrwt>
<pdfrwt beam="1">  1        1 0.58292792E-01 0.27559206E+03</pdfrwt>
<pdfrwt beam="2">  1       -1 0.77096001E-02 0.27559206E+03</pdfrwt>
<totfact> 0.58878735E+03</totfact>
</mgrwt>
</event>
<event>
 9    1  0.7986988E-001  0.2722926E+03  0.7818608E-02  0.1099975E+00
          2   -1    0    0  501    0  0.00000000000E+00  0.00000000000E+00  0.24870603328E+03  0.24870603328E+03  0.00000000000E+00 0.  1.
         -2   -1    0    0    0  501 -0.00000000000E+00 -0.00000000000E+00 -0.74529013692E+02  0.74529013692E+02  0.00000000000E+00 0.  1.
         35    2    1    2    0    0  0.00000000000E+00 -0.35527136788E-14  0.17417701959E+03  0.32323504697E+03  0.27229260262E+03 0.  0.
         25    2    3    3    0    0  0.11522956911E+02 -0.11163564412E+02  0.14877678523E+03  0.19503755643E+03  0.12509081857E+03 0.  0.
         25    2    3    3    0    0 -0.11522956911E+02  0.11163564412E+02  0.25400234363E+02  0.12819749054E+03  0.12462752894E+03 0.  0.
          5    1    4    4  502    0 -0.53980320782E+02 -0.21108154717E+02  0.84751912841E+02  0.10278329610E+03  0.47000000000E+01 0.  1.
         -5    1    4    4    0  502  0.65503277693E+02  0.99445903049E+01  0.64024872387E+02  0.92254260330E+02  0.47000000000E+01 0.  1.
          5    1    5    5  503    0  0.53194600403E+02 -0.10697645713E+02  0.24500546069E+02  0.59719945525E+02  0.47000000000E+01 0. -1.
         -5    1    5    5    0  503 -0.64717557313E+02  0.21861210125E+02  0.89968829396E+00  0.68477545018E+02  0.47000000000E+01 0. -1.
<mgrwt>
<rscale>  0 0.27229260E+03</rscale>
<asrwt>0</asrwt>
<pdfrwt beam="1">  1        2 0.38262466E-01 0.27229260E+03</pdfrwt>
<pdfrwt beam="2">  1       -2 0.11466002E-01 0.27229260E+03</pdfrwt>
<totfact> 0.70813516E+03</totfact>
</mgrwt>
</event>
<event>
 9    1  0.7986988E-001  0.2732660E+03  0.7818608E-02  0.1099425E+00
          2   -1    0    0  501    0  0.00000000000E+00  0.00000000000E+00  0.51517356939E+04  0.51517356939E+04  0.00000000000E+00 0. -1.
         -2   -1    0    0    0  501 -0.00000000000E+00 -0.00000000000E+00 -0.36237462969E+01  0.36237462969E+01  0.00000000000E+00 0. -1.
         35    2    1    2    0    0 -0.71054273576E-14 -0.35527136788E-14  0.51481119476E+04  0.51553594402E+04  0.27326604724E+03 0.  0.
         25    2    3    3    0    0  0.25011714341E+02 -0.22820208772E+02  0.17593145980E+04  0.17640727646E+04  0.12497406142E+03 0.  0.
         25    2    3    3    0    0 -0.25011714341E+02  0.22820208772E+02  0.33887973496E+04  0.33912866756E+04  0.12542524512E+03 0.  0.
          5    1    4    4  502    0 -0.51844688742E+01 -0.65280826956E+02  0.60061656918E+03  0.60419435471E+03  0.47000000000E+01 0.  1.
         -5    1    4    4    0  502  0.30196183216E+02  0.42460618184E+02  0.11586980289E+04  0.11598784099E+04  0.47000000000E+01 0.  1.
          5    1    5    5  503    0 -0.51574198700E+02 -0.10096827134E+02  0.29406029586E+04  0.29410762816E+04  0.47000000000E+01 0.  1.
         -5    1    5    5    0  503  0.26562484359E+02  0.32917035906E+02  0.44819439099E+03  0.45021039408E+03  0.47000000000E+01 0.  1.
<mgrwt>
<rscale>  0 0.27326605E+03</rscale>
<asrwt>0</asrwt>
<pdfrwt beam="1">  1        2 0.79256886E+00 0.27326605E+03</pdfrwt>
<pdfrwt beam="2">  1       -2 0.55750356E-03 0.27326605E+03</pdfrwt>
<totfact> 0.16208445E+02</totfact>
</mgrwt>
</event>
<event>
 9    1  0.7986988E-001  0.2754986E+03  0.7818608E-02  0.1098173E+00
         -1   -1    0    0    0  501 -0.00000000000E+00  0.00000000000E+00  0.11652862223E+04  0.11652862223E+04  0.00000000000E+00 0. -1.
          1   -1    0    0  501    0  0.00000000000E+00 -0.00000000000E+00 -0.16283437912E+02  0.16283437912E+02  0.00000000000E+00 0. -1.
         35    2    1    2    0    0 -0.35527136788E-14  0.00000000000E+00  0.11490027844E+04  0.11815696602E+04  0.27549857241E+03 0.  0.
         25    2    3    3    0    0  0.84522874004E+01 -0.36834594166E+02  0.76779831969E+03  0.77870950646E+03  0.12428196665E+03 0.  0.
         25    2    3    3    0    0 -0.84522874004E+01  0.36834594166E+02  0.38120446468E+03  0.40286015374E+03  0.12470457526E+03 0.  0.
          5    1    4    4  502    0  0.44062734955E+02 -0.26592324698E+02  0.69471663403E+03  0.69663618047E+03  0.47000000000E+01 0.  1.
         -5    1    4    4    0  502 -0.35610447555E+02 -0.10242269468E+02  0.73081685661E+02  0.82073325984E+02  0.47000000000E+01 0.  1.
          5    1    5    5  503    0 -0.31722288726E+02  0.54774137402E+02  0.89946761930E+02  0.11008641929E+03  0.47000000000E+01 0. -1.
         -5    1    5    5    0  503  0.23270001326E+02 -0.17939543236E+02  0.29125770275E+03  0.29277373445E+03  0.47000000000E+01 0. -1.
<mgrwt>
<rscale>  0 0.27549857E+03</rscale>
<asrwt>0</asrwt>
<pdfrwt beam="1">  1        1 0.25051452E-02 0.27549857E+03</pdfrwt>
<pdfrwt beam="2">  1       -1 0.17927474E+00 0.27549857E+03</pdfrwt>
<totfact> 0.10173019E+03</totfact>
</mgrwt>
</event>
<event>
 9    1  0.7986988E-001  0.2772917E+03  0.7818608E-02  0.1097177E+00
         -1   -1    0    0    0  501 -0.00000000000E+00  0.00000000000E+00  0.82869069284E+02  0.82869069284E+02  0.00000000000E+00 0. -1.
          1   -1    0    0  501    0  0.00000000000E+00 -0.00000000000E+00 -0.23196434314E+03  0.23196434314E+03  0.00000000000E+00 0. -1.
         35    2    1    2    0    0  0.00000000000E+00  0.00000000000E+00 -0.14909527386E+03  0.31483341243E+03  0.27729168198E+03 0.  0.
         25    2    3    3    0    0  0.46059603265E+02 -0.32491814569E+02 -0.67215889368E+02  0.15298552524E+03  0.12533710577E+03 0.  0.
         25    2    3    3    0    0 -0.46059603265E+02  0.32491814569E+02 -0.81879384489E+02  0.16184788718E+03  0.12772352921E+03 0.  0.
          5    1    4    4  502    0  0.37505648777E+02  0.42203922164E+02 -0.50335862658E+02  0.75786765373E+02  0.47000000000E+01 0. -1.
         -5    1    4    4    0  502  0.85539544883E+01 -0.74695736734E+02 -0.16880026710E+02  0.77198759869E+02  0.47000000000E+01 0. -1.
          5    1    5    5  503    0 -0.35850051218E+02  0.37748076902E+01 -0.11259771777E+03  0.11832079865E+03  0.47000000000E+01 0.  1.
         -5    1    5    5    0  503 -0.10209552047E+02  0.28717006879E+02  0.30718333279E+02  0.43527088538E+02  0.47000000000E+01 0.  1.
<mgrwt>
<rscale>  0 0.27729168E+03</rscale>
<asrwt>0</asrwt>
<pdfrwt beam="1">  1        1 0.35686821E-01 0.27729168E+03</pdfrwt>
<pdfrwt beam="2">  1       -1 0.12749088E-01 0.27729168E+03</pdfrwt>
<totfact> 0.50242161E+03</totfact>
</mgrwt>
</event>
<event>
 9    1  0.7986988E-001  0.2687016E+03  0.7818608E-02  0.1102025E+00
         -1   -1    0    0    0  501 -0.00000000000E+00  0.00000000000E+00  0.15487685434E+03  0.15487685434E+03  0.00000000000E+00 0.  1.
          1   -1    0    0  501    0  0.00000000000E+00 -0.00000000000E+00 -0.11654505126E+03  0.11654505126E+03  0.00000000000E+00 0.  1.
         35    2    1    2    0    0 -0.35527136788E-14  0.17763568394E-14  0.38331803083E+02  0.27142190559E+03  0.26870155137E+03 0.  0.
         25    2    3    3    0    0  0.27862875334E+02  0.50477950106E+01 -0.11608904463E+02  0.13340885961E+03  0.12985121141E+03 0.  0.
         25    2    3    3    0    0 -0.27862875334E+02 -0.50477950106E+01  0.49940707546E+02  0.13801304598E+03  0.12550580279E+03 0.  0.
          5    1    4    4  502    0 -0.19814494266E+02  0.49951916814E+02 -0.34312821609E+02  0.63931744096E+02  0.47000000000E+01 0.  1.
         -5    1    4    4    0  502  0.47677369600E+02 -0.44904121804E+02  0.22703917145E+02  0.69477115518E+02  0.47000000000E+01 0.  1.
          5    1    5    5  503    0  0.47945140685E+02 -0.74581768421E+01  0.33236609842E+01  0.48862026559E+02  0.47000000000E+01 0.  1.
         -5    1    5    5    0  503 -0.75808016019E+02  0.24103818316E+01  0.46617046562E+02  0.89151019420E+02  0.47000000000E+01 0.  1.
<mgrwt>
<rscale>  0 0.26870155E+03</rscale>
<asrwt>0</asrwt>
<pdfrwt beam="1">  1        1 0.17930008E-01 0.26870155E+03</pdfrwt>
<pdfrwt beam="2">  1       -1 0.23827209E-01 0.26870155E+03</pdfrwt>
<totfact> 0.44120144E+03</totfact>
</mgrwt>
</event>
<event>
 9    1  0.7986988E-001  0.2751110E+03  0.7818608E-02  0.1098390E+00
          1   -1    0    0  501    0  0.00000000000E+00  0.00000000000E+00  0.38365096505E+03  0.38365096505E+03  0.00000000000E+00 0.  1.
         -1   -1    0    0    0  501 -0.00000000000E+00 -0.00000000000E+00 -0.49319621891E+02  0.49319621891E+02  0.00000000000E+00 0.  1.
         35    2    1    2    0    0  0.00000000000E+00 -0.71054273576E-14  0.33433134316E+03  0.43297058694E+03  0.27511103602E+03 0.  0.
         25    2    3    3    0    0  0.55443014942E+02  0.38137730137E+01  0.18553460543E+03  0.23049778774E+03  0.12497066684E+03 0.  0.
         25    2    3    3    0    0 -0.55443014942E+02 -0.38137730137E+01  0.14879673773E+03  0.20247279920E+03  0.12556389803E+03 0.  0.
          5    1    4    4  502    0  0.57405703493E+02 -0.13036806621E+02  0.17569743179E+02  0.61612977494E+02  0.47000000000E+01 0. -1.
         -5    1    4    4    0  502 -0.19626885504E+01  0.16850579635E+02  0.16796486225E+03  0.16888481025E+03  0.47000000000E+01 0. -1.
          5    1    5    5  503    0 -0.34351290089E+02  0.51068827777E+02  0.12395069715E+03  0.13846985818E+03  0.47000000000E+01 0. -1.
         -5    1    5    5    0  503 -0.21091724853E+02 -0.54882600791E+02  0.24846040581E+02  0.64002941022E+02  0.47000000000E+01 0. -1.
<mgrwt>
<rscale>  0 0.27511104E+03</rscale>
<asrwt>0</asrwt>
<pdfrwt beam="1">  1        1 0.59023223E-01 0.27511104E+03</pdfrwt>
<pdfrwt beam="2">  1       -1 0.75876344E-02 0.27511104E+03</pdfrwt>
<totfact> 0.59372857E+03</totfact>
</mgrwt>
</event>
<event>
 9    1  0.7986988E-001  0.2739447E+03  0.7818608E-02  0.1099043E+00
         -2   -1    0    0    0  501 -0.00000000000E+00  0.00000000000E+00  0.61206105305E+01  0.61206105305E+01  0.00000000000E+00 0.  1.
          2   -1    0    0  501    0  0.00000000000E+00 -0.00000000000E+00 -0.30652864385E+04  0.30652864385E+04  0.00000000000E+00 0.  1.
         35    2    1    2    0    0 -0.71054273576E-14 -0.71054273576E-14 -0.30591658280E+04  0.30714070490E+04  0.27394469847E+03 0.  0.
         25    2    3    3    0    0 -0.19201282907E+02 -0.47962722250E+02 -0.12443256729E+04  0.12515421004E+04  0.12386337945E+03 0.  0.
         25    2    3    3    0    0  0.19201282907E+02  0.47962722250E+02 -0.18148401551E+04  0.18198649487E+04  0.12487806421E+03 0.  0.
          5    1    4    4  502    0 -0.35085933000E+02 -0.15810313117E+02 -0.10986353603E+03  0.11650354176E+03  0.47000000000E+01 0.  1.
         -5    1    4    4    0  502  0.15884650092E+02 -0.32152409133E+02 -0.11344621369E+04  0.11350385586E+04  0.47000000000E+01 0.  1.
          5    1    5    5  503    0 -0.19345386578E+02 -0.30245059404E+02 -0.93541587046E+03  0.93611641814E+03  0.47000000000E+01 0.  1.
         -5    1    5    5    0  503  0.38546669485E+02  0.78207781654E+02 -0.87942428462E+03  0.88374853053E+03  0.47000000000E+01 0.  1.
<mgrwt>
<rscale>  0 0.27394470E+03</rscale>
<asrwt>0</asrwt>
<pdfrwt beam="1">  1        2 0.47158376E+00 0.27394470E+03</pdfrwt>
<pdfrwt beam="2">  1       -2 0.94162994E-03 0.27394470E+03</pdfrwt>
<totfact> 0.44324565E+03</totfact>
</mgrwt>
</event>
<event>
 9    1  0.7986988E-001  0.2797498E+03  0.7818608E-02  0.1095826E+00
         -1   -1    0    0    0  501 -0.00000000000E+00  0.00000000000E+00  0.30784130835E+02  0.30784130835E+02  0.00000000000E+00 0. -1.
          1   -1    0    0  501    0  0.00000000000E+00 -0.00000000000E+00 -0.63555423086E+03  0.63555423086E+03  0.00000000000E+00 0. -1.
         35    2    1    2    0    0 -0.71054273576E-14  0.35527136788E-14 -0.60477010002E+03  0.66633836169E+03  0.27974977816E+03 0.  0.
         25    2    3    3    0    0  0.35690273345E+02 -0.21371510500E+02 -0.42552156933E+03  0.44495546405E+03  0.12323239005E+03 0.  0.
         25    2    3    3    0    0 -0.35690273345E+02  0.21371510500E+02 -0.17924853070E+03  0.22138289764E+03  0.12308458286E+03 0.  0.
          5    1    4    4  502    0  0.61107432736E+02 -0.32293754620E+02 -0.12325480695E+03  0.14138897538E+03  0.47000000000E+01 0. -1.
         -5    1    4    4    0  502 -0.25417159391E+02  0.10922244120E+02 -0.30226676238E+03  0.30356648867E+03  0.47000000000E+01 0. -1.
          5    1    5    5  503    0 -0.16793902159E+02 -0.51442345330E+02 -0.68575175018E+02  0.87481396145E+02  0.47000000000E+01 0. -1.
         -5    1    5    5    0  503 -0.18896371186E+02  0.72813855830E+02 -0.11067335568E+03  0.13390150149E+03  0.47000000000E+01 0. -1.
<mgrwt>
<rscale>  0 0.27974978E+03</rscale>
<asrwt>0</asrwt>
<pdfrwt beam="1">  1        1 0.97777566E-01 0.27974978E+03</pdfrwt>
<pdfrwt beam="2">  1       -1 0.47360205E-02 0.27974978E+03</pdfrwt>
<totfact> 0.61749437E+03</totfact>
</mgrwt>
</event>
<event>
 9    1  0.7986988E-001  0.2755888E+03  0.7818608E-02  0.1098123E+00
          2   -1    0    0  501    0  0.00000000000E+00  0.00000000000E+00  0.79524448582E+02  0.79524448582E+02  0.00000000000E+00 0. -1.
         -2   -1    0    0    0  501 -0.00000000000E+00 -0.00000000000E+00 -0.23876042953E+03  0.23876042953E+03  0.00000000000E+00 0. -1.
         35    2    1    2    0    0 -0.71054273576E-14  0.00000000000E+00 -0.15923598095E+03  0.31828487812E+03  0.27558876248E+03 0.  0.
         25    2    3    3    0    0 -0.39836611305E+02  0.38449115530E+02 -0.99267479304E+02  0.16902361512E+03  0.12509860085E+03 0.  0.
         25    2    3    3    0    0  0.39836611305E+02 -0.38449115530E+02 -0.59968501647E+02  0.14926126300E+03  0.12496964974E+03 0.  0.
          5    1    4    4  502    0 -0.45075103716E+02  0.32419980332E+02 -0.12758819551E+03  0.13922520509E+03  0.47000000000E+01 0.  1.
         -5    1    4    4    0  502  0.52384924102E+01  0.60291351977E+01  0.28320716201E+02  0.29798410027E+02  0.47000000000E+01 0.  1.
          5    1    5    5  503    0  0.73897605572E+02 -0.70314934988E+00 -0.64229707121E+02  0.98024975415E+02  0.47000000000E+01 0. -1.
         -5    1    5    5    0  503 -0.34060994267E+02 -0.37745966180E+02  0.42612054739E+01  0.51236287584E+02  0.47000000000E+01 0. -1.
<mgrwt>
<rscale>  0 0.27558876E+03</rscale>
<asrwt>0</asrwt>
<pdfrwt beam="1">  1        2 0.12234531E-01 0.27558876E+03</pdfrwt>
<pdfrwt beam="2">  1       -2 0.36732374E-01 0.27558876E+03</pdfrwt>
<totfact> 0.34822041E+03</totfact>
</mgrwt>
</event>
<event>
 9    1  0.7986988E-001  0.2744755E+03  0.7818608E-02  0.1098745E+00
          2   -1    0    0  501    0  0.00000000000E+00  0.00000000000E+00  0.96243068380E+02  0.96243068380E+02  0.00000000000E+00 0. -1.
         -2   -1    0    0    0  501 -0.00000000000E+00 -0.00000000000E+00 -0.19569405108E+03  0.19569405108E+03  0.00000000000E+00 0. -1.
         35    2    1    2    0    0  0.00000000000E+00 -0.71054273576E-14 -0.99450982703E+02  0.29193711946E+03  0.27447547023E+03 0.  0.
         25    2    3    3    0    0 -0.48167016696E+02  0.35244305599E+02 -0.47116866438E+02  0.14706768374E+03  0.12588360467E+03 0.  0.
         25    2    3    3    0    0  0.48167016696E+02 -0.35244305599E+02 -0.52334116265E+02  0.14486943572E+03  0.12118610113E+03 0.  0.
          5    1    4    4  502    0  0.20263161913E+02 -0.18999656904E+02  0.21885489628E+02  0.35674183234E+02  0.47000000000E+01 0.  1.
         -5    1    4    4    0  502 -0.68430178609E+02  0.54243962503E+02 -0.69002356066E+02  0.11139350051E+03  0.47000000000E+01 0.  1.
          5    1    5    5  503    0  0.16254416121E+02 -0.63322319563E+02  0.12963793554E+02  0.66813712227E+02  0.47000000000E+01 0. -1.
         -5    1    5    5    0  503  0.31912600575E+02  0.28078013964E+02 -0.65297909819E+02  0.78055723495E+02  0.47000000000E+01 0. -1.
<mgrwt>
<rscale>  0 0.27447547E+03</rscale>
<asrwt>0</asrwt>
<pdfrwt beam="1">  1        2 0.14806626E-01 0.27447547E+03</pdfrwt>
<pdfrwt beam="2">  1       -2 0.30106777E-01 0.27447547E+03</pdfrwt>
<totfact> 0.39988031E+03</totfact>
</mgrwt>
</event>
<event>
 9    1  0.7986988E-001  0.2726238E+03  0.7818608E-02  0.1099787E+00
         -1   -1    0    0    0  501 -0.00000000000E+00  0.00000000000E+00  0.29304011946E+03  0.29304011946E+03  0.00000000000E+00 0. -1.
          1   -1    0    0  501    0  0.00000000000E+00 -0.00000000000E+00 -0.63407463602E+02  0.63407463602E+02  0.00000000000E+00 0. -1.
         35    2    1    2    0    0  0.71054273576E-14  0.00000000000E+00  0.22963265586E+03  0.35644758306E+03  0.27262377526E+03 0.  0.
         25    2    3    3    0    0  0.22656543804E+02 -0.17735527820E+02  0.57615823078E+02  0.14056362153E+03  0.12494270969E+03 0.  0.
         25    2    3    3    0    0 -0.22656543804E+02  0.17735527820E+02  0.17201683278E+03  0.21588396154E+03  0.12723296021E+03 0.  0.
          5    1    4    4  502    0  0.60688055117E+02 -0.12774843880E+01 -0.94256634269E+01  0.61608482625E+02  0.47000000000E+01 0. -1.
         -5    1    4    4    0  502 -0.38031511313E+02 -0.16458043432E+02  0.67041486505E+02  0.78955138903E+02  0.47000000000E+01 0. -1.
          5    1    5    5  503    0 -0.44068779413E+02  0.59203410286E+02  0.14226340212E+03  0.16033735276E+03  0.47000000000E+01 0. -1.
         -5    1    5    5    0  503  0.21412235609E+02 -0.41467882466E+02  0.29753430659E+02  0.55546608771E+02  0.47000000000E+01 0. -1.
<mgrwt>
<rscale>  0 0.27262378E+03</rscale>
<asrwt>0</asrwt>
<pdfrwt beam="1">  1        1 0.97549946E-02 0.27262378E+03</pdfrwt>
<pdfrwt beam="2">  1       -1 0.45083094E-01 0.27262378E+03</pdfrwt>
<totfact> 0.32846188E+03</totfact>
</mgrwt>
</event>
<event>
 9    1  0.7986988E-001  0.2735279E+03  0.7818608E-02  0.1099277E+00
         -1   -1    0    0    0  501 -0.00000000000E+00  0.00000000000E+00  0.49842986372E+02  0.49842986372E+02  0.00000000000E+00 0. -1.
          1   -1    0    0  501    0  0.00000000000E+00 -0.00000000000E+00 -0.37526594011E+03  0.37526594011E+03  0.00000000000E+00 0. -1.
         35    2    1    2    0    0 -0.71054273576E-14  0.00000000000E+00 -0.32542295373E+03  0.42510892648E+03  0.27352787893E+03 0.  0.
         25    2    3    3    0    0  0.39708244937E+01  0.22227541484E+02 -0.89207494273E+02  0.15671942843E+03  0.12685886318E+03 0.  0.
         25    2    3    3    0    0 -0.39708244937E+01 -0.22227541484E+02 -0.23621545946E+03  0.26838949804E+03  0.12540075089E+03 0.  0.
          5    1    4    4  502    0  0.56077100567E+02 -0.21743376680E+02 -0.45995484427E+02  0.75862310966E+02  0.47000000000E+01 0. -1.
         -5    1    4    4    0  502 -0.52106276074E+02  0.43970918163E+02 -0.43212009846E+02  0.80857117468E+02  0.47000000000E+01 0. -1.
          5    1    5    5  503    0 -0.41941923895E+02  0.26957837832E+02 -0.45179799825E+02  0.67447418875E+02  0.47000000000E+01 0. -1.
         -5    1    5    5    0  503  0.37971099402E+02 -0.49185379316E+02 -0.19103565964E+03  0.20094207917E+03  0.47000000000E+01 0. -1.
<mgrwt>
<rscale>  0 0.27352788E+03</rscale>
<asrwt>0</asrwt>
<pdfrwt beam="1">  1        1 0.57733220E-01 0.27352788E+03</pdfrwt>
<pdfrwt beam="2">  1       -1 0.76681519E-02 0.27352788E+03</pdfrwt>
<totfact> 0.60084548E+03</totfact>
</mgrwt>
</event>
<event>
 9    1  0.7986988E-001  0.3015734E+03  0.7818608E-02  0.1084457E+00
          2   -1    0    0  501    0  0.00000000000E+00  0.00000000000E+00  0.50009518642E+03  0.50009518642E+03  0.00000000000E+00 0.  1.
         -2   -1    0    0    0  501 -0.00000000000E+00 -0.00000000000E+00 -0.45464615745E+02  0.45464615745E+02  0.00000000000E+00 0.  1.
         35    2    1    2    0    0 -0.71054273576E-14 -0.17763568394E-14  0.45463057067E+03  0.54555980216E+03  0.30157344370E+03 0.  0.
         25    2    3    3    0    0  0.51017788059E+02  0.94342662154E+01  0.34584402768E+03  0.37143671445E+03  0.12516118122E+03 0.  0.
         25    2    3    3    0    0 -0.51017788059E+02 -0.94342662154E+01  0.10878654299E+03  0.17412308771E+03  0.12566828423E+03 0.  0.
          5    1    4    4  502    0  0.39805491675E+02  0.55037475277E+02  0.29201532633E+03  0.29984769745E+03  0.47000000000E+01 0.  1.
         -5    1    4    4    0  502  0.11212296384E+02 -0.45603209062E+02  0.53828701348E+02  0.71589017005E+02  0.47000000000E+01 0.  1.
          5    1    5    5  503    0  0.39555714025E+02 -0.13167110482E+02  0.52936105516E+02  0.67545159543E+02  0.47000000000E+01 0. -1.
         -5    1    5    5    0  503 -0.90573502084E+02  0.37328442670E+01  0.55850437477E+02  0.10657792817E+03  0.47000000000E+01 0. -1.
<mgrwt>
<rscale>  0 0.30157344E+03</rscale>
<asrwt>0</asrwt>
<pdfrwt beam="1">  1        2 0.76937717E-01 0.30157344E+03</pdfrwt>
<pdfrwt beam="2">  1       -2 0.69945566E-02 0.30157344E+03</pdfrwt>
<totfact> 0.72524243E+03</totfact>
</mgrwt>
</event>
<event>
 9    1  0.7986988E-001  0.2748190E+03  0.7818608E-02  0.1098553E+00
          2   -1    0    0  501    0  0.00000000000E+00  0.00000000000E+00  0.43662507811E+03  0.43662507811E+03  0.00000000000E+00 0. -1.
         -2   -1    0    0    0  501 -0.00000000000E+00 -0.00000000000E+00 -0.43243914019E+02  0.43243914019E+02  0.00000000000E+00 0. -1.
         35    2    1    2    0    0 -0.14210854715E-13 -0.35527136788E-14  0.39338116409E+03  0.47986899213E+03  0.27481904837E+03 0.  0.
         25    2    3    3    0    0  0.48476016288E+02  0.28314720537E+02  0.21685807936E+03  0.25668803102E+03  0.12533822695E+03 0.  0.
         25    2    3    3    0    0 -0.48476016288E+02 -0.28314720537E+02  0.17652308473E+03  0.22318096110E+03  0.12448973613E+03 0.  0.
          5    1    4    4  502    0  0.83692985719E+02  0.25296412016E+02  0.19767366550E+03  0.21619757712E+03  0.47000000000E+01 0.  1.
         -5    1    4    4    0  502 -0.35216969431E+02  0.30183085206E+01  0.19184413853E+02  0.40490453901E+02  0.47000000000E+01 0.  1.
          5    1    5    5  503    0  0.35956797526E+01  0.31615106144E+02  0.30041604121E+01  0.32304161174E+02  0.47000000000E+01 0. -1.
         -5    1    5    5    0  503 -0.52071696040E+02 -0.59929826681E+02  0.17351892432E+03  0.19087679993E+03  0.47000000000E+01 0. -1.
<mgrwt>
<rscale>  0 0.27481905E+03</rscale>
<asrwt>0</asrwt>
<pdfrwt beam="1">  1        2 0.67173086E-01 0.27481905E+03</pdfrwt>
<pdfrwt beam="2">  1       -2 0.66529102E-02 0.27481905E+03</pdfrwt>
<totfact> 0.90815727E+03</totfact>
</mgrwt>
</event>
<event>
 9    1  0.7986988E-001  0.2757252E+03  0.7818608E-02  0.1098047E+00
         -2   -1    0    0    0  501 -0.00000000000E+00  0.00000000000E+00  0.14591190531E+03  0.14591190531E+03  0.00000000000E+00 0.  1.
          2   -1    0    0  501    0  0.00000000000E+00 -0.00000000000E+00 -0.13025735047E+03  0.13025735047E+03  0.00000000000E+00 0.  1.
         35    2    1    2    0    0 -0.35527136788E-14  0.00000000000E+00  0.15654554833E+02  0.27616925578E+03  0.27572521240E+03 0.  0.
         25    2    3    3    0    0 -0.23993961475E+02  0.19301204334E+02  0.57115830963E+02  0.14076004250E+03  0.12491166776E+03 0.  0.
         25    2    3    3    0    0  0.23993961475E+02 -0.19301204334E+02 -0.41461276130E+02  0.13540921328E+03  0.12517336356E+03 0.  0.
          5    1    4    4  502    0 -0.51615012659E+02  0.43844568706E+02 -0.52808692889E+01  0.68091360078E+02  0.47000000000E+01 0.  1.
         -5    1    4    4    0  502  0.27621051183E+02 -0.24543364372E+02  0.62396700252E+02  0.72668682426E+02  0.47000000000E+01 0.  1.
          5    1    5    5  503    0  0.53936771417E+02  0.36134199740E+02 -0.27739161876E+02  0.70755966556E+02  0.47000000000E+01 0.  1.
         -5    1    5    5    0  503 -0.29942809942E+02 -0.55435404074E+02 -0.13722114254E+02  0.64653246722E+02  0.47000000000E+01 0.  1.
<mgrwt>
<rscale>  0 0.27572521E+03</rscale>
<asrwt>0</asrwt>
<pdfrwt beam="1">  1        2 0.20039593E-01 0.27572521E+03</pdfrwt>
<pdfrwt beam="2">  1       -2 0.22447985E-01 0.27572521E+03</pdfrwt>
<totfact> 0.47329498E+03</totfact>
</mgrwt>
</event>
<event>
 9    1  0.7986988E-001  0.2734249E+03  0.7818608E-02  0.1099335E+00
          1   -1    0    0  501    0  0.00000000000E+00  0.00000000000E+00  0.44001611265E+03  0.44001611265E+03  0.00000000000E+00 0. -1.
         -1   -1    0    0    0  501 -0.00000000000E+00 -0.00000000000E+00 -0.42476380761E+02  0.42476380761E+02  0.00000000000E+00 0. -1.
         35    2    1    2    0    0  0.00000000000E+00  0.35527136788E-14  0.39753973188E+03  0.48249249341E+03  0.27342488505E+03 0.  0.
         25    2    3    3    0    0  0.96266649411E+01  0.21079217691E+02  0.11364215338E+03  0.17153924841E+03  0.12638895768E+03 0.  0.
         25    2    3    3    0    0 -0.96266649411E+01 -0.21079217691E+02  0.28389757850E+03  0.31095324500E+03  0.12472802170E+03 0.  0.
          5    1    4    4  502    0 -0.14415752364E+02 -0.48303518595E+02  0.25391104511E+02  0.56637814339E+02  0.47000000000E+01 0.  1.
         -5    1    4    4    0  502  0.24042417305E+02  0.69382736286E+02  0.88251048869E+02  0.11490143407E+03  0.47000000000E+01 0.  1.
          5    1    5    5  503    0 -0.59457833542E+02  0.17004073735E+02  0.16813611018E+03  0.17920997193E+03  0.47000000000E+01 0.  1.
         -5    1    5    5    0  503  0.49831168601E+02 -0.38083291426E+02  0.11576146832E+03  0.13174327307E+03  0.47000000000E+01 0.  1.
<mgrwt>
<rscale>  0 0.27342489E+03</rscale>
<asrwt>0</asrwt>
<pdfrwt beam="1">  1        1 0.67694783E-01 0.27342489E+03</pdfrwt>
<pdfrwt beam="2">  1       -1 0.65348281E-02 0.27342489E+03</pdfrwt>
<totfact> 0.62428026E+03</totfact>
</mgrwt>
</event>
<event>
 9    1  0.7986988E-001  0.2766620E+03  0.7818608E-02  0.1097526E+00
          2   -1    0    0  501    0  0.00000000000E+00  0.00000000000E+00  0.46024873285E+03  0.46024873285E+03  0.00000000000E+00 0.  1.
         -2   -1    0    0    0  501 -0.00000000000E+00 -0.00000000000E+00 -0.41576350869E+02  0.41576350869E+02  0.00000000000E+00 0.  1.
         35    2    1    2    0    0  0.00000000000E+00  0.71054273576E-14  0.41867238198E+03  0.50182508372E+03  0.27666198007E+03 0.  0.
         25    2    3    3    0    0  0.35228173950E+02 -0.46202250182E+02  0.18080078723E+03  0.22714283575E+03  0.12461649573E+03 0.  0.
         25    2    3    3    0    0 -0.35228173950E+02  0.46202250182E+02  0.23787159475E+03  0.27468224797E+03  0.12446593750E+03 0.  0.
          5    1    4    4  502    0 -0.11677147008E+02  0.37283127276E+02  0.35116959815E+02  0.52741617423E+02  0.47000000000E+01 0.  1.
         -5    1    4    4    0  502  0.46905320957E+02 -0.83485377459E+02  0.14568382742E+03  0.17440121833E+03  0.47000000000E+01 0.  1.
          5    1    5    5  503    0 -0.81093533733E+02  0.40092163264E+02  0.14894739102E+03  0.17433002628E+03  0.47000000000E+01 0.  1.
         -5    1    5    5    0  503  0.45865359783E+02  0.61100869183E+01  0.88924203727E+02  0.10035222169E+03  0.47000000000E+01 0.  1.
<mgrwt>
<rscale>  0 0.27666198E+03</rscale>
<asrwt>0</asrwt>
<pdfrwt beam="1">  1        2 0.70807494E-01 0.27666198E+03</pdfrwt>
<pdfrwt beam="2">  1       -2 0.63963620E-02 0.27666198E+03</pdfrwt>
<totfact> 0.91079282E+03</totfact>
</mgrwt>
</event>
<event>
 9    1  0.7986988E-001  0.2763053E+03  0.7818608E-02  0.1097724E+00
          2   -1    0    0  501    0  0.00000000000E+00  0.00000000000E+00  0.10827059509E+04  0.10827059509E+04  0.00000000000E+00 0.  1.
         -2   -1    0    0    0  501 -0.00000000000E+00 -0.00000000000E+00 -0.17628196453E+02  0.17628196453E+02  0.00000000000E+00 0.  1.
         35    2    1    2    0    0  0.00000000000E+00  0.71054273576E-14  0.10650777544E+04  0.11003341473E+04  0.27630528915E+03 0.  0.
         25    2    3    3    0    0  0.13904319546E+01 -0.39508960461E+02  0.70463113831E+03  0.71668808780E+03  0.12479536398E+03 0.  0.
         25    2    3    3    0    0 -0.13904319546E+01  0.39508960461E+02  0.36044661610E+03  0.38364605951E+03  0.12529822290E+03 0.  0.
          5    1    4    4  502    0 -0.50112047589E+02 -0.10083100169E+02  0.14338297652E+03  0.15229462951E+03  0.47000000000E+01 0. -1.
         -5    1    4    4    0  502  0.51502479544E+02 -0.29425860291E+02  0.56124816178E+03  0.56439345829E+03  0.47000000000E+01 0. -1.
          5    1    5    5  503    0 -0.15311852805E+02 -0.37057489122E+01  0.32612110723E+03  0.32653522320E+03  0.47000000000E+01 0. -1.
         -5    1    5    5    0  503  0.13921420850E+02  0.43214709373E+02  0.34325508877E+02  0.57110836312E+02  0.47000000000E+01 0. -1.
<mgrwt>
<rscale>  0 0.27630529E+03</rscale>
<asrwt>0</asrwt>
<pdfrwt beam="1">  1        2 0.16657009E+00 0.27630529E+03</pdfrwt>
<pdfrwt beam="2">  1       -2 0.27120311E-02 0.27630529E+03</pdfrwt>
<totfact> 0.11496978E+04</totfact>
</mgrwt>
</event>
<event>
 9    1  0.7986988E-001  0.2624077E+03  0.7818608E-02  0.1105705E+00
          1   -1    0    0  501    0  0.00000000000E+00  0.00000000000E+00  0.62144541424E+03  0.62144541424E+03  0.00000000000E+00 0.  1.
         -1   -1    0    0    0  501 -0.00000000000E+00 -0.00000000000E+00 -0.27700668303E+02  0.27700668303E+02  0.00000000000E+00 0.  1.
         35    2    1    2    0    0  0.71054273576E-14 -0.35527136788E-14  0.59374474594E+03  0.64914608254E+03  0.26240772312E+03 0.  0.
         25    2    3    3    0    0  0.27418236262E+02  0.28286469965E+01  0.22930306861E+03  0.26270373692E+03  0.12519422986E+03 0.  0.
         25    2    3    3    0    0 -0.27418236262E+02 -0.28286469965E+01  0.36444167732E+03  0.38644234563E+03  0.12553959296E+03 0.  0.
          5    1    4    4  502    0 -0.29830808394E+02  0.34148460152E+02  0.34389502985E+02  0.57102735273E+02  0.47000000000E+01 0.  1.
         -5    1    4    4    0  502  0.57249044656E+02 -0.31319813155E+02  0.19491356563E+03  0.20560100164E+03  0.47000000000E+01 0.  1.
          5    1    5    5  503    0 -0.32926654271E+02 -0.59243206373E+02  0.15152729977E+03  0.16606183980E+03  0.47000000000E+01 0.  1.
         -5    1    5    5    0  503  0.55084180091E+01  0.56414559376E+02  0.21291437756E+03  0.22038050583E+03  0.47000000000E+01 0.  1.
<mgrwt>
<rscale>  0 0.26240772E+03</rscale>
<asrwt>0</asrwt>
<pdfrwt beam="1">  1        1 0.95606977E-01 0.26240772E+03</pdfrwt>
<pdfrwt beam="2">  1       -1 0.42616417E-02 0.26240772E+03</pdfrwt>
<totfact> 0.74461032E+03</totfact>
</mgrwt>
</event>
<event>
 9    1  0.7986988E-001  0.2766026E+03  0.7818608E-02  0.1097559E+00
          2   -1    0    0  501    0  0.00000000000E+00  0.00000000000E+00  0.28568100789E+03  0.28568100789E+03  0.00000000000E+00 0.  1.
         -2   -1    0    0    0  501 -0.00000000000E+00 -0.00000000000E+00 -0.66953175122E+02  0.66953175122E+02  0.00000000000E+00 0.  1.
         35    2    1    2    0    0  0.71054273576E-14 -0.17763568394E-14  0.21872783276E+03  0.35263418301E+03  0.27660260700E+03 0.  0.
         25    2    3    3    0    0  0.30950876554E+02  0.13782090618E+02  0.17682737164E+03  0.21902322253E+03  0.12472108830E+03 0.  0.
         25    2    3    3    0    0 -0.30950876554E+02 -0.13782090618E+02  0.41900461129E+02  0.13361096048E+03  0.12226339328E+03 0.  0.
          5    1    4    4  502    0 -0.29650268858E+02 -0.15472636956E+02  0.13609397266E+03  0.14022196808E+03  0.47000000000E+01 0. -1.
         -5    1    4    4    0  502  0.60601145411E+02  0.29254727575E+02  0.40733398976E+02  0.78801254449E+02  0.47000000000E+01 0. -1.
          5    1    5    5  503    0  0.40067161558E+02  0.44982907598E+01  0.44304447483E+02  0.60088152924E+02  0.47000000000E+01 0. -1.
         -5    1    5    5    0  503 -0.71018038111E+02 -0.18280381378E+02 -0.24039863538E+01  0.73522807556E+02  0.47000000000E+01 0. -1.
<mgrwt>
<rscale>  0 0.27660261E+03</rscale>
<asrwt>0</asrwt>
<pdfrwt beam="1">  1        2 0.43950924E-01 0.27660261E+03</pdfrwt>
<pdfrwt beam="2">  1       -2 0.10300489E-01 0.27660261E+03</pdfrwt>
<totfact> 0.72449333E+03</totfact>
</mgrwt>
</event>
<event>
 9    1  0.7986988E-001  0.2923096E+03  0.7818608E-02  0.1089149E+00
         -2   -1    0    0    0  501 -0.00000000000E+00  0.00000000000E+00  0.81645383705E+03  0.81645383705E+03  0.00000000000E+00 0. -1.
          2   -1    0    0  501    0  0.00000000000E+00 -0.00000000000E+00 -0.26163421671E+02  0.26163421671E+02  0.00000000000E+00 0. -1.
         35    2    1    2    0    0  0.00000000000E+00  0.00000000000E+00  0.79029041538E+03  0.84261725872E+03  0.29230960308E+03 0.  0.
         25    2    3    3    0    0  0.58033317518E+02  0.17232558752E+02  0.52962664116E+03  0.54742513727E+03  0.12451937548E+03 0.  0.
         25    2    3    3    0    0 -0.58033317518E+02 -0.17232558752E+02  0.26066377422E+03  0.29519212145E+03  0.12461122883E+03 0.  0.
          5    1    4    4  502    0  0.62045842760E+02 -0.27297833337E+02  0.14444395506E+03  0.15962770581E+03  0.47000000000E+01 0.  1.
         -5    1    4    4    0  502 -0.40125252429E+01  0.44530392089E+02  0.38518268610E+03  0.38779743147E+03  0.47000000000E+01 0.  1.
          5    1    5    5  503    0 -0.67174021936E+02  0.40722121428E+02  0.16624797428E+03  0.18393237711E+03  0.47000000000E+01 0. -1.
         -5    1    5    5    0  503  0.91407044189E+01 -0.57954680180E+02  0.94415799942E+02  0.11125974434E+03  0.47000000000E+01 0. -1.
<mgrwt>
<rscale>  0 0.29230960E+03</rscale>
<asrwt>0</asrwt>
<pdfrwt beam="1">  1        2 0.40251424E-02 0.29230960E+03</pdfrwt>
<pdfrwt beam="2">  1       -2 0.12560826E+00 0.29230960E+03</pdfrwt>
<totfact> 0.10454107E+03</totfact>
</mgrwt>
</event>
<event>
 9    1  0.7986988E-001  0.2685588E+03  0.7818608E-02  0.1102107E+00
          1   -1    0    0  501    0  0.00000000000E+00  0.00000000000E+00  0.92371349192E+03  0.92371349192E+03  0.00000000000E+00 0. -1.
         -1   -1    0    0    0  501 -0.00000000000E+00 -0.00000000000E+00 -0.19520069966E+02  0.19520069966E+02  0.00000000000E+00 0. -1.
         35    2    1    2    0    0  0.53290705182E-14 -0.14210854715E-13  0.90419342195E+03  0.94323356188E+03  0.26855876073E+03 0.  0.
         25    2    3    3    0    0 -0.15471643960E+02  0.32910290729E+02  0.39564106012E+03  0.41811073905E+03  0.13023932836E+03 0.  0.
         25    2    3    3    0    0  0.15471643960E+02 -0.32910290729E+02  0.50855236183E+03  0.52512282283E+03  0.12572197634E+03 0.  0.
          5    1    4    4  502    0 -0.24032105290E+02  0.47893454445E+02  0.54756538390E+02  0.76757368115E+02  0.47000000000E+01 0. -1.
         -5    1    4    4    0  502  0.85604613303E+01 -0.14983163717E+02  0.34088452173E+03  0.34135337094E+03  0.47000000000E+01 0. -1.
          5    1    5    5  503    0  0.32261865513E+02  0.40326613994E+01  0.46208800467E+03  0.46325425458E+03  0.47000000000E+01 0. -1.
         -5    1    5    5    0  503 -0.16790221553E+02 -0.36942952128E+02  0.46464357161E+02  0.61868568257E+02  0.47000000000E+01 0. -1.
<mgrwt>
<rscale>  0 0.26855876E+03</rscale>
<asrwt>0</asrwt>
<pdfrwt beam="1">  1        1 0.14210973E+00 0.26855876E+03</pdfrwt>
<pdfrwt beam="2">  1       -1 0.30030884E-02 0.26855876E+03</pdfrwt>
<totfact> 0.68773813E+03</totfact>
</mgrwt>
</event>
<event>
 9    1  0.7986988E-001  0.2770027E+03  0.7818608E-02  0.1097337E+00
          2   -1    0    0  501    0  0.00000000000E+00  0.00000000000E+00  0.15895436540E+04  0.15895436540E+04  0.00000000000E+00 0. -1.
         -2   -1    0    0    0  501 -0.00000000000E+00 -0.00000000000E+00 -0.12068004779E+02  0.12068004779E+02  0.00000000000E+00 0. -1.
         35    2    1    2    0    0  0.00000000000E+00  0.00000000000E+00  0.15774756492E+04  0.16016116587E+04  0.27700267445E+03 0.  0.
         25    2    3    3    0    0 -0.50362529984E+02 -0.66669393935E+01  0.97037001711E+03  0.97967946970E+03  0.12479206997E+03 0.  0.
         25    2    3    3    0    0  0.50362529984E+02  0.66669393935E+01  0.60710563206E+03  0.62193218903E+03  0.12506624953E+03 0.  0.
          5    1    4    4  502    0  0.86724791328E+01  0.21198004642E+02  0.73519990603E+03  0.73557158668E+03  0.47000000000E+01 0. -1.
         -5    1    4    4    0  502 -0.59035009117E+02 -0.27864944035E+02  0.23517011108E+03  0.24410788302E+03  0.47000000000E+01 0. -1.
          5    1    5    5  503    0  0.67594342258E+02  0.28389661511E+02  0.18740018608E+03  0.20128558749E+03  0.47000000000E+01 0.  1.
         -5    1    5    5    0  503 -0.17231812274E+02 -0.21722722118E+02  0.41970544598E+03  0.42064660155E+03  0.47000000000E+01 0.  1.
<mgrwt>
<rscale>  0 0.27700267E+03</rscale>
<asrwt>0</asrwt>
<pdfrwt beam="1">  1        2 0.24454501E+00 0.27700267E+03</pdfrwt>
<pdfrwt beam="2">  1       -2 0.18566174E-02 0.27700267E+03</pdfrwt>
<totfact> 0.10544702E+04</totfact>
</mgrwt>
</event>
<event>
 9    1  0.7986988E-001  0.2629410E+03  0.7818608E-02  0.1105389E+00
         -2   -1    0    0    0  501 -0.00000000000E+00  0.00000000000E+00  0.36864620346E+02  0.36864620346E+02  0.00000000000E+00 0. -1.
          2   -1    0    0  501    0  0.00000000000E+00 -0.00000000000E+00 -0.46886409413E+03  0.46886409413E+03  0.00000000000E+00 0. -1.
         35    2    1    2    0    0  0.00000000000E+00  0.71054273576E-14 -0.43199947379E+03  0.50572871448E+03  0.26294103388E+03 0.  0.
         25    2    3    3    0    0 -0.26521841409E+01 -0.38579860315E+02 -0.21192515676E+03  0.24940840679E+03  0.12568548686E+03 0.  0.
         25    2    3    3    0    0  0.26521841409E+01  0.38579860315E+02 -0.22007431703E+03  0.25632030769E+03  0.12558644599E+03 0.  0.
          5    1    4    4  502    0  0.45854916564E+02 -0.58146839980E+02 -0.89929465517E+02  0.11658956703E+03  0.47000000000E+01 0. -1.
         -5    1    4    4    0  502 -0.48507100705E+02  0.19566979665E+02 -0.12199569124E+03  0.13281883976E+03  0.47000000000E+01 0. -1.
          5    1    5    5  503    0  0.42244720363E+02 -0.38037997467E+01 -0.18495681531E+02  0.46510918357E+02  0.47000000000E+01 0.  1.
         -5    1    5    5    0  503 -0.39592536222E+02  0.42383660062E+02 -0.20157863550E+03  0.20980938933E+03  0.47000000000E+01 0.  1.
<mgrwt>
<rscale>  0 0.26294103E+03</rscale>
<asrwt>0</asrwt>
<pdfrwt beam="1">  1        2 0.72132936E-01 0.26294103E+03</pdfrwt>
<pdfrwt beam="2">  1       -2 0.56714802E-02 0.26294103E+03</pdfrwt>
<totfact> 0.10709264E+04</totfact>
</mgrwt>
</event>
<event>
 9    1  0.7986988E-001  0.2770826E+03  0.7818608E-02  0.1097293E+00
         -1   -1    0    0    0  501 -0.00000000000E+00  0.00000000000E+00  0.25017571290E+02  0.25017571290E+02  0.00000000000E+00 0. -1.
          1   -1    0    0  501    0  0.00000000000E+00 -0.00000000000E+00 -0.76720856981E+03  0.76720856981E+03  0.00000000000E+00 0. -1.
         35    2    1    2    0    0  0.71054273576E-14  0.00000000000E+00 -0.74219099852E+03  0.79222614110E+03  0.27708262370E+03 0.  0.
         25    2    3    3    0    0  0.51817042196E+02  0.25242331416E+02 -0.32598079190E+03  0.35387191018E+03  0.12505867009E+03 0.  0.
         25    2    3    3    0    0 -0.51817042196E+02 -0.25242331416E+02 -0.41621020662E+03  0.43835423092E+03  0.12490522214E+03 0.  0.
          5    1    4    4  502    0  0.83986183607E+02  0.20570245371E+02 -0.13711151591E+03  0.16216803577E+03  0.47000000000E+01 0.  1.
         -5    1    4    4    0  502 -0.32169141411E+02  0.46720860451E+01 -0.18886927599E+03  0.19170387440E+03  0.47000000000E+01 0.  1.
          5    1    5    5  503    0 -0.21288862733E+01  0.31071540472E+02 -0.28781711639E+03  0.28953541281E+03  0.47000000000E+01 0.  1.
         -5    1    5    5    0  503 -0.49688155923E+02 -0.56313871888E+02 -0.12839309022E+03  0.14881881811E+03  0.47000000000E+01 0.  1.
<mgrwt>
<rscale>  0 0.27708262E+03</rscale>
<asrwt>0</asrwt>
<pdfrwt beam="1">  1        1 0.11803208E+00 0.27708262E+03</pdfrwt>
<pdfrwt beam="2">  1       -1 0.38488574E-02 0.27708262E+03</pdfrwt>
<totfact> 0.63889030E+03</totfact>
</mgrwt>
</event>
<event>
 9    1  0.7986988E-001  0.2736826E+03  0.7818608E-02  0.1099190E+00
         -1   -1    0    0    0  501 -0.00000000000E+00  0.00000000000E+00  0.19713997297E+02  0.19713997297E+02  0.00000000000E+00 0. -1.
          1   -1    0    0  501    0  0.00000000000E+00 -0.00000000000E+00 -0.94985987493E+03  0.94985987493E+03  0.00000000000E+00 0. -1.
         35    2    1    2    0    0  0.35527136788E-14 -0.35527136788E-14 -0.93014587763E+03  0.96957387222E+03  0.27368255339E+03 0.  0.
         25    2    3    3    0    0 -0.89975792025E+01  0.21621903669E+02 -0.29401070064E+03  0.32072278775E+03  0.12598552036E+03 0.  0.
         25    2    3    3    0    0  0.89975792025E+01 -0.21621903669E+02 -0.63613517699E+03  0.64885108448E+03  0.12566345241E+03 0.  0.
          5    1    4    4  502    0  0.18885638953E+02  0.29412068380E+02 -0.12093196040E+02  0.37283676260E+02  0.47000000000E+01 0.  1.
         -5    1    4    4    0  502 -0.27883218155E+02 -0.77901647107E+01 -0.28191750460E+03  0.28343911149E+03  0.47000000000E+01 0.  1.
          5    1    5    5  503    0  0.59472501429E+02 -0.18352850990E+02 -0.19367552206E+03  0.20348489726E+03  0.47000000000E+01 0.  1.
         -5    1    5    5    0  503 -0.50474922226E+02 -0.32690526787E+01 -0.44245965493E+03  0.44536618722E+03  0.47000000000E+01 0.  1.
<mgrwt>
<rscale>  0 0.27368255E+03</rscale>
<asrwt>0</asrwt>
<pdfrwt beam="1">  1        1 0.14613229E+00 0.27368255E+03</pdfrwt>
<pdfrwt beam="2">  1       -1 0.30329226E-02 0.27368255E+03</pdfrwt>
<totfact> 0.64734674E+03</totfact>
</mgrwt>
</event>
<event>
 9    1  0.7986988E-001  0.2916671E+03  0.7818608E-02  0.1089482E+00
          3   -1    0    0  501    0  0.00000000000E+00  0.00000000000E+00  0.71794309483E+02  0.71794309483E+02  0.00000000000E+00 0.  1.
         -3   -1    0    0    0  501 -0.00000000000E+00 -0.00000000000E+00 -0.29622725616E+03  0.29622725616E+03  0.00000000000E+00 0.  1.
         35    2    1    2    0    0  0.71054273576E-14  0.71054273576E-14 -0.22443294668E+03  0.36802156565E+03  0.29166714801E+03 0.  0.
         25    2    3    3    0    0  0.29333547197E+02  0.46524581095E+02 -0.18184832318E+03  0.22731072166E+03  0.12480527993E+03 0.  0.
         25    2    3    3    0    0 -0.29333547197E+02 -0.46524581095E+02 -0.42584623495E+02  0.14071084399E+03  0.12231556655E+03 0.  0.
          5    1    4    4  502    0  0.46678078343E+02  0.99711840856E+01 -0.18027775722E+03  0.18654872623E+03  0.47000000000E+01 0. -1.
         -5    1    4    4    0  502 -0.17344531146E+02  0.36553397009E+02 -0.15705659639E+01  0.40761995425E+02  0.47000000000E+01 0. -1.
          5    1    5    5  503    0 -0.32163904229E+02  0.34471647326E+02 -0.35531474586E+02  0.59223195548E+02  0.47000000000E+01 0. -1.
         -5    1    5    5    0  503  0.28303570316E+01 -0.80996228421E+02 -0.70531489089E+01  0.81487648443E+02  0.47000000000E+01 0. -1.
<mgrwt>
<rscale>  0 0.29166715E+03</rscale>
<asrwt>0</asrwt>
<pdfrwt beam="1">  1        3 0.11045278E-01 0.29166715E+03</pdfrwt>
<pdfrwt beam="2">  1       -3 0.45573425E-01 0.29166715E+03</pdfrwt>
<totfact> 0.76779431E+02</totfact>
</mgrwt>
</event>
<event>
 9    1  0.7986988E-001  0.2737295E+03  0.7818608E-02  0.1099164E+00
          2   -1    0    0  501    0  0.00000000000E+00  0.00000000000E+00  0.12597014020E+04  0.12597014020E+04  0.00000000000E+00 0.  1.
         -2   -1    0    0    0  501 -0.00000000000E+00 -0.00000000000E+00 -0.14870160526E+02  0.14870160526E+02  0.00000000000E+00 0.  1.
         35    2    1    2    0    0 -0.35527136788E-14  0.14210854715E-13  0.12448312415E+04  0.12745715626E+04  0.27372951659E+03 0.  0.
         25    2    3    3    0    0  0.87473410028E+01  0.35846418259E+02  0.46407859967E+03  0.48326894596E+03  0.12968595056E+03 0.  0.
         25    2    3    3    0    0 -0.87473410028E+01 -0.35846418259E+02  0.78075264185E+03  0.79130261662E+03  0.12338420336E+03 0.  0.
          5    1    4    4  502    0 -0.25036197547E+02  0.20162161735E+01  0.41054780741E+03  0.41134227656E+03  0.47000000000E+01 0.  1.
         -5    1    4    4    0  502  0.33783538550E+02  0.33830202085E+02  0.53530792265E+02  0.71926669397E+02  0.47000000000E+01 0.  1.
          5    1    5    5  503    0  0.20878838588E+02  0.31504582486E+02  0.10793821885E+03  0.11446053340E+03  0.47000000000E+01 0.  1.
         -5    1    5    5    0  503 -0.29626179591E+02 -0.67351000744E+02  0.67281442300E+03  0.67684208322E+03  0.47000000000E+01 0.  1.
<mgrwt>
<rscale>  0 0.27372952E+03</rscale>
<asrwt>0</asrwt>
<pdfrwt beam="1">  1        2 0.19380013E+00 0.27372952E+03</pdfrwt>
<pdfrwt beam="2">  1       -2 0.22877180E-02 0.27372952E+03</pdfrwt>
<totfact> 0.11701396E+04</totfact>
</mgrwt>
</event>
<event>
 9    1  0.7986988E-001  0.2755497E+03  0.7818608E-02  0.1098145E+00
         -2   -1    0    0    0  501 -0.00000000000E+00  0.00000000000E+00  0.73697114507E+02  0.73697114507E+02  0.00000000000E+00 0.  1.
          2   -1    0    0  501    0  0.00000000000E+00 -0.00000000000E+00 -0.25756647112E+03  0.25756647112E+03  0.00000000000E+00 0.  1.
         35    2    1    2    0    0  0.00000000000E+00  0.00000000000E+00 -0.18386935661E+03  0.33126358563E+03  0.27554967403E+03 0.  0.
         25    2    3    3    0    0 -0.32222745685E+02 -0.44717460364E+02 -0.10745428437E+03  0.17534041575E+03  0.12712152282E+03 0.  0.
         25    2    3    3    0    0  0.32222745685E+02  0.44717460364E+02 -0.76415072243E+02  0.15592316988E+03  0.12423693106E+03 0.  0.
          5    1    4    4  502    0  0.23472163174E+02 -0.64684980418E+02 -0.24197791543E+02  0.73093859190E+02  0.47000000000E+01 0.  1.
         -5    1    4    4    0  502 -0.55694908859E+02  0.19967520054E+02 -0.83256492827E+02  0.10224655656E+03  0.47000000000E+01 0.  1.
          5    1    5    5  503    0  0.36882126596E+02 -0.19599497444E+02 -0.80842202721E+02  0.91115219931E+02  0.47000000000E+01 0.  1.
         -5    1    5    5    0  503 -0.46593809115E+01  0.64316957808E+02  0.44271304778E+01  0.64807949948E+02  0.47000000000E+01 0.  1.
<mgrwt>
<rscale>  0 0.27554967E+03</rscale>
<asrwt>0</asrwt>
<pdfrwt beam="1">  1        2 0.39625612E-01 0.27554967E+03</pdfrwt>
<pdfrwt beam="2">  1       -2 0.11338017E-01 0.27554967E+03</pdfrwt>
<totfact> 0.69458697E+03</totfact>
</mgrwt>
</event>
<event>
 9    1  0.7986988E-001  0.2743632E+03  0.7818608E-02  0.1098808E+00
          1   -1    0    0  501    0  0.00000000000E+00  0.00000000000E+00  0.13002722661E+03  0.13002722661E+03  0.00000000000E+00 0.  1.
         -1   -1    0    0    0  501 -0.00000000000E+00 -0.00000000000E+00 -0.14472962662E+03  0.14472962662E+03  0.00000000000E+00 0.  1.
         35    2    1    2    0    0  0.71054273576E-14 -0.35527136788E-14 -0.14702400013E+02  0.27475685323E+03  0.27436320422E+03 0.  0.
         25    2    3    3    0    0  0.52879491885E+02  0.60954086532E+01 -0.26756908260E+02  0.13822734234E+03  0.12472959297E+03 0.  0.
         25    2    3    3    0    0 -0.52879491885E+02 -0.60954086532E+01  0.12054508248E+02  0.13652951089E+03  0.12514632039E+03 0.  0.
          5    1    4    4  502    0  0.27453404809E+02 -0.53339997427E+01  0.49417341181E+02  0.56976351219E+02  0.47000000000E+01 0.  1.
         -5    1    4    4    0  502  0.25426087076E+02  0.11429408396E+02 -0.76174249441E+02  0.81250991121E+02  0.47000000000E+01 0.  1.
          5    1    5    5  503    0 -0.43908539048E+01  0.30235279519E+02 -0.44053984302E+02  0.53817239418E+02  0.47000000000E+01 0.  1.
         -5    1    5    5    0  503 -0.48488637980E+02 -0.36330688172E+02  0.56108492550E+02  0.82712271474E+02  0.47000000000E+01 0.  1.
<mgrwt>
<rscale>  0 0.27436320E+03</rscale>
<asrwt>0</asrwt>
<pdfrwt beam="1">  1        1 0.20004189E-01 0.27436320E+03</pdfrwt>
<pdfrwt beam="2">  1       -1 0.22266096E-01 0.27436320E+03</pdfrwt>
<totfact> 0.42852202E+03</totfact>
</mgrwt>
</event>
<event>
 9    1  0.7986988E-001  0.2801083E+03  0.7818608E-02  0.1095630E+00
         -1   -1    0    0    0  501 -0.00000000000E+00  0.00000000000E+00  0.18340230021E+03  0.18340230021E+03  0.00000000000E+00 0.  1.
          1   -1    0    0  501    0  0.00000000000E+00 -0.00000000000E+00 -0.10695159860E+03  0.10695159860E+03  0.00000000000E+00 0.  1.
         35    2    1    2    0    0 -0.35527136788E-14 -0.71054273576E-14  0.76450701614E+02  0.29035389881E+03  0.28010833043E+03 0.  0.
         25    2    3    3    0    0 -0.30539479700E+02 -0.28611578739E+02 -0.11210733936E+02  0.13220063914E+03  0.12490014482E+03 0.  0.
         25    2    3    3    0    0  0.30539479700E+02  0.28611578739E+02  0.87661435550E+02  0.15815325967E+03  0.12480642613E+03 0.  0.
          5    1    4    4  502    0 -0.56220842865E+01 -0.74026014528E+02  0.11811158085E+02  0.75319666183E+02  0.47000000000E+01 0.  1.
         -5    1    4    4    0  502 -0.24917395414E+02  0.45414435789E+02 -0.23021892021E+02  0.56880972957E+02  0.47000000000E+01 0.  1.
          5    1    5    5  503    0  0.34912074848E+02 -0.21780016635E+02 -0.14644898345E+02  0.43929319848E+02  0.47000000000E+01 0. -1.
         -5    1    5    5    0  503 -0.43725951478E+01  0.50391595373E+02  0.10230633389E+03  0.11422393982E+03  0.47000000000E+01 0. -1.
<mgrwt>
<rscale>  0 0.28010833E+03</rscale>
<asrwt>0</asrwt>
<pdfrwt beam="1">  1        1 0.16454092E-01 0.28010833E+03</pdfrwt>
<pdfrwt beam="2">  1       -1 0.28215738E-01 0.28010833E+03</pdfrwt>
<totfact> 0.37245213E+03</totfact>
</mgrwt>
</event>
<event>
 9    1  0.7986988E-001  0.2784657E+03  0.7818608E-02  0.1096530E+00
          1   -1    0    0  501    0  0.00000000000E+00  0.00000000000E+00  0.14729118882E+03  0.14729118882E+03  0.00000000000E+00 0. -1.
         -1   -1    0    0    0  501 -0.00000000000E+00 -0.00000000000E+00 -0.13161542650E+03  0.13161542650E+03  0.00000000000E+00 0. -1.
         35    2    1    2    0    0 -0.35527136788E-14  0.00000000000E+00  0.15675762325E+02  0.27890661532E+03  0.27846574394E+03 0.  0.
         25    2    3    3    0    0  0.52129439082E+00 -0.35287912369E+02 -0.41232456255E+02  0.13648192609E+03  0.12522656345E+03 0.  0.
         25    2    3    3    0    0 -0.52129439082E+00  0.35287912369E+02  0.56908218580E+02  0.14242468923E+03  0.12570098748E+03 0.  0.
          5    1    4    4  502    0 -0.70853752242E+01 -0.79983114972E+02 -0.42320858899E+02  0.90888097794E+02  0.47000000000E+01 0. -1.
         -5    1    4    4    0  502  0.76066696150E+01  0.44695202603E+02  0.10884026439E+01  0.45593828296E+02  0.47000000000E+01 0. -1.
          5    1    5    5  503    0 -0.54807397666E+02  0.81701365062E+01  0.59580755456E+02  0.81501891942E+02  0.47000000000E+01 0.  1.
         -5    1    5    5    0  503  0.54286103275E+02  0.27117775862E+02 -0.26725368754E+01  0.60922797292E+02  0.47000000000E+01 0.  1.
<mgrwt>
<rscale>  0 0.27846574E+03</rscale>
<asrwt>0</asrwt>
<pdfrwt beam="1">  1        1 0.22660183E-01 0.27846574E+03</pdfrwt>
<pdfrwt beam="2">  1       -1 0.20248527E-01 0.27846574E+03</pdfrwt>
<totfact> 0.42668439E+03</totfact>
</mgrwt>
</event>
<event>
 9    1  0.7986988E-001  0.2726720E+03  0.7818608E-02  0.1099760E+00
          1   -1    0    0  501    0  0.00000000000E+00  0.00000000000E+00  0.97928531276E+03  0.97928531276E+03  0.00000000000E+00 0.  1.
         -1   -1    0    0    0  501 -0.00000000000E+00 -0.00000000000E+00 -0.18980677083E+02  0.18980677083E+02  0.00000000000E+00 0.  1.
         35    2    1    2    0    0  0.35527136788E-14 -0.71054273576E-14  0.96030463568E+03  0.99826598985E+03  0.27267195157E+03 0.  0.
         25    2    3    3    0    0  0.22114049284E+02  0.33117456542E+02  0.34084199168E+03  0.36512624469E+03  0.12473216974E+03 0.  0.
         25    2    3    3    0    0 -0.22114049284E+02 -0.33117456542E+02  0.61946264401E+03  0.63313974516E+03  0.12468429122E+03 0.  0.
          5    1    4    4  502    0  0.64090741730E+02  0.53817829291E+02  0.21236356440E+03  0.22830758947E+03  0.47000000000E+01 0. -1.
         -5    1    4    4    0  502 -0.41976692446E+02 -0.20700372748E+02  0.12847842727E+03  0.13681865521E+03  0.47000000000E+01 0. -1.
          5    1    5    5  503    0  0.46932014052E+01  0.81845478755E+01  0.53612616565E+03  0.53622977208E+03  0.47000000000E+01 0.  1.
         -5    1    5    5    0  503 -0.26807250689E+02 -0.41302004418E+02  0.83336478353E+02  0.96909973082E+02  0.47000000000E+01 0.  1.
<mgrwt>
<rscale>  0 0.27267195E+03</rscale>
<asrwt>0</asrwt>
<pdfrwt beam="1">  1        1 0.15065924E+00 0.27267195E+03</pdfrwt>
<pdfrwt beam="2">  1       -1 0.29201049E-02 0.27267195E+03</pdfrwt>
<totfact> 0.65014686E+03</totfact>
</mgrwt>
</event>
<event>
 9    1  0.7986988E-001  0.2779807E+03  0.7818608E-02  0.1096797E+00
         -1   -1    0    0    0  501 -0.00000000000E+00  0.00000000000E+00  0.72536300091E+02  0.72536300091E+02  0.00000000000E+00 0. -1.
          1   -1    0    0  501    0  0.00000000000E+00 -0.00000000000E+00 -0.26632615010E+03  0.26632615010E+03  0.00000000000E+00 0. -1.
         35    2    1    2    0    0  0.00000000000E+00  0.71054273576E-14 -0.19378985001E+03  0.33886245019E+03  0.27798067232E+03 0.  0.
         25    2    3    3    0    0 -0.54578970596E+02  0.33232515231E+01 -0.13235772172E+03  0.19016099571E+03  0.12511086986E+03 0.  0.
         25    2    3    3    0    0  0.54578970596E+02 -0.33232515231E+01 -0.61432128288E+02  0.14870145449E+03  0.12388828899E+03 0.  0.
          5    1    4    4  502    0  0.16744356446E+02  0.38299115558E+02 -0.84536655468E+01  0.42903964694E+02  0.47000000000E+01 0.  1.
         -5    1    4    4    0  502 -0.71323327042E+02 -0.34975864035E+02 -0.12390405618E+03  0.14725703101E+03  0.47000000000E+01 0.  1.
          5    1    5    5  503    0 -0.13646386860E+02 -0.47208633247E+02 -0.46783820921E+01  0.49586854975E+02  0.47000000000E+01 0. -1.
         -5    1    5    5    0  503  0.68225357456E+02  0.43885381724E+02 -0.56753746196E+02  0.99114599512E+02  0.47000000000E+01 0. -1.
<mgrwt>
<rscale>  0 0.27798067E+03</rscale>
<asrwt>0</asrwt>
<pdfrwt beam="1">  1        1 0.40973254E-01 0.27798067E+03</pdfrwt>
<pdfrwt beam="2">  1       -1 0.11159431E-01 0.27798067E+03</pdfrwt>
<totfact> 0.52012543E+03</totfact>
</mgrwt>
</event>
<event>
 9    1  0.7986988E-001  0.2762324E+03  0.7818608E-02  0.1097765E+00
          2   -1    0    0  501    0  0.00000000000E+00  0.00000000000E+00  0.75719400253E+03  0.75719400253E+03  0.00000000000E+00 0.  1.
         -2   -1    0    0    0  501 -0.00000000000E+00 -0.00000000000E+00 -0.25193134548E+02  0.25193134548E+02  0.00000000000E+00 0.  1.
         35    2    1    2    0    0  0.00000000000E+00  0.35527136788E-14  0.73200086798E+03  0.78238713708E+03  0.27623244114E+03 0.  0.
         25    2    3    3    0    0 -0.56268809246E+02  0.59281230081E+01  0.40690682569E+03  0.42939774074E+03  0.12493171504E+03 0.  0.
         25    2    3    3    0    0  0.56268809246E+02 -0.59281230081E+01  0.32509404229E+03  0.35298939634E+03  0.12535571809E+03 0.  0.
          5    1    4    4  502    0 -0.51096539612E+01  0.32295587919E+02  0.33748730231E+03  0.33910010732E+03  0.47000000000E+01 0. -1.
         -5    1    4    4    0  502 -0.51159155285E+02 -0.26367464910E+02  0.69419523378E+02  0.90297633420E+02  0.47000000000E+01 0. -1.
          5    1    5    5  503    0  0.22314918300E+01 -0.30353713384E+02  0.27050045360E+03  0.27224788864E+03  0.47000000000E+01 0.  1.
         -5    1    5    5    0  503  0.54037317416E+02  0.24425590376E+02  0.54593588690E+02  0.80741507694E+02  0.47000000000E+01 0.  1.
<mgrwt>
<rscale>  0 0.27623244E+03</rscale>
<asrwt>0</asrwt>
<pdfrwt beam="1">  1        2 0.11649137E+00 0.27623244E+03</pdfrwt>
<pdfrwt beam="2">  1       -2 0.38758674E-02 0.27623244E+03</pdfrwt>
<totfact> 0.10928664E+04</totfact>
</mgrwt>
</event>
<event>
 9    1  0.7986988E-001  0.2727664E+03  0.7818608E-02  0.1099707E+00
          1   -1    0    0  501    0  0.00000000000E+00  0.00000000000E+00  0.37587733312E+04  0.37587733312E+04  0.00000000000E+00 0. -1.
         -1   -1    0    0    0  501 -0.00000000000E+00 -0.00000000000E+00 -0.49485217773E+01  0.49485217773E+01  0.00000000000E+00 0. -1.
         35    2    1    2    0    0  0.00000000000E+00  0.00000000000E+00  0.37538248094E+04  0.37637218530E+04  0.27276635926E+03 0.  0.
         25    2    3    3    0    0 -0.18045409662E+02 -0.48333732185E+02  0.20973355777E+04  0.21016913476E+04  0.12501283515E+03 0.  0.
         25    2    3    3    0    0  0.18045409662E+02  0.48333732185E+02  0.16564892318E+04  0.16620305054E+04  0.12540749279E+03 0.  0.
          5    1    4    4  502    0 -0.27524448738E+02 -0.83827994570E+02  0.10534306134E+04  0.10571295451E+04  0.47000000000E+01 0. -1.
         -5    1    4    4    0  502  0.94790390752E+01  0.35494262385E+02  0.10439049643E+04  0.10445618025E+04  0.47000000000E+01 0. -1.
          5    1    5    5  503    0 -0.27698964033E+02  0.20214482880E+02  0.12816944163E+03  0.13276051256E+03  0.47000000000E+01 0.  1.
         -5    1    5    5    0  503  0.45744373696E+02  0.28119249305E+02  0.15283197902E+04  0.15292699928E+04  0.47000000000E+01 0.  1.
<mgrwt>
<rscale>  0 0.27276636E+03</rscale>
<asrwt>0</asrwt>
<pdfrwt beam="1">  1        1 0.57827054E+00 0.27276636E+03</pdfrwt>
<pdfrwt beam="2">  1       -1 0.76131405E-03 0.27276636E+03</pdfrwt>
<totfact> 0.55165267E+02</totfact>
</mgrwt>
</event>
<event>
 9    1  0.7986988E-001  0.2724850E+03  0.7818608E-02  0.1099866E+00
          1   -1    0    0  501    0  0.00000000000E+00  0.00000000000E+00  0.28284552039E+03  0.28284552039E+03  0.00000000000E+00 0. -1.
         -1   -1    0    0    0  501 -0.00000000000E+00 -0.00000000000E+00 -0.65626004396E+02  0.65626004396E+02  0.00000000000E+00 0. -1.
         35    2    1    2    0    0  0.00000000000E+00  0.00000000000E+00  0.21721951599E+03  0.34847152478E+03  0.27248501878E+03 0.  0.
         25    2    3    3    0    0  0.22417669340E+02 -0.63560639505E+02  0.89742948747E+02  0.16689441909E+03  0.12352102445E+03 0.  0.
         25    2    3    3    0    0 -0.22417669340E+02  0.63560639505E+02  0.12747656724E+03  0.18157710569E+03  0.11035154427E+03 0.  0.
          5    1    4    4  502    0 -0.23438358288E+02 -0.77036205986E+02  0.21553038083E+02  0.83489862394E+02  0.47000000000E+01 0.  1.
         -5    1    4    4    0  502  0.45856027628E+02  0.13475566481E+02  0.68189910664E+02  0.83404556699E+02  0.47000000000E+01 0.  1.
          5    1    5    5  503    0  0.19583508953E+01 -0.22513864741E+02  0.73386204403E+02  0.76930710646E+02  0.47000000000E+01 0. -1.
         -5    1    5    5    0  503 -0.24376020235E+02  0.86074504246E+02  0.54090362841E+02  0.10464639505E+03  0.47000000000E+01 0. -1.
<mgrwt>
<rscale>  0 0.27248502E+03</rscale>
<asrwt>0</asrwt>
<pdfrwt beam="1">  1        1 0.43514695E-01 0.27248502E+03</pdfrwt>
<pdfrwt beam="2">  1       -1 0.10096309E-01 0.27248502E+03</pdfrwt>
<totfact> 0.56292506E+03</totfact>
</mgrwt>
</event>
<event>
 9    1  0.7986988E-001  0.2741092E+03  0.7818608E-02  0.1098951E+00
         -2   -1    0    0    0  501 -0.00000000000E+00  0.00000000000E+00  0.53463619368E+01  0.53463619368E+01  0.00000000000E+00 0. -1.
          2   -1    0    0  501    0  0.00000000000E+00 -0.00000000000E+00 -0.35134093068E+04  0.35134093068E+04  0.00000000000E+00 0. -1.
         35    2    1    2    0    0  0.00000000000E+00 -0.88817841970E-15 -0.35080629448E+04  0.35187556687E+04  0.27410915918E+03 0.  0.
         25    2    3    3    0    0 -0.44207474382E+01  0.40435086349E+00 -0.24454305704E+04  0.24486365605E+04  0.12518236493E+03 0.  0.
         25    2    3    3    0    0  0.44207474382E+01 -0.40435086349E+00 -0.10626323745E+04  0.10701191082E+04  0.12628394969E+03 0.  0.
          5    1    4    4  502    0 -0.38385795942E+02 -0.37863939755E+02 -0.58544526550E+03  0.58794166050E+03  0.47000000000E+01 0.  1.
         -5    1    4    4    0  502  0.33965048504E+02  0.38268290618E+02 -0.18599853049E+04  0.18606949000E+04  0.47000000000E+01 0.  1.
          5    1    5    5  503    0 -0.42806049632E+02  0.78762809307E+01 -0.88462225562E+03  0.88570481473E+03  0.47000000000E+01 0. -1.
         -5    1    5    5    0  503  0.47226797070E+02 -0.82806317941E+01 -0.17801011885E+03  0.18441429347E+03  0.47000000000E+01 0. -1.
<mgrwt>
<rscale>  0 0.27410916E+03</rscale>
<asrwt>0</asrwt>
<pdfrwt beam="1">  1        2 0.54052374E+00 0.27410916E+03</pdfrwt>
<pdfrwt beam="2">  1       -2 0.82251839E-03 0.27410916E+03</pdfrwt>
<totfact> 0.28133259E+03</totfact>
</mgrwt>
</event>
<event>
 9    1  0.7986988E-001  0.2751515E+03  0.7818608E-02  0.1098367E+00
         -2   -1    0    0    0  501 -0.00000000000E+00  0.00000000000E+00  0.75160618991E+01  0.75160618991E+01  0.00000000000E+00 0. -1.
          2   -1    0    0  501    0  0.00000000000E+00 -0.00000000000E+00 -0.25182187914E+04  0.25182187914E+04  0.00000000000E+00 0. -1.
         35    2    1    2    0    0 -0.35527136788E-14  0.00000000000E+00 -0.25107027295E+04  0.25257348533E+04  0.27515150962E+03 0.  0.
         25    2    3    3    0    0  0.71858716411E+01  0.50401998459E+02 -0.10088213891E+04  0.10178508552E+04  0.12533064369E+03 0.  0.
         25    2    3    3    0    0 -0.71858716411E+01 -0.50401998459E+02 -0.15018813405E+04  0.15078839981E+04  0.12439691595E+03 0.  0.
          5    1    4    4  502    0 -0.39405685878E+02  0.73073117082E+02 -0.60179825933E+03  0.60751602732E+03  0.47000000000E+01 0.  1.
         -5    1    4    4    0  502  0.46591557519E+02 -0.22671118623E+02 -0.40702312972E+03  0.41033482789E+03  0.47000000000E+01 0.  1.
          5    1    5    5  503    0  0.30181256820E+02 -0.60474772599E+02 -0.13261815877E+04  0.13279110663E+04  0.47000000000E+01 0. -1.
         -5    1    5    5    0  503 -0.37367128461E+02  0.10072774140E+02 -0.17569975273E+03  0.17997293179E+03  0.47000000000E+01 0. -1.
<mgrwt>
<rscale>  0 0.27515151E+03</rscale>
<asrwt>0</asrwt>
<pdfrwt beam="1">  1        2 0.38741845E+00 0.27515151E+03</pdfrwt>
<pdfrwt beam="2">  1       -2 0.11563167E-02 0.27515151E+03</pdfrwt>
<totfact> 0.67637265E+03</totfact>
</mgrwt>
</event>
<event>
 9    1  0.7986988E-001  0.2778347E+03  0.7818608E-02  0.1096877E+00
          2   -1    0    0  501    0  0.00000000000E+00  0.00000000000E+00  0.21092012182E+04  0.21092012182E+04  0.00000000000E+00 0. -1.
         -2   -1    0    0    0  501 -0.00000000000E+00 -0.00000000000E+00 -0.91494521154E+01  0.91494521154E+01  0.00000000000E+00 0. -1.
         35    2    1    2    0    0  0.00000000000E+00  0.71054273576E-14  0.21000517661E+04  0.21183506703E+04  0.27783473899E+03 0.  0.
         25    2    3    3    0    0 -0.11677081661E+02 -0.58321980642E+02  0.87247169897E+03  0.88287151916E+03  0.12131548206E+03 0.  0.
         25    2    3    3    0    0  0.11677081661E+02  0.58321980642E+02  0.12275800671E+04  0.12354791511E+04  0.12616696909E+03 0.  0.
          5    1    4    4  502    0 -0.63908892017E+02 -0.26452758844E+02  0.57286737720E+03  0.57704697971E+03  0.47000000000E+01 0. -1.
         -5    1    4    4    0  502  0.52231810356E+02 -0.31869221798E+02  0.29960432177E+03  0.30582453946E+03  0.47000000000E+01 0. -1.
          5    1    5    5  503    0  0.68799090962E+02  0.28589283752E+02  0.62008262016E+03  0.62456001143E+03  0.47000000000E+01 0.  1.
         -5    1    5    5    0  503 -0.57122009301E+02  0.29732696890E+02  0.60749744694E+03  0.61091913970E+03  0.47000000000E+01 0.  1.
<mgrwt>
<rscale>  0 0.27783474E+03</rscale>
<asrwt>0</asrwt>
<pdfrwt beam="1">  1        2 0.32449211E+00 0.27783474E+03</pdfrwt>
<pdfrwt beam="2">  1       -2 0.14076097E-02 0.27783474E+03</pdfrwt>
<totfact> 0.84253702E+03</totfact>
</mgrwt>
</event>
<event>
 9    1  0.7986988E-001  0.2925308E+03  0.7818608E-02  0.1089035E+00
          1   -1    0    0  501    0  0.00000000000E+00  0.00000000000E+00  0.80313805781E+02  0.80313805781E+02  0.00000000000E+00 0. -1.
         -1   -1    0    0    0  501 -0.00000000000E+00 -0.00000000000E+00 -0.26637471786E+03  0.26637471786E+03  0.00000000000E+00 0. -1.
         35    2    1    2    0    0  0.00000000000E+00  0.00000000000E+00 -0.18606091207E+03  0.34668852364E+03  0.29253080081E+03 0.  0.
         25    2    3    3    0    0  0.12035257401E+02  0.73525582672E+02 -0.87349067136E+02  0.16971664289E+03  0.12499208221E+03 0.  0.
         25    2    3    3    0    0 -0.12035257401E+02 -0.73525582672E+02 -0.98711844938E+02  0.17697188075E+03  0.12658656926E+03 0.  0.
          5    1    4    4  502    0  0.33456482740E+02  0.58887876523E+02 -0.11370794837E+03  0.13243377878E+03  0.47000000000E+01 0. -1.
         -5    1    4    4    0  502 -0.21421225339E+02  0.14637706150E+02  0.26358881235E+02  0.37282864111E+02  0.47000000000E+01 0. -1.
          5    1    5    5  503    0 -0.28033929395E+02 -0.10166120026E+03 -0.46468549635E+02  0.11533567072E+03  0.47000000000E+01 0. -1.
         -5    1    5    5    0  503  0.15998671994E+02  0.28135617586E+02 -0.52243295303E+02  0.61636210029E+02  0.47000000000E+01 0. -1.
<mgrwt>
<rscale>  0 0.29253080E+03</rscale>
<asrwt>0</asrwt>
<pdfrwt beam="1">  1        1 0.12355970E-01 0.29253080E+03</pdfrwt>
<pdfrwt beam="2">  1       -1 0.40980726E-01 0.29253080E+03</pdfrwt>
<totfact> 0.28471458E+03</totfact>
</mgrwt>
</event>
<event>
 9    1  0.7986988E-001  0.2721075E+03  0.7818608E-02  0.1100079E+00
          1   -1    0    0  501    0  0.00000000000E+00  0.00000000000E+00  0.10745152550E+03  0.10745152550E+03  0.00000000000E+00 0. -1.
         -1   -1    0    0    0  501 -0.00000000000E+00 -0.00000000000E+00 -0.17226957378E+03  0.17226957378E+03  0.00000000000E+00 0. -1.
         35    2    1    2    0    0  0.00000000000E+00  0.35527136788E-14 -0.64818048282E+02  0.27972109928E+03  0.27210754124E+03 0.  0.
         25    2    3    3    0    0 -0.17807201309E+02 -0.21588912592E+02  0.15126116373E+02  0.12870335506E+03  0.12470997010E+03 0.  0.
         25    2    3    3    0    0  0.17807201309E+02  0.21588912592E+02 -0.79944164655E+02  0.15101774422E+03  0.12502844493E+03 0.  0.
          5    1    4    4  502    0  0.70181562294E+01 -0.50467902886E+02  0.53782791994E+02  0.74235722218E+02  0.47000000000E+01 0. -1.
         -5    1    4    4    0  502 -0.24825357539E+02  0.28878990294E+02 -0.38656675622E+02  0.54467632842E+02  0.47000000000E+01 0. -1.
          5    1    5    5  503    0  0.10196191109E+02 -0.53038968496E+01  0.32639464584E+02  0.34921601957E+02  0.47000000000E+01 0.  1.
         -5    1    5    5    0  503  0.76110102001E+01  0.26892809441E+02 -0.11258362924E+03  0.11609614226E+03  0.47000000000E+01 0.  1.
<mgrwt>
<rscale>  0 0.27210754E+03</rscale>
<asrwt>0</asrwt>
<pdfrwt beam="1">  1        1 0.16531004E-01 0.27210754E+03</pdfrwt>
<pdfrwt beam="2">  1       -1 0.26503011E-01 0.27210754E+03</pdfrwt>
<totfact> 0.41094650E+03</totfact>
</mgrwt>
</event>
<event>
 9    1  0.7986988E-001  0.2743093E+03  0.7818608E-02  0.1098838E+00
          2   -1    0    0  501    0  0.00000000000E+00  0.00000000000E+00  0.28954162048E+02  0.28954162048E+02  0.00000000000E+00 0. -1.
         -2   -1    0    0    0  501 -0.00000000000E+00 -0.00000000000E+00 -0.64969593820E+03  0.64969593820E+03  0.00000000000E+00 0. -1.
         35    2    1    2    0    0  0.71054273576E-14  0.00000000000E+00 -0.62074177615E+03  0.67865010024E+03  0.27430932522E+03 0.  0.
         25    2    3    3    0    0  0.48129665681E+02  0.26309764470E+01 -0.23035603110E+03  0.26584068654E+03  0.12362840612E+03 0.  0.
         25    2    3    3    0    0 -0.48129665681E+02 -0.26309764470E+01 -0.39038574504E+03  0.41280941370E+03  0.12524853433E+03 0.  0.
          5    1    4    4  502    0  0.56115436945E+02  0.21588277735E+02 -0.35779083007E+02  0.70122954729E+02  0.47000000000E+01 0.  1.
         -5    1    4    4    0  502 -0.79857712644E+01 -0.18957301288E+02 -0.19457694810E+03  0.19571773181E+03  0.47000000000E+01 0.  1.
          5    1    5    5  503    0 -0.21002869800E+02 -0.55525684302E+02 -0.10020219618E+03  0.11656239649E+03  0.47000000000E+01 0. -1.
         -5    1    5    5    0  503 -0.27126795881E+02  0.52894707855E+02 -0.29018354886E+03  0.29624701721E+03  0.47000000000E+01 0. -1.
<mgrwt>
<rscale>  0 0.27430933E+03</rscale>
<asrwt>0</asrwt>
<pdfrwt beam="1">  1        2 0.44544863E-02 0.27430933E+03</pdfrwt>
<pdfrwt beam="2">  1       -2 0.99953226E-01 0.27430933E+03</pdfrwt>
<totfact> 0.15732994E+03</totfact>
</mgrwt>
</event>
<event>
 9    1  0.7986988E-001  0.2753475E+03  0.7818608E-02  0.1098257E+00
         -1   -1    0    0    0  501 -0.00000000000E+00  0.00000000000E+00  0.25102955187E+02  0.25102955187E+02  0.00000000000E+00 0. -1.
          1   -1    0    0  501    0  0.00000000000E+00 -0.00000000000E+00 -0.75505323958E+03  0.75505323958E+03  0.00000000000E+00 0. -1.
         35    2    1    2    0    0  0.00000000000E+00  0.00000000000E+00 -0.72995028439E+03  0.78015619477E+03  0.27534754502E+03 0.  0.
         25    2    3    3    0    0 -0.11472336624E+02  0.16303385011E+02 -0.52023219196E+03  0.53539379674E+03  0.12493025720E+03 0.  0.
         25    2    3    3    0    0  0.11472336624E+02 -0.16303385011E+02 -0.20971809243E+03  0.24476239802E+03  0.12461756828E+03 0.  0.
          5    1    4    4  502    0  0.37242376964E+02 -0.30050381459E+02 -0.11586251868E+03  0.12544414416E+03  0.47000000000E+01 0. -1.
         -5    1    4    4    0  502 -0.48714713588E+02  0.46353766470E+02 -0.40436967328E+03  0.40994965259E+03  0.47000000000E+01 0. -1.
          5    1    5    5  503    0  0.90610331461E+00  0.51772813239E+02 -0.56956184975E+02  0.77119013354E+02  0.47000000000E+01 0.  1.
         -5    1    5    5    0  503  0.10566233310E+02 -0.68076198249E+02 -0.15276190745E+03  0.16764338467E+03  0.47000000000E+01 0.  1.
<mgrwt>
<rscale>  0 0.27534755E+03</rscale>
<asrwt>0</asrwt>
<pdfrwt beam="1">  1        1 0.11616204E+00 0.27534755E+03</pdfrwt>
<pdfrwt beam="2">  1       -1 0.38619930E-02 0.27534755E+03</pdfrwt>
<totfact> 0.65104223E+03</totfact>
</mgrwt>
</event>
<event>
 9    1  0.7986988E-001  0.2709125E+03  0.7818608E-02  0.1100758E+00
         -1   -1    0    0    0  501 -0.00000000000E+00  0.00000000000E+00  0.36464261533E+02  0.36464261533E+02  0.00000000000E+00 0.  1.
          1   -1    0    0  501    0  0.00000000000E+00 -0.00000000000E+00 -0.50318863800E+03  0.50318863800E+03  0.00000000000E+00 0.  1.
         35    2    1    2    0    0  0.00000000000E+00  0.35527136788E-14 -0.46672437647E+03  0.53965289953E+03  0.27091254749E+03 0.  0.
         25    2    3    3    0    0 -0.89510723825E+01 -0.19072918480E+02 -0.13457878550E+03  0.18395562538E+03  0.12362978882E+03 0.  0.
         25    2    3    3    0    0  0.89510723825E+01  0.19072918480E+02 -0.33214559096E+03  0.35569727415E+03  0.12552274427E+03 0.  0.
          5    1    4    4  502    0  0.44414932650E+02  0.29127303665E+02 -0.59098905319E+02  0.79598094644E+02  0.47000000000E+01 0. -1.
         -5    1    4    4    0  502 -0.53366005032E+02 -0.48200222145E+02 -0.75479880186E+02  0.10435753073E+03  0.47000000000E+01 0. -1.
          5    1    5    5  503    0 -0.34088401414E+02 -0.20201587876E+02 -0.35694272983E+02  0.53537784671E+02  0.47000000000E+01 0. -1.
         -5    1    5    5    0  503  0.43039473796E+02  0.39274506356E+02 -0.29645131798E+03  0.30215948948E+03  0.47000000000E+01 0. -1.
<mgrwt>
<rscale>  0 0.27091255E+03</rscale>
<asrwt>0</asrwt>
<pdfrwt beam="1">  1        1 0.77413636E-01 0.27091255E+03</pdfrwt>
<pdfrwt beam="2">  1       -1 0.56098864E-02 0.27091255E+03</pdfrwt>
<totfact> 0.65874176E+03</totfact>
</mgrwt>
</event>
<event>
 9    1  0.7986988E-001  0.2785141E+03  0.7818608E-02  0.1096503E+00
         -2   -1    0    0    0  501 -0.00000000000E+00  0.00000000000E+00  0.74642610231E+02  0.74642610231E+02  0.00000000000E+00 0.  1.
          2   -1    0    0  501    0  0.00000000000E+00 -0.00000000000E+00 -0.25980510389E+03  0.25980510389E+03  0.00000000000E+00 0.  1.
         35    2    1    2    0    0  0.00000000000E+00  0.00000000000E+00 -0.18516249366E+03  0.33444771413E+03  0.27851413685E+03 0.  0.
         25    2    3    3    0    0  0.57487909671E+02 -0.67971814472E+01 -0.70067658885E+02  0.15460131897E+03  0.12506410185E+03 0.  0.
         25    2    3    3    0    0 -0.57487909671E+02  0.67971814472E+01 -0.11509483478E+03  0.17984639516E+03  0.12548642726E+03 0.  0.
          5    1    4    4  502    0 -0.24704962110E+02  0.24469469375E+02 -0.55026174947E+02  0.65261474191E+02  0.47000000000E+01 0.  1.
         -5    1    4    4    0  502  0.82192871781E+02 -0.31266650822E+02 -0.15041483938E+02  0.89339844775E+02  0.47000000000E+01 0.  1.
          5    1    5    5  503    0 -0.24968936288E+02 -0.37697885341E+02 -0.11593375911E+03  0.12452832946E+03  0.47000000000E+01 0. -1.
         -5    1    5    5    0  503 -0.32518973383E+02  0.44495066788E+02  0.83892432777E+00  0.55318065697E+02  0.47000000000E+01 0. -1.
<mgrwt>
<rscale>  0 0.27851414E+03</rscale>
<asrwt>0</asrwt>
<pdfrwt beam="1">  1        2 0.39970016E-01 0.27851414E+03</pdfrwt>
<pdfrwt beam="2">  1       -2 0.11483478E-01 0.27851414E+03</pdfrwt>
<totfact> 0.67444670E+03</totfact>
</mgrwt>
</event>
<event>
 9    1  0.7986988E-001  0.2752083E+03  0.7818608E-02  0.1098335E+00
          1   -1    0    0  501    0  0.00000000000E+00  0.00000000000E+00  0.10223849486E+03  0.10223849486E+03  0.00000000000E+00 0. -1.
         -1   -1    0    0    0  501 -0.00000000000E+00 -0.00000000000E+00 -0.18520323007E+03  0.18520323007E+03  0.00000000000E+00 0. -1.
         35    2    1    2    0    0  0.71054273576E-14  0.71054273576E-14 -0.82964735208E+02  0.28744172492E+03  0.27520828102E+03 0.  0.
         25    2    3    3    0    0 -0.43891941860E+02 -0.33821346342E+02 -0.57820487537E+02  0.14865061089E+03  0.12523341930E+03 0.  0.
         25    2    3    3    0    0  0.43891941860E+02  0.33821346342E+02 -0.25144247672E+02  0.13879111404E+03  0.12474114845E+03 0.  0.
          5    1    4    4  502    0 -0.26576182051E+02 -0.26468530695E+02 -0.97453619034E+02  0.10452834272E+03  0.47000000000E+01 0.  1.
         -5    1    4    4    0  502 -0.17315759809E+02 -0.73528156470E+01  0.39633131497E+02  0.44122268165E+02  0.47000000000E+01 0.  1.
          5    1    5    5  503    0 -0.54099424542E+01  0.72982082691E+02 -0.12213444147E+02  0.74343191277E+02  0.47000000000E+01 0.  1.
         -5    1    5    5    0  503  0.49301884314E+02 -0.39160736349E+02 -0.12930803525E+02  0.64447922760E+02  0.47000000000E+01 0.  1.
<mgrwt>
<rscale>  0 0.27520828E+03</rscale>
<asrwt>0</asrwt>
<pdfrwt beam="1">  1        1 0.15728999E-01 0.27520828E+03</pdfrwt>
<pdfrwt beam="2">  1       -1 0.28492804E-01 0.27520828E+03</pdfrwt>
<totfact> 0.38838026E+03</totfact>
</mgrwt>
</event>
<event>
 9    1  0.7986988E-001  0.2724591E+03  0.7818608E-02  0.1099880E+00
          2   -1    0    0  501    0  0.00000000000E+00  0.00000000000E+00  0.68673656992E+03  0.68673656992E+03  0.00000000000E+00 0.  1.
         -2   -1    0    0    0  501 -0.00000000000E+00 -0.00000000000E+00 -0.27024182209E+02  0.27024182209E+02  0.00000000000E+00 0.  1.
         35    2    1    2    0    0  0.35527136788E-14 -0.35527136788E-14  0.65971238771E+03  0.71376075213E+03  0.27245912864E+03 0.  0.
         25    2    3    3    0    0 -0.20442639180E+02 -0.24120436434E+02  0.19563244592E+03  0.23221440363E+03  0.12104453069E+03 0.  0.
         25    2    3    3    0    0  0.20442639180E+02  0.24120436434E+02  0.46407994179E+03  0.48154634849E+03  0.12456723655E+03 0.  0.
          5    1    4    4  502    0  0.43205721559E+02  0.19229062560E+02  0.84071966295E+02  0.96574721014E+02  0.47000000000E+01 0. -1.
         -5    1    4    4    0  502 -0.63648360739E+02 -0.43349498994E+02  0.11156047962E+03  0.13563968262E+03  0.47000000000E+01 0. -1.
          5    1    5    5  503    0  0.65060478091E+01 -0.39482211964E+02  0.60287831766E+02  0.72511284492E+02  0.47000000000E+01 0.  1.
         -5    1    5    5    0  503  0.13936591371E+02  0.63602648398E+02  0.40379211003E+03  0.40903506400E+03  0.47000000000E+01 0.  1.
<mgrwt>
<rscale>  0 0.27245913E+03</rscale>
<asrwt>0</asrwt>
<pdfrwt beam="1">  1        2 0.10565177E+00 0.27245913E+03</pdfrwt>
<pdfrwt beam="2">  1       -2 0.41575670E-02 0.27245913E+03</pdfrwt>
<totfact> 0.11078960E+04</totfact>
</mgrwt>
</event>
<event>
 9    1  0.7986988E-001  0.2784575E+03  0.7818608E-02  0.1096534E+00
         -2   -1    0    0    0  501 -0.00000000000E+00  0.00000000000E+00  0.83292753341E+01  0.83292753341E+01  0.00000000000E+00 0.  1.
          2   -1    0    0  501    0  0.00000000000E+00 -0.00000000000E+00 -0.23272912148E+04  0.23272912148E+04  0.00000000000E+00 0.  1.
         35    2    1    2    0    0  0.00000000000E+00 -0.35527136788E-14 -0.23189619395E+04  0.23356204902E+04  0.27845753221E+03 0.  0.
         25    2    3    3    0    0  0.22358769715E+02 -0.39860936859E+01 -0.67787204598E+03  0.68961455382E+03  0.12466723143E+03 0.  0.
         25    2    3    3    0    0 -0.22358769715E+02  0.39860936859E+01 -0.16410898935E+04  0.16460059363E+04  0.12507477905E+03 0.  0.
          5    1    4    4  502    0  0.55032888083E+02  0.40526357975E+02 -0.30152720353E+03  0.30921149547E+03  0.47000000000E+01 0. -1.
         -5    1    4    4    0  502 -0.32674118368E+02 -0.44512451660E+02 -0.37634484245E+03  0.38040305835E+03  0.47000000000E+01 0. -1.
          5    1    5    5  503    0  0.41873144236E+02  0.29173975928E+02 -0.97242221027E+03  0.97377180392E+03  0.47000000000E+01 0.  1.
         -5    1    5    5    0  503 -0.64231913951E+02 -0.25187882242E+02 -0.66866768324E+03  0.67223413242E+03  0.47000000000E+01 0.  1.
<mgrwt>
<rscale>  0 0.27845753E+03</rscale>
<asrwt>0</asrwt>
<pdfrwt beam="1">  1        2 0.35804494E+00 0.27845753E+03</pdfrwt>
<pdfrwt beam="2">  1       -2 0.12814265E-02 0.27845753E+03</pdfrwt>
<totfact> 0.73940793E+03</totfact>
</mgrwt>
</event>
<event>
 9    1  0.7986988E-001  0.2750250E+03  0.7818608E-02  0.1098438E+00
          1   -1    0    0  501    0  0.00000000000E+00  0.00000000000E+00  0.50337496739E+03  0.50337496739E+03  0.00000000000E+00 0.  1.
         -1   -1    0    0    0  501 -0.00000000000E+00 -0.00000000000E+00 -0.37565818346E+02  0.37565818346E+02  0.00000000000E+00 0.  1.
         35    2    1    2    0    0  0.71054273576E-14 -0.35527136788E-14  0.46580914905E+03  0.54094078574E+03  0.27502503584E+03 0.  0.
         25    2    3    3    0    0 -0.48112657388E+02 -0.80364980616E+01  0.29024242608E+03  0.31995100007E+03  0.12549328048E+03 0.  0.
         25    2    3    3    0    0  0.48112657388E+02  0.80364980616E+01  0.17556672296E+03  0.22098978567E+03  0.12503358771E+03 0.  0.
          5    1    4    4  502    0 -0.57811467595E+02 -0.40784279292E+02  0.27171096708E+03  0.28081036814E+03  0.47000000000E+01 0.  1.
         -5    1    4    4    0  502  0.96988102076E+01  0.32747781230E+02  0.18531458999E+02  0.39140631926E+02  0.47000000000E+01 0.  1.
          5    1    5    5  503    0 -0.20252323347E+01 -0.11134535556E+02  0.16577080447E+03  0.16622313035E+03  0.47000000000E+01 0.  1.
         -5    1    5    5    0  503  0.50137889722E+02  0.19171033617E+02  0.97959184920E+01  0.54766655319E+02  0.47000000000E+01 0.  1.
<mgrwt>
<rscale>  0 0.27502504E+03</rscale>
<asrwt>0</asrwt>
<pdfrwt beam="1">  1        1 0.77442298E-01 0.27502504E+03</pdfrwt>
<pdfrwt beam="2">  1       -1 0.57793570E-02 0.27502504E+03</pdfrwt>
<totfact> 0.62987297E+03</totfact>
</mgrwt>
</event>
<event>
 9    1  0.7986988E-001  0.2771727E+03  0.7818608E-02  0.1097243E+00
          1   -1    0    0  501    0  0.00000000000E+00  0.00000000000E+00  0.16233632984E+03  0.16233632984E+03  0.00000000000E+00 0. -1.
         -1   -1    0    0    0  501 -0.00000000000E+00 -0.00000000000E+00 -0.11831098437E+03  0.11831098437E+03  0.00000000000E+00 0. -1.
         35    2    1    2    0    0  0.00000000000E+00  0.71054273576E-14  0.44025345467E+02  0.28064731421E+03  0.27717266086E+03 0.  0.
         25    2    3    3    0    0  0.42908801542E+02  0.33666358254E+02  0.20348075132E+02  0.13776777693E+03  0.12486523644E+03 0.  0.
         25    2    3    3    0    0 -0.42908801542E+02 -0.33666358254E+02  0.23677270335E+02  0.14287953728E+03  0.12992059157E+03 0.  0.
          5    1    4    4  502    0  0.22206831131E+02 -0.41714640697E+02 -0.17724619160E+02  0.50690302049E+02  0.47000000000E+01 0. -1.
         -5    1    4    4    0  502  0.20701970411E+02  0.75380998951E+02  0.38072694292E+02  0.87077474885E+02  0.47000000000E+01 0. -1.
          5    1    5    5  503    0 -0.37982129932E+02 -0.41917575174E+02  0.72965674892E+02  0.92443523381E+02  0.47000000000E+01 0.  1.
         -5    1    5    5    0  503 -0.49266716100E+01  0.82512169202E+01 -0.49288404558E+02  0.50436013895E+02  0.47000000000E+01 0.  1.
<mgrwt>
<rscale>  0 0.27717266E+03</rscale>
<asrwt>0</asrwt>
<pdfrwt beam="1">  1        1 0.24974820E-01 0.27717266E+03</pdfrwt>
<pdfrwt beam="2">  1       -1 0.18201690E-01 0.27717266E+03</pdfrwt>
<totfact> 0.44782334E+03</totfact>
</mgrwt>
</event>
<event>
 9    1  0.7986988E-001  0.2763122E+03  0.7818608E-02  0.1097720E+00
          2   -1    0    0  501    0  0.00000000000E+00  0.00000000000E+00  0.50102670576E+03  0.50102670576E+03  0.00000000000E+00 0.  1.
         -2   -1    0    0    0  501 -0.00000000000E+00 -0.00000000000E+00 -0.38095998002E+02  0.38095998002E+02  0.00000000000E+00 0.  1.
         35    2    1    2    0    0  0.35527136788E-14 -0.71054273576E-14  0.46293070776E+03  0.53912270376E+03  0.27631223195E+03 0.  0.
         25    2    3    3    0    0  0.12826460998E+02  0.28880074980E+02  0.33155861897E+03  0.35582097971E+03  0.12521531440E+03 0.  0.
         25    2    3    3    0    0 -0.12826460998E+02 -0.28880074980E+02  0.13137208879E+03  0.18330172405E+03  0.12386411705E+03 0.  0.
          5    1    4    4  502    0  0.45814270023E+02  0.53483509772E+02  0.11195935484E+03  0.13234961387E+03  0.47000000000E+01 0.  1.
         -5    1    4    4    0  502 -0.32987809025E+02 -0.24603434792E+02  0.21959926412E+03  0.22347136584E+03  0.47000000000E+01 0.  1.
          5    1    5    5  503    0 -0.42808946257E+02 -0.34073728442E+02  0.14077594151E+03  0.15110784413E+03  0.47000000000E+01 0. -1.
         -5    1    5    5    0  503  0.29982485259E+02  0.51936534624E+01 -0.94038527128E+01  0.32193879922E+02  0.47000000000E+01 0. -1.
<mgrwt>
<rscale>  0 0.27631223E+03</rscale>
<asrwt>0</asrwt>
<pdfrwt beam="1">  1        2 0.77081027E-01 0.27631223E+03</pdfrwt>
<pdfrwt beam="2">  1       -2 0.58609231E-02 0.27631223E+03</pdfrwt>
<totfact> 0.94784307E+03</totfact>
</mgrwt>
</event>
<event>
 9    1  0.7986988E-001  0.2755517E+03  0.7818608E-02  0.1098144E+00
          2   -1    0    0  501    0  0.00000000000E+00  0.00000000000E+00  0.11396039784E+04  0.11396039784E+04  0.00000000000E+00 0.  1.
         -2   -1    0    0    0  501 -0.00000000000E+00 -0.00000000000E+00 -0.16656820906E+02  0.16656820906E+02  0.00000000000E+00 0.  1.
         35    2    1    2    0    0 -0.35527136788E-14  0.00000000000E+00  0.11229471575E+04  0.11562607993E+04  0.27555166029E+03 0.  0.
         25    2    3    3    0    0  0.30451946368E+02 -0.17502340015E+02  0.75204101290E+03  0.76317546031E+03  0.12504977086E+03 0.  0.
         25    2    3    3    0    0 -0.30451946368E+02  0.17502340015E+02  0.37090614463E+03  0.39308533903E+03  0.12534377804E+03 0.  0.
          5    1    4    4  502    0  0.99113709690E+00  0.10362581018E+02  0.68207759991E+03  0.68217322414E+03  0.47000000000E+01 0.  1.
         -5    1    4    4    0  502  0.29460809271E+02 -0.27864921033E+02  0.69963412991E+02  0.81002236169E+02  0.47000000000E+01 0.  1.
          5    1    5    5  503    0 -0.50146200189E+02  0.61908419673E+02  0.25855139140E+03  0.27058862839E+03  0.47000000000E+01 0.  1.
         -5    1    5    5    0  503  0.19694253821E+02 -0.44406079658E+02  0.11235475324E+03  0.12249671065E+03  0.47000000000E+01 0.  1.
<mgrwt>
<rscale>  0 0.27555166E+03</rscale>
<asrwt>0</asrwt>
<pdfrwt beam="1">  1        2 0.17532363E+00 0.27555166E+03</pdfrwt>
<pdfrwt beam="2">  1       -2 0.25625887E-02 0.27555166E+03</pdfrwt>
<totfact> 0.11580932E+04</totfact>
</mgrwt>
</event>
<event>
 9    1  0.7986988E-001  0.2755945E+03  0.7818608E-02  0.1098120E+00
          1   -1    0    0  501    0  0.00000000000E+00  0.00000000000E+00  0.86306936250E+03  0.86306936250E+03  0.00000000000E+00 0.  1.
         -1   -1    0    0    0  501 -0.00000000000E+00 -0.00000000000E+00 -0.22000645832E+02  0.22000645832E+02  0.00000000000E+00 0.  1.
         35    2    1    2    0    0  0.00000000000E+00  0.00000000000E+00  0.84106871666E+03  0.88507000833E+03  0.27559450918E+03 0.  0.
         25    2    3    3    0    0  0.44714194986E+02  0.19407866526E+02  0.33924998895E+03  0.36582806860E+03  0.12792027307E+03 0.  0.
         25    2    3    3    0    0 -0.44714194986E+02 -0.19407866526E+02  0.50181872772E+03  0.51924193972E+03  0.12415366271E+03 0.  0.
          5    1    4    4  502    0  0.40792162322E+02  0.25329151739E+02  0.30753266223E+02  0.57213807932E+02  0.47000000000E+01 0. -1.
         -5    1    4    4    0  502  0.39220326643E+01 -0.59212852134E+01  0.30849672272E+03  0.30861426067E+03  0.47000000000E+01 0. -1.
          5    1    5    5  503    0 -0.50526292606E+02  0.10811358492E+02  0.47594133430E+03  0.47876093765E+03  0.47000000000E+01 0.  1.
         -5    1    5    5    0  503  0.58120976192E+01 -0.30219225018E+02  0.25877393414E+02  0.40481002079E+02  0.47000000000E+01 0.  1.
<mgrwt>
<rscale>  0 0.27559451E+03</rscale>
<asrwt>0</asrwt>
<pdfrwt beam="1">  1        1 0.13277988E+00 0.27559451E+03</pdfrwt>
<pdfrwt beam="2">  1       -1 0.33847154E-02 0.27559451E+03</pdfrwt>
<totfact> 0.64379363E+03</totfact>
</mgrwt>
</event>
<event>
 9    1  0.7986988E-001  0.2748886E+03  0.7818608E-02  0.1098514E+00
          1   -1    0    0  501    0  0.00000000000E+00  0.00000000000E+00  0.14738590210E+03  0.14738590210E+03  0.00000000000E+00 0. -1.
         -1   -1    0    0    0  501 -0.00000000000E+00 -0.00000000000E+00 -0.12817332603E+03  0.12817332603E+03  0.00000000000E+00 0. -1.
         35    2    1    2    0    0 -0.35527136788E-14  0.00000000000E+00  0.19212576074E+02  0.27555922813E+03  0.27488864132E+03 0.  0.
         25    2    3    3    0    0 -0.27389344676E+01  0.54638621713E+02  0.46097432294E+01  0.13869493367E+03  0.12736622059E+03 0.  0.
         25    2    3    3    0    0  0.27389344676E+01 -0.54638621713E+02  0.14602832844E+02  0.13686429446E+03  0.12460221357E+03 0.  0.
          5    1    4    4  502    0  0.21351186040E+02  0.78500105164E+02  0.38852842081E+02  0.90276093147E+02  0.47000000000E+01 0. -1.
         -5    1    4    4    0  502 -0.24090120508E+02 -0.23861483451E+02 -0.34243098852E+02  0.48418840523E+02  0.47000000000E+01 0. -1.
          5    1    5    5  503    0  0.60133124784E+02 -0.49935288712E+02  0.85536914942E+01  0.78770434766E+02  0.47000000000E+01 0.  1.
         -5    1    5    5    0  503 -0.57394190316E+02 -0.47033330005E+01  0.60491413499E+01  0.58093859697E+02  0.47000000000E+01 0.  1.
<mgrwt>
<rscale>  0 0.27488864E+03</rscale>
<asrwt>0</asrwt>
<pdfrwt beam="1">  1        1 0.22674754E-01 0.27488864E+03</pdfrwt>
<pdfrwt beam="2">  1       -1 0.19718973E-01 0.27488864E+03</pdfrwt>
<totfact> 0.44492882E+03</totfact>
</mgrwt>
</event>
<event>
 9    1  0.7986988E-001  0.2728641E+03  0.7818608E-02  0.1099651E+00
          2   -1    0    0  501    0  0.00000000000E+00  0.00000000000E+00  0.80546053644E+02  0.80546053644E+02  0.00000000000E+00 0. -1.
         -2   -1    0    0    0  501 -0.00000000000E+00 -0.00000000000E+00 -0.23109401383E+03  0.23109401383E+03  0.00000000000E+00 0. -1.
         35    2    1    2    0    0  0.00000000000E+00  0.71054273576E-14 -0.15054796018E+03  0.31164006747E+03  0.27286414814E+03 0.  0.
         25    2    3    3    0    0 -0.43866721614E+02 -0.23022028747E+02 -0.10244244693E+03  0.16901937612E+03  0.12497516352E+03 0.  0.
         25    2    3    3    0    0  0.43866721614E+02  0.23022028747E+02 -0.48105513255E+02  0.14262069135E+03  0.12478869390E+03 0.  0.
          5    1    4    4  502    0 -0.31159982215E+01  0.44962742298E+02 -0.86545660811E+01  0.46134034659E+02  0.47000000000E+01 0.  1.
         -5    1    4    4    0  502 -0.40750723393E+02 -0.67984771045E+02 -0.93787880848E+02  0.12288534146E+03  0.47000000000E+01 0.  1.
          5    1    5    5  503    0 -0.34112166805E+02 -0.23705962656E+02 -0.24979593411E+02  0.48699924810E+02  0.47000000000E+01 0. -1.
         -5    1    5    5    0  503  0.77978888419E+02  0.46727991403E+02 -0.23125919844E+02  0.93920766544E+02  0.47000000000E+01 0. -1.
<mgrwt>
<rscale>  0 0.27286415E+03</rscale>
<asrwt>0</asrwt>
<pdfrwt beam="1">  1        2 0.12391700E-01 0.27286415E+03</pdfrwt>
<pdfrwt beam="2">  1       -2 0.35552925E-01 0.27286415E+03</pdfrwt>
<totfact> 0.36438618E+03</totfact>
</mgrwt>
</event>
<event>
 9    1  0.7986988E-001  0.2731873E+03  0.7818608E-02  0.1099469E+00
         -2   -1    0    0    0  501 -0.00000000000E+00  0.00000000000E+00  0.27968834289E+02  0.27968834289E+02  0.00000000000E+00 0. -1.
          2   -1    0    0  501    0  0.00000000000E+00 -0.00000000000E+00 -0.66709354653E+03  0.66709354653E+03  0.00000000000E+00 0. -1.
         35    2    1    2    0    0  0.71054273576E-14  0.00000000000E+00 -0.63912471225E+03  0.69506238082E+03  0.27318732663E+03 0.  0.
         25    2    3    3    0    0  0.43736592045E+02  0.42191819725E+01 -0.25602075788E+03  0.28806055752E+03  0.12450528243E+03 0.  0.
         25    2    3    3    0    0 -0.43736592045E+02 -0.42191819725E+01 -0.38310395436E+03  0.40700182330E+03  0.13019659497E+03 0.  0.
          5    1    4    4  502    0  0.80478683158E+02 -0.35493133134E+01 -0.22529863338E+03  0.23931356057E+03  0.47000000000E+01 0.  1.
         -5    1    4    4    0  502 -0.36742091114E+02  0.77684952860E+01 -0.30722124504E+02  0.48746996958E+02  0.47000000000E+01 0.  1.
          5    1    5    5  503    0 -0.41714424466E+02 -0.62077849639E+02 -0.26492703563E+03  0.27532195124E+03  0.47000000000E+01 0.  1.
         -5    1    5    5    0  503 -0.20221675788E+01  0.57858667667E+02 -0.11817691873E+03  0.13167987206E+03  0.47000000000E+01 0.  1.
<mgrwt>
<rscale>  0 0.27318733E+03</rscale>
<asrwt>0</asrwt>
<pdfrwt beam="1">  1        2 0.10262976E+00 0.27318733E+03</pdfrwt>
<pdfrwt beam="2">  1       -2 0.43028982E-02 0.27318733E+03</pdfrwt>
<totfact> 0.10893751E+04</totfact>
</mgrwt>
</event>
<event>
 9    1  0.7986988E-001  0.2728152E+03  0.7818608E-02  0.1099679E+00
         -2   -1    0    0    0  501 -0.00000000000E+00  0.00000000000E+00  0.13357690044E+02  0.13357690044E+02  0.00000000000E+00 0. -1.
          2   -1    0    0  501    0  0.00000000000E+00 -0.00000000000E+00 -0.13929828575E+04  0.13929828575E+04  0.00000000000E+00 0. -1.
         35    2    1    2    0    0 -0.71054273576E-14 -0.35527136788E-14 -0.13796251674E+04  0.14063405475E+04  0.27281519933E+03 0.  0.
         25    2    3    3    0    0 -0.42010637461E+02  0.18343571297E+02 -0.82876580024E+03  0.83932316417E+03  0.12453610723E+03 0.  0.
         25    2    3    3    0    0  0.42010637461E+02 -0.18343571297E+02 -0.55085936721E+03  0.56701738336E+03  0.12633800032E+03 0.  0.
          5    1    4    4  502    0 -0.37732768546E+02  0.66336411853E+02 -0.35797649696E+03  0.36605128566E+03  0.47000000000E+01 0. -1.
         -5    1    4    4    0  502 -0.42778689152E+01 -0.47992840556E+02 -0.47078930328E+03  0.47327187851E+03  0.47000000000E+01 0. -1.
          5    1    5    5  503    0 -0.22292304001E+02  0.92303228134E+01 -0.39892269243E+03  0.39967930921E+03  0.47000000000E+01 0.  1.
         -5    1    5    5    0  503  0.64302941463E+02 -0.27573894110E+02 -0.15193667478E+03  0.16733807415E+03  0.47000000000E+01 0.  1.
<mgrwt>
<rscale>  0 0.27281520E+03</rscale>
<asrwt>0</asrwt>
<pdfrwt beam="1">  1        2 0.21430507E+00 0.27281520E+03</pdfrwt>
<pdfrwt beam="2">  1       -2 0.20550291E-02 0.27281520E+03</pdfrwt>
<totfact> 0.11573404E+04</totfact>
</mgrwt>
</event>
<event>
 9    1  0.7986988E-001  0.2774928E+03  0.7818608E-02  0.1097066E+00
          2   -1    0    0  501    0  0.00000000000E+00  0.00000000000E+00  0.36531637112E+03  0.36531637112E+03  0.00000000000E+00 0. -1.
         -2   -1    0    0    0  501 -0.00000000000E+00 -0.00000000000E+00 -0.52695610333E+02  0.52695610333E+02  0.00000000000E+00 0. -1.
         35    2    1    2    0    0  0.00000000000E+00 -0.35527136788E-14  0.31262076079E+03  0.41801198146E+03  0.27749284056E+03 0.  0.
         25    2    3    3    0    0 -0.47864285620E+02 -0.85952733611E+01  0.20728496600E+03  0.24727656753E+03  0.12575283360E+03 0.  0.
         25    2    3    3    0    0  0.47864285620E+02  0.85952733611E+01  0.10533579479E+03  0.17073541393E+03  0.12526006284E+03 0.  0.
          5    1    4    4  502    0 -0.36794883119E+02  0.50054143580E+02  0.15762924751E+03  0.16949439632E+03  0.47000000000E+01 0. -1.
         -5    1    4    4    0  502 -0.11069402501E+02 -0.58649416941E+02  0.49655718485E+02  0.77782171206E+02  0.47000000000E+01 0. -1.
          5    1    5    5  503    0  0.18942385266E+02  0.14751282859E+02  0.12979091990E+03  0.13207644450E+03  0.47000000000E+01 0.  1.
         -5    1    5    5    0  503  0.28921900354E+02 -0.61560094976E+01 -0.24455125104E+02  0.38658969423E+02  0.47000000000E+01 0.  1.
<mgrwt>
<rscale>  0 0.27749284E+03</rscale>
<asrwt>0</asrwt>
<pdfrwt beam="1">  1        2 0.56202517E-01 0.27749284E+03</pdfrwt>
<pdfrwt beam="2">  1       -2 0.81070172E-02 0.27749284E+03</pdfrwt>
<totfact> 0.81129033E+03</totfact>
</mgrwt>
</event>
<event>
 9    1  0.7986988E-001  0.2814379E+03  0.7818608E-02  0.1094906E+00
          1   -1    0    0  501    0  0.00000000000E+00  0.00000000000E+00  0.53747662807E+03  0.53747662807E+03  0.00000000000E+00 0. -1.
         -1   -1    0    0    0  501 -0.00000000000E+00 -0.00000000000E+00 -0.36842202367E+02  0.36842202367E+02  0.00000000000E+00 0. -1.
         35    2    1    2    0    0  0.35527136788E-14 -0.71054273576E-14  0.50063442570E+03  0.57431883044E+03  0.28143789865E+03 0.  0.
         25    2    3    3    0    0 -0.13610249207E+02  0.50783504255E+02  0.17275570817E+03  0.21946750989E+03  0.12472870561E+03 0.  0.
         25    2    3    3    0    0  0.13610249207E+02 -0.50783504255E+02  0.32787871753E+03  0.35485132055E+03  0.12510316982E+03 0.  0.
          5    1    4    4  502    0 -0.66940009669E+02  0.26045729882E+02  0.66788307961E+02  0.98194261644E+02  0.47000000000E+01 0. -1.
         -5    1    4    4    0  502  0.53329760462E+02  0.24737774374E+02  0.10596740021E+03  0.12127324824E+03  0.47000000000E+01 0. -1.
          5    1    5    5  503    0 -0.18372505953E+02 -0.84349761999E+02  0.24447220303E+03  0.25930904222E+03  0.47000000000E+01 0.  1.
         -5    1    5    5    0  503  0.31982755161E+02  0.33566257744E+02  0.83406514502E+02  0.95542278328E+02  0.47000000000E+01 0.  1.
<mgrwt>
<rscale>  0 0.28143790E+03</rscale>
<asrwt>0</asrwt>
<pdfrwt beam="1">  1        1 0.82688707E-01 0.28143790E+03</pdfrwt>
<pdfrwt beam="2">  1       -1 0.56680315E-02 0.28143790E+03</pdfrwt>
<totfact> 0.59444442E+03</totfact>
</mgrwt>
</event>
<event>
 9    1  0.7986988E-001  0.2748738E+03  0.7818608E-02  0.1098522E+00
         -1   -1    0    0    0  501 -0.00000000000E+00  0.00000000000E+00  0.94587402659E+02  0.94587402659E+02  0.00000000000E+00 0.  1.
          1   -1    0    0  501    0  0.00000000000E+00 -0.00000000000E+00 -0.19969791261E+03  0.19969791261E+03  0.00000000000E+00 0.  1.
         35    2    1    2    0    0  0.00000000000E+00 -0.71054273576E-14 -0.10511050995E+03  0.29428531527E+03  0.27487383921E+03 0.  0.
         25    2    3    3    0    0  0.45108806246E+02  0.37334610531E+02 -0.29929761849E+02  0.13804786785E+03  0.12137852210E+03 0.  0.
         25    2    3    3    0    0 -0.45108806246E+02 -0.37334610531E+02 -0.75180748105E+02  0.15623744743E+03  0.12381162122E+03 0.  0.
          5    1    4    4  502    0  0.22218365212E+02  0.67297827513E+02  0.21403417472E+02  0.74181194519E+02  0.47000000000E+01 0. -1.
         -5    1    4    4    0  502  0.22890441033E+02 -0.29963216982E+02 -0.51333179321E+02  0.63866673327E+02  0.47000000000E+01 0. -1.
          5    1    5    5  503    0 -0.44742268902E+02 -0.21379136188E+02 -0.10828269264E+03  0.11918963720E+03  0.47000000000E+01 0.  1.
         -5    1    5    5    0  503 -0.36653734338E+00 -0.15955474344E+02  0.33101944530E+02  0.37047810230E+02  0.47000000000E+01 0.  1.
<mgrwt>
<rscale>  0 0.27487384E+03</rscale>
<asrwt>0</asrwt>
<pdfrwt beam="1">  1        1 0.30722756E-01 0.27487384E+03</pdfrwt>
<pdfrwt beam="2">  1       -1 0.14551908E-01 0.27487384E+03</pdfrwt>
<totfact> 0.49236020E+03</totfact>
</mgrwt>
</event>
<event>
 9    1  0.7986988E-001  0.2751572E+03  0.7818608E-02  0.1098364E+00
         -2   -1    0    0    0  501 -0.00000000000E+00  0.00000000000E+00  0.11088074493E+02  0.11088074493E+02  0.00000000000E+00 0. -1.
          2   -1    0    0  501    0  0.00000000000E+00 -0.00000000000E+00 -0.17070473468E+04  0.17070473468E+04  0.00000000000E+00 0. -1.
         35    2    1    2    0    0  0.00000000000E+00 -0.35527136788E-14 -0.16959592723E+04  0.17181354213E+04  0.27515717795E+03 0.  0.
         25    2    3    3    0    0  0.49795512518E+02 -0.19152954231E+02 -0.69090649616E+03  0.70393525102E+03  0.12380073700E+03 0.  0.
         25    2    3    3    0    0 -0.49795512518E+02  0.19152954231E+02 -0.10050527761E+04  0.10142001703E+04  0.12499789519E+03 0.  0.
          5    1    4    4  502    0  0.90327262541E+01  0.27478973318E+02 -0.53932785405E+03  0.54012341948E+03  0.47000000000E+01 0.  1.
         -5    1    4    4    0  502  0.40762786263E+02 -0.46631927549E+02 -0.15157864211E+03  0.16381183154E+03  0.47000000000E+01 0.  1.
          5    1    5    5  503    0 -0.85729382363E+02  0.16052351710E+02 -0.47951978731E+03  0.48741001367E+03  0.47000000000E+01 0.  1.
         -5    1    5    5    0  503  0.35933869845E+02  0.31006025207E+01 -0.52553298883E+03  0.52679015660E+03  0.47000000000E+01 0.  1.
<mgrwt>
<rscale>  0 0.27515718E+03</rscale>
<asrwt>0</asrwt>
<pdfrwt beam="1">  1        2 0.26262247E+00 0.27515718E+03</pdfrwt>
<pdfrwt beam="2">  1       -2 0.17058589E-02 0.27515718E+03</pdfrwt>
<totfact> 0.10348686E+04</totfact>
</mgrwt>
</event>
<event>
 9    1  0.7986988E-001  0.2754954E+03  0.7818608E-02  0.1098175E+00
         -2   -1    0    0    0  501 -0.00000000000E+00  0.00000000000E+00  0.27009007176E+02  0.27009007176E+02  0.00000000000E+00 0. -1.
          2   -1    0    0  501    0  0.00000000000E+00 -0.00000000000E+00 -0.70252232015E+03  0.70252232015E+03  0.00000000000E+00 0. -1.
         35    2    1    2    0    0  0.71054273576E-14 -0.71054273576E-14 -0.67551331297E+03  0.72953132733E+03  0.27549541111E+03 0.  0.
         25    2    3    3    0    0 -0.19301703273E+02 -0.56402706616E+02 -0.39821121210E+03  0.42176384535E+03  0.12553386292E+03 0.  0.
         25    2    3    3    0    0  0.19301703273E+02  0.56402706616E+02 -0.27730210088E+03  0.30776748198E+03  0.11945939373E+03 0.  0.
          5    1    4    4  502    0  0.50163855702E+02 -0.36673935375E+02 -0.23698982398E+03  0.24504623365E+03  0.47000000000E+01 0. -1.
         -5    1    4    4    0  502 -0.69465558975E+02 -0.19728771240E+02 -0.16122138812E+03  0.17671761170E+03  0.47000000000E+01 0. -1.
          5    1    5    5  503    0  0.19644578753E+02 -0.24015653134E+02 -0.17380403912E+03  0.17661425504E+03  0.47000000000E+01 0.  1.
         -5    1    5    5    0  503 -0.34287547971E+00  0.80418359749E+02 -0.10349806176E+03  0.13115322694E+03  0.47000000000E+01 0.  1.
<mgrwt>
<rscale>  0 0.27549541E+03</rscale>
<asrwt>0</asrwt>
<pdfrwt beam="1">  1        2 0.10808036E+00 0.27549541E+03</pdfrwt>
<pdfrwt beam="2">  1       -2 0.41552316E-02 0.27549541E+03</pdfrwt>
<totfact> 0.10791895E+04</totfact>
</mgrwt>
</event>
<event>
 9    1  0.7986988E-001  0.2768505E+03  0.7818608E-02  0.1097422E+00
         -2   -1    0    0    0  501 -0.00000000000E+00  0.00000000000E+00  0.66299617233E+01  0.66299617233E+01  0.00000000000E+00 0.  1.
          2   -1    0    0  501    0  0.00000000000E+00 -0.00000000000E+00 -0.28901458209E+04  0.28901458209E+04  0.00000000000E+00 0.  1.
         35    2    1    2    0    0  0.71054273576E-14  0.00000000000E+00 -0.28835158592E+04  0.28967757827E+04  0.27685054573E+03 0.  0.
         25    2    3    3    0    0 -0.22406165884E+02 -0.21320987022E+02 -0.92250947573E+03  0.93151650085E+03  0.12546966884E+03 0.  0.
         25    2    3    3    0    0  0.22406165884E+02  0.21320987022E+02 -0.19610063835E+04  0.19652592818E+04  0.12546468785E+03 0.  0.
          5    1    4    4  502    0  0.12786668824E+02 -0.17749607872E+02 -0.85380032720E+03  0.85409345871E+03  0.47000000000E+01 0.  1.
         -5    1    4    4    0  502 -0.35192834708E+02 -0.35713791508E+01 -0.68709148525E+02  0.77423042144E+02  0.47000000000E+01 0.  1.
          5    1    5    5  503    0 -0.10973944433E+02  0.49561496682E+02 -0.35405600833E+03  0.35770730555E+03  0.47000000000E+01 0. -1.
         -5    1    5    5    0  503  0.33380110317E+02 -0.28240509659E+02 -0.16069503752E+04  0.16075519763E+04  0.47000000000E+01 0. -1.
<mgrwt>
<rscale>  0 0.27685055E+03</rscale>
<asrwt>0</asrwt>
<pdfrwt beam="1">  1        2 0.44463850E+00 0.27685055E+03</pdfrwt>
<pdfrwt beam="2">  1       -2 0.10199926E-02 0.27685055E+03</pdfrwt>
<totfact> 0.50067285E+03</totfact>
</mgrwt>
</event>
<event>
 9    1  0.7986988E-001  0.2837346E+03  0.7818608E-02  0.1093667E+00
          1   -1    0    0  501    0  0.00000000000E+00  0.00000000000E+00  0.15856515330E+03  0.15856515330E+03  0.00000000000E+00 0. -1.
         -1   -1    0    0    0  501 -0.00000000000E+00 -0.00000000000E+00 -0.12692779133E+03  0.12692779133E+03  0.00000000000E+00 0. -1.
         35    2    1    2    0    0  0.00000000000E+00  0.35527136788E-14  0.31637361969E+02  0.28549294463E+03  0.28373455687E+03 0.  0.
         25    2    3    3    0    0  0.15342664336E+02  0.32842190542E+01 -0.49042760641E+02  0.13481618505E+03  0.12459545713E+03 0.  0.
         25    2    3    3    0    0 -0.15342664336E+02 -0.32842190542E+01  0.80680122610E+02  0.15067675958E+03  0.12628547125E+03 0.  0.
          5    1    4    4  502    0  0.37349273182E+02 -0.50518464541E+02 -0.42799102627E+02  0.76163880235E+02  0.47000000000E+01 0. -1.
         -5    1    4    4    0  502 -0.22006608846E+02  0.53802683596E+02 -0.62436580142E+01  0.58652304818E+02  0.47000000000E+01 0. -1.
          5    1    5    5  503    0 -0.64229945857E+02  0.21950042112E+02  0.62924077062E+02  0.92675885578E+02  0.47000000000E+01 0. -1.
         -5    1    5    5    0  503  0.48887281522E+02 -0.25234261166E+02  0.17756045548E+02  0.58000873999E+02  0.47000000000E+01 0. -1.
<mgrwt>
<rscale>  0 0.28373456E+03</rscale>
<asrwt>0</asrwt>
<pdfrwt beam="1">  1        1 0.24394639E-01 0.28373456E+03</pdfrwt>
<pdfrwt beam="2">  1       -1 0.19527353E-01 0.28373456E+03</pdfrwt>
<totfact> 0.41211548E+03</totfact>
</mgrwt>
</event>
<event>
 9    1  0.7986988E-001  0.2752315E+03  0.7818608E-02  0.1098322E+00
         -2   -1    0    0    0  501 -0.00000000000E+00  0.00000000000E+00  0.44433876506E+02  0.44433876506E+02  0.00000000000E+00 0. -1.
          2   -1    0    0  501    0  0.00000000000E+00 -0.00000000000E+00 -0.42620846851E+03  0.42620846851E+03  0.00000000000E+00 0. -1.
         35    2    1    2    0    0  0.00000000000E+00 -0.71054273576E-14 -0.38177459201E+03  0.47064234502E+03  0.27523149860E+03 0.  0.
         25    2    3    3    0    0  0.28074532421E+02 -0.29292719667E+02 -0.24279067955E+03  0.27938797427E+03  0.13215174344E+03 0.  0.
         25    2    3    3    0    0 -0.28074532421E+02  0.29292719667E+02 -0.13898391246E+03  0.19125437075E+03  0.12496184863E+03 0.  0.
          5    1    4    4  502    0 -0.39144278901E+01 -0.65794705194E+02 -0.56876725401E+02  0.87185537044E+02  0.47000000000E+01 0.  1.
         -5    1    4    4    0  502  0.31988960311E+02  0.36501985527E+02 -0.18591395415E+03  0.19220243723E+03  0.47000000000E+01 0.  1.
          5    1    5    5  503    0  0.14972930035E+01  0.71521078987E+02 -0.47061462825E+02  0.85757669680E+02  0.47000000000E+01 0. -1.
         -5    1    5    5    0  503 -0.29571825425E+02 -0.42228359320E+02 -0.91922449634E+02  0.10549670107E+03  0.47000000000E+01 0. -1.
<mgrwt>
<rscale>  0 0.27523150E+03</rscale>
<asrwt>0</asrwt>
<pdfrwt beam="1">  1        2 0.65570531E-01 0.27523150E+03</pdfrwt>
<pdfrwt beam="2">  1       -2 0.68359813E-02 0.27523150E+03</pdfrwt>
<totfact> 0.89424937E+03</totfact>
</mgrwt>
</event>
<event>
 9    1  0.7986988E-001  0.2754104E+03  0.7818608E-02  0.1098222E+00
          2   -1    0    0  501    0  0.00000000000E+00  0.00000000000E+00  0.44853057024E+03  0.44853057024E+03  0.00000000000E+00 0.  1.
         -2   -1    0    0    0  501 -0.00000000000E+00 -0.00000000000E+00 -0.42277422967E+02  0.42277422967E+02  0.00000000000E+00 0.  1.
         35    2    1    2    0    0  0.00000000000E+00  0.71054273576E-14  0.40625314727E+03  0.49080799320E+03  0.27541036024E+03 0.  0.
         25    2    3    3    0    0 -0.71880824673E+01 -0.14291688206E+02  0.30606928715E+03  0.33095902007E+03  0.12489813267E+03 0.  0.
         25    2    3    3    0    0  0.71880824673E+01  0.14291688206E+02  0.10018386012E+03  0.15984897314E+03  0.12352719338E+03 0.  0.
          5    1    4    4  502    0  0.56595955674E+02 -0.31959022295E+01  0.10166726914E+03  0.11649738025E+03  0.47000000000E+01 0. -1.
         -5    1    4    4    0  502 -0.63784038141E+02 -0.11095785977E+02  0.20440201801E+03  0.21446163982E+03  0.47000000000E+01 0. -1.
          5    1    5    5  503    0 -0.17802702204E+02  0.64827729524E+02  0.46656658134E+02  0.81966483817E+02  0.47000000000E+01 0. -1.
         -5    1    5    5    0  503  0.24990784671E+02 -0.50536041318E+02  0.53527201985E+02  0.77882489322E+02  0.47000000000E+01 0. -1.
<mgrwt>
<rscale>  0 0.27541036E+03</rscale>
<asrwt>0</asrwt>
<pdfrwt beam="1">  1        2 0.69004700E-01 0.27541036E+03</pdfrwt>
<pdfrwt beam="2">  1       -2 0.65042192E-02 0.27541036E+03</pdfrwt>
<totfact> 0.91306896E+03</totfact>
</mgrwt>
</event>
<event>
 9    1  0.7986988E-001  0.2725679E+03  0.7818608E-02  0.1099819E+00
         -2   -1    0    0    0  501 -0.00000000000E+00  0.00000000000E+00  0.18558191855E+02  0.18558191855E+02  0.00000000000E+00 0.  1.
          2   -1    0    0  501    0  0.00000000000E+00 -0.00000000000E+00 -0.10008146173E+04  0.10008146173E+04  0.00000000000E+00 0.  1.
         35    2    1    2    0    0  0.00000000000E+00 -0.71054273576E-14 -0.98225642540E+03  0.10193728091E+04  0.27256786075E+03 0.  0.
         25    2    3    3    0    0 -0.84241651401E+00  0.52560032710E+02 -0.54069769730E+03  0.55763468989E+03  0.12585380724E+03 0.  0.
         25    2    3    3    0    0  0.84241651401E+00 -0.52560032710E+02 -0.44155872810E+03  0.46173811922E+03  0.12435720195E+03 0.  0.
          5    1    4    4  502    0  0.50234091367E+02  0.62193582177E+02 -0.25742554327E+03  0.26959507772E+03  0.47000000000E+01 0.  1.
         -5    1    4    4    0  502 -0.51076507881E+02 -0.96335494679E+01 -0.28327215403E+03  0.28803961218E+03  0.47000000000E+01 0.  1.
          5    1    5    5  503    0 -0.58721758148E+02 -0.37417249886E+02 -0.28650222795E+03  0.29487948740E+03  0.47000000000E+01 0. -1.
         -5    1    5    5    0  503  0.59564174662E+02 -0.15142782823E+02 -0.15505650015E+03  0.16685863183E+03  0.47000000000E+01 0. -1.
<mgrwt>
<rscale>  0 0.27256786E+03</rscale>
<asrwt>0</asrwt>
<pdfrwt beam="1">  1        2 0.15397155E+00 0.27256786E+03</pdfrwt>
<pdfrwt beam="2">  1       -2 0.28551050E-02 0.27256786E+03</pdfrwt>
<totfact> 0.11926144E+04</totfact>
</mgrwt>
</event>
<event>
 9    1  0.7986988E-001  0.2752594E+03  0.7818608E-02  0.1098307E+00
          2   -1    0    0  501    0  0.00000000000E+00  0.00000000000E+00  0.10996309941E+04  0.10996309941E+04  0.00000000000E+00 0. -1.
         -2   -1    0    0    0  501 -0.00000000000E+00 -0.00000000000E+00 -0.17225719101E+02  0.17225719101E+02  0.00000000000E+00 0. -1.
         35    2    1    2    0    0  0.35527136788E-14  0.71054273576E-14  0.10824052750E+04  0.11168567132E+04  0.27525940216E+03 0.  0.
         25    2    3    3    0    0  0.14174442003E+02 -0.45646128880E+02  0.67473711106E+03  0.68791651953E+03  0.12519778317E+03 0.  0.
         25    2    3    3    0    0 -0.14174442003E+02  0.45646128880E+02  0.40766816395E+03  0.42894019369E+03  0.12454667386E+03 0.  0.
          5    1    4    4  502    0 -0.50416796716E+02 -0.34932698654E+01  0.37321380742E+03  0.37664929626E+03  0.47000000000E+01 0. -1.
         -5    1    4    4    0  502  0.64591238719E+02 -0.42152859015E+02  0.30152330364E+03  0.31126722327E+03  0.47000000000E+01 0. -1.
          5    1    5    5  503    0  0.20165680376E+02  0.36178462038E+02  0.38322170554E+03  0.38548216739E+03  0.47000000000E+01 0.  1.
         -5    1    5    5    0  503 -0.34340122379E+02  0.94676668423E+01  0.24446458416E+02  0.43458026296E+02  0.47000000000E+01 0.  1.
<mgrwt>
<rscale>  0 0.27525940E+03</rscale>
<asrwt>0</asrwt>
<pdfrwt beam="1">  1        2 0.16917394E+00 0.27525940E+03</pdfrwt>
<pdfrwt beam="2">  1       -2 0.26501115E-02 0.27525940E+03</pdfrwt>
<totfact> 0.11626105E+04</totfact>
</mgrwt>
</event>
<event>
 9    1  0.7986988E-001  0.2898325E+03  0.7818608E-02  0.1090437E+00
         -1   -1    0    0    0  501 -0.00000000000E+00  0.00000000000E+00  0.77128478862E+01  0.77128478862E+01  0.00000000000E+00 0. -1.
          1   -1    0    0  501    0  0.00000000000E+00 -0.00000000000E+00 -0.27228234422E+04  0.27228234422E+04  0.00000000000E+00 0. -1.
         35    2    1    2    0    0  0.00000000000E+00  0.00000000000E+00 -0.27151105943E+04  0.27305362901E+04  0.28983252427E+03 0.  0.
         25    2    3    3    0    0  0.46827855996E+02 -0.48834395094E+02 -0.11038635593E+04  0.11129274931E+04  0.12456002969E+03 0.  0.
         25    2    3    3    0    0 -0.46827855996E+02  0.48834395094E+02 -0.16112470350E+04  0.16176087970E+04  0.12634700695E+03 0.  0.
          5    1    4    4  502    0  0.32905914616E+02 -0.53283061284E+02 -0.21633296825E+03  0.22526412717E+03  0.47000000000E+01 0. -1.
         -5    1    4    4    0  502  0.13921941380E+02  0.44486661899E+01 -0.88753059109E+03  0.88766336592E+03  0.47000000000E+01 0. -1.
          5    1    5    5  503    0 -0.86174712908E+02  0.84921906900E+01 -0.95350328010E+03  0.95743866311E+03  0.47000000000E+01 0. -1.
         -5    1    5    5    0  503  0.39346856913E+02  0.40342204404E+02 -0.65774375487E+03  0.66017013388E+03  0.47000000000E+01 0. -1.
<mgrwt>
<rscale>  0 0.28983252E+03</rscale>
<asrwt>0</asrwt>
<pdfrwt beam="1">  1        1 0.41889627E+00 0.28983252E+03</pdfrwt>
<pdfrwt beam="2">  1       -1 0.11865910E-02 0.28983252E+03</pdfrwt>
<totfact> 0.16469197E+03</totfact>
</mgrwt>
</event>
<event>
 9    1  0.7986988E-001  0.2767138E+03  0.7818608E-02  0.1097497E+00
          2   -1    0    0  501    0  0.00000000000E+00  0.00000000000E+00  0.17495416334E+03  0.17495416334E+03  0.00000000000E+00 0. -1.
         -2   -1    0    0    0  501 -0.00000000000E+00 -0.00000000000E+00 -0.10941508837E+03  0.10941508837E+03  0.00000000000E+00 0. -1.
         35    2    1    2    0    0  0.35527136788E-14  0.00000000000E+00  0.65539074976E+02  0.28436925171E+03  0.27671375277E+03 0.  0.
         25    2    3    3    0    0 -0.14666788396E+02  0.28368943166E+02  0.70531996301E+02  0.15303105379E+03  0.13199935342E+03 0.  0.
         25    2    3    3    0    0  0.14666788396E+02 -0.28368943166E+02 -0.49929213248E+01  0.13133819792E+03  0.12729839493E+03 0.  0.
          5    1    4    4  502    0 -0.35416228635E+02 -0.11413760986E+02 -0.26568058959E+02  0.45962320954E+02  0.47000000000E+01 0.  1.
         -5    1    4    4    0  502  0.20749440239E+02  0.39782704152E+02  0.97100055260E+02  0.10706873284E+03  0.47000000000E+01 0.  1.
          5    1    5    5  503    0 -0.25054734460E+02 -0.29653882214E+02 -0.54877572840E+02  0.67384942309E+02  0.47000000000E+01 0.  1.
         -5    1    5    5    0  503  0.39721522857E+02  0.12849390473E+01  0.49884651515E+02  0.63953255611E+02  0.47000000000E+01 0.  1.
<mgrwt>
<rscale>  0 0.27671375E+03</rscale>
<asrwt>0</asrwt>
<pdfrwt beam="1">  1        2 0.26916025E-01 0.27671375E+03</pdfrwt>
<pdfrwt beam="2">  1       -2 0.16833091E-01 0.27671375E+03</pdfrwt>
<totfact> 0.55456880E+03</totfact>
</mgrwt>
</event>
<event>
 9    1  0.7986988E-001  0.2726233E+03  0.7818608E-02  0.1099788E+00
         -2   -1    0    0    0  501 -0.00000000000E+00  0.00000000000E+00  0.41612137874E+02  0.41612137874E+02  0.00000000000E+00 0.  1.
          2   -1    0    0  501    0  0.00000000000E+00 -0.00000000000E+00 -0.44652511211E+03  0.44652511211E+03  0.00000000000E+00 0.  1.
         35    2    1    2    0    0 -0.71054273576E-14  0.00000000000E+00 -0.40491297423E+03  0.48813724998E+03  0.27262328976E+03 0.  0.
         25    2    3    3    0    0  0.69665844623E+01  0.37881401712E+02 -0.12822054686E+03  0.18248760569E+03  0.12400678893E+03 0.  0.
         25    2    3    3    0    0 -0.69665844623E+01 -0.37881401712E+02 -0.27669242738E+03  0.30564964429E+03  0.12401399837E+03 0.  0.
          5    1    4    4  502    0  0.24661086437E+02  0.67105639906E+02 -0.12947761701E+03  0.14797932084E+03  0.47000000000E+01 0. -1.
         -5    1    4    4    0  502 -0.17694501975E+02 -0.29224238194E+02  0.12570701464E+01  0.34508284853E+02  0.47000000000E+01 0. -1.
          5    1    5    5  503    0 -0.64826571010E+02 -0.26053232418E+02 -0.16428544709E+03  0.17858626306E+03  0.47000000000E+01 0.  1.
         -5    1    5    5    0  503  0.57859986547E+02 -0.11828169294E+02 -0.11240698029E+03  0.12706338123E+03  0.47000000000E+01 0.  1.
<mgrwt>
<rscale>  0 0.27262329E+03</rscale>
<asrwt>0</asrwt>
<pdfrwt beam="1">  1        2 0.68696168E-01 0.27262329E+03</pdfrwt>
<pdfrwt beam="2">  1       -2 0.64018676E-02 0.27262329E+03</pdfrwt>
<totfact> 0.93991091E+03</totfact>
</mgrwt>
</event>
<event>
 9    1  0.7986988E-001  0.2824215E+03  0.7818608E-02  0.1094374E+00
         -1   -1    0    0    0  501 -0.00000000000E+00  0.00000000000E+00  0.93901468486E+03  0.93901468486E+03  0.00000000000E+00 0.  1.
          1   -1    0    0  501    0  0.00000000000E+00 -0.00000000000E+00 -0.21235532881E+02  0.21235532881E+02  0.00000000000E+00 0.  1.
         35    2    1    2    0    0  0.00000000000E+00 -0.71054273576E-14  0.91777915198E+03  0.96025021774E+03  0.28242150921E+03 0.  0.
         25    2    3    3    0    0 -0.43600627978E+02  0.26427938419E+02  0.60136434995E+03  0.61634484123E+03  0.12506970549E+03 0.  0.
         25    2    3    3    0    0  0.43600627978E+02 -0.26427938419E+02  0.31641480203E+03  0.34390537651E+03  0.12471219011E+03 0.  0.
          5    1    4    4  502    0 -0.18555635067E+02 -0.43233507539E+01  0.55418197782E+03  0.55452931166E+03  0.47000000000E+01 0.  1.
         -5    1    4    4    0  502 -0.25044992910E+02  0.30751289173E+02  0.47182372132E+02  0.61815529568E+02  0.47000000000E+01 0.  1.
          5    1    5    5  503    0 -0.25592949072E+02 -0.49690109298E+02  0.18718721792E+03  0.19541046686E+03  0.47000000000E+01 0. -1.
         -5    1    5    5    0  503  0.69193577050E+02  0.23262170879E+02  0.12922758411E+03  0.14849490965E+03  0.47000000000E+01 0. -1.
<mgrwt>
<rscale>  0 0.28242151E+03</rscale>
<asrwt>0</asrwt>
<pdfrwt beam="1">  1        1 0.32670058E-02 0.28242151E+03</pdfrwt>
<pdfrwt beam="2">  1       -1 0.14446377E+00 0.28242151E+03</pdfrwt>
<totfact> 0.12608139E+03</totfact>
</mgrwt>
</event>
<event>
 9    1  0.7986988E-001  0.2891724E+03  0.7818608E-02  0.1090782E+00
          2   -1    0    0  501    0  0.00000000000E+00  0.00000000000E+00  0.18309703673E+03  0.18309703673E+03  0.00000000000E+00 0.  1.
         -2   -1    0    0    0  501 -0.00000000000E+00 -0.00000000000E+00 -0.11417539085E+03  0.11417539085E+03  0.00000000000E+00 0.  1.
         35    2    1    2    0    0  0.71054273576E-14  0.00000000000E+00  0.68921645881E+02  0.29727242758E+03  0.28917244497E+03 0.  0.
         25    2    3    3    0    0  0.63261527887E+02 -0.36128420990E+02  0.45862121951E+02  0.15144740908E+03  0.12460216601E+03 0.  0.
         25    2    3    3    0    0 -0.63261527887E+02  0.36128420990E+02  0.23059523931E+02  0.14582501849E+03  0.12420108961E+03 0.  0.
          5    1    4    4  502    0  0.34903404499E+02  0.44846415138E+02  0.28649441850E+02  0.63814803256E+02  0.47000000000E+01 0. -1.
         -5    1    4    4    0  502  0.28358123388E+02 -0.80974836127E+02  0.17212680100E+02  0.87632605828E+02  0.47000000000E+01 0. -1.
          5    1    5    5  503    0 -0.89260608567E+02 -0.37910580421E+00  0.39674993798E+02  0.97794657808E+02  0.47000000000E+01 0.  1.
         -5    1    5    5    0  503  0.25999080679E+02  0.36507526794E+02 -0.16615469867E+02  0.48030360686E+02  0.47000000000E+01 0.  1.
<mgrwt>
<rscale>  0 0.28917244E+03</rscale>
<asrwt>0</asrwt>
<pdfrwt beam="1">  1        2 0.28168775E-01 0.28917244E+03</pdfrwt>
<pdfrwt beam="2">  1       -2 0.17565445E-01 0.28917244E+03</pdfrwt>
<totfact> 0.49164359E+03</totfact>
</mgrwt>
</event>
<event>
 9    1  0.7986988E-001  0.2685759E+03  0.7818608E-02  0.1102097E+00
          1   -1    0    0  501    0  0.00000000000E+00  0.00000000000E+00  0.44112517803E+03  0.44112517803E+03  0.00000000000E+00 0.  1.
         -1   -1    0    0    0  501 -0.00000000000E+00 -0.00000000000E+00 -0.40880131918E+02  0.40880131918E+02  0.00000000000E+00 0.  1.
         35    2    1    2    0    0 -0.35527136788E-14 -0.71054273576E-14  0.40024504611E+03  0.48200530994E+03  0.26857591456E+03 0.  0.
         25    2    3    3    0    0 -0.26254970931E+02  0.18971070562E+02  0.13511527944E+03  0.18692158402E+03  0.12503725372E+03 0.  0.
         25    2    3    3    0    0  0.26254970931E+02 -0.18971070562E+02  0.26512976667E+03  0.29508372592E+03  0.12542482655E+03 0.  0.
          5    1    4    4  502    0 -0.26852879860E+02  0.14933272700E+02 -0.16491399067E+02  0.35187157224E+02  0.47000000000E+01 0.  1.
         -5    1    4    4    0  502  0.59790892949E+00  0.40377978620E+01  0.15160667851E+03  0.15173442680E+03  0.47000000000E+01 0.  1.
          5    1    5    5  503    0 -0.52492666401E+01  0.51280882444E+02  0.92347117247E+02  0.10586483726E+03  0.47000000000E+01 0. -1.
         -5    1    5    5    0  503  0.31504237571E+02 -0.70251953007E+02  0.17278264942E+03  0.18921888866E+03  0.47000000000E+01 0. -1.
<mgrwt>
<rscale>  0 0.26857591E+03</rscale>
<asrwt>0</asrwt>
<pdfrwt beam="1">  1        1 0.67865409E-01 0.26857591E+03</pdfrwt>
<pdfrwt beam="2">  1       -1 0.62892514E-02 0.26857591E+03</pdfrwt>
<totfact> 0.65896182E+03</totfact>
</mgrwt>
</event>
<event>
 9    1  0.7986988E-001  0.2762479E+03  0.7818608E-02  0.1097756E+00
         -1   -1    0    0    0  501 -0.00000000000E+00  0.00000000000E+00  0.20793639157E+02  0.20793639157E+02  0.00000000000E+00 0.  1.
          1   -1    0    0  501    0  0.00000000000E+00 -0.00000000000E+00 -0.91750280775E+03  0.91750280775E+03  0.00000000000E+00 0.  1.
         35    2    1    2    0    0  0.00000000000E+00 -0.71054273576E-14 -0.89670916860E+03  0.93829644691E+03  0.27624787644E+03 0.  0.
         25    2    3    3    0    0  0.49355445054E+02 -0.23679792336E+02 -0.38656099104E+03  0.41022462396E+03  0.12592914590E+03 0.  0.
         25    2    3    3    0    0 -0.49355445054E+02  0.23679792336E+02 -0.51014817756E+03  0.52807182295E+03  0.12494796761E+03 0.  0.
          5    1    4    4  502    0 -0.55838026139E+01 -0.64868408728E+02 -0.14432749208E+03  0.15840329628E+03  0.47000000000E+01 0. -1.
         -5    1    4    4    0  502  0.54939247668E+02  0.41188616392E+02 -0.24223349896E+03  0.25182132768E+03  0.47000000000E+01 0. -1.
          5    1    5    5  503    0 -0.42209155282E+02  0.73964177260E+02 -0.30854649565E+03  0.32011770067E+03  0.47000000000E+01 0.  1.
         -5    1    5    5    0  503 -0.71462897714E+01 -0.50284384925E+02 -0.20160168191E+03  0.20795412228E+03  0.47000000000E+01 0.  1.
<mgrwt>
<rscale>  0 0.27624788E+03</rscale>
<asrwt>0</asrwt>
<pdfrwt beam="1">  1        1 0.14115425E+00 0.27624788E+03</pdfrwt>
<pdfrwt beam="2">  1       -1 0.31990220E-02 0.27624788E+03</pdfrwt>
<totfact> 0.63388133E+03</totfact>
</mgrwt>
</event>
<event>
 9    1  0.7986988E-001  0.2723631E+03  0.7818608E-02  0.1099935E+00
          2   -1    0    0  501    0  0.00000000000E+00  0.00000000000E+00  0.95069927764E+03  0.95069927764E+03  0.00000000000E+00 0. -1.
         -2   -1    0    0    0  501 -0.00000000000E+00 -0.00000000000E+00 -0.19507132435E+02  0.19507132435E+02  0.00000000000E+00 0. -1.
         35    2    1    2    0    0  0.00000000000E+00  0.35527136788E-14  0.93119214520E+03  0.97020641007E+03  0.27236311582E+03 0.  0.
         25    2    3    3    0    0 -0.11876684008E+02 -0.28760926386E+02  0.31253061342E+03  0.33815914619E+03  0.12533146979E+03 0.  0.
         25    2    3    3    0    0  0.11876684008E+02  0.28760926386E+02  0.61866153179E+03  0.63204726388E+03  0.12559222254E+03 0.  0.
          5    1    4    4  502    0  0.18272679688E+02 -0.72865984095E+02  0.17232869605E+03  0.18804949333E+03  0.47000000000E+01 0.  1.
         -5    1    4    4    0  502 -0.30149363695E+02  0.44105057709E+02  0.14020191737E+03  0.15010965286E+03  0.47000000000E+01 0.  1.
          5    1    5    5  503    0 -0.90423823481E+01  0.53644966370E+01 -0.10126167603E+01  0.11561050791E+02  0.47000000000E+01 0.  1.
         -5    1    5    5    0  503  0.20919066356E+02  0.23396429749E+02  0.61967414855E+03  0.62048621309E+03  0.47000000000E+01 0.  1.
<mgrwt>
<rscale>  0 0.27236312E+03</rscale>
<asrwt>0</asrwt>
<pdfrwt beam="1">  1        2 0.14626139E+00 0.27236312E+03</pdfrwt>
<pdfrwt beam="2">  1       -2 0.30010980E-02 0.27236312E+03</pdfrwt>
<totfact> 0.11894496E+04</totfact>
</mgrwt>
</event>
<event>
 9    1  0.7986988E-001  0.2793273E+03  0.7818608E-02  0.1096057E+00
         -1   -1    0    0    0  501 -0.00000000000E+00  0.00000000000E+00  0.27643871227E+02  0.27643871227E+02  0.00000000000E+00 0.  1.
          1   -1    0    0  501    0  0.00000000000E+00 -0.00000000000E+00 -0.70561499865E+03  0.70561499865E+03  0.00000000000E+00 0.  1.
         35    2    1    2    0    0  0.00000000000E+00  0.71054273576E-14 -0.67797112742E+03  0.73325886988E+03  0.27932726439E+03 0.  0.
         25    2    3    3    0    0  0.44149307578E+02  0.27133175873E+02 -0.24412343809E+03  0.27929931585E+03  0.12540527988E+03 0.  0.
         25    2    3    3    0    0 -0.44149307578E+02 -0.27133175873E+02 -0.43384768933E+03  0.45395955402E+03  0.12316691339E+03 0.  0.
          5    1    4    4  502    0  0.38299466759E+02 -0.40630241705E+02 -0.56072425924E+02  0.79270881438E+02  0.47000000000E+01 0.  1.
         -5    1    4    4    0  502  0.58498408193E+01  0.67763417578E+02 -0.18805101216E+03  0.20002843442E+03  0.47000000000E+01 0.  1.
          5    1    5    5  503    0 -0.17830912135E+02  0.23398165802E+02 -0.19317528768E+02  0.35505950321E+02  0.47000000000E+01 0. -1.
         -5    1    5    5    0  503 -0.26318395443E+02 -0.50531341676E+02 -0.41453016057E+03  0.41845360370E+03  0.47000000000E+01 0. -1.
<mgrwt>
<rscale>  0 0.27932726E+03</rscale>
<asrwt>0</asrwt>
<pdfrwt beam="1">  1        1 0.10855616E+00 0.27932726E+03</pdfrwt>
<pdfrwt beam="2">  1       -1 0.42529031E-02 0.27932726E+03</pdfrwt>
<totfact> 0.62383286E+03</totfact>
</mgrwt>
</event>
<event>
 9    1  0.7986988E-001  0.2757431E+03  0.7818608E-02  0.1098037E+00
         -2   -1    0    0    0  501 -0.00000000000E+00  0.00000000000E+00  0.41511088765E+02  0.41511088765E+02  0.00000000000E+00 0.  1.
          2   -1    0    0  501    0  0.00000000000E+00 -0.00000000000E+00 -0.45791518990E+03  0.45791518990E+03  0.00000000000E+00 0.  1.
         35    2    1    2    0    0 -0.35527136788E-14  0.35527136788E-14 -0.41640410113E+03  0.49942627866E+03  0.27574305500E+03 0.  0.
         25    2    3    3    0    0 -0.11311524466E+02 -0.19963028239E+02 -0.30538472761E+03  0.33074461203E+03  0.12492274990E+03 0.  0.
         25    2    3    3    0    0  0.11311524466E+02  0.19963028239E+02 -0.11101937352E+03  0.16868166663E+03  0.12490688644E+03 0.  0.
          5    1    4    4  502    0  0.47242542971E+02 -0.45271477747E+01 -0.53633424027E+02  0.71770377637E+02  0.47000000000E+01 0. -1.
         -5    1    4    4    0  502 -0.58554067437E+02 -0.15435880464E+02 -0.25175130359E+03  0.25897423439E+03  0.47000000000E+01 0. -1.
          5    1    5    5  503    0  0.76638544034E+01  0.46376976406E+02 -0.12819203260E+03  0.13661934646E+03  0.47000000000E+01 0. -1.
         -5    1    5    5    0  503  0.36476700623E+01 -0.26413948167E+02  0.17172659088E+02  0.32062320172E+02  0.47000000000E+01 0. -1.
<mgrwt>
<rscale>  0 0.27574305E+03</rscale>
<asrwt>0</asrwt>
<pdfrwt beam="1">  1        2 0.70448488E-01 0.27574305E+03</pdfrwt>
<pdfrwt beam="2">  1       -2 0.63863216E-02 0.27574305E+03</pdfrwt>
<totfact> 0.91802131E+03</totfact>
</mgrwt>
</event>
<event>
 9    1  0.7986988E-001  0.2793819E+03  0.7818608E-02  0.1096027E+00
          2   -1    0    0  501    0  0.00000000000E+00  0.00000000000E+00  0.71457169307E+03  0.71457169307E+03  0.00000000000E+00 0. -1.
         -2   -1    0    0    0  501 -0.00000000000E+00 -0.00000000000E+00 -0.27308059869E+02  0.27308059869E+02  0.00000000000E+00 0. -1.
         35    2    1    2    0    0 -0.71054273576E-14  0.71054273576E-14  0.68726363320E+03  0.74187975294E+03  0.27938193624E+03 0.  0.
         25    2    3    3    0    0 -0.57861096417E+02  0.75824921467E+01  0.35290418061E+03  0.38010775161E+03  0.12858904104E+03 0.  0.
         25    2    3    3    0    0  0.57861096417E+02 -0.75824921467E+01  0.33435945259E+03  0.36177200133E+03  0.12520917196E+03 0.  0.
          5    1    4    4  502    0 -0.44585241860E+01  0.61506137538E+02  0.11833159667E+03  0.13351906292E+03  0.47000000000E+01 0. -1.
         -5    1    4    4    0  502 -0.53402572231E+02 -0.53923645392E+02  0.23457258394E+03  0.24658868869E+03  0.47000000000E+01 0. -1.
          5    1    5    5  503    0  0.50576714995E+02 -0.54482778850E+02  0.27865331444E+03  0.28843740558E+03  0.47000000000E+01 0.  1.
         -5    1    5    5    0  503  0.72843814218E+01  0.46900286703E+02  0.55706138155E+02  0.73334595749E+02  0.47000000000E+01 0.  1.
<mgrwt>
<rscale>  0 0.27938194E+03</rscale>
<asrwt>0</asrwt>
<pdfrwt beam="1">  1        2 0.10993409E+00 0.27938194E+03</pdfrwt>
<pdfrwt beam="2">  1       -2 0.42012405E-02 0.27938194E+03</pdfrwt>
<totfact> 0.10401753E+04</totfact>
</mgrwt>
</event>
<event>
 9    1  0.7986988E-001  0.2775324E+03  0.7818608E-02  0.1097044E+00
          2   -1    0    0  501    0  0.00000000000E+00  0.00000000000E+00  0.42419948755E+02  0.42419948755E+02  0.00000000000E+00 0.  1.
         -2   -1    0    0    0  501 -0.00000000000E+00 -0.00000000000E+00 -0.45393864015E+03  0.45393864015E+03  0.00000000000E+00 0.  1.
         35    2    1    2    0    0  0.00000000000E+00  0.00000000000E+00 -0.41151869140E+03  0.49635858891E+03  0.27753236823E+03 0.  0.
         25    2    3    3    0    0 -0.49857086186E+02  0.22198083339E+02 -0.25736351756E+03  0.29162062811E+03  0.12580988284E+03 0.  0.
         25    2    3    3    0    0  0.49857086186E+02 -0.22198083339E+02 -0.15415517384E+03  0.20473796080E+03  0.12318819353E+03 0.  0.
          5    1    4    4  502    0  0.16867012210E+02  0.57150164564E+02 -0.90163156900E+02  0.10817634803E+03  0.47000000000E+01 0. -1.
         -5    1    4    4    0  502 -0.66724098395E+02 -0.34952081224E+02 -0.16720036066E+03  0.18344428008E+03  0.47000000000E+01 0. -1.
          5    1    5    5  503    0  0.24273527540E+02 -0.73317382684E+02 -0.89435640107E+02  0.11826016432E+03  0.47000000000E+01 0.  1.
         -5    1    5    5    0  503  0.25583558646E+02  0.51119299345E+02 -0.64719533729E+02  0.86477796483E+02  0.47000000000E+01 0.  1.
<mgrwt>
<rscale>  0 0.27753237E+03</rscale>
<asrwt>0</asrwt>
<pdfrwt beam="1">  1        2 0.65261460E-02 0.27753237E+03</pdfrwt>
<pdfrwt beam="2">  1       -2 0.69836713E-01 0.27753237E+03</pdfrwt>
<totfact> 0.21174587E+03</totfact>
</mgrwt>
</event>
<event>
 9    1  0.7986988E-001  0.2739316E+03  0.7818608E-02  0.1099050E+00
         -1   -1    0    0    0  501 -0.00000000000E+00  0.00000000000E+00  0.56632123968E+03  0.56632123968E+03  0.00000000000E+00 0.  1.
          1   -1    0    0  501    0  0.00000000000E+00 -0.00000000000E+00 -0.33125412023E+02  0.33125412023E+02  0.00000000000E+00 0.  1.
         35    2    1    2    0    0 -0.14210854715E-13  0.00000000000E+00  0.53319582766E+03  0.59944665171E+03  0.27393155643E+03 0.  0.
         25    2    3    3    0    0 -0.30832129713E+02 -0.31311257021E+02  0.34113836533E+03  0.36612665445E+03  0.12546843332E+03 0.  0.
         25    2    3    3    0    0  0.30832129713E+02  0.31311257021E+02  0.19205746233E+03  0.23331999726E+03  0.12498454802E+03 0.  0.
          5    1    4    4  502    0 -0.73805950857E+02 -0.46130171796E+02  0.22971767422E+03  0.24569821119E+03  0.47000000000E+01 0. -1.
         -5    1    4    4    0  502  0.42973821144E+02  0.14818914775E+02  0.11142069111E+03  0.12042844326E+03  0.47000000000E+01 0. -1.
          5    1    5    5  503    0  0.60181654595E+02  0.48456817206E+02  0.18166076070E+03  0.19746548220E+03  0.47000000000E+01 0.  1.
         -5    1    5    5    0  503 -0.29349524881E+02 -0.17145560186E+02  0.10396701625E+02  0.35854515051E+02  0.47000000000E+01 0.  1.
<mgrwt>
<rscale>  0 0.27393156E+03</rscale>
<asrwt>0</asrwt>
<pdfrwt beam="1">  1        1 0.50962177E-02 0.27393156E+03</pdfrwt>
<pdfrwt beam="2">  1       -1 0.87126337E-01 0.27393156E+03</pdfrwt>
<totfact> 0.22045578E+03</totfact>
</mgrwt>
</event>
<event>
 9    1  0.7986988E-001  0.2742884E+03  0.7818608E-02  0.1098850E+00
         -2   -1    0    0    0  501 -0.00000000000E+00  0.00000000000E+00  0.64516434707E+02  0.64516434707E+02  0.00000000000E+00 0. -1.
          2   -1    0    0  501    0  0.00000000000E+00 -0.00000000000E+00 -0.29153095907E+03  0.29153095907E+03  0.00000000000E+00 0. -1.
         35    2    1    2    0    0 -0.35527136788E-14  0.00000000000E+00 -0.22701452437E+03  0.35604739378E+03  0.27428844734E+03 0.  0.
         25    2    3    3    0    0  0.18798659062E+02 -0.32543765119E+02 -0.58672119215E+02  0.14326783688E+03  0.12518294325E+03 0.  0.
         25    2    3    3    0    0 -0.18798659062E+02  0.32543765119E+02 -0.16834240515E+03  0.21277955690E+03  0.12459329127E+03 0.  0.
          5    1    4    4  502    0  0.69526192755E+02 -0.18003096834E+02 -0.12619887349E+02  0.73070887030E+02  0.47000000000E+01 0. -1.
         -5    1    4    4    0  502 -0.50727533694E+02 -0.14540668285E+02 -0.46052231866E+02  0.70196949853E+02  0.47000000000E+01 0. -1.
          5    1    5    5  503    0  0.81568998561E+01  0.20667731387E+02  0.14875890054E+02  0.27149074401E+02  0.47000000000E+01 0. -1.
         -5    1    5    5    0  503 -0.26955558918E+02  0.11876033732E+02 -0.18321829521E+03  0.18563048250E+03  0.47000000000E+01 0. -1.
<mgrwt>
<rscale>  0 0.27428845E+03</rscale>
<asrwt>0</asrwt>
<pdfrwt beam="1">  1        2 0.44850917E-01 0.27428845E+03</pdfrwt>
<pdfrwt beam="2">  1       -2 0.99256052E-02 0.27428845E+03</pdfrwt>
<totfact> 0.75169668E+03</totfact>
</mgrwt>
</event>
<event>
 9    1  0.7986988E-001  0.2735343E+03  0.7818608E-02  0.1099274E+00
         -2   -1    0    0    0  501 -0.00000000000E+00  0.00000000000E+00  0.46226789983E+02  0.46226789983E+02  0.00000000000E+00 0. -1.
          2   -1    0    0  501    0  0.00000000000E+00 -0.00000000000E+00 -0.40464093915E+03  0.40464093915E+03  0.00000000000E+00 0. -1.
         35    2    1    2    0    0 -0.14210854715E-13  0.11102230246E-14 -0.35841414916E+03  0.45086772913E+03  0.27353428825E+03 0.  0.
         25    2    3    3    0    0  0.44928070128E+02  0.85034815065E+00 -0.12433851917E+03  0.18197123051E+03  0.12503682180E+03 0.  0.
         25    2    3    3    0    0 -0.44928070128E+02 -0.85034815065E+00 -0.23407563000E+03  0.26889649862E+03  0.12447759572E+03 0.  0.
          5    1    4    4  502    0  0.34080494907E+02 -0.98707546618E+01  0.17078171830E+02  0.39656851662E+02  0.47000000000E+01 0. -1.
         -5    1    4    4    0  502  0.10847575221E+02  0.10721102812E+02 -0.14141669099E+03  0.14231437884E+03  0.47000000000E+01 0. -1.
          5    1    5    5  503    0  0.43488603877E+02 -0.13837793093E+01 -0.74605817087E+02  0.86494459104E+02  0.47000000000E+01 0. -1.
         -5    1    5    5    0  503 -0.88416674005E+02  0.53343115867E+00 -0.15946981291E+03  0.18240203952E+03  0.47000000000E+01 0. -1.
<mgrwt>
<rscale>  0 0.27353429E+03</rscale>
<asrwt>0</asrwt>
<pdfrwt beam="1">  1        2 0.62252451E-01 0.27353429E+03</pdfrwt>
<pdfrwt beam="2">  1       -2 0.71118139E-02 0.27353429E+03</pdfrwt>
<totfact> 0.88993592E+03</totfact>
</mgrwt>
</event>
<event>
 9    1  0.7986988E-001  0.2787887E+03  0.7818608E-02  0.1096352E+00
          2   -1    0    0  501    0  0.00000000000E+00  0.00000000000E+00  0.48969073205E+02  0.48969073205E+02  0.00000000000E+00 0. -1.
         -2   -1    0    0    0  501 -0.00000000000E+00 -0.00000000000E+00 -0.39679700106E+03  0.39679700106E+03  0.00000000000E+00 0. -1.
         35    2    1    2    0    0 -0.71054273576E-14  0.71054273576E-14 -0.34782792786E+03  0.44576607427E+03  0.27878867547E+03 0.  0.
         25    2    3    3    0    0  0.49893180625E+02 -0.32551563678E+02 -0.18135261509E+03  0.22909632376E+03  0.12667841485E+03 0.  0.
         25    2    3    3    0    0 -0.49893180625E+02  0.32551563678E+02 -0.16647531276E+03  0.21666975051E+03  0.12523105547E+03 0.  0.
          5    1    4    4  502    0  0.30791337370E+02 -0.80860473704E+02 -0.12717969756E+03  0.15389375600E+03  0.47000000000E+01 0. -1.
         -5    1    4    4    0  502  0.19101843255E+02  0.48308910026E+02 -0.54172917536E+02  0.75202567762E+02  0.47000000000E+01 0. -1.
          5    1    5    5  503    0 -0.76689172102E+02  0.40425097668E+02 -0.16713660814E+03  0.18834052517E+03  0.47000000000E+01 0. -1.
         -5    1    5    5    0  503  0.26795991477E+02 -0.78735339902E+01  0.66129537808E+00  0.28329225339E+02  0.47000000000E+01 0. -1.
<mgrwt>
<rscale>  0 0.27878868E+03</rscale>
<asrwt>0</asrwt>
<pdfrwt beam="1">  1        2 0.75337037E-02 0.27878868E+03</pdfrwt>
<pdfrwt beam="2">  1       -2 0.61045692E-01 0.27878868E+03</pdfrwt>
<totfact> 0.23381387E+03</totfact>
</mgrwt>
</event>
<event>
 9    1  0.7986988E-001  0.2775587E+03  0.7818608E-02  0.1097030E+00
          4   -1    0    0  501    0  0.00000000000E+00  0.00000000000E+00  0.15163502384E+03  0.15163502384E+03  0.00000000000E+00 0. -1.
         -4   -1    0    0    0  501 -0.00000000000E+00 -0.00000000000E+00 -0.12701357671E+03  0.12701357671E+03  0.00000000000E+00 0. -1.
         35    2    1    2    0    0  0.00000000000E+00  0.00000000000E+00  0.24621447130E+02  0.27864860055E+03  0.27755869096E+03 0.  0.
         25    2    3    3    0    0 -0.90821335406E+01  0.57982265684E+02 -0.30933297016E+01  0.13777242770E+03  0.12460836594E+03 0.  0.
         25    2    3    3    0    0  0.90821335406E+01 -0.57982265684E+02  0.27714776831E+02  0.14087617285E+03  0.12503423107E+03 0.  0.
          5    1    4    4  502    0  0.30794256914E+02 -0.21312614427E+02  0.24150951761E+02  0.44809287693E+02  0.47000000000E+01 0.  1.
         -5    1    4    4    0  502 -0.39876390455E+02  0.79294880110E+02 -0.27244281462E+02  0.92963140006E+02  0.47000000000E+01 0.  1.
          5    1    5    5  503    0 -0.36236501067E+02 -0.67057388524E+02 -0.14932135218E+02  0.77812826883E+02  0.47000000000E+01 0. -1.
         -5    1    5    5    0  503  0.45318634608E+02  0.90751228406E+01  0.42646912050E+02  0.63063345968E+02  0.47000000000E+01 0. -1.
<mgrwt>
<rscale>  0 0.27755869E+03</rscale>
<asrwt>0</asrwt>
<pdfrwt beam="1">  1        4 0.23328465E-01 0.27755869E+03</pdfrwt>
<pdfrwt beam="2">  1       -4 0.19540550E-01 0.27755869E+03</pdfrwt>
<totfact> 0.75245912E+02</totfact>
</mgrwt>
</event>
<event>
 9    1  0.7986988E-001  0.2775284E+03  0.7818608E-02  0.1097047E+00
         -2   -1    0    0    0  501 -0.00000000000E+00  0.00000000000E+00  0.28527761896E+02  0.28527761896E+02  0.00000000000E+00 0. -1.
          2   -1    0    0  501    0  0.00000000000E+00 -0.00000000000E+00 -0.67497442328E+03  0.67497442328E+03  0.00000000000E+00 0. -1.
         35    2    1    2    0    0 -0.14210854715E-13  0.00000000000E+00 -0.64644666138E+03  0.70350218517E+03  0.27752844635E+03 0.  0.
         25    2    3    3    0    0  0.53546928281E+02  0.14224325863E+02 -0.26479051427E+03  0.29777979755E+03  0.12445555997E+03 0.  0.
         25    2    3    3    0    0 -0.53546928281E+02 -0.14224325863E+02 -0.38165614712E+03  0.40572238762E+03  0.12601442859E+03 0.  0.
          5    1    4    4  502    0  0.51498134576E+02  0.15859916266E+02 -0.27961219087E+02  0.60889363452E+02  0.47000000000E+01 0.  1.
         -5    1    4    4    0  502  0.20487937051E+01 -0.16355904035E+01 -0.23682929518E+03  0.23689043410E+03  0.47000000000E+01 0.  1.
          5    1    5    5  503    0 -0.61797890695E+01  0.46286372015E+02 -0.67120919284E+02  0.81901928139E+02  0.47000000000E+01 0.  1.
         -5    1    5    5    0  503 -0.47367139212E+02 -0.60510697878E+02 -0.31453522783E+03  0.32382045949E+03  0.47000000000E+01 0.  1.
<mgrwt>
<rscale>  0 0.27752845E+03</rscale>
<asrwt>0</asrwt>
<pdfrwt beam="1">  1        2 0.10384222E+00 0.27752845E+03</pdfrwt>
<pdfrwt beam="2">  1       -2 0.43888865E-02 0.27752845E+03</pdfrwt>
<totfact> 0.10431468E+04</totfact>
</mgrwt>
</event>
<event>
 9    1  0.7986988E-001  0.2709980E+03  0.7818608E-02  0.1100710E+00
         -2   -1    0    0    0  501 -0.00000000000E+00  0.00000000000E+00  0.87225352636E+02  0.87225352636E+02  0.00000000000E+00 0.  1.
          2   -1    0    0  501    0  0.00000000000E+00 -0.00000000000E+00 -0.21048903888E+03  0.21048903888E+03  0.00000000000E+00 0.  1.
         35    2    1    2    0    0  0.00000000000E+00  0.71054273576E-14 -0.12326368624E+03  0.29771439151E+03  0.27099801211E+03 0.  0.
         25    2    3    3    0    0  0.23871553867E+02  0.42100213332E+02 -0.34802895213E+02  0.13798004823E+03  0.12443863206E+03 0.  0.
         25    2    3    3    0    0 -0.23871553867E+02 -0.42100213332E+02 -0.88460791030E+02  0.15973434328E+03  0.12388490557E+03 0.  0.
          5    1    4    4  502    0 -0.48370956266E+01  0.60325450322E+02  0.27659489255E+02  0.66706032685E+02  0.47000000000E+01 0.  1.
         -5    1    4    4    0  502  0.28708649493E+02 -0.18225236990E+02 -0.62462384468E+02  0.71274015549E+02  0.47000000000E+01 0.  1.
          5    1    5    5  503    0 -0.32370528857E+02  0.67299254904E+01 -0.10266602986E+03  0.10796085737E+03  0.47000000000E+01 0.  1.
         -5    1    5    5    0  503  0.84989749903E+01 -0.48830138822E+02  0.14205238834E+02  0.51773485913E+02  0.47000000000E+01 0.  1.
<mgrwt>
<rscale>  0 0.27099801E+03</rscale>
<asrwt>0</asrwt>
<pdfrwt beam="1">  1        2 0.32382929E-01 0.27099801E+03</pdfrwt>
<pdfrwt beam="2">  1       -2 0.13419285E-01 0.27099801E+03</pdfrwt>
<totfact> 0.65770224E+03</totfact>
</mgrwt>
</event>
<event>
 9    1  0.7986988E-001  0.2805518E+03  0.7818608E-02  0.1095388E+00
         -2   -1    0    0    0  501 -0.00000000000E+00  0.00000000000E+00  0.11706620518E+02  0.11706620518E+02  0.00000000000E+00 0. -1.
          2   -1    0    0  501    0  0.00000000000E+00 -0.00000000000E+00 -0.16808714718E+04  0.16808714718E+04  0.00000000000E+00 0. -1.
         35    2    1    2    0    0  0.53290705182E-14 -0.71054273576E-14 -0.16691648513E+04  0.16925780923E+04  0.28055177391E+03 0.  0.
         25    2    3    3    0    0  0.15878850239E+02  0.63508541836E+02 -0.69780489232E+03  0.71088702522E+03  0.11892527949E+03 0.  0.
         25    2    3    3    0    0 -0.15878850239E+02 -0.63508541836E+02 -0.97135995897E+03  0.98169106711E+03  0.12606232025E+03 0.  0.
          5    1    4    4  502    0 -0.13848412150E+02  0.71437567406E+02 -0.21400394400E+03  0.22608600709E+03  0.47000000000E+01 0.  1.
         -5    1    4    4    0  502  0.29727262389E+02 -0.79290255704E+01 -0.48380094832E+03  0.48480101812E+03  0.47000000000E+01 0.  1.
          5    1    5    5  503    0 -0.51552729138E+02 -0.20392928944E+02 -0.18148117351E+03  0.18981849692E+03  0.47000000000E+01 0. -1.
         -5    1    5    5    0  503  0.35673878899E+02 -0.43115612892E+02 -0.78987878546E+03  0.79187257019E+03  0.47000000000E+01 0. -1.
<mgrwt>
<rscale>  0 0.28055177E+03</rscale>
<asrwt>0</asrwt>
<pdfrwt beam="1">  1        2 0.25859558E+00 0.28055177E+03</pdfrwt>
<pdfrwt beam="2">  1       -2 0.18010187E-02 0.28055177E+03</pdfrwt>
<totfact> 0.98677061E+03</totfact>
</mgrwt>
</event>
<event>
 9    1  0.7986988E-001  0.2729329E+03  0.7818608E-02  0.1099613E+00
         -2   -1    0    0    0  501 -0.00000000000E+00  0.00000000000E+00  0.54154043216E+02  0.54154043216E+02  0.00000000000E+00 0. -1.
          2   -1    0    0  501    0  0.00000000000E+00 -0.00000000000E+00 -0.34389101137E+03  0.34389101137E+03  0.00000000000E+00 0. -1.
         35    2    1    2    0    0  0.00000000000E+00  0.00000000000E+00 -0.28973696816E+03  0.39804505459E+03  0.27293287593E+03 0.  0.
         25    2    3    3    0    0 -0.24622179818E+02  0.42192059310E+02 -0.18118018450E+03  0.22536906940E+03  0.12481400794E+03 0.  0.
         25    2    3    3    0    0  0.24622179818E+02 -0.42192059310E+02 -0.10855678365E+03  0.17267598519E+03  0.12508396770E+03 0.  0.
          5    1    4    4  502    0 -0.87597767052E+01 -0.17004788883E+02  0.11714953044E+02  0.22917824018E+02  0.47000000000E+01 0.  1.
         -5    1    4    4    0  502 -0.15862403113E+02  0.59196848193E+02 -0.19289513754E+03  0.20245124538E+03  0.47000000000E+01 0.  1.
          5    1    5    5  503    0  0.50005084329E+02 -0.68146747802E+02 -0.10645138742E+03  0.13600910109E+03  0.47000000000E+01 0.  1.
         -5    1    5    5    0  503 -0.25382904511E+02  0.25954688492E+02 -0.21053962312E+01  0.36666884098E+02  0.47000000000E+01 0.  1.
<mgrwt>
<rscale>  0 0.27293288E+03</rscale>
<asrwt>0</asrwt>
<pdfrwt beam="1">  1        2 0.52906310E-01 0.27293288E+03</pdfrwt>
<pdfrwt beam="2">  1       -2 0.83313912E-02 0.27293288E+03</pdfrwt>
<totfact> 0.82926222E+03</totfact>
</mgrwt>
</event>
<event>
 9    1  0.7986988E-001  0.2745070E+03  0.7818608E-02  0.1098728E+00
         -1   -1    0    0    0  501 -0.00000000000E+00  0.00000000000E+00  0.33829684434E+02  0.33829684434E+02  0.00000000000E+00 0.  1.
          1   -1    0    0  501    0  0.00000000000E+00 -0.00000000000E+00 -0.55686350132E+03  0.55686350132E+03  0.00000000000E+00 0.  1.
         35    2    1    2    0    0  0.35527136788E-14  0.00000000000E+00 -0.52303381689E+03  0.59069318575E+03  0.27450695090E+03 0.  0.
         25    2    3    3    0    0  0.28983451946E+02  0.65569080033E+00 -0.35754016656E+03  0.38098886743E+03  0.12836306318E+03 0.  0.
         25    2    3    3    0    0 -0.28983451946E+02 -0.65569080033E+00 -0.16549365033E+03  0.20970431832E+03  0.12548817636E+03 0.  0.
          5    1    4    4  502    0 -0.19642351741E+02 -0.26524164273E+02 -0.20056812833E+02  0.38906542038E+02  0.47000000000E+01 0. -1.
         -5    1    4    4    0  502  0.48625803687E+02  0.27179855074E+02 -0.33748335372E+03  0.34208232539E+03  0.47000000000E+01 0. -1.
          5    1    5    5  503    0 -0.53531288791E+02  0.15706048878E+02 -0.17046261305E+03  0.17942093328E+03  0.47000000000E+01 0. -1.
         -5    1    5    5    0  503  0.24547836844E+02 -0.16361739678E+02  0.49689627234E+01  0.30283385042E+02  0.47000000000E+01 0. -1.
<mgrwt>
<rscale>  0 0.27450695E+03</rscale>
<asrwt>0</asrwt>
<pdfrwt beam="1">  1        1 0.85671309E-01 0.27450695E+03</pdfrwt>
<pdfrwt beam="2">  1       -1 0.52045668E-02 0.27450695E+03</pdfrwt>
<totfact> 0.64358540E+03</totfact>
</mgrwt>
</event>
<event>
 9    1  0.7986988E-001  0.2748066E+03  0.7818608E-02  0.1098560E+00
          1   -1    0    0  501    0  0.00000000000E+00  0.00000000000E+00  0.49329015448E+03  0.49329015448E+03  0.00000000000E+00 0.  1.
         -1   -1    0    0    0  501 -0.00000000000E+00 -0.00000000000E+00 -0.38272952724E+02  0.38272952724E+02  0.00000000000E+00 0.  1.
         35    2    1    2    0    0 -0.14210854715E-13  0.35527136788E-14  0.45501720175E+03  0.53156310720E+03  0.27480662846E+03 0.  0.
         25    2    3    3    0    0 -0.50549725844E+02 -0.19496836666E+02  0.20384407755E+03  0.24486781794E+03  0.12438825864E+03 0.  0.
         25    2    3    3    0    0  0.50549725844E+02  0.19496836666E+02  0.25117312421E+03  0.28669528927E+03  0.12716465366E+03 0.  0.
          5    1    4    4  502    0 -0.55145941279E+02 -0.29488444306E+02  0.21770664169E+03  0.22655885554E+03  0.47000000000E+01 0.  1.
         -5    1    4    4    0  502  0.45962154352E+01  0.99916076402E+01 -0.13862564141E+02  0.18308962399E+02  0.47000000000E+01 0.  1.
          5    1    5    5  503    0  0.19549306808E+02 -0.41475900689E+02  0.29652037291E+02  0.54806560284E+02  0.47000000000E+01 0. -1.
         -5    1    5    5    0  503  0.31000419036E+02  0.60972737355E+02  0.22152108691E+03  0.23188872898E+03  0.47000000000E+01 0. -1.
<mgrwt>
<rscale>  0 0.27480663E+03</rscale>
<asrwt>0</asrwt>
<pdfrwt beam="1">  1        1 0.75890788E-01 0.27480663E+03</pdfrwt>
<pdfrwt beam="2">  1       -1 0.58881469E-02 0.27480663E+03</pdfrwt>
<totfact> 0.62908597E+03</totfact>
</mgrwt>
</event>
<event>
 9    1  0.7986988E-001  0.2751473E+03  0.7818608E-02  0.1098369E+00
         -2   -1    0    0    0  501 -0.00000000000E+00  0.00000000000E+00  0.51318857292E+01  0.51318857292E+01  0.00000000000E+00 0.  1.
          2   -1    0    0  501    0  0.00000000000E+00 -0.00000000000E+00 -0.36880217388E+04  0.36880217388E+04  0.00000000000E+00 0.  1.
         35    2    1    2    0    0 -0.71054273576E-14  0.00000000000E+00 -0.36828898530E+04  0.36931536245E+04  0.27514727787E+03 0.  0.
         25    2    3    3    0    0 -0.54249487019E+02  0.52663271148E+01 -0.20881412835E+04  0.20925744826E+04  0.12475257298E+03 0.  0.
         25    2    3    3    0    0  0.54249487019E+02 -0.52663271148E+01 -0.15947485695E+04  0.16005791419E+04  0.12513931549E+03 0.  0.
          5    1    4    4  502    0 -0.16519057891E+02  0.57271198135E+02 -0.14396767560E+04  0.14409178052E+04  0.47000000000E+01 0.  1.
         -5    1    4    4    0  502 -0.37730429127E+02 -0.52004871020E+02 -0.64846452748E+03  0.65165667747E+03  0.47000000000E+01 0.  1.
          5    1    5    5  503    0 -0.32880504939E+02 -0.19923928712E+02 -0.25639106382E+03  0.25930013141E+03  0.47000000000E+01 0. -1.
         -5    1    5    5    0  503  0.87129991957E+02  0.14657601597E+02 -0.13383575057E+04  0.13412790105E+04  0.47000000000E+01 0. -1.
<mgrwt>
<rscale>  0 0.27514728E+03</rscale>
<asrwt>0</asrwt>
<pdfrwt beam="1">  1        2 0.56738852E+00 0.27514728E+03</pdfrwt>
<pdfrwt beam="2">  1       -2 0.78952010E-03 0.27514728E+03</pdfrwt>
<totfact> 0.22703405E+03</totfact>
</mgrwt>
</event>
<event>
 9    1  0.7986988E-001  0.2736988E+03  0.7818608E-02  0.1099181E+00
         -2   -1    0    0    0  501 -0.00000000000E+00  0.00000000000E+00  0.40663677004E+03  0.40663677004E+03  0.00000000000E+00 0. -1.
          2   -1    0    0  501    0  0.00000000000E+00 -0.00000000000E+00 -0.46055240688E+02  0.46055240688E+02  0.00000000000E+00 0. -1.
         35    2    1    2    0    0  0.00000000000E+00  0.71054273576E-14  0.36058152935E+03  0.45269201073E+03  0.27369877104E+03 0.  0.
         25    2    3    3    0    0 -0.28583810649E+01  0.43958315567E+02  0.23190461910E+03  0.26768180371E+03  0.12622714378E+03 0.  0.
         25    2    3    3    0    0  0.28583810649E+01 -0.43958315567E+02  0.12867691025E+03  0.18501020702E+03  0.12542139219E+03 0.  0.
          5    1    4    4  502    0  0.50711996763E+02  0.56944392639E+02  0.15659042795E+03  0.17423266799E+03  0.47000000000E+01 0.  1.
         -5    1    4    4    0  502 -0.53570377828E+02 -0.12986077072E+02  0.75314191150E+02  0.93449135721E+02  0.47000000000E+01 0.  1.
          5    1    5    5  503    0  0.42656941068E+02 -0.67176506619E+02  0.51186301556E+02  0.94733442510E+02  0.47000000000E+01 0.  1.
         -5    1    5    5    0  503 -0.39798560004E+02  0.23218191052E+02  0.77490608698E+02  0.90276764510E+02  0.47000000000E+01 0.  1.
<mgrwt>
<rscale>  0 0.27369877E+03</rscale>
<asrwt>0</asrwt>
<pdfrwt beam="1">  1        2 0.70854219E-02 0.27369877E+03</pdfrwt>
<pdfrwt beam="2">  1       -2 0.62559501E-01 0.27369877E+03</pdfrwt>
<totfact> 0.24023257E+03</totfact>
</mgrwt>
</event>
<event>
 9    1  0.7986988E-001  0.2715302E+03  0.7818608E-02  0.1100407E+00
         -2   -1    0    0    0  501 -0.00000000000E+00  0.00000000000E+00  0.18829506378E+02  0.18829506378E+02  0.00000000000E+00 0.  1.
          2   -1    0    0  501    0  0.00000000000E+00 -0.00000000000E+00 -0.97889788629E+03  0.97889788629E+03  0.00000000000E+00 0.  1.
         35    2    1    2    0    0  0.00000000000E+00  0.71054273576E-14 -0.96006837991E+03  0.99772739267E+03  0.27153021190E+03 0.  0.
         25    2    3    3    0    0  0.21700125803E+01  0.18243608185E+02 -0.66206135391E+03  0.67414524030E+03  0.12573396709E+03 0.  0.
         25    2    3    3    0    0 -0.21700125803E+01 -0.18243608185E+02 -0.29800702600E+03  0.32358215236E+03  0.12473846076E+03 0.  0.
          5    1    4    4  502    0  0.29591000319E+02 -0.46332990557E+02 -0.23950604214E+03  0.24577959137E+03  0.47000000000E+01 0. -1.
         -5    1    4    4    0  502 -0.27420987739E+02  0.64576598742E+02 -0.42255531178E+03  0.42836564893E+03  0.47000000000E+01 0. -1.
          5    1    5    5  503    0  0.37924431681E+02 -0.30984302117E+02 -0.26600205074E+03  0.27051334624E+03  0.47000000000E+01 0. -1.
         -5    1    5    5    0  503 -0.40094444261E+02  0.12740693932E+02 -0.32004975259E+02  0.53068806128E+02  0.47000000000E+01 0. -1.
<mgrwt>
<rscale>  0 0.27153021E+03</rscale>
<asrwt>0</asrwt>
<pdfrwt beam="1">  1        2 0.15059969E+00 0.27153021E+03</pdfrwt>
<pdfrwt beam="2">  1       -2 0.28968468E-02 0.27153021E+03</pdfrwt>
<totfact> 0.12038348E+04</totfact>
</mgrwt>
</event>
<event>
 9    1  0.7986988E-001  0.2741523E+03  0.7818608E-02  0.1098926E+00
          2   -1    0    0  501    0  0.00000000000E+00  0.00000000000E+00  0.84546629346E+03  0.84546629346E+03  0.00000000000E+00 0.  1.
         -2   -1    0    0    0  501 -0.00000000000E+00 -0.00000000000E+00 -0.22224263204E+02  0.22224263204E+02  0.00000000000E+00 0.  1.
         35    2    1    2    0    0  0.00000000000E+00 -0.71054273576E-14  0.82324203025E+03  0.86769055666E+03  0.27415226015E+03 0.  0.
         25    2    3    3    0    0 -0.18177321233E+02 -0.86614874681E+01  0.24389337213E+03  0.27464864850E+03  0.12466943002E+03 0.  0.
         25    2    3    3    0    0  0.18177321233E+02  0.86614874681E+01  0.57934865812E+03  0.59304190816E+03  0.12509356815E+03 0.  0.
          5    1    4    4  502    0  0.47017555631E+00  0.33666326139E+02  0.89568356703E+01  0.35156187023E+02  0.47000000000E+01 0. -1.
         -5    1    4    4    0  502 -0.18647496789E+02 -0.42327813607E+02  0.23493653646E+03  0.23949246148E+03  0.47000000000E+01 0. -1.
          5    1    5    5  503    0  0.10766617909E+02 -0.49904782323E+02  0.41867139602E+03  0.42179880892E+03  0.47000000000E+01 0. -1.
         -5    1    5    5    0  503  0.74107033236E+01  0.58566269791E+02  0.16067726210E+03  0.17124309924E+03  0.47000000000E+01 0. -1.
<mgrwt>
<rscale>  0 0.27415226E+03</rscale>
<asrwt>0</asrwt>
<pdfrwt beam="1">  1        2 0.13007171E+00 0.27415226E+03</pdfrwt>
<pdfrwt beam="2">  1       -2 0.34191181E-02 0.27415226E+03</pdfrwt>
<totfact> 0.11457094E+04</totfact>
</mgrwt>
</event>
<event>
 9    1  0.7986988E-001  0.2712002E+03  0.7818608E-02  0.1100595E+00
          2   -1    0    0  501    0  0.00000000000E+00  0.00000000000E+00  0.81115242298E+03  0.81115242298E+03  0.00000000000E+00 0.  1.
         -2   -1    0    0    0  501 -0.00000000000E+00 -0.00000000000E+00 -0.22668234487E+02  0.22668234487E+02  0.00000000000E+00 0.  1.
         35    2    1    2    0    0  0.00000000000E+00  0.00000000000E+00  0.78848418849E+03  0.83382065746E+03  0.27120024578E+03 0.  0.
         25    2    3    3    0    0 -0.86277318379E+01 -0.18783962209E+02  0.54055822277E+03  0.55525360814E+03  0.12520424174E+03 0.  0.
         25    2    3    3    0    0  0.86277318379E+01  0.18783962209E+02  0.24792596572E+03  0.27856704932E+03  0.12531975702E+03 0.  0.
          5    1    4    4  502    0 -0.10584713417E+02 -0.42156019750E+02  0.60727526610E+02  0.74827058257E+02  0.47000000000E+01 0.  1.
         -5    1    4    4    0  502  0.19569815793E+01  0.23372057541E+02  0.47983069616E+03  0.48042654988E+03  0.47000000000E+01 0.  1.
          5    1    5    5  503    0  0.20373717232E+02 -0.42572517109E+02  0.18007932553E+03  0.18622073206E+03  0.47000000000E+01 0. -1.
         -5    1    5    5    0  503 -0.11745985394E+02  0.61356479318E+02  0.67846640190E+02  0.92346317264E+02  0.47000000000E+01 0. -1.
<mgrwt>
<rscale>  0 0.27120025E+03</rscale>
<asrwt>0</asrwt>
<pdfrwt beam="1">  1        2 0.12479266E+00 0.27120025E+03</pdfrwt>
<pdfrwt beam="2">  1       -2 0.34874213E-02 0.27120025E+03</pdfrwt>
<totfact> 0.11729618E+04</totfact>
</mgrwt>
</event>
<event>
 9    1  0.7986988E-001  0.2687412E+03  0.7818608E-02  0.1102002E+00
         -2   -1    0    0    0  501 -0.00000000000E+00  0.00000000000E+00  0.97612288303E+01  0.97612288303E+01  0.00000000000E+00 0.  1.
          2   -1    0    0  501    0  0.00000000000E+00 -0.00000000000E+00 -0.18497112996E+04  0.18497112996E+04  0.00000000000E+00 0.  1.
         35    2    1    2    0    0  0.00000000000E+00  0.35527136788E-14 -0.18399500708E+04  0.18594725285E+04  0.26874117858E+03 0.  0.
         25    2    3    3    0    0  0.23170481148E+02 -0.14349334604E+02 -0.12446839792E+04  0.12511944058E+04  0.12452493113E+03 0.  0.
         25    2    3    3    0    0 -0.23170481148E+02  0.14349334604E+02 -0.59526609162E+03  0.60827812266E+03  0.12213836448E+03 0.  0.
          5    1    4    4  502    0  0.73663221627E+02 -0.19251575826E+02 -0.70797087785E+03  0.71206863945E+03  0.47000000000E+01 0.  1.
         -5    1    4    4    0  502 -0.50492740480E+02  0.49022412221E+01 -0.53671310132E+03  0.53912576634E+03  0.47000000000E+01 0.  1.
          5    1    5    5  503    0 -0.66292465362E+02  0.33461121807E+02 -0.42824440741E+03  0.43466044232E+03  0.47000000000E+01 0.  1.
         -5    1    5    5    0  503  0.43121984214E+02 -0.19111787203E+02 -0.16702168421E+03  0.17361768035E+03  0.47000000000E+01 0.  1.
<mgrwt>
<rscale>  0 0.26874118E+03</rscale>
<asrwt>0</asrwt>
<pdfrwt beam="1">  1        2 0.28457108E+00 0.26874118E+03</pdfrwt>
<pdfrwt beam="2">  1       -2 0.15017269E-02 0.26874118E+03</pdfrwt>
<totfact> 0.10491597E+04</totfact>
</mgrwt>
</event>
<event>
 9    1  0.7986988E-001  0.2728056E+03  0.7818608E-02  0.1099685E+00
          2   -1    0    0  501    0  0.00000000000E+00  0.00000000000E+00  0.11387674402E+03  0.11387674402E+03  0.00000000000E+00 0. -1.
         -2   -1    0    0    0  501 -0.00000000000E+00 -0.00000000000E+00 -0.16338481174E+03  0.16338481174E+03  0.00000000000E+00 0. -1.
         35    2    1    2    0    0  0.71054273576E-14  0.71054273576E-14 -0.49508067714E+02  0.27726155576E+03  0.27280564791E+03 0.  0.
         25    2    3    3    0    0  0.46102717116E+02  0.31444254041E+02 -0.34251559478E+02  0.13994018052E+03  0.12367652631E+03 0.  0.
         25    2    3    3    0    0 -0.46102717116E+02 -0.31444254041E+02 -0.15256508235E+02  0.13732137524E+03  0.12453994305E+03 0.  0.
          5    1    4    4  502    0  0.66370948578E+01 -0.12287298922E+02  0.41400079111E+02  0.43944115571E+02  0.47000000000E+01 0. -1.
         -5    1    4    4    0  502  0.39465622258E+02  0.43731552963E+02 -0.75651638589E+02  0.95996064950E+02  0.47000000000E+01 0. -1.
          5    1    5    5  503    0  0.61875832948E-01 -0.58426152926E+02  0.31138227305E+02  0.66372421789E+02  0.47000000000E+01 0.  1.
         -5    1    5    5    0  503 -0.46164592949E+02  0.26981898885E+02 -0.46394735541E+02  0.70948953449E+02  0.47000000000E+01 0.  1.
<mgrwt>
<rscale>  0 0.27280565E+03</rscale>
<asrwt>0</asrwt>
<pdfrwt beam="1">  1        2 0.17519499E-01 0.27280565E+03</pdfrwt>
<pdfrwt beam="2">  1       -2 0.25136125E-01 0.27280565E+03</pdfrwt>
<totfact> 0.45322031E+03</totfact>
</mgrwt>
</event>
<event>
 9    1  0.7986988E-001  0.2787125E+03  0.7818608E-02  0.1096394E+00
         -1   -1    0    0    0  501 -0.00000000000E+00  0.00000000000E+00  0.11098044535E+03  0.11098044535E+03  0.00000000000E+00 0.  1.
          1   -1    0    0  501    0  0.00000000000E+00 -0.00000000000E+00 -0.17498728789E+03  0.17498728789E+03  0.00000000000E+00 0.  1.
         35    2    1    2    0    0 -0.71054273576E-14  0.00000000000E+00 -0.64006842538E+02  0.28596773325E+03  0.27871251957E+03 0.  0.
         25    2    3    3    0    0 -0.80911266759E+01  0.60667982147E+02 -0.27350653535E+02  0.14179773759E+03  0.12494986895E+03 0.  0.
         25    2    3    3    0    0  0.80911266759E+01 -0.60667982147E+02 -0.36656189003E+02  0.14416999565E+03  0.12528064921E+03 0.  0.
          5    1    4    4  502    0 -0.37480617072E+02 -0.13930211772E+02 -0.44141970369E+02  0.59744882661E+02  0.47000000000E+01 0. -1.
         -5    1    4    4    0  502  0.29389490396E+02  0.74598193919E+02  0.16791316834E+02  0.82052854934E+02  0.47000000000E+01 0. -1.
          5    1    5    5  503    0 -0.35066639645E+02 -0.30266142427E+02  0.32690026982E+02  0.56889686741E+02  0.47000000000E+01 0.  1.
         -5    1    5    5    0  503  0.43157766321E+02 -0.30401839720E+02 -0.69346215985E+02  0.87280308911E+02  0.47000000000E+01 0.  1.
<mgrwt>
<rscale>  0 0.27871252E+03</rscale>
<asrwt>0</asrwt>
<pdfrwt beam="1">  1        1 0.26921121E-01 0.27871252E+03</pdfrwt>
<pdfrwt beam="2">  1       -1 0.17073915E-01 0.27871252E+03</pdfrwt>
<totfact> 0.45124951E+03</totfact>
</mgrwt>
</event>
<event>
 9    1  0.7986988E-001  0.2730551E+03  0.7818608E-02  0.1099544E+00
         -2   -1    0    0    0  501 -0.00000000000E+00  0.00000000000E+00  0.17128864231E+03  0.17128864231E+03  0.00000000000E+00 0. -1.
          2   -1    0    0  501    0  0.00000000000E+00 -0.00000000000E+00 -0.10882080070E+03  0.10882080070E+03  0.00000000000E+00 0. -1.
         35    2    1    2    0    0 -0.71054273576E-14  0.00000000000E+00  0.62467841604E+02  0.28010944301E+03  0.27305506556E+03 0.  0.
         25    2    3    3    0    0  0.53313446290E+02  0.43685485343E+01  0.18116972004E+02  0.13767552303E+03  0.12555842144E+03 0.  0.
         25    2    3    3    0    0 -0.53313446290E+02 -0.43685485343E+01  0.44350869600E+02  0.14243391998E+03  0.12433428390E+03 0.  0.
          5    1    4    4  502    0 -0.12930208060E+02 -0.48441544563E+02  0.15865272376E+02  0.52797446792E+02  0.47000000000E+01 0.  1.
         -5    1    4    4    0  502  0.66243654351E+02  0.52810093098E+02  0.22516996276E+01  0.84878076238E+02  0.47000000000E+01 0.  1.
          5    1    5    5  503    0 -0.50467477786E+02  0.47878193695E+02 -0.55927531464E+01  0.69947527714E+02  0.47000000000E+01 0. -1.
         -5    1    5    5    0  503 -0.28459685039E+01 -0.52246742229E+02  0.49943622746E+02  0.72486392263E+02  0.47000000000E+01 0. -1.
<mgrwt>
<rscale>  0 0.27305507E+03</rscale>
<asrwt>0</asrwt>
<pdfrwt beam="1">  1        2 0.16741662E-01 0.27305507E+03</pdfrwt>
<pdfrwt beam="2">  1       -2 0.26352099E-01 0.27305507E+03</pdfrwt>
<totfact> 0.43952257E+03</totfact>
</mgrwt>
</event>
<event>
 9    1  0.7986988E-001  0.2695937E+03  0.7818608E-02  0.1101512E+00
         -1   -1    0    0    0  501 -0.00000000000E+00  0.00000000000E+00  0.12921661007E+03  0.12921661007E+03  0.00000000000E+00 0. -1.
          1   -1    0    0  501    0  0.00000000000E+00 -0.00000000000E+00 -0.14061805297E+03  0.14061805297E+03  0.00000000000E+00 0. -1.
         35    2    1    2    0    0 -0.71054273576E-14  0.00000000000E+00 -0.11401442900E+02  0.26983466305E+03  0.26959368034E+03 0.  0.
         25    2    3    3    0    0  0.29568595412E+02  0.39317363616E+02  0.69451024739E+01  0.13419274277E+03  0.12465673205E+03 0.  0.
         25    2    3    3    0    0 -0.29568595412E+02 -0.39317363616E+02 -0.18346545374E+02  0.13564192028E+03  0.12506789314E+03 0.  0.
          5    1    4    4  502    0  0.26342564236E+02 -0.13836367615E+02  0.54741531500E+02  0.62482805877E+02  0.47000000000E+01 0. -1.
         -5    1    4    4    0  502  0.32260311763E+01  0.53153731231E+02 -0.47796429026E+02  0.71709936889E+02  0.47000000000E+01 0. -1.
          5    1    5    5  503    0  0.48009749647E+02 -0.25795324025E+02 -0.14820017554E+02  0.56675018510E+02  0.47000000000E+01 0. -1.
         -5    1    5    5    0  503 -0.77578345060E+02 -0.13522039591E+02 -0.35265278195E+01  0.78966901772E+02  0.47000000000E+01 0. -1.
<mgrwt>
<rscale>  0 0.26959368E+03</rscale>
<asrwt>0</asrwt>
<pdfrwt beam="1">  1        1 0.21633547E-01 0.26959368E+03</pdfrwt>
<pdfrwt beam="2">  1       -1 0.19879479E-01 0.26959368E+03</pdfrwt>
<totfact> 0.46606923E+03</totfact>
</mgrwt>
</event>
<event>
 9    1  0.7986988E-001  0.2741468E+03  0.7818608E-02  0.1098929E+00
          1   -1    0    0  501    0  0.00000000000E+00  0.00000000000E+00  0.15388199993E+03  0.15388199993E+03  0.00000000000E+00 0.  1.
         -1   -1    0    0    0  501 -0.00000000000E+00 -0.00000000000E+00 -0.12210083089E+03  0.12210083089E+03  0.00000000000E+00 0.  1.
         35    2    1    2    0    0 -0.71054273576E-14 -0.71054273576E-14  0.31781169034E+02  0.27598283082E+03  0.27414682235E+03 0.  0.
         25    2    3    3    0    0 -0.52544498532E+02 -0.12717771305E+02  0.31573443281E+02  0.13948458481E+03  0.12464510037E+03 0.  0.
         25    2    3    3    0    0  0.52544498532E+02  0.12717771305E+02  0.20772575252E+00  0.13649824601E+03  0.12533579689E+03 0.  0.
          5    1    4    4  502    0 -0.70505071390E+02  0.21171154872E+02  0.57005765569E+02  0.93225158613E+02  0.47000000000E+01 0.  1.
         -5    1    4    4    0  502  0.17960572859E+02 -0.33888926176E+02 -0.25432322287E+02  0.46259426193E+02  0.47000000000E+01 0.  1.
          5    1    5    5  503    0  0.57406285854E+02 -0.46028355273E+02 -0.15438161512E+02  0.75329396490E+02  0.47000000000E+01 0.  1.
         -5    1    5    5    0  503 -0.48617873228E+01  0.58746126577E+02  0.15645887265E+02  0.61168849524E+02  0.47000000000E+01 0.  1.
<mgrwt>
<rscale>  0 0.27414682E+03</rscale>
<asrwt>0</asrwt>
<pdfrwt beam="1">  1        1 0.23674154E-01 0.27414682E+03</pdfrwt>
<pdfrwt beam="2">  1       -1 0.18784743E-01 0.27414682E+03</pdfrwt>
<totfact> 0.45547698E+03</totfact>
</mgrwt>
</event>
<event>
 9    1  0.7986988E-001  0.2774436E+03  0.7818608E-02  0.1097093E+00
         -1   -1    0    0    0  501 -0.00000000000E+00  0.00000000000E+00  0.25332626912E+02  0.25332626912E+02  0.00000000000E+00 0. -1.
          1   -1    0    0  501    0  0.00000000000E+00 -0.00000000000E+00 -0.75964232460E+03  0.75964232460E+03  0.00000000000E+00 0. -1.
         35    2    1    2    0    0 -0.71054273576E-14  0.71054273576E-14 -0.73430969768E+03  0.78497495151E+03  0.27744358414E+03 0.  0.
         25    2    3    3    0    0  0.16300577330E+02 -0.33474243101E+02 -0.50240910269E+03  0.51916759295E+03  0.12543464167E+03 0.  0.
         25    2    3    3    0    0 -0.16300577330E+02  0.33474243101E+02 -0.23190059500E+03  0.26580735856E+03  0.12445654717E+03 0.  0.
          5    1    4    4  502    0  0.25832948728E+02  0.39548149374E+02 -0.29988285103E+03  0.30361688310E+03  0.47000000000E+01 0.  1.
         -5    1    4    4    0  502 -0.95323713986E+01 -0.73022392475E+02 -0.20252625166E+03  0.21555070985E+03  0.47000000000E+01 0.  1.
          5    1    5    5  503    0 -0.29305130209E+02  0.73627374897E+01 -0.23418429291E+03  0.23617233878E+03  0.47000000000E+01 0.  1.
         -5    1    5    5    0  503  0.13004552879E+02  0.26111505612E+02  0.22836979164E+01  0.29635019775E+02  0.47000000000E+01 0.  1.
<mgrwt>
<rscale>  0 0.27744358E+03</rscale>
<asrwt>0</asrwt>
<pdfrwt beam="1">  1        1 0.11686804E+00 0.27744358E+03</pdfrwt>
<pdfrwt beam="2">  1       -1 0.38973274E-02 0.27744358E+03</pdfrwt>
<totfact> 0.63658850E+03</totfact>
</mgrwt>
</event>
<event>
 9    1  0.7986988E-001  0.2661813E+03  0.7818608E-02  0.1103485E+00
         -2   -1    0    0    0  501 -0.00000000000E+00  0.00000000000E+00  0.63200636626E+02  0.63200636626E+02  0.00000000000E+00 0.  1.
          2   -1    0    0  501    0  0.00000000000E+00 -0.00000000000E+00 -0.28026811559E+03  0.28026811559E+03  0.00000000000E+00 0.  1.
         35    2    1    2    0    0 -0.71054273576E-14 -0.35527136788E-14 -0.21706747896E+03  0.34346875221E+03  0.26618131663E+03 0.  0.
         25    2    3    3    0    0 -0.40705347416E+02 -0.14181147292E+02 -0.89751499346E+02  0.16026303834E+03  0.12558216265E+03 0.  0.
         25    2    3    3    0    0  0.40705347416E+02  0.14181147292E+02 -0.12731597961E+03  0.18320571387E+03  0.12448672492E+03 0.  0.
          5    1    4    4  502    0 -0.78485875737E+02  0.78769571355E+01 -0.84920305611E+02  0.11599839417E+03  0.47000000000E+01 0. -1.
         -5    1    4    4    0  502  0.37780528321E+02 -0.22058104428E+02 -0.48311937348E+01  0.44264644176E+02  0.47000000000E+01 0. -1.
          5    1    5    5  503    0  0.57832462921E+02 -0.39143976715E+02 -0.96182912188E+02  0.11895413939E+03  0.47000000000E+01 0. -1.
         -5    1    5    5    0  503 -0.17127115505E+02  0.53325124007E+02 -0.31133067425E+02  0.64251574480E+02  0.47000000000E+01 0. -1.
<mgrwt>
<rscale>  0 0.26618132E+03</rscale>
<asrwt>0</asrwt>
<pdfrwt beam="1">  1        2 0.43118173E-01 0.26618132E+03</pdfrwt>
<pdfrwt beam="2">  1       -2 0.97231746E-02 0.26618132E+03</pdfrwt>
<totfact> 0.80931993E+03</totfact>
</mgrwt>
</event>
<event>
 9    1  0.7986988E-001  0.2736473E+03  0.7818608E-02  0.1099210E+00
         -1   -1    0    0    0  501 -0.00000000000E+00  0.00000000000E+00  0.45706238761E+02  0.45706238761E+02  0.00000000000E+00 0.  1.
          1   -1    0    0  501    0  0.00000000000E+00 -0.00000000000E+00 -0.40958767740E+03  0.40958767740E+03  0.00000000000E+00 0.  1.
         35    2    1    2    0    0 -0.71054273576E-14 -0.71054273576E-14 -0.36388143864E+03  0.45529391616E+03  0.27364730714E+03 0.  0.
         25    2    3    3    0    0  0.32830912535E+02  0.42194751137E+02 -0.20940012410E+03  0.24976909869E+03  0.12521152041E+03 0.  0.
         25    2    3    3    0    0 -0.32830912535E+02 -0.42194751137E+02 -0.15448131454E+03  0.20552481747E+03  0.12457009358E+03 0.  0.
          5    1    4    4  502    0  0.70932331969E+02 -0.19352095014E+01 -0.75859029486E+02  0.10397991685E+03  0.47000000000E+01 0. -1.
         -5    1    4    4    0  502 -0.38101419434E+02  0.44129960638E+02 -0.13354109462E+03  0.14578918183E+03  0.47000000000E+01 0. -1.
          5    1    5    5  503    0  0.34234060310E+02 -0.44185494655E+02 -0.11392235194E+03  0.12698315280E+03  0.47000000000E+01 0. -1.
         -5    1    5    5    0  503 -0.67064972845E+02  0.19907435176E+01 -0.40558962595E+02  0.78541664671E+02  0.47000000000E+01 0. -1.
<mgrwt>
<rscale>  0 0.27364731E+03</rscale>
<asrwt>0</asrwt>
<pdfrwt beam="1">  1        1 0.63013487E-01 0.27364731E+03</pdfrwt>
<pdfrwt beam="2">  1       -1 0.70317292E-02 0.27364731E+03</pdfrwt>
<totfact> 0.61286396E+03</totfact>
</mgrwt>
</event>
<event>
 9    1  0.7986988E-001  0.2696288E+03  0.7818608E-02  0.1101492E+00
          2   -1    0    0  501    0  0.00000000000E+00  0.00000000000E+00  0.11214585875E+04  0.11214585875E+04  0.00000000000E+00 0.  1.
         -2   -1    0    0    0  501 -0.00000000000E+00 -0.00000000000E+00 -0.16206501044E+02  0.16206501044E+02  0.00000000000E+00 0.  1.
         35    2    1    2    0    0 -0.71054273576E-14  0.00000000000E+00  0.11052520865E+04  0.11376650885E+04  0.26962878013E+03 0.  0.
         25    2    3    3    0    0 -0.15274704842E+02  0.48948078361E+02  0.57317297699E+03  0.58861306451E+03  0.12372892620E+03 0.  0.
         25    2    3    3    0    0  0.15274704842E+02 -0.48948078361E+02  0.53207910947E+03  0.54905202403E+03  0.12538227698E+03 0.  0.
          5    1    4    4  502    0 -0.44371710600E+02 -0.24397312518E+02  0.15800858659E+03  0.16599060515E+03  0.47000000000E+01 0. -1.
         -5    1    4    4    0  502  0.29097005757E+02  0.73345390879E+02  0.41516439039E+03  0.42262245936E+03  0.47000000000E+01 0. -1.
          5    1    5    5  503    0  0.63321226706E+02 -0.28576804608E+02  0.17830024663E+03  0.19141389569E+03  0.47000000000E+01 0.  1.
         -5    1    5    5    0  503 -0.48046521864E+02 -0.20371273753E+02  0.35377886284E+03  0.35763812835E+03  0.47000000000E+01 0.  1.
<mgrwt>
<rscale>  0 0.26962878E+03</rscale>
<asrwt>0</asrwt>
<pdfrwt beam="1">  1        2 0.17253203E+00 0.26962878E+03</pdfrwt>
<pdfrwt beam="2">  1       -2 0.24933087E-02 0.26962878E+03</pdfrwt>
<totfact> 0.12348591E+04</totfact>
</mgrwt>
</event>
<event>
 9    1  0.7986988E-001  0.2794904E+03  0.7818608E-02  0.1095968E+00
         -2   -1    0    0    0  501 -0.00000000000E+00  0.00000000000E+00  0.34332026111E+02  0.34332026111E+02  0.00000000000E+00 0.  1.
          2   -1    0    0  501    0  0.00000000000E+00 -0.00000000000E+00 -0.56881926370E+03  0.56881926370E+03  0.00000000000E+00 0.  1.
         35    2    1    2    0    0  0.00000000000E+00  0.00000000000E+00 -0.53448723759E+03  0.60315128982E+03  0.27949037775E+03 0.  0.
         25    2    3    3    0    0  0.45990420664E+02  0.58174640618E+00 -0.35480726885E+03  0.37937638402E+03  0.12618552017E+03 0.  0.
         25    2    3    3    0    0 -0.45990420664E+02 -0.58174640618E+00 -0.17967996875E+03  0.22377490580E+03  0.12519928145E+03 0.  0.
          5    1    4    4  502    0  0.39582633731E+02 -0.54028805312E+02 -0.11378858662E+03  0.13212050992E+03  0.47000000000E+01 0.  1.
         -5    1    4    4    0  502  0.64077869336E+01  0.54610551719E+02 -0.24101868223E+03  0.24725587410E+03  0.47000000000E+01 0.  1.
          5    1    5    5  503    0 -0.23233043717E+02  0.16478368405E+02  0.11025818490E+02  0.30902582724E+02  0.47000000000E+01 0. -1.
         -5    1    5    5    0  503 -0.22757376947E+02 -0.17060114811E+02 -0.19070578724E+03  0.19287232308E+03  0.47000000000E+01 0. -1.
<mgrwt>
<rscale>  0 0.27949038E+03</rscale>
<asrwt>0</asrwt>
<pdfrwt beam="1">  1        2 0.87510659E-01 0.27949038E+03</pdfrwt>
<pdfrwt beam="2">  1       -2 0.52818500E-02 0.27949038E+03</pdfrwt>
<totfact> 0.96280122E+03</totfact>
</mgrwt>
</event>
<event>
 9    1  0.7986988E-001  0.2777147E+03  0.7818608E-02  0.1096944E+00
         -2   -1    0    0    0  501 -0.00000000000E+00  0.00000000000E+00  0.57304333283E+03  0.57304333283E+03  0.00000000000E+00 0. -1.
          2   -1    0    0  501    0  0.00000000000E+00 -0.00000000000E+00 -0.33647305069E+02  0.33647305069E+02  0.00000000000E+00 0. -1.
         35    2    1    2    0    0  0.00000000000E+00  0.35527136788E-14  0.53939602776E+03  0.60669063790E+03  0.27771470136E+03 0.  0.
         25    2    3    3    0    0  0.55848865127E+02  0.22443878389E+02  0.25136916959E+03  0.28717450387E+03  0.12513957344E+03 0.  0.
         25    2    3    3    0    0 -0.55848865127E+02 -0.22443878389E+02  0.28802685817E+03  0.31951613403E+03  0.12453218646E+03 0.  0.
          5    1    4    4  502    0  0.81580674041E+02  0.12754967957E+02  0.85423053579E+02  0.11890030979E+03  0.47000000000E+01 0.  1.
         -5    1    4    4    0  502 -0.25731808914E+02  0.96889104317E+01  0.16594611602E+03  0.16827419409E+03  0.47000000000E+01 0.  1.
          5    1    5    5  503    0 -0.75128921195E+02  0.16180104616E+02  0.25069116009E+03  0.26224854305E+03  0.47000000000E+01 0.  1.
         -5    1    5    5    0  503  0.19280056068E+02 -0.38623983005E+02  0.37335698078E+02  0.57267590975E+02  0.47000000000E+01 0.  1.
<mgrwt>
<rscale>  0 0.27771470E+03</rscale>
<asrwt>0</asrwt>
<pdfrwt beam="1">  1        2 0.51765089E-02 0.27771470E+03</pdfrwt>
<pdfrwt beam="2">  1       -2 0.88160506E-01 0.27771470E+03</pdfrwt>
<totfact> 0.17183205E+03</totfact>
</mgrwt>
</event>
<event>
 9    1  0.7986988E-001  0.2744932E+03  0.7818608E-02  0.1098735E+00
         -2   -1    0    0    0  501 -0.00000000000E+00  0.00000000000E+00  0.25360564050E+03  0.25360564050E+03  0.00000000000E+00 0. -1.
          2   -1    0    0  501    0  0.00000000000E+00 -0.00000000000E+00 -0.74275251385E+02  0.74275251385E+02  0.00000000000E+00 0. -1.
         35    2    1    2    0    0  0.35527136788E-14  0.00000000000E+00  0.17933038911E+03  0.32788089188E+03  0.27449315256E+03 0.  0.
         25    2    3    3    0    0  0.17832410920E+02  0.24400376979E+02  0.32547215849E+02  0.13240391344E+03  0.12473212000E+03 0.  0.
         25    2    3    3    0    0 -0.17832410920E+02 -0.24400376979E+02  0.14678317326E+03  0.19547697844E+03  0.12550926607E+03 0.  0.
          5    1    4    4  502    0  0.41427742702E+02  0.65462327658E+01 -0.37349006095E+02  0.56357335681E+02  0.47000000000E+01 0. -1.
         -5    1    4    4    0  502 -0.23595331781E+02  0.17854144213E+02  0.69896221944E+02  0.76046577763E+02  0.47000000000E+01 0. -1.
          5    1    5    5  503    0  0.30160990010E+02 -0.54838445215E+02  0.40010973120E+02  0.74430560672E+02  0.47000000000E+01 0.  1.
         -5    1    5    5    0  503 -0.47993400930E+02  0.30438068236E+02  0.10677220014E+03  0.12104641777E+03  0.47000000000E+01 0.  1.
<mgrwt>
<rscale>  0 0.27449315E+03</rscale>
<asrwt>0</asrwt>
<pdfrwt beam="1">  1        2 0.11426962E-01 0.27449315E+03</pdfrwt>
<pdfrwt beam="2">  1       -2 0.39016252E-01 0.27449315E+03</pdfrwt>
<totfact> 0.33762647E+03</totfact>
</mgrwt>
</event>
<event>
 9    1  0.7986988E-001  0.2824693E+03  0.7818608E-02  0.1094348E+00
          1   -1    0    0  501    0  0.00000000000E+00  0.00000000000E+00  0.66046199160E+03  0.66046199160E+03  0.00000000000E+00 0. -1.
         -1   -1    0    0    0  501 -0.00000000000E+00 -0.00000000000E+00 -0.30201921940E+02  0.30201921940E+02  0.00000000000E+00 0. -1.
         35    2    1    2    0    0  0.00000000000E+00  0.00000000000E+00  0.63026006966E+03  0.69066391354E+03  0.28246926569E+03 0.  0.
         25    2    3    3    0    0  0.42864990963E+02 -0.38601321244E+02  0.24713240527E+03  0.28282806355E+03  0.12485919408E+03 0.  0.
         25    2    3    3    0    0 -0.42864990963E+02  0.38601321244E+02  0.38312766440E+03  0.40783584999E+03  0.12734128892E+03 0.  0.
          5    1    4    4  502    0  0.54719378934E+02 -0.78254207475E+02  0.18028642935E+03  0.20406669995E+03  0.47000000000E+01 0.  1.
         -5    1    4    4    0  502 -0.11854387970E+02  0.39652886231E+02  0.66845975911E+02  0.78761363600E+02  0.47000000000E+01 0.  1.
          5    1    5    5  503    0 -0.43134716198E+02  0.62955907890E+02  0.37347040759E+03  0.38121684830E+03  0.47000000000E+01 0. -1.
         -5    1    5    5    0  503  0.26972523481E+00 -0.24354586646E+02  0.96572568077E+01  0.26619001699E+02  0.47000000000E+01 0. -1.
<mgrwt>
<rscale>  0 0.28246927E+03</rscale>
<asrwt>0</asrwt>
<pdfrwt beam="1">  1        1 0.10160953E+00 0.28246927E+03</pdfrwt>
<pdfrwt beam="2">  1       -1 0.46464500E-02 0.28246927E+03</pdfrwt>
<totfact> 0.60171548E+03</totfact>
</mgrwt>
</event>
<event>
 9    1  0.7986988E-001  0.2769399E+03  0.7818608E-02  0.1097372E+00
          1   -1    0    0  501    0  0.00000000000E+00  0.00000000000E+00  0.58969591253E+03  0.58969591253E+03  0.00000000000E+00 0. -1.
         -1   -1    0    0    0  501 -0.00000000000E+00 -0.00000000000E+00 -0.32514931581E+02  0.32514931581E+02  0.00000000000E+00 0. -1.
         35    2    1    2    0    0  0.00000000000E+00  0.71054273576E-14  0.55718098095E+03  0.62221084411E+03  0.27693986531E+03 0.  0.
         25    2    3    3    0    0 -0.28885703631E+02 -0.20845333890E+02  0.38289686348E+03  0.40423873179E+03  0.12461955063E+03 0.  0.
         25    2    3    3    0    0  0.28885703631E+02  0.20845333890E+02  0.17428411747E+03  0.21797211232E+03  0.12596815601E+03 0.  0.
          5    1    4    4  502    0 -0.71078839217E+02 -0.37710208376E+02  0.28553754328E+03  0.29669519683E+03  0.47000000000E+01 0. -1.
         -5    1    4    4    0  502  0.42193135585E+02  0.16864874486E+02  0.97359320203E+02  0.10754353496E+03  0.47000000000E+01 0. -1.
          5    1    5    5  503    0  0.49295452165E+02  0.30373221043E+02  0.18403208453E+03  0.19298308812E+03  0.47000000000E+01 0. -1.
         -5    1    5    5    0  503 -0.20409748534E+02 -0.95278871530E+01 -0.97479670647E+01  0.24989024205E+02  0.47000000000E+01 0. -1.
<mgrwt>
<rscale>  0 0.27693987E+03</rscale>
<asrwt>0</asrwt>
<pdfrwt beam="1">  1        1 0.90722440E-01 0.27693987E+03</pdfrwt>
<pdfrwt beam="2">  1       -1 0.50022976E-02 0.27693987E+03</pdfrwt>
<totfact> 0.63153749E+03</totfact>
</mgrwt>
</event>
<event>
 9    1  0.7986988E-001  0.2756840E+03  0.7818608E-02  0.1098070E+00
          2   -1    0    0  501    0  0.00000000000E+00  0.00000000000E+00  0.12520310568E+03  0.12520310568E+03  0.00000000000E+00 0. -1.
         -2   -1    0    0    0  501 -0.00000000000E+00 -0.00000000000E+00 -0.15175676620E+03  0.15175676620E+03  0.00000000000E+00 0. -1.
         35    2    1    2    0    0  0.71054273576E-14  0.00000000000E+00 -0.26553660523E+02  0.27695987188E+03  0.27568401068E+03 0.  0.
         25    2    3    3    0    0  0.54198415266E+02  0.19626614946E+02 -0.12749716099E+02  0.13790945130E+03  0.12463462306E+03 0.  0.
         25    2    3    3    0    0 -0.54198415266E+02 -0.19626614946E+02 -0.13803944424E+02  0.13905042059E+03  0.12578473020E+03 0.  0.
          5    1    4    4  502    0  0.95929207930E+01  0.30116186739E+02  0.50441670401E+02  0.59711480855E+02  0.47000000000E+01 0. -1.
         -5    1    4    4    0  502  0.44605494473E+02 -0.10489571793E+02 -0.63191386500E+02  0.78197970443E+02  0.47000000000E+01 0. -1.
          5    1    5    5  503    0 -0.17468617897E+02 -0.71334361284E+02 -0.16402636604E+02  0.75398144530E+02  0.47000000000E+01 0.  1.
         -5    1    5    5    0  503 -0.36729797369E+02  0.51707746338E+02  0.25986921797E+01  0.63652276056E+02  0.47000000000E+01 0.  1.
<mgrwt>
<rscale>  0 0.27568401E+03</rscale>
<asrwt>0</asrwt>
<pdfrwt beam="1">  1        2 0.19262016E-01 0.27568401E+03</pdfrwt>
<pdfrwt beam="2">  1       -2 0.23347195E-01 0.27568401E+03</pdfrwt>
<totfact> 0.46252236E+03</totfact>
</mgrwt>
</event>
<event>
 9    1  0.7986988E-001  0.2860803E+03  0.7818608E-02  0.1092414E+00
          3   -1    0    0  501    0  0.00000000000E+00  0.00000000000E+00  0.19006792016E+04  0.19006792016E+04  0.00000000000E+00 0.  1.
         -3   -1    0    0    0  501 -0.00000000000E+00 -0.00000000000E+00 -0.10764825784E+02  0.10764825784E+02  0.00000000000E+00 0.  1.
         35    2    1    2    0    0  0.00000000000E+00  0.14210854715E-13  0.18899143758E+04  0.19114440274E+04  0.28608027179E+03 0.  0.
         25    2    3    3    0    0  0.13617099447E+00  0.69665608531E+02  0.94954226298E+03  0.96014407434E+03  0.12406779900E+03 0.  0.
         25    2    3    3    0    0 -0.13617099447E+00 -0.69665608531E+02  0.94037211285E+03  0.95129995306E+03  0.12577191464E+03 0.  0.
          5    1    4    4  502    0 -0.60222201182E+02  0.47380376969E+02  0.45860872617E+03  0.46498996479E+03  0.47000000000E+01 0.  1.
         -5    1    4    4    0  502  0.60358372176E+02  0.22285231562E+02  0.49093353681E+03  0.49515410955E+03  0.47000000000E+01 0.  1.
          5    1    5    5  503    0  0.48150034995E+02 -0.44056454027E+02  0.23929504610E+03  0.24807983816E+03  0.47000000000E+01 0. -1.
         -5    1    5    5    0  503 -0.48286205990E+02 -0.25609154504E+02  0.70107706675E+03  0.70322011490E+03  0.47000000000E+01 0. -1.
<mgrwt>
<rscale>  0 0.28608027E+03</rscale>
<asrwt>0</asrwt>
<pdfrwt beam="1">  1        3 0.29241192E+00 0.28608027E+03</pdfrwt>
<pdfrwt beam="2">  1       -3 0.16561286E-02 0.28608027E+03</pdfrwt>
<totfact> 0.15764279E+02</totfact>
</mgrwt>
</event>
<event>
 9    1  0.7986988E-001  0.2743926E+03  0.7818608E-02  0.1098792E+00
          4   -1    0    0  501    0  0.00000000000E+00  0.00000000000E+00  0.50869185061E+02  0.50869185061E+02  0.00000000000E+00 0.  1.
         -4   -1    0    0    0  501 -0.00000000000E+00 -0.00000000000E+00 -0.37002397706E+03  0.37002397706E+03  0.00000000000E+00 0.  1.
         35    2    1    2    0    0  0.00000000000E+00 -0.71054273576E-14 -0.31915479200E+03  0.42089316212E+03  0.27439255213E+03 0.  0.
         25    2    3    3    0    0  0.33650103391E+01 -0.25052804139E+02 -0.11478307975E+03  0.17978790573E+03  0.13604987820E+03 0.  0.
         25    2    3    3    0    0 -0.33650103391E+01  0.25052804139E+02 -0.20437171224E+03  0.24110525639E+03  0.12539928868E+03 0.  0.
          5    1    4    4  502    0  0.48448960533E+02  0.34265189215E+02 -0.73146850656E+02  0.94307776612E+02  0.47000000000E+01 0.  1.
         -5    1    4    4    0  502 -0.45083950193E+02 -0.59317993354E+02 -0.41636229097E+02  0.85480129118E+02  0.47000000000E+01 0.  1.
          5    1    5    5  503    0 -0.62232175177E+02  0.26149042268E+02 -0.92619062404E+02  0.11470395267E+03  0.47000000000E+01 0.  1.
         -5    1    5    5    0  503  0.58867164837E+02 -0.10962381283E+01 -0.11175264984E+03  0.12640130371E+03  0.47000000000E+01 0.  1.
<mgrwt>
<rscale>  0 0.27439255E+03</rscale>
<asrwt>0</asrwt>
<pdfrwt beam="1">  1        4 0.78260286E-02 0.27439255E+03</pdfrwt>
<pdfrwt beam="2">  1       -4 0.56926765E-01 0.27439255E+03</pdfrwt>
<totfact> 0.63600922E+02</totfact>
</mgrwt>
</event>
<event>
 9    1  0.7986988E-001  0.2707377E+03  0.7818608E-02  0.1100858E+00
          1   -1    0    0  501    0  0.00000000000E+00  0.00000000000E+00  0.33574640668E+03  0.33574640668E+03  0.00000000000E+00 0. -1.
         -1   -1    0    0    0  501 -0.00000000000E+00 -0.00000000000E+00 -0.54579057071E+02  0.54579057071E+02  0.00000000000E+00 0. -1.
         35    2    1    2    0    0  0.00000000000E+00 -0.35527136788E-14  0.28116734960E+03  0.39032546375E+03  0.27073767593E+03 0.  0.
         25    2    3    3    0    0  0.38579160127E+02  0.18660420761E+02  0.17838458640E+03  0.22214188888E+03  0.12525731608E+03 0.  0.
         25    2    3    3    0    0 -0.38579160127E+02 -0.18660420761E+02  0.10278276321E+03  0.16818357487E+03  0.12603513615E+03 0.  0.
          5    1    4    4  502    0 -0.36158798051E+02  0.18654979820E+02  0.12115756622E+03  0.12789336496E+03  0.47000000000E+01 0.  1.
         -5    1    4    4    0  502  0.74737958178E+02  0.54409407681E-02  0.57227020178E+02  0.94248523918E+02  0.47000000000E+01 0.  1.
          5    1    5    5  503    0  0.21541752114E+02 -0.52748010025E+02  0.20760785461E+02  0.60823514028E+02  0.47000000000E+01 0. -1.
         -5    1    5    5    0  503 -0.60120912241E+02  0.34087589264E+02  0.82021977747E+02  0.10736006084E+03  0.47000000000E+01 0. -1.
<mgrwt>
<rscale>  0 0.27073768E+03</rscale>
<asrwt>0</asrwt>
<pdfrwt beam="1">  1        1 0.51653292E-01 0.27073768E+03</pdfrwt>
<pdfrwt beam="2">  1       -1 0.83967782E-02 0.27073768E+03</pdfrwt>
<totfact> 0.60220433E+03</totfact>
</mgrwt>
</event>
<event>
 9    1  0.7986988E-001  0.2742102E+03  0.7818608E-02  0.1098894E+00
          1   -1    0    0  501    0  0.00000000000E+00  0.00000000000E+00  0.16865223499E+02  0.16865223499E+02  0.00000000000E+00 0. -1.
         -1   -1    0    0    0  501 -0.00000000000E+00 -0.00000000000E+00 -0.11145899403E+04  0.11145899403E+04  0.00000000000E+00 0. -1.
         35    2    1    2    0    0  0.00000000000E+00 -0.71054273576E-14 -0.10977247168E+04  0.11314551638E+04  0.27421020005E+03 0.  0.
         25    2    3    3    0    0 -0.50117306196E+02  0.20613383020E+02 -0.59430427312E+03  0.60987032015E+03  0.12572820852E+03 0.  0.
         25    2    3    3    0    0  0.50117306196E+02 -0.20613383020E+02 -0.50342044364E+03  0.52158484361E+03  0.12522759306E+03 0.  0.
          5    1    4    4  502    0 -0.87140201740E+02  0.37950165122E+02 -0.44002245200E+03  0.45019493339E+03  0.47000000000E+01 0. -1.
         -5    1    4    4    0  502  0.37022895544E+02 -0.17336782102E+02 -0.15428182112E+03  0.15967538676E+03  0.47000000000E+01 0. -1.
          5    1    5    5  503    0  0.86952591152E+02 -0.73490613564E+01 -0.42402593144E+03  0.43293745778E+03  0.47000000000E+01 0.  1.
         -5    1    5    5    0  503 -0.36835284956E+02 -0.13264321664E+02 -0.79394512202E+02  0.88647385832E+02  0.47000000000E+01 0.  1.
<mgrwt>
<rscale>  0 0.27421020E+03</rscale>
<asrwt>0</asrwt>
<pdfrwt beam="1">  1        1 0.25946491E-02 0.27421020E+03</pdfrwt>
<pdfrwt beam="2">  1       -1 0.17147542E+00 0.27421020E+03</pdfrwt>
<totfact> 0.10988326E+03</totfact>
</mgrwt>
</event>
<event>
 9    1  0.7986988E-001  0.2767783E+03  0.7818608E-02  0.1097462E+00
         -2   -1    0    0    0  501 -0.00000000000E+00  0.00000000000E+00  0.50131000717E+01  0.50131000717E+01  0.00000000000E+00 0.  1.
          2   -1    0    0  501    0  0.00000000000E+00 -0.00000000000E+00 -0.38203011961E+04  0.38203011961E+04  0.00000000000E+00 0.  1.
         35    2    1    2    0    0  0.35527136788E-14  0.14210854715E-13 -0.38152880960E+04  0.38253142962E+04  0.27677826649E+03 0.  0.
         25    2    3    3    0    0  0.30116491851E+02 -0.52569432753E+02 -0.22032824851E+04  0.22075253617E+04  0.12265384210E+03 0.  0.
         25    2    3    3    0    0 -0.30116491851E+02  0.52569432753E+02 -0.16120056110E+04  0.16177889345E+04  0.12250876927E+03 0.  0.
          5    1    4    4  502    0  0.45774110055E+02 -0.87148590900E+02 -0.15919422635E+04  0.15949897826E+04  0.47000000000E+01 0. -1.
         -5    1    4    4    0  502 -0.15657618205E+02  0.34579158148E+02 -0.61134022154E+03  0.61253557909E+03  0.47000000000E+01 0. -1.
          5    1    5    5  503    0 -0.11764838529E+02 -0.37998028310E+01 -0.13055423942E+04  0.13056093914E+04  0.47000000000E+01 0. -1.
         -5    1    5    5    0  503 -0.18351653321E+02  0.56369235584E+02 -0.30646321679E+03  0.31217954312E+03  0.47000000000E+01 0. -1.
<mgrwt>
<rscale>  0 0.27677827E+03</rscale>
<asrwt>0</asrwt>
<pdfrwt beam="1">  1        2 0.58773827E+00 0.27677827E+03</pdfrwt>
<pdfrwt beam="2">  1       -2 0.77124666E-03 0.27677827E+03</pdfrwt>
<totfact> 0.18911448E+03</totfact>
</mgrwt>
</event>
<event>
 9    1  0.7986988E-001  0.2720902E+03  0.7818608E-02  0.1100089E+00
         -2   -1    0    0    0  501 -0.00000000000E+00  0.00000000000E+00  0.10834246275E+03  0.10834246275E+03  0.00000000000E+00 0.  1.
          2   -1    0    0  501    0  0.00000000000E+00 -0.00000000000E+00 -0.17083121958E+03  0.17083121958E+03  0.00000000000E+00 0.  1.
         35    2    1    2    0    0  0.35527136788E-14  0.00000000000E+00 -0.62488756826E+02  0.27917368233E+03  0.27209024270E+03 0.  0.
         25    2    3    3    0    0  0.15689449510E+02 -0.28128913165E+02 -0.75128410391E+02  0.14976138100E+03  0.12548624869E+03 0.  0.
         25    2    3    3    0    0 -0.15689449510E+02  0.28128913165E+02  0.12639653565E+02  0.12941230132E+03  0.12470119611E+03 0.  0.
          5    1    4    4  502    0 -0.18519515882E+00  0.49580771727E+02 -0.24055952684E+02  0.55308824628E+02  0.47000000000E+01 0. -1.
         -5    1    4    4    0  502  0.15874644669E+02 -0.77709684891E+02 -0.51072457708E+02  0.94452556374E+02  0.47000000000E+01 0. -1.
          5    1    5    5  503    0 -0.33615414556E+02  0.18264614284E+02 -0.50124080090E+02  0.63230575164E+02  0.47000000000E+01 0.  1.
         -5    1    5    5    0  503  0.17925965045E+02  0.98642988809E+01  0.62763733656E+02  0.66181726161E+02  0.47000000000E+01 0.  1.
<mgrwt>
<rscale>  0 0.27209024E+03</rscale>
<asrwt>0</asrwt>
<pdfrwt beam="1">  1        2 0.26281726E-01 0.27209024E+03</pdfrwt>
<pdfrwt beam="2">  1       -2 0.16668071E-01 0.27209024E+03</pdfrwt>
<totfact> 0.57856306E+03</totfact>
</mgrwt>
</event>
<event>
 9    1  0.7986988E-001  0.2766558E+03  0.7818608E-02  0.1097530E+00
         -2   -1    0    0    0  501 -0.00000000000E+00  0.00000000000E+00  0.40072169900E+02  0.40072169900E+02  0.00000000000E+00 0.  1.
          2   -1    0    0  501    0  0.00000000000E+00 -0.00000000000E+00 -0.47750355050E+03  0.47750355050E+03  0.00000000000E+00 0.  1.
         35    2    1    2    0    0 -0.14210854715E-13  0.00000000000E+00 -0.43743138060E+03  0.51757572039E+03  0.27665576736E+03 0.  0.
         25    2    3    3    0    0  0.54904707648E+02 -0.75043122829E+01 -0.23870968069E+03  0.27607639549E+03  0.12714174323E+03 0.  0.
         25    2    3    3    0    0 -0.54904707648E+02  0.75043122829E+01 -0.19872169991E+03  0.24149932490E+03  0.12554189854E+03 0.  0.
          5    1    4    4  502    0  0.52395946736E+02  0.47356060093E+02 -0.74054593201E+02  0.10244073621E+03  0.47000000000E+01 0.  1.
         -5    1    4    4    0  502  0.25087609123E+01 -0.54860372376E+02 -0.16465508749E+03  0.17363565928E+03  0.47000000000E+01 0.  1.
          5    1    5    5  503    0  0.24684588964E+02  0.41870160311E+02 -0.89715223428E+02  0.10214377402E+03  0.47000000000E+01 0.  1.
         -5    1    5    5    0  503 -0.79589296612E+02 -0.34365848028E+02 -0.10900647648E+03  0.13935555088E+03  0.47000000000E+01 0.  1.
<mgrwt>
<rscale>  0 0.27665577E+03</rscale>
<asrwt>0</asrwt>
<pdfrwt beam="1">  1        2 0.73462088E-01 0.27665577E+03</pdfrwt>
<pdfrwt beam="2">  1       -2 0.61649490E-02 0.27665577E+03</pdfrwt>
<totfact> 0.92542039E+03</totfact>
</mgrwt>
</event>
<event>
 9    1  0.7986988E-001  0.2748550E+03  0.7818608E-02  0.1098533E+00
         -1   -1    0    0    0  501 -0.00000000000E+00  0.00000000000E+00  0.25329776429E+04  0.25329776429E+04  0.00000000000E+00 0. -1.
          1   -1    0    0  501    0  0.00000000000E+00 -0.00000000000E+00 -0.74561708715E+01  0.74561708715E+01  0.00000000000E+00 0. -1.
         35    2    1    2    0    0  0.00000000000E+00  0.00000000000E+00  0.25255214720E+04  0.25404338138E+04  0.27485497354E+03 0.  0.
         25    2    3    3    0    0  0.30821870071E+02  0.37005731437E+02  0.15146643219E+04  0.15206411060E+04  0.12578534572E+03 0.  0.
         25    2    3    3    0    0 -0.30821870071E+02 -0.37005731437E+02  0.10108571501E+04  0.10197927078E+04  0.12579975020E+03 0.  0.
          5    1    4    4  502    0 -0.39871314347E+02  0.47789840982E+02  0.77761976741E+03  0.78012062098E+03  0.47000000000E+01 0.  1.
         -5    1    4    4    0  502  0.70693184417E+02 -0.10784109545E+02  0.73704455454E+03  0.74052048501E+03  0.47000000000E+01 0.  1.
          5    1    5    5  503    0 -0.99078207011E+01  0.89966984106E+01  0.93239268798E+01  0.16974425051E+02  0.47000000000E+01 0. -1.
         -5    1    5    5    0  503 -0.20914049369E+02 -0.46002429848E+02  0.10015332232E+04  0.10028182827E+04  0.47000000000E+01 0. -1.
<mgrwt>
<rscale>  0 0.27485497E+03</rscale>
<asrwt>0</asrwt>
<pdfrwt beam="1">  1        1 0.11471052E-02 0.27485497E+03</pdfrwt>
<pdfrwt beam="2">  1       -1 0.38968818E+00 0.27485497E+03</pdfrwt>
<totfact> 0.13706093E+02</totfact>
</mgrwt>
</event>
<event>
 9    1  0.7986988E-001  0.2759076E+03  0.7818608E-02  0.1097945E+00
          3   -1    0    0  501    0  0.00000000000E+00  0.00000000000E+00  0.16821785785E+02  0.16821785785E+02  0.00000000000E+00 0.  1.
         -3   -1    0    0    0  501 -0.00000000000E+00 -0.00000000000E+00 -0.11313452117E+04  0.11313452117E+04  0.00000000000E+00 0.  1.
         35    2    1    2    0    0  0.00000000000E+00  0.00000000000E+00 -0.11145234259E+04  0.11481669974E+04  0.27590757002E+03 0.  0.
         25    2    3    3    0    0  0.10303457040E+02  0.51399006341E+02 -0.43944200325E+03  0.45947250384E+03  0.12352201620E+03 0.  0.
         25    2    3    3    0    0 -0.10303457040E+02 -0.51399006341E+02 -0.67508142263E+03  0.68869449361E+03  0.12576628826E+03 0.  0.
          5    1    4    4  502    0 -0.30188491477E+02  0.48664538409E+02 -0.84492842332E+02  0.10217980584E+03  0.47000000000E+01 0.  1.
         -5    1    4    4    0  502  0.40491948517E+02  0.27344679329E+01 -0.35494916091E+03  0.35729269800E+03  0.47000000000E+01 0.  1.
          5    1    5    5  503    0 -0.39586225607E+02  0.20569085306E+02 -0.11868059663E+03  0.12687525584E+03  0.47000000000E+01 0.  1.
         -5    1    5    5    0  503  0.29282768567E+02 -0.71968091648E+02 -0.55640082600E+03  0.56181923777E+03  0.47000000000E+01 0.  1.
<mgrwt>
<rscale>  0 0.27590757E+03</rscale>
<asrwt>0</asrwt>
<pdfrwt beam="1">  1        3 0.25879670E-02 0.27590757E+03</pdfrwt>
<pdfrwt beam="2">  1       -3 0.17405311E+00 0.27590757E+03</pdfrwt>
<totfact> 0.37808910E+02</totfact>
</mgrwt>
</event>
<event>
 9    1  0.7986988E-001  0.2742407E+03  0.7818608E-02  0.1098877E+00
         -1   -1    0    0    0  501 -0.00000000000E+00  0.00000000000E+00  0.10076185239E+02  0.10076185239E+02  0.00000000000E+00 0.  1.
          1   -1    0    0  501    0  0.00000000000E+00 -0.00000000000E+00 -0.18659829026E+04  0.18659829026E+04  0.00000000000E+00 0.  1.
         35    2    1    2    0    0  0.00000000000E+00 -0.35527136788E-14 -0.18559067173E+04  0.18760590878E+04  0.27424069267E+03 0.  0.
         25    2    3    3    0    0 -0.44191818148E+02 -0.14870557100E+02 -0.11030833393E+04  0.11115054352E+04  0.12836443776E+03 0.  0.
         25    2    3    3    0    0  0.44191818148E+02  0.14870557100E+02 -0.75282337806E+03  0.76455365259E+03  0.12500079551E+03 0.  0.
          5    1    4    4  502    0 -0.69135582493E+02 -0.43185999637E+02 -0.45221677596E+03  0.45952895643E+03  0.47000000000E+01 0.  1.
         -5    1    4    4    0  502  0.24943764345E+02  0.28315442537E+02 -0.65086656331E+03  0.65197647879E+03  0.47000000000E+01 0.  1.
          5    1    5    5  503    0 -0.10537163754E+02 -0.48252094309E+02 -0.26442319212E+03  0.26903719251E+03  0.47000000000E+01 0. -1.
         -5    1    5    5    0  503  0.54728981902E+02  0.63122651409E+02 -0.48840018594E+03  0.49551646008E+03  0.47000000000E+01 0. -1.
<mgrwt>
<rscale>  0 0.27424069E+03</rscale>
<asrwt>0</asrwt>
<pdfrwt beam="1">  1        1 0.28707445E+00 0.27424069E+03</pdfrwt>
<pdfrwt beam="2">  1       -1 0.15501815E-02 0.27424069E+03</pdfrwt>
<totfact> 0.41011587E+03</totfact>
</mgrwt>
</event>
<event>
 9    1  0.7986988E-001  0.3002312E+03  0.7818608E-02  0.1085125E+00
         -2   -1    0    0    0  501 -0.00000000000E+00  0.00000000000E+00  0.36581037964E+02  0.36581037964E+02  0.00000000000E+00 0. -1.
          2   -1    0    0  501    0  0.00000000000E+00 -0.00000000000E+00 -0.61602127579E+03  0.61602127579E+03  0.00000000000E+00 0. -1.
         35    2    1    2    0    0 -0.71054273576E-14  0.00000000000E+00 -0.57944023782E+03  0.65260231375E+03  0.30023122873E+03 0.  0.
         25    2    3    3    0    0  0.27829142652E+02  0.79461086770E+02 -0.29758673251E+03  0.33345286272E+03  0.12467727457E+03 0.  0.
         25    2    3    3    0    0 -0.27829142652E+02 -0.79461086770E+02 -0.28185350531E+03  0.31914945104E+03  0.12380003291E+03 0.  0.
          5    1    4    4  502    0  0.64983236632E+02  0.21663020564E+02 -0.21618147490E+03  0.22682289918E+03  0.47000000000E+01 0.  1.
         -5    1    4    4    0  502 -0.37154093980E+02  0.57798066206E+02 -0.81405257611E+02  0.10662996353E+03  0.47000000000E+01 0.  1.
          5    1    5    5  503    0 -0.14240284255E+02 -0.93407358448E+02 -0.28367665327E+03  0.29903553956E+03  0.47000000000E+01 0. -1.
         -5    1    5    5    0  503 -0.13588858397E+02  0.13946271678E+02  0.18231479638E+01  0.20113911473E+02  0.47000000000E+01 0. -1.
<mgrwt>
<rscale>  0 0.30023123E+03</rscale>
<asrwt>0</asrwt>
<pdfrwt beam="1">  1        2 0.94772512E-01 0.30023123E+03</pdfrwt>
<pdfrwt beam="2">  1       -2 0.56278515E-02 0.30023123E+03</pdfrwt>
<totfact> 0.79847251E+03</totfact>
</mgrwt>
</event>
<event>
 9    1  0.7986988E-001  0.2759918E+03  0.7818608E-02  0.1097898E+00
          1   -1    0    0  501    0  0.00000000000E+00  0.00000000000E+00  0.19306912406E+03  0.19306912406E+03  0.00000000000E+00 0. -1.
         -1   -1    0    0    0  501 -0.00000000000E+00 -0.00000000000E+00 -0.98632385613E+02  0.98632385613E+02  0.00000000000E+00 0. -1.
         35    2    1    2    0    0  0.00000000000E+00  0.00000000000E+00  0.94436738450E+02  0.29170150968E+03  0.27599179911E+03 0.  0.
         25    2    3    3    0    0  0.27997877977E+02  0.38215660514E+02  0.12811298026E+02  0.13466007098E+03  0.12539891339E+03 0.  0.
         25    2    3    3    0    0 -0.27997877977E+02 -0.38215660514E+02  0.81625440424E+02  0.15704143870E+03  0.12551885541E+03 0.  0.
          5    1    4    4  502    0  0.28015668519E+02  0.46452735113E+02  0.63180273460E+02  0.83406062349E+02  0.47000000000E+01 0. -1.
         -5    1    4    4    0  502 -0.17790541757E-01 -0.82370745991E+01 -0.50368975434E+02  0.51254008631E+02  0.47000000000E+01 0. -1.
          5    1    5    5  503    0  0.21667778687E+02 -0.69575383569E+02  0.59155982073E+02  0.93977374123E+02  0.47000000000E+01 0.  1.
         -5    1    5    5    0  503 -0.49665656664E+02  0.31359723055E+02  0.22469458351E+02  0.63064064573E+02  0.47000000000E+01 0.  1.
<mgrwt>
<rscale>  0 0.27599180E+03</rscale>
<asrwt>0</asrwt>
<pdfrwt beam="1">  1        1 0.29702942E-01 0.27599180E+03</pdfrwt>
<pdfrwt beam="2">  1       -1 0.15174213E-01 0.27599180E+03</pdfrwt>
<totfact> 0.48083631E+03</totfact>
</mgrwt>
</event>
<event>
 9    1  0.7986988E-001  0.2748039E+03  0.7818608E-02  0.1098561E+00
         -2   -1    0    0    0  501 -0.00000000000E+00  0.00000000000E+00  0.45160949458E+02  0.45160949458E+02  0.00000000000E+00 0. -1.
          2   -1    0    0  501    0  0.00000000000E+00 -0.00000000000E+00 -0.41804472555E+03  0.41804472555E+03  0.00000000000E+00 0. -1.
         35    2    1    2    0    0 -0.35527136788E-14  0.71054273576E-14 -0.37288377609E+03  0.46320567500E+03  0.27480390624E+03 0.  0.
         25    2    3    3    0    0 -0.14302822066E+02 -0.45956123968E+02 -0.13380906173E+03  0.18987372169E+03  0.12581982808E+03 0.  0.
         25    2    3    3    0    0  0.14302822066E+02  0.45956123968E+02 -0.23907471436E+03  0.27333195332E+03  0.12343865524E+03 0.  0.
          5    1    4    4  502    0 -0.55265752756E+02 -0.65532435807E+02 -0.66722911674E+02  0.10873288607E+03  0.47000000000E+01 0.  1.
         -5    1    4    4    0  502  0.40962930690E+02  0.19576311839E+02 -0.67086150051E+02  0.81140835617E+02  0.47000000000E+01 0.  1.
          5    1    5    5  503    0  0.34797926657E+02  0.62017309056E+02 -0.23619909397E+03  0.24671672889E+03  0.47000000000E+01 0. -1.
         -5    1    5    5    0  503 -0.20495104591E+02 -0.16061185088E+02 -0.28756203913E+01  0.26615224426E+02  0.47000000000E+01 0. -1.
<mgrwt>
<rscale>  0 0.27480391E+03</rscale>
<asrwt>0</asrwt>
<pdfrwt beam="1">  1        2 0.64314573E-01 0.27480391E+03</pdfrwt>
<pdfrwt beam="2">  1       -2 0.69478384E-02 0.27480391E+03</pdfrwt>
<totfact> 0.89064695E+03</totfact>
</mgrwt>
</event>
<event>
 9    1  0.7986988E-001  0.2832620E+03  0.7818608E-02  0.1093921E+00
         -2   -1    0    0    0  501 -0.00000000000E+00  0.00000000000E+00  0.25915154133E+02  0.25915154133E+02  0.00000000000E+00 0. -1.
          2   -1    0    0  501    0  0.00000000000E+00 -0.00000000000E+00 -0.77403879463E+03  0.77403879463E+03  0.00000000000E+00 0. -1.
         35    2    1    2    0    0  0.00000000000E+00  0.00000000000E+00 -0.74812364050E+03  0.79995394876E+03  0.28326196121E+03 0.  0.
         25    2    3    3    0    0 -0.11999877533E+02 -0.43225775794E+02 -0.25016232963E+03  0.28443953064E+03  0.12771918678E+03 0.  0.
         25    2    3    3    0    0  0.11999877533E+02  0.43225775794E+02 -0.49796131086E+03  0.51551441812E+03  0.12560725862E+03 0.  0.
          5    1    4    4  502    0  0.32749816097E+02  0.32527427139E+02 -0.10203641038E+03  0.11208970967E+03  0.47000000000E+01 0.  1.
         -5    1    4    4    0  502 -0.44749693630E+02 -0.75753202933E+02 -0.14812591926E+03  0.17234982098E+03  0.47000000000E+01 0.  1.
          5    1    5    5  503    0 -0.22050491192E+02  0.77942826015E+02 -0.36370093562E+03  0.37264160913E+03  0.47000000000E+01 0.  1.
         -5    1    5    5    0  503  0.34050368725E+02 -0.34717050221E+02 -0.13426037525E+03  0.14287280899E+03  0.47000000000E+01 0.  1.
<mgrwt>
<rscale>  0 0.28326196E+03</rscale>
<asrwt>0</asrwt>
<pdfrwt beam="1">  1        2 0.11908287E+00 0.28326196E+03</pdfrwt>
<pdfrwt beam="2">  1       -2 0.39869474E-02 0.28326196E+03</pdfrwt>
<totfact> 0.10197998E+04</totfact>
</mgrwt>
</event>
<event>
 9    1  0.7986988E-001  0.2739679E+03  0.7818608E-02  0.1099030E+00
          2   -1    0    0  501    0  0.00000000000E+00  0.00000000000E+00  0.35272736667E+03  0.35272736667E+03  0.00000000000E+00 0.  1.
         -2   -1    0    0    0  501 -0.00000000000E+00 -0.00000000000E+00 -0.53198609620E+02  0.53198609620E+02  0.00000000000E+00 0.  1.
         35    2    1    2    0    0  0.00000000000E+00  0.71054273576E-14  0.29952875705E+03  0.40592597629E+03  0.27396792135E+03 0.  0.
         25    2    3    3    0    0  0.35500603315E+02  0.39932963530E+01  0.21580399074E+03  0.25179176457E+03  0.12470561751E+03 0.  0.
         25    2    3    3    0    0 -0.35500603315E+02 -0.39932963530E+01  0.83724766314E+02  0.15413421172E+03  0.12438359810E+03 0.  0.
          5    1    4    4  502    0 -0.11290722519E+02  0.56446901725E+02  0.78361809059E+02  0.97346783452E+02  0.47000000000E+01 0.  1.
         -5    1    4    4    0  502  0.46791325834E+02 -0.52453605372E+02  0.13744218168E+03  0.15444498112E+03  0.47000000000E+01 0.  1.
          5    1    5    5  503    0 -0.61250941206E+02  0.41934446173E+02  0.34848249447E+02  0.82138091431E+02  0.47000000000E+01 0. -1.
         -5    1    5    5    0  503  0.25750337890E+02 -0.45927742526E+02  0.48876516868E+02  0.71996120285E+02  0.47000000000E+01 0. -1.
<mgrwt>
<rscale>  0 0.27396792E+03</rscale>
<asrwt>0</asrwt>
<pdfrwt beam="1">  1        2 0.54265747E-01 0.27396792E+03</pdfrwt>
<pdfrwt beam="2">  1       -2 0.81844017E-02 0.27396792E+03</pdfrwt>
<totfact> 0.82979345E+03</totfact>
</mgrwt>
</event>
<event>
 9    1  0.7986988E-001  0.2746680E+03  0.7818608E-02  0.1098637E+00
          1   -1    0    0  501    0  0.00000000000E+00  0.00000000000E+00  0.13203006952E+04  0.13203006952E+04  0.00000000000E+00 0. -1.
         -1   -1    0    0    0  501 -0.00000000000E+00 -0.00000000000E+00 -0.14285102237E+02  0.14285102237E+02  0.00000000000E+00 0. -1.
         35    2    1    2    0    0  0.00000000000E+00  0.00000000000E+00  0.13060155929E+04  0.13345857974E+04  0.27466802081E+03 0.  0.
         25    2    3    3    0    0  0.44354254111E+02 -0.70246123120E+01  0.49314822541E+03  0.51084694330E+03  0.12551008814E+03 0.  0.
         25    2    3    3    0    0 -0.44354254111E+02  0.70246123120E+01  0.81286736753E+03  0.82373885410E+03  0.12560134367E+03 0.  0.
          5    1    4    4  502    0  0.30409566215E+02  0.14364228105E+02  0.25469843526E+02  0.42448506402E+02  0.47000000000E+01 0. -1.
         -5    1    4    4    0  502  0.13944687895E+02 -0.21388840417E+02  0.46767838188E+03  0.46839843690E+03  0.47000000000E+01 0. -1.
          5    1    5    5  503    0  0.37372254686E+02  0.67193026169E+01  0.11757307937E+03  0.12364203752E+03  0.47000000000E+01 0. -1.
         -5    1    5    5    0  503 -0.81726508797E+02  0.30530969507E+00  0.69529428816E+03  0.70009681659E+03  0.47000000000E+01 0. -1.
<mgrwt>
<rscale>  0 0.27466802E+03</rscale>
<asrwt>0</asrwt>
<pdfrwt beam="1">  1        1 0.20312309E+00 0.27466802E+03</pdfrwt>
<pdfrwt beam="2">  1       -1 0.21977091E-02 0.27466802E+03</pdfrwt>
<totfact> 0.56432015E+03</totfact>
</mgrwt>
</event>
<event>
 9    1  0.7986988E-001  0.2725814E+03  0.7818608E-02  0.1099811E+00
         -2   -1    0    0    0  501 -0.00000000000E+00  0.00000000000E+00  0.41749140504E+02  0.41749140504E+02  0.00000000000E+00 0. -1.
          2   -1    0    0  501    0  0.00000000000E+00 -0.00000000000E+00 -0.44492315046E+03  0.44492315046E+03  0.00000000000E+00 0. -1.
         35    2    1    2    0    0  0.00000000000E+00  0.71054273576E-14 -0.40317400995E+03  0.48667229096E+03  0.27258143093E+03 0.  0.
         25    2    3    3    0    0  0.35122044404E+02 -0.37761406271E+02 -0.22352182505E+03  0.26177512708E+03  0.12611395274E+03 0.  0.
         25    2    3    3    0    0 -0.35122044404E+02  0.37761406271E+02 -0.17965218490E+03  0.22489716388E+03  0.12507735597E+03 0.  0.
          5    1    4    4  502    0  0.63649354587E+02  0.14310010598E+02 -0.64054186842E+02  0.91548050742E+02  0.47000000000E+01 0.  1.
         -5    1    4    4    0  502 -0.28527310183E+02 -0.52071416869E+02 -0.15946763821E+03  0.17022707634E+03  0.47000000000E+01 0.  1.
          5    1    5    5  503    0  0.33656679933E+02 -0.24419550292E+02 -0.46277872212E+02  0.62392451443E+02  0.47000000000E+01 0. -1.
         -5    1    5    5    0  503 -0.68778724337E+02  0.62180956563E+02 -0.13337431268E+03  0.16250471244E+03  0.47000000000E+01 0. -1.
<mgrwt>
<rscale>  0 0.27258143E+03</rscale>
<asrwt>0</asrwt>
<pdfrwt beam="1">  1        2 0.68449714E-01 0.27258143E+03</pdfrwt>
<pdfrwt beam="2">  1       -2 0.64229448E-02 0.27258143E+03</pdfrwt>
<totfact> 0.93886196E+03</totfact>
</mgrwt>
</event>
<event>
 9    1  0.7986988E-001  0.2743232E+03  0.7818608E-02  0.1098831E+00
          1   -1    0    0  501    0  0.00000000000E+00  0.00000000000E+00  0.22400785564E+03  0.22400785564E+03  0.00000000000E+00 0. -1.
         -1   -1    0    0    0  501 -0.00000000000E+00 -0.00000000000E+00 -0.83985008262E+02  0.83985008262E+02  0.00000000000E+00 0. -1.
         35    2    1    2    0    0  0.00000000000E+00 -0.35527136788E-14  0.14002284738E+03  0.30799286390E+03  0.27432317880E+03 0.  0.
         25    2    3    3    0    0  0.47797281960E+02 -0.14137225942E+02  0.38963699178E+02  0.13877732135E+03  0.12351734188E+03 0.  0.
         25    2    3    3    0    0 -0.47797281960E+02  0.14137225942E+02  0.10105914820E+03  0.16921554256E+03  0.12623987915E+03 0.  0.
          5    1    4    4  502    0  0.20527911279E+02  0.51730807953E+02  0.37581326412E+02  0.67319519664E+02  0.47000000000E+01 0. -1.
         -5    1    4    4    0  502  0.27269370681E+02 -0.65868033895E+02  0.13823727658E+01  0.71457801681E+02  0.47000000000E+01 0. -1.
          5    1    5    5  503    0 -0.59641219179E+02 -0.15667306270E+02 -0.12891422167E+01  0.61857023842E+02  0.47000000000E+01 0.  1.
         -5    1    5    5    0  503  0.11843937220E+02  0.29804532213E+02  0.10234829042E+03  0.10735851872E+03  0.47000000000E+01 0.  1.
<mgrwt>
<rscale>  0 0.27432318E+03</rscale>
<asrwt>0</asrwt>
<pdfrwt beam="1">  1        1 0.34462747E-01 0.27432318E+03</pdfrwt>
<pdfrwt beam="2">  1       -1 0.12920771E-01 0.27432318E+03</pdfrwt>
<totfact> 0.51386960E+03</totfact>
</mgrwt>
</event>
<event>
 9    1  0.7986988E-001  0.2845344E+03  0.7818608E-02  0.1093238E+00
         -2   -1    0    0    0  501 -0.00000000000E+00  0.00000000000E+00  0.63715737409E+03  0.63715737409E+03  0.00000000000E+00 0. -1.
          2   -1    0    0  501    0  0.00000000000E+00 -0.00000000000E+00 -0.31766028471E+02  0.31766028471E+02  0.00000000000E+00 0. -1.
         35    2    1    2    0    0  0.71054273576E-14 -0.14210854715E-13  0.60539134561E+03  0.66892340256E+03  0.28453442172E+03 0.  0.
         25    2    3    3    0    0 -0.13976228684E+02  0.58012556293E+02  0.37662419530E+03  0.40129200190E+03  0.12501477773E+03 0.  0.
         25    2    3    3    0    0  0.13976228684E+02 -0.58012556293E+02  0.22876715031E+03  0.26763140065E+03  0.12542474196E+03 0.  0.
          5    1    4    4  502    0  0.38119940091E+02  0.68541344015E+02  0.16078022246E+03  0.17895087484E+03  0.47000000000E+01 0. -1.
         -5    1    4    4    0  502 -0.52096168776E+02 -0.10528787723E+02  0.21584397285E+03  0.22234112707E+03  0.47000000000E+01 0. -1.
          5    1    5    5  503    0 -0.45161339225E+02  0.24017868602E+01  0.12899402561E+03  0.13677303748E+03  0.47000000000E+01 0.  1.
         -5    1    5    5    0  503  0.59137567910E+02 -0.60414343153E+02  0.99773124708E+02  0.13085836317E+03  0.47000000000E+01 0.  1.
<mgrwt>
<rscale>  0 0.28453442E+03</rscale>
<asrwt>0</asrwt>
<pdfrwt beam="1">  1        2 0.48870818E-02 0.28453442E+03</pdfrwt>
<pdfrwt beam="2">  1       -2 0.98024202E-01 0.28453442E+03</pdfrwt>
<totfact> 0.14565047E+03</totfact>
</mgrwt>
</event>
<event>
 9    1  0.7986988E-001  0.2691769E+03  0.7818608E-02  0.1101752E+00
         -2   -1    0    0    0  501 -0.00000000000E+00  0.00000000000E+00  0.85374013931E+02  0.85374013931E+02  0.00000000000E+00 0.  1.
          2   -1    0    0  501    0  0.00000000000E+00 -0.00000000000E+00 -0.21217296352E+03  0.21217296352E+03  0.00000000000E+00 0.  1.
         35    2    1    2    0    0  0.00000000000E+00  0.00000000000E+00 -0.12679894959E+03  0.29754697745E+03  0.26917694956E+03 0.  0.
         25    2    3    3    0    0  0.13077182569E+02 -0.50498969114E+01 -0.10907467773E+02  0.12649167611E+03  0.12523840110E+03 0.  0.
         25    2    3    3    0    0 -0.13077182569E+02  0.50498969114E+01 -0.11589148182E+03  0.17105530134E+03  0.12503026192E+03 0.  0.
          5    1    4    4  502    0 -0.42546329282E+02  0.15525206802E+02  0.29787978534E+02  0.54411725269E+02  0.47000000000E+01 0.  1.
         -5    1    4    4    0  502  0.55623511851E+02 -0.20575103713E+02 -0.40695446307E+02  0.72079950844E+02  0.47000000000E+01 0.  1.
          5    1    5    5  503    0 -0.47624889219E+02 -0.43183734861E+02 -0.45633790554E+02  0.78977831510E+02  0.47000000000E+01 0. -1.
         -5    1    5    5    0  503  0.34547706650E+02  0.48233631772E+02 -0.70257691264E+02  0.92077469831E+02  0.47000000000E+01 0. -1.
<mgrwt>
<rscale>  0 0.26917695E+03</rscale>
<asrwt>0</asrwt>
<pdfrwt beam="1">  1        2 0.32641994E-01 0.26917695E+03</pdfrwt>
<pdfrwt beam="2">  1       -2 0.13134464E-01 0.26917695E+03</pdfrwt>
<totfact> 0.67505192E+03</totfact>
</mgrwt>
</event>
<event>
 9    1  0.7986988E-001  0.2751011E+03  0.7818608E-02  0.1098395E+00
          1   -1    0    0  501    0  0.00000000000E+00  0.00000000000E+00  0.30319669265E+03  0.30319669265E+03  0.00000000000E+00 0. -1.
         -1   -1    0    0    0  501 -0.00000000000E+00 -0.00000000000E+00 -0.62402231251E+02  0.62402231251E+02  0.00000000000E+00 0. -1.
         35    2    1    2    0    0  0.71054273576E-14 -0.17763568394E-14  0.24079446140E+03  0.36559892390E+03  0.27510107328E+03 0.  0.
         25    2    3    3    0    0 -0.31698639449E+02  0.20648737432E+01  0.58402979831E+02  0.14152414782E+03  0.12493641950E+03 0.  0.
         25    2    3    3    0    0  0.31698639449E+02 -0.20648737432E+01  0.18239148157E+03  0.22407477608E+03  0.12622909838E+03 0.  0.
          5    1    4    4  502    0 -0.40017196169E+02 -0.49269985182E+02  0.62980971250E+00  0.63650562365E+02  0.47000000000E+01 0. -1.
         -5    1    4    4    0  502  0.83185567202E+01  0.51334858925E+02  0.57773170119E+02  0.77873585460E+02  0.47000000000E+01 0. -1.
          5    1    5    5  503    0 -0.47107373069E+02  0.13256409870E+02  0.59108886077E+02  0.76881645491E+02  0.47000000000E+01 0. -1.
         -5    1    5    5    0  503  0.78806012518E+02 -0.15321283613E+02  0.12328259549E+03  0.14719313059E+03  0.47000000000E+01 0. -1.
<mgrwt>
<rscale>  0 0.27510107E+03</rscale>
<asrwt>0</asrwt>
<pdfrwt beam="1">  1        1 0.46645644E-01 0.27510107E+03</pdfrwt>
<pdfrwt beam="2">  1       -1 0.96003435E-02 0.27510107E+03</pdfrwt>
<totfact> 0.55775739E+03</totfact>
</mgrwt>
</event>
<event>
 9    1  0.7986988E-001  0.2768136E+03  0.7818608E-02  0.1097442E+00
          2   -1    0    0  501    0  0.00000000000E+00  0.00000000000E+00  0.29080508042E+04  0.29080508042E+04  0.00000000000E+00 0. -1.
         -2   -1    0    0    0  501 -0.00000000000E+00 -0.00000000000E+00 -0.65873841597E+01  0.65873841597E+01  0.00000000000E+00 0. -1.
         35    2    1    2    0    0  0.00000000000E+00  0.71054273576E-14  0.29014634200E+04  0.29146381883E+04  0.27681363986E+03 0.  0.
         25    2    3    3    0    0 -0.44802026519E+02 -0.97790586651E+01  0.18480008537E+04  0.18527894979E+04  0.12497566357E+03 0.  0.
         25    2    3    3    0    0  0.44802026519E+02  0.97790586651E+01  0.10534625663E+04  0.10618486904E+04  0.12504563685E+03 0.  0.
          5    1    4    4  502    0 -0.28491608003E+02  0.55762382471E+02  0.70771577840E+03  0.71049625476E+03  0.47000000000E+01 0. -1.
         -5    1    4    4    0  502 -0.16310418515E+02 -0.65541441136E+02  0.11402850753E+04  0.11422932431E+04  0.47000000000E+01 0. -1.
          5    1    5    5  503    0  0.25693626041E+02 -0.53215061155E+02  0.68179347763E+03  0.68436572189E+03  0.47000000000E+01 0.  1.
         -5    1    5    5    0  503  0.19108400477E+02  0.62994119820E+02  0.37166908864E+03  0.37748296856E+03  0.47000000000E+01 0.  1.
<mgrwt>
<rscale>  0 0.27681364E+03</rscale>
<asrwt>0</asrwt>
<pdfrwt beam="1">  1        2 0.44739141E+00 0.27681364E+03</pdfrwt>
<pdfrwt beam="2">  1       -2 0.10134460E-02 0.27681364E+03</pdfrwt>
<totfact> 0.49340397E+03</totfact>
</mgrwt>
</event>
<event>
 9    1  0.7986988E-001  0.2742926E+03  0.7818608E-02  0.1098848E+00
          2   -1    0    0  501    0  0.00000000000E+00  0.00000000000E+00  0.12043538098E+04  0.12043538098E+04  0.00000000000E+00 0. -1.
         -2   -1    0    0    0  501 -0.00000000000E+00 -0.00000000000E+00 -0.15617592580E+02  0.15617592580E+02  0.00000000000E+00 0. -1.
         35    2    1    2    0    0 -0.35527136788E-14 -0.71054273576E-14  0.11887362173E+04  0.12199714024E+04  0.27429259651E+03 0.  0.
         25    2    3    3    0    0  0.20905989786E+02  0.61113115362E+00  0.34088098776E+03  0.36351040535E+03  0.12450916872E+03 0.  0.
         25    2    3    3    0    0 -0.20905989786E+02 -0.61113115362E+00  0.84785522950E+03  0.85646099706E+03  0.11928753250E+03 0.  0.
          5    1    4    4  502    0  0.52579611033E+02  0.45358985145E+02  0.21877469462E+03  0.22957898431E+03  0.47000000000E+01 0.  1.
         -5    1    4    4    0  502 -0.31673621247E+02 -0.44747853991E+02  0.12210629313E+03  0.13393142104E+03  0.47000000000E+01 0.  1.
          5    1    5    5  503    0 -0.66139539317E+02 -0.23216082911E+02  0.47780609065E+03  0.48294324245E+03  0.47000000000E+01 0.  1.
         -5    1    5    5    0  503  0.45233549531E+02  0.22604951758E+02  0.37004913884E+03  0.37351775461E+03  0.47000000000E+01 0.  1.
<mgrwt>
<rscale>  0 0.27429260E+03</rscale>
<asrwt>0</asrwt>
<pdfrwt beam="1">  1        2 0.18528513E+00 0.27429260E+03</pdfrwt>
<pdfrwt beam="2">  1       -2 0.24027075E-02 0.27429260E+03</pdfrwt>
<totfact> 0.11694202E+04</totfact>
</mgrwt>
</event>
<event>
 9    1  0.7986988E-001  0.2736699E+03  0.7818608E-02  0.1099197E+00
          4   -1    0    0  501    0  0.00000000000E+00  0.00000000000E+00  0.28411212531E+03  0.28411212531E+03  0.00000000000E+00 0.  1.
         -4   -1    0    0    0  501 -0.00000000000E+00 -0.00000000000E+00 -0.65902871467E+02  0.65902871467E+02  0.00000000000E+00 0.  1.
         35    2    1    2    0    0  0.00000000000E+00 -0.71054273576E-14  0.21820925384E+03  0.35001499678E+03  0.27366990976E+03 0.  0.
         25    2    3    3    0    0  0.19223164160E+02  0.30500127441E+02  0.13964565185E+03  0.19045335933E+03  0.12438563496E+03 0.  0.
         25    2    3    3    0    0 -0.19223164160E+02 -0.30500127441E+02  0.78563601988E+02  0.15956163744E+03  0.13411893517E+03 0.  0.
          5    1    4    4  502    0  0.39829583301E+02  0.56118710948E+02  0.14126128427E+03  0.15720224508E+03  0.47000000000E+01 0. -1.
         -5    1    4    4    0  502 -0.20606419141E+02 -0.25618583506E+02 -0.16156324184E+01  0.33251114249E+02  0.47000000000E+01 0. -1.
          5    1    5    5  503    0  0.47107995953E+02  0.16500092609E+02  0.55789232080E+02  0.75006298101E+02  0.47000000000E+01 0.  1.
         -5    1    5    5    0  503 -0.66331160113E+02 -0.47000220050E+02  0.22774369909E+02  0.84555339344E+02  0.47000000000E+01 0.  1.
<mgrwt>
<rscale>  0 0.27366991E+03</rscale>
<asrwt>0</asrwt>
<pdfrwt beam="1">  1        4 0.43709557E-01 0.27366991E+03</pdfrwt>
<pdfrwt beam="2">  1       -4 0.10138903E-01 0.27366991E+03</pdfrwt>
<totfact> 0.70772004E+02</totfact>
</mgrwt>
</event>
<event>
 9    1  0.7986988E-001  0.2749954E+03  0.7818608E-02  0.1098454E+00
         -4   -1    0    0    0  501 -0.00000000000E+00  0.00000000000E+00  0.32380931181E+03  0.32380931181E+03  0.00000000000E+00 0.  1.
          4   -1    0    0  501    0  0.00000000000E+00 -0.00000000000E+00 -0.58385033136E+02  0.58385033136E+02  0.00000000000E+00 0.  1.
         35    2    1    2    0    0 -0.35527136788E-14  0.00000000000E+00  0.26542427867E+03  0.38219434494E+03  0.27499539923E+03 0.  0.
         25    2    3    3    0    0 -0.10853030476E+02 -0.29375919525E+02  0.58453307778E+02  0.13886169326E+03  0.12200429397E+03 0.  0.
         25    2    3    3    0    0  0.10853030476E+02  0.29375919525E+02  0.20697097089E+03  0.24333265168E+03  0.12406878601E+03 0.  0.
          5    1    4    4  502    0  0.34403749372E+02 -0.61073298188E+02  0.37018921236E+02  0.79410680968E+02  0.47000000000E+01 0. -1.
         -5    1    4    4    0  502 -0.45256779848E+02  0.31697378663E+02  0.21434386542E+02  0.59451012294E+02  0.47000000000E+01 0. -1.
          5    1    5    5  503    0 -0.10325144235E+02  0.74961854953E+02  0.14285431588E+03  0.16172610757E+03  0.47000000000E+01 0.  1.
         -5    1    5    5    0  503  0.21178174711E+02 -0.45585935428E+02  0.64116655010E+02  0.81606544116E+02  0.47000000000E+01 0.  1.
<mgrwt>
<rscale>  0 0.27499540E+03</rscale>
<asrwt>0</asrwt>
<pdfrwt beam="1">  1        4 0.89823130E-02 0.27499540E+03</pdfrwt>
<pdfrwt beam="2">  1       -4 0.49816816E-01 0.27499540E+03</pdfrwt>
<totfact> 0.66632109E+02</totfact>
</mgrwt>
</event>
<event>
 9    1  0.7986988E-001  0.2886865E+03  0.7818608E-02  0.1091037E+00
          2   -1    0    0  501    0  0.00000000000E+00  0.00000000000E+00  0.64086284801E+03  0.64086284801E+03  0.00000000000E+00 0. -1.
         -2   -1    0    0    0  501 -0.00000000000E+00 -0.00000000000E+00 -0.32510822821E+02  0.32510822821E+02  0.00000000000E+00 0. -1.
         35    2    1    2    0    0  0.71054273576E-14 -0.17763568394E-14  0.60835202519E+03  0.67337367083E+03  0.28868653245E+03 0.  0.
         25    2    3    3    0    0  0.61407498515E+02 -0.91520779208E+01  0.38719244808E+03  0.41157819807E+03  0.12499591942E+03 0.  0.
         25    2    3    3    0    0 -0.61407498515E+02  0.91520779208E+01  0.22115957711E+03  0.26179547276E+03  0.12558132667E+03 0.  0.
          5    1    4    4  502    0  0.41215637835E+02 -0.55630784290E+01  0.24952546936E+02  0.48727776908E+02  0.47000000000E+01 0.  1.
         -5    1    4    4    0  502  0.20191860679E+02 -0.35889994918E+01  0.36223990115E+03  0.36285042116E+03  0.47000000000E+01 0.  1.
          5    1    5    5  503    0  0.27495053301E+02 -0.42405923995E+01  0.64030433623E+01  0.28931808520E+02  0.47000000000E+01 0.  1.
         -5    1    5    5    0  503 -0.88902551816E+02  0.13392670320E+02  0.21475653374E+03  0.23286366424E+03  0.47000000000E+01 0.  1.
<mgrwt>
<rscale>  0 0.28868653E+03</rscale>
<asrwt>0</asrwt>
<pdfrwt beam="1">  1        2 0.98594275E-01 0.28868653E+03</pdfrwt>
<pdfrwt beam="2">  1       -2 0.50016655E-02 0.28868653E+03</pdfrwt>
<totfact> 0.91141417E+03</totfact>
</mgrwt>
</event>
<event>
 9    1  0.7986988E-001  0.2721583E+03  0.7818608E-02  0.1100051E+00
          1   -1    0    0  501    0  0.00000000000E+00  0.00000000000E+00  0.11827697931E+04  0.11827697931E+04  0.00000000000E+00 0.  1.
         -1   -1    0    0    0  501 -0.00000000000E+00 -0.00000000000E+00 -0.15656080875E+02  0.15656080875E+02  0.00000000000E+00 0.  1.
         35    2    1    2    0    0  0.00000000000E+00  0.00000000000E+00  0.11671137122E+04  0.11984258739E+04  0.27215833286E+03 0.  0.
         25    2    3    3    0    0  0.15117050894E+02  0.28238302180E+02  0.72930888208E+03  0.74022510215E+03  0.12253909350E+03 0.  0.
         25    2    3    3    0    0 -0.15117050894E+02 -0.28238302180E+02  0.43780483009E+03  0.45820077177E+03  0.13133526207E+03 0.  0.
          5    1    4    4  502    0  0.64492916446E+02  0.18473654573E+02  0.27461139871E+03  0.28272623240E+03  0.47000000000E+01 0. -1.
         -5    1    4    4    0  502 -0.49375865552E+02  0.97646476072E+01  0.45469748337E+03  0.45749886975E+03  0.47000000000E+01 0. -1.
          5    1    5    5  503    0  0.44554968702E+02  0.27534005542E+02  0.19591874342E+03  0.20285342176E+03  0.47000000000E+01 0. -1.
         -5    1    5    5    0  503 -0.59672019596E+02 -0.55772307721E+02  0.24188608667E+03  0.25534735001E+03  0.47000000000E+01 0. -1.
<mgrwt>
<rscale>  0 0.27215833E+03</rscale>
<asrwt>0</asrwt>
<pdfrwt beam="1">  1        1 0.18196451E+00 0.27215833E+03</pdfrwt>
<pdfrwt beam="2">  1       -1 0.24086288E-02 0.27215833E+03</pdfrwt>
<totfact> 0.61398984E+03</totfact>
</mgrwt>
</event>
<event>
 9    1  0.7986988E-001  0.2779832E+03  0.7818608E-02  0.1096796E+00
          2   -1    0    0  501    0  0.00000000000E+00  0.00000000000E+00  0.51706416741E+02  0.51706416741E+02  0.00000000000E+00 0.  1.
         -2   -1    0    0    0  501 -0.00000000000E+00 -0.00000000000E+00 -0.37362232281E+03  0.37362232281E+03  0.00000000000E+00 0.  1.
         35    2    1    2    0    0 -0.35527136788E-14 -0.71054273576E-14 -0.32191590607E+03  0.42532873955E+03  0.27798324789E+03 0.  0.
         25    2    3    3    0    0  0.50644725866E+01 -0.13704623683E+02 -0.95379412789E+02  0.16624277157E+03  0.13537341364E+03 0.  0.
         25    2    3    3    0    0 -0.50644725866E+01  0.13704623683E+02 -0.22653649328E+03  0.25908596798E+03  0.12487309728E+03 0.  0.
          5    1    4    4  502    0 -0.14756015384E+02 -0.70198152550E+02 -0.72160776459E+02  0.10185670459E+03  0.47000000000E+01 0. -1.
         -5    1    4    4    0  502  0.19820487971E+02  0.56493528868E+02 -0.23218636330E+02  0.64386066974E+02  0.47000000000E+01 0. -1.
          5    1    5    5  503    0  0.37914632415E+02 -0.33680351146E+02 -0.15425789183E+03  0.16244836902E+03  0.47000000000E+01 0.  1.
         -5    1    5    5    0  503 -0.42979105001E+02  0.47384974829E+02 -0.72278601446E+02  0.96637598963E+02  0.47000000000E+01 0.  1.
<mgrwt>
<rscale>  0 0.27798325E+03</rscale>
<asrwt>0</asrwt>
<pdfrwt beam="1">  1        2 0.79548332E-02 0.27798325E+03</pdfrwt>
<pdfrwt beam="2">  1       -2 0.57480358E-01 0.27798325E+03</pdfrwt>
<totfact> 0.24699756E+03</totfact>
</mgrwt>
</event>
<event>
 9    1  0.7986988E-001  0.2757942E+03  0.7818608E-02  0.1098008E+00
          1   -1    0    0  501    0  0.00000000000E+00  0.00000000000E+00  0.81437068585E+03  0.81437068585E+03  0.00000000000E+00 0. -1.
         -1   -1    0    0    0  501 -0.00000000000E+00 -0.00000000000E+00 -0.23350063945E+02  0.23350063945E+02  0.00000000000E+00 0. -1.
         35    2    1    2    0    0 -0.71054273576E-14  0.00000000000E+00  0.79102062191E+03  0.83772074980E+03  0.27579418115E+03 0.  0.
         25    2    3    3    0    0 -0.41429843519E+02 -0.31018634869E+02  0.41813362796E+03  0.44102305335E+03  0.13033424382E+03 0.  0.
         25    2    3    3    0    0  0.41429843519E+02  0.31018634869E+02  0.37288699395E+03  0.39669769645E+03  0.12508303030E+03 0.  0.
          5    1    4    4  502    0 -0.78214695737E+02 -0.55301232563E+02  0.28703210263E+03  0.30263060468E+03  0.47000000000E+01 0.  1.
         -5    1    4    4    0  502  0.36784852218E+02  0.24282597694E+02  0.13110152533E+03  0.13839244867E+03  0.47000000000E+01 0.  1.
          5    1    5    5  503    0 -0.10069140658E+02  0.25189650615E+02  0.32441088830E+03  0.32557705776E+03  0.47000000000E+01 0.  1.
         -5    1    5    5    0  503  0.51498984178E+02  0.58289842545E+01  0.48476105652E+02  0.71120638692E+02  0.47000000000E+01 0.  1.
<mgrwt>
<rscale>  0 0.27579418E+03</rscale>
<asrwt>0</asrwt>
<pdfrwt beam="1">  1        1 0.12528778E+00 0.27579418E+03</pdfrwt>
<pdfrwt beam="2">  1       -1 0.35923182E-02 0.27579418E+03</pdfrwt>
<totfact> 0.64585264E+03</totfact>
</mgrwt>
</event>
<event>
 9    1  0.7986988E-001  0.2717454E+03  0.7818608E-02  0.1100285E+00
          2   -1    0    0  501    0  0.00000000000E+00  0.00000000000E+00  0.15320022520E+03  0.15320022520E+03  0.00000000000E+00 0. -1.
         -2   -1    0    0    0  501 -0.00000000000E+00 -0.00000000000E+00 -0.12050495175E+03  0.12050495175E+03  0.00000000000E+00 0. -1.
         35    2    1    2    0    0  0.35527136788E-14  0.35527136788E-14  0.32695273453E+02  0.27370517695E+03  0.27174536424E+03 0.  0.
         25    2    3    3    0    0  0.17244231640E+02  0.27417582831E+02 -0.26324284038E+02  0.13240703325E+03  0.12565654440E+03 0.  0.
         25    2    3    3    0    0 -0.17244231640E+02 -0.27417582831E+02  0.59019557491E+02  0.14129814370E+03  0.12422869988E+03 0.  0.
          5    1    4    4  502    0 -0.30641845777E+02 -0.69685716349E+01  0.34959202566E+02  0.47241079023E+02  0.47000000000E+01 0. -1.
         -5    1    4    4    0  502  0.47886077417E+02  0.34386154466E+02 -0.61283486604E+02  0.85165954229E+02  0.47000000000E+01 0. -1.
          5    1    5    5  503    0 -0.13304152890E+02 -0.10662442309E+02  0.97389689994E+02  0.98982472576E+02  0.47000000000E+01 0.  1.
         -5    1    5    5    0  503 -0.39400787501E+01 -0.16755140522E+02 -0.38370132503E+02  0.42315671125E+02  0.47000000000E+01 0.  1.
<mgrwt>
<rscale>  0 0.27174536E+03</rscale>
<asrwt>0</asrwt>
<pdfrwt beam="1">  1        2 0.23569265E-01 0.27174536E+03</pdfrwt>
<pdfrwt beam="2">  1       -2 0.18539223E-01 0.27174536E+03</pdfrwt>
<totfact> 0.54637723E+03</totfact>
</mgrwt>
</event>
<event>
 9    1  0.7986988E-001  0.2742424E+03  0.7818608E-02  0.1098876E+00
         -1   -1    0    0    0  501 -0.00000000000E+00  0.00000000000E+00  0.26834843192E+02  0.26834843192E+02  0.00000000000E+00 0. -1.
          1   -1    0    0  501    0  0.00000000000E+00 -0.00000000000E+00 -0.70066457110E+03  0.70066457110E+03  0.00000000000E+00 0. -1.
         35    2    1    2    0    0  0.00000000000E+00 -0.71054273576E-14 -0.67382972791E+03  0.72749941430E+03  0.27424240296E+03 0.  0.
         25    2    3    3    0    0 -0.23052864924E+02 -0.32660936275E+02 -0.23737013171E+03  0.27152807576E+03  0.12563735575E+03 0.  0.
         25    2    3    3    0    0  0.23052864924E+02  0.32660936275E+02 -0.43645959620E+03  0.45597133853E+03  0.12575655493E+03 0.  0.
          5    1    4    4  502    0 -0.45048508674E+02 -0.71230641315E+02 -0.12726210112E+03  0.15271183575E+03  0.47000000000E+01 0.  1.
         -5    1    4    4    0  502  0.21995643750E+02  0.38569705040E+02 -0.11010803059E+03  0.11881624001E+03  0.47000000000E+01 0.  1.
          5    1    5    5  503    0 -0.49015381527E+02  0.92679723876E+01 -0.24377841821E+03  0.24887428578E+03  0.47000000000E+01 0.  1.
         -5    1    5    5    0  503  0.72068246452E+02  0.23392963887E+02 -0.19268117799E+03  0.20709705275E+03  0.47000000000E+01 0.  1.
<mgrwt>
<rscale>  0 0.27424240E+03</rscale>
<asrwt>0</asrwt>
<pdfrwt beam="1">  1        1 0.10779453E+00 0.27424240E+03</pdfrwt>
<pdfrwt beam="2">  1       -1 0.41284381E-02 0.27424240E+03</pdfrwt>
<totfact> 0.65847709E+03</totfact>
</mgrwt>
</event>
<event>
 9    1  0.7986988E-001  0.2830647E+03  0.7818608E-02  0.1094027E+00
          3   -1    0    0  501    0  0.00000000000E+00  0.00000000000E+00  0.41253028607E+03  0.41253028607E+03  0.00000000000E+00 0.  1.
         -3   -1    0    0    0  501 -0.00000000000E+00 -0.00000000000E+00 -0.48557435354E+02  0.48557435354E+02  0.00000000000E+00 0.  1.
         35    2    1    2    0    0 -0.35527136788E-14  0.00000000000E+00  0.36397285072E+03  0.46108772143E+03  0.28306474664E+03 0.  0.
         25    2    3    3    0    0  0.23932073919E+02  0.54029639654E+01  0.28491341608E+03  0.31201521005E+03  0.12480344731E+03 0.  0.
         25    2    3    3    0    0 -0.23932073919E+02 -0.54029639654E+01  0.79059434646E+02  0.14907251138E+03  0.12397694649E+03 0.  0.
          5    1    4    4  502    0 -0.28528732429E+02 -0.41904294024E+02  0.16590312095E+03  0.17353902723E+03  0.47000000000E+01 0. -1.
         -5    1    4    4    0  502  0.52460806348E+02  0.47307257990E+02  0.11901029513E+03  0.13847618282E+03  0.47000000000E+01 0. -1.
          5    1    5    5  503    0 -0.62135114293E+02 -0.24350997523E+02  0.82283917597E+02  0.10604940643E+03  0.47000000000E+01 0. -1.
         -5    1    5    5    0  503  0.38203040374E+02  0.18948033557E+02 -0.32244829516E+01  0.43023104953E+02  0.47000000000E+01 0. -1.
<mgrwt>
<rscale>  0 0.28306475E+03</rscale>
<asrwt>0</asrwt>
<pdfrwt beam="1">  1        3 0.63466195E-01 0.28306475E+03</pdfrwt>
<pdfrwt beam="2">  1       -3 0.74703750E-02 0.28306475E+03</pdfrwt>
<totfact> 0.74501012E+02</totfact>
</mgrwt>
</event>
<event>
 9    1  0.7986988E-001  0.2777924E+03  0.7818608E-02  0.1096901E+00
         -1   -1    0    0    0  501 -0.00000000000E+00  0.00000000000E+00  0.43889264342E+02  0.43889264342E+02  0.00000000000E+00 0.  1.
          1   -1    0    0  501    0  0.00000000000E+00 -0.00000000000E+00 -0.43956437319E+03  0.43956437319E+03  0.00000000000E+00 0.  1.
         35    2    1    2    0    0  0.00000000000E+00  0.00000000000E+00 -0.39567510885E+03  0.48345363753E+03  0.27779241869E+03 0.  0.
         25    2    3    3    0    0  0.26105219931E+02 -0.11052018201E+02 -0.10175037737E+03  0.16336918017E+03  0.12463033387E+03 0.  0.
         25    2    3    3    0    0 -0.26105219931E+02  0.11052018201E+02 -0.29392473148E+03  0.32008445736E+03  0.12352603958E+03 0.  0.
          5    1    4    4  502    0 -0.34456975867E+01  0.35819970514E+02 -0.10146489600E+03  0.10775972457E+03  0.47000000000E+01 0. -1.
         -5    1    4    4    0  502  0.29550917517E+02 -0.46871988715E+02 -0.28548136607E+00  0.55609455598E+02  0.47000000000E+01 0. -1.
          5    1    5    5  503    0 -0.43800429412E+02 -0.44571388080E+02 -0.19817460044E+03  0.20784693530E+03  0.47000000000E+01 0. -1.
         -5    1    5    5    0  503  0.17695209482E+02  0.55623406282E+02 -0.95750131039E+02  0.11223752206E+03  0.47000000000E+01 0. -1.
<mgrwt>
<rscale>  0 0.27779242E+03</rscale>
<asrwt>0</asrwt>
<pdfrwt beam="1">  1        1 0.67625288E-01 0.27779242E+03</pdfrwt>
<pdfrwt beam="2">  1       -1 0.67521945E-02 0.27779242E+03</pdfrwt>
<totfact> 0.59517794E+03</totfact>
</mgrwt>
</event>
<event>
 9    1  0.7986988E-001  0.2894591E+03  0.7818608E-02  0.1090632E+00
         -1   -1    0    0    0  501 -0.00000000000E+00  0.00000000000E+00  0.33521568157E+02  0.33521568157E+02  0.00000000000E+00 0.  1.
          1   -1    0    0  501    0  0.00000000000E+00 -0.00000000000E+00 -0.62487066803E+03  0.62487066803E+03  0.00000000000E+00 0.  1.
         35    2    1    2    0    0  0.00000000000E+00  0.00000000000E+00 -0.59134909988E+03  0.65839223619E+03  0.28945911413E+03 0.  0.
         25    2    3    3    0    0  0.71348433859E+02 -0.13552865156E+02 -0.29706574193E+03  0.33045884422E+03  0.12522265580E+03 0.  0.
         25    2    3    3    0    0 -0.71348433859E+02  0.13552865156E+02 -0.29428335794E+03  0.32793339197E+03  0.12515324861E+03 0.  0.
          5    1    4    4  502    0 -0.12110501950E+02 -0.50225849815E+02 -0.84990857843E+02  0.99573270329E+02  0.47000000000E+01 0. -1.
         -5    1    4    4    0  502  0.83458935809E+02  0.36672984659E+02 -0.21207488409E+03  0.23088557389E+03  0.47000000000E+01 0. -1.
          5    1    5    5  503    0  0.77629099885E+01  0.37616545771E+02 -0.24683134259E+02  0.45897869276E+02  0.47000000000E+01 0. -1.
         -5    1    5    5    0  503 -0.79111343847E+02 -0.24063680615E+02 -0.26960022368E+03  0.28203552269E+03  0.47000000000E+01 0. -1.
<mgrwt>
<rscale>  0 0.28945911E+03</rscale>
<asrwt>0</asrwt>
<pdfrwt beam="1">  1        1 0.96133952E-01 0.28945911E+03</pdfrwt>
<pdfrwt beam="2">  1       -1 0.51571642E-02 0.28945911E+03</pdfrwt>
<totfact> 0.55709189E+03</totfact>
</mgrwt>
</event>
<event>
 9    1  0.7986988E-001  0.2692386E+03  0.7818608E-02  0.1101716E+00
          2   -1    0    0  501    0  0.00000000000E+00  0.00000000000E+00  0.20137477206E+03  0.20137477206E+03  0.00000000000E+00 0. -1.
         -2   -1    0    0    0  501 -0.00000000000E+00 -0.00000000000E+00 -0.89993160137E+02  0.89993160137E+02  0.00000000000E+00 0. -1.
         35    2    1    2    0    0  0.00000000000E+00  0.35527136788E-14  0.11138161193E+03  0.29136793220E+03  0.26923857161E+03 0.  0.
         25    2    3    3    0    0  0.50713530606E+02 -0.53749224814E+01  0.50580180155E+02  0.14425526922E+03  0.12510186288E+03 0.  0.
         25    2    3    3    0    0 -0.50713530606E+02  0.53749224814E+01  0.60801431773E+02  0.14711266298E+03  0.12387319938E+03 0.  0.
          5    1    4    4  502    0 -0.27791644105E+02 -0.40189662943E+02  0.18042825203E+02  0.52299311954E+02  0.47000000000E+01 0.  1.
         -5    1    4    4    0  502  0.78505174711E+02  0.34814740462E+02  0.32537354952E+02  0.91955957268E+02  0.47000000000E+01 0.  1.
          5    1    5    5  503    0  0.41280663195E+02  0.48586982039E+01  0.18003491684E+02  0.45540265863E+02  0.47000000000E+01 0.  1.
         -5    1    5    5    0  503 -0.91994193800E+02  0.51622427747E+00  0.42797940089E+02  0.10157239712E+03  0.47000000000E+01 0.  1.
<mgrwt>
<rscale>  0 0.26923857E+03</rscale>
<asrwt>0</asrwt>
<pdfrwt beam="1">  1        2 0.30980734E-01 0.26923857E+03</pdfrwt>
<pdfrwt beam="2">  1       -2 0.13845102E-01 0.26923857E+03</pdfrwt>
<totfact> 0.65575489E+03</totfact>
</mgrwt>
</event>
<event>
 9    1  0.7986988E-001  0.2762169E+03  0.7818608E-02  0.1097773E+00
          1   -1    0    0  501    0  0.00000000000E+00  0.00000000000E+00  0.10754719041E+03  0.10754719041E+03  0.00000000000E+00 0.  1.
         -1   -1    0    0    0  501 -0.00000000000E+00 -0.00000000000E+00 -0.17735412159E+03  0.17735412159E+03  0.00000000000E+00 0.  1.
         35    2    1    2    0    0  0.14210854715E-13  0.00000000000E+00 -0.69806931180E+02  0.28490131200E+03  0.27621685310E+03 0.  0.
         25    2    3    3    0    0  0.39782672224E+02  0.15043653777E+02 -0.75747225020E+02  0.15240549991E+03  0.12522308804E+03 0.  0.
         25    2    3    3    0    0 -0.39782672224E+02 -0.15043653777E+02  0.59402938398E+01  0.13249581209E+03  0.12534305167E+03 0.  0.
          5    1    4    4  502    0  0.54783315617E+02 -0.32626445631E+02 -0.29800409484E+01  0.64005212824E+02  0.47000000000E+01 0. -1.
         -5    1    4    4    0  502 -0.15000643393E+02  0.47670099408E+02 -0.72767184072E+02  0.88400287090E+02  0.47000000000E+01 0. -1.
          5    1    5    5  503    0 -0.77776541402E+02 -0.33796561039E+02 -0.12867598838E+02  0.85901472807E+02  0.47000000000E+01 0. -1.
         -5    1    5    5    0  503  0.37993869178E+02  0.18752907262E+02  0.18807892678E+02  0.46594339279E+02  0.47000000000E+01 0. -1.
<mgrwt>
<rscale>  0 0.27621685E+03</rscale>
<asrwt>0</asrwt>
<pdfrwt beam="1">  1        1 0.16545722E-01 0.27621685E+03</pdfrwt>
<pdfrwt beam="2">  1       -1 0.27285249E-01 0.27621685E+03</pdfrwt>
<totfact> 0.39109890E+03</totfact>
</mgrwt>
</event>
<event>
 9    1  0.7986988E-001  0.2743593E+03  0.7818608E-02  0.1098810E+00
          1   -1    0    0  501    0  0.00000000000E+00  0.00000000000E+00  0.19542235011E+03  0.19542235011E+03  0.00000000000E+00 0. -1.
         -1   -1    0    0    0  501 -0.00000000000E+00 -0.00000000000E+00 -0.96295295500E+02  0.96295295500E+02  0.00000000000E+00 0. -1.
         35    2    1    2    0    0  0.00000000000E+00  0.00000000000E+00  0.99127054606E+02  0.29171764561E+03  0.27435927505E+03 0.  0.
         25    2    3    3    0    0  0.38055749944E+01  0.45659777479E+02  0.15080557880E+02  0.13423607690E+03  0.12527012188E+03 0.  0.
         25    2    3    3    0    0 -0.38055749944E+01 -0.45659777479E+02  0.84046496726E+02  0.15748156871E+03  0.12504932303E+03 0.  0.
          5    1    4    4  502    0  0.56387074788E+02  0.48563199972E+02  0.28270728654E+02  0.79744659340E+02  0.47000000000E+01 0. -1.
         -5    1    4    4    0  502 -0.52581499793E+02 -0.29034224928E+01 -0.13190170774E+02  0.54491417560E+02  0.47000000000E+01 0. -1.
          5    1    5    5  503    0  0.53626677647E+02 -0.28139199952E+02  0.75101973873E+02  0.96592088749E+02  0.47000000000E+01 0.  1.
         -5    1    5    5    0  503 -0.57432252642E+02 -0.17520577528E+02  0.89445228536E+01  0.60889479957E+02  0.47000000000E+01 0.  1.
<mgrwt>
<rscale>  0 0.27435928E+03</rscale>
<asrwt>0</asrwt>
<pdfrwt beam="1">  1        1 0.30064977E-01 0.27435928E+03</pdfrwt>
<pdfrwt beam="2">  1       -1 0.14814661E-01 0.27435928E+03</pdfrwt>
<totfact> 0.49181227E+03</totfact>
</mgrwt>
</event>
<event>
 9    1  0.7986988E-001  0.2750789E+03  0.7818608E-02  0.1098407E+00
         -2   -1    0    0    0  501 -0.00000000000E+00  0.00000000000E+00  0.62065130004E+01  0.62065130004E+01  0.00000000000E+00 0.  1.
          2   -1    0    0  501    0  0.00000000000E+00 -0.00000000000E+00 -0.30479444879E+04  0.30479444879E+04  0.00000000000E+00 0.  1.
         35    2    1    2    0    0  0.00000000000E+00 -0.35527136788E-14 -0.30417379749E+04  0.30541510009E+04  0.27507894931E+03 0.  0.
         25    2    3    3    0    0 -0.36380823332E+02 -0.31809221729E+02 -0.11823196032E+04  0.11898669404E+04  0.12477299741E+03 0.  0.
         25    2    3    3    0    0  0.36380823332E+02  0.31809221729E+02 -0.18594183717E+04  0.18642840605E+04  0.12563035573E+03 0.  0.
          5    1    4    4  502    0 -0.17707802956E+02 -0.78892150921E+02 -0.82078695589E+03  0.82477321411E+03  0.47000000000E+01 0.  1.
         -5    1    4    4    0  502 -0.18673020376E+02  0.47082929192E+02 -0.36153264733E+03  0.36509372632E+03  0.47000000000E+01 0.  1.
          5    1    5    5  503    0  0.26559466103E+01  0.31988964346E+02 -0.11380394178E+03  0.11833754712E+03  0.47000000000E+01 0. -1.
         -5    1    5    5    0  503  0.33724876722E+02 -0.17974261718E+00 -0.17456144299E+04  0.17459465134E+04  0.47000000000E+01 0. -1.
<mgrwt>
<rscale>  0 0.27507895E+03</rscale>
<asrwt>0</asrwt>
<pdfrwt beam="1">  1        2 0.46891461E+00 0.27507895E+03</pdfrwt>
<pdfrwt beam="2">  1       -2 0.95484801E-03 0.27507895E+03</pdfrwt>
<totfact> 0.44485065E+03</totfact>
</mgrwt>
</event>
<event>
 9    1  0.7986988E-001  0.2829326E+03  0.7818608E-02  0.1094098E+00
          2   -1    0    0  501    0  0.00000000000E+00  0.00000000000E+00  0.11978108113E+04  0.11978108113E+04  0.00000000000E+00 0.  1.
         -2   -1    0    0    0  501 -0.00000000000E+00 -0.00000000000E+00 -0.16707738173E+02  0.16707738173E+02  0.00000000000E+00 0.  1.
         35    2    1    2    0    0  0.00000000000E+00  0.35527136788E-14  0.11811030732E+04  0.12145185495E+04  0.28293256735E+03 0.  0.
         25    2    3    3    0    0 -0.32868482243E+02 -0.94853844900E+01  0.83205587337E+03  0.84223204972E+03  0.12596642218E+03 0.  0.
         25    2    3    3    0    0  0.32868482243E+02  0.94853844900E+01  0.34904719980E+03  0.37228649980E+03  0.12487185672E+03 0.  0.
          5    1    4    4  502    0 -0.87654043629E+01 -0.16734948677E+01  0.80427945997E+03  0.80434269601E+03  0.47000000000E+01 0.  1.
         -5    1    4    4    0  502 -0.24103077880E+02 -0.78118896224E+01  0.27776413402E+02  0.37889353706E+02  0.47000000000E+01 0.  1.
          5    1    5    5  503    0 -0.24292105100E+02  0.52138502936E+02  0.16831491447E+03  0.17793406164E+03  0.47000000000E+01 0. -1.
         -5    1    5    5    0  503  0.57160587343E+02 -0.42653118446E+02  0.18073228534E+03  0.19435243817E+03  0.47000000000E+01 0. -1.
<mgrwt>
<rscale>  0 0.28293257E+03</rscale>
<asrwt>0</asrwt>
<pdfrwt beam="1">  1        2 0.18427852E+00 0.28293257E+03</pdfrwt>
<pdfrwt beam="2">  1       -2 0.25704222E-02 0.28293257E+03</pdfrwt>
<totfact> 0.10682449E+04</totfact>
</mgrwt>
</event>
<event>
 9    1  0.7986988E-001  0.2544113E+03  0.7818608E-02  0.1110548E+00
         -2   -1    0    0    0  501 -0.00000000000E+00  0.00000000000E+00  0.75662506444E+02  0.75662506444E+02  0.00000000000E+00 0.  1.
          2   -1    0    0  501    0  0.00000000000E+00 -0.00000000000E+00 -0.21386128690E+03  0.21386128690E+03  0.00000000000E+00 0.  1.
         35    2    1    2    0    0  0.00000000000E+00  0.35527136788E-14 -0.13819878046E+03  0.28952379334E+03  0.25441132835E+03 0.  0.
         25    2    3    3    0    0 -0.22559577342E+02  0.12085567326E+02 -0.46790907569E+02  0.13270275893E+03  0.12151394048E+03 0.  0.
         25    2    3    3    0    0  0.22559577342E+02 -0.12085567326E+02 -0.91407872886E+02  0.15682103441E+03  0.12482965249E+03 0.  0.
          5    1    4    4  502    0 -0.14252689501E+02 -0.53371498849E+02 -0.79916359737E+01  0.56014393623E+02  0.47000000000E+01 0. -1.
         -5    1    4    4    0  502 -0.83068878408E+01  0.65457066175E+02 -0.38799271595E+02  0.76688365311E+02  0.47000000000E+01 0. -1.
          5    1    5    5  503    0 -0.44298034614E+02 -0.28108880805E+02 -0.63423553695E+02  0.82444297644E+02  0.47000000000E+01 0. -1.
         -5    1    5    5    0  503  0.66857611956E+02  0.16023313479E+02 -0.27984319191E+02  0.74376736766E+02  0.47000000000E+01 0. -1.
<mgrwt>
<rscale>  0 0.25441133E+03</rscale>
<asrwt>0</asrwt>
<pdfrwt beam="1">  1        2 0.32901736E-01 0.25441133E+03</pdfrwt>
<pdfrwt beam="2">  1       -2 0.11640386E-01 0.25441133E+03</pdfrwt>
<totfact> 0.81178864E+03</totfact>
</mgrwt>
</event>
<event>
 9    1  0.7986988E-001  0.2873168E+03  0.7818608E-02  0.1091758E+00
         -2   -1    0    0    0  501 -0.00000000000E+00  0.00000000000E+00  0.15090946442E+03  0.15090946442E+03  0.00000000000E+00 0.  1.
          2   -1    0    0  501    0  0.00000000000E+00 -0.00000000000E+00 -0.13675577971E+03  0.13675577971E+03  0.00000000000E+00 0.  1.
         35    2    1    2    0    0  0.35527136788E-14  0.14210854715E-13  0.14153684714E+02  0.28766524413E+03  0.28731683886E+03 0.  0.
         25    2    3    3    0    0 -0.17597577373E+02  0.53588712090E+02  0.49439165276E+02  0.14593556553E+03  0.12518599534E+03 0.  0.
         25    2    3    3    0    0  0.17597577373E+02 -0.53588712090E+02 -0.35285480562E+02  0.14172967861E+03  0.12514316548E+03 0.  0.
          5    1    4    4  502    0  0.34051145353E+02 -0.59372879517E+01 -0.20501725051E+02  0.40461619075E+02  0.47000000000E+01 0.  1.
         -5    1    4    4    0  502 -0.51648722726E+02  0.59526000042E+02  0.69940890328E+02  0.10547394645E+03  0.47000000000E+01 0.  1.
          5    1    5    5  503    0 -0.27105380710E+02 -0.63453700534E+02 -0.58136501420E+02  0.90349413790E+02  0.47000000000E+01 0. -1.
         -5    1    5    5    0  503  0.44702958084E+02  0.98649884442E+01  0.22851020858E+02  0.51380264817E+02  0.47000000000E+01 0. -1.
<mgrwt>
<rscale>  0 0.28731684E+03</rscale>
<asrwt>0</asrwt>
<pdfrwt beam="1">  1        2 0.21039351E-01 0.28731684E+03</pdfrwt>
<pdfrwt beam="2">  1       -2 0.23216841E-01 0.28731684E+03</pdfrwt>
<totfact> 0.42272313E+03</totfact>
</mgrwt>
</event>
<event>
 9    1  0.7986988E-001  0.2744026E+03  0.7818608E-02  0.1098786E+00
         -1   -1    0    0    0  501 -0.00000000000E+00  0.00000000000E+00  0.58146221711E+02  0.58146221711E+02  0.00000000000E+00 0.  1.
          1   -1    0    0  501    0  0.00000000000E+00 -0.00000000000E+00 -0.32373904506E+03  0.32373904506E+03  0.00000000000E+00 0.  1.
         35    2    1    2    0    0 -0.71054273576E-14 -0.17763568394E-14 -0.26559282335E+03  0.38188526677E+03  0.27440264059E+03 0.  0.
         25    2    3    3    0    0  0.55081066666E+02  0.11037751580E+01 -0.15157355153E+03  0.20397864334E+03  0.12489036468E+03 0.  0.
         25    2    3    3    0    0 -0.55081066666E+02 -0.11037751580E+01 -0.11401927182E+03  0.17790662344E+03  0.12496091425E+03 0.  0.
          5    1    4    4  502    0 -0.34775089903E+02  0.25377576820E+02 -0.48146928064E+02  0.64757586158E+02  0.47000000000E+01 0. -1.
         -5    1    4    4    0  502  0.89856156569E+02 -0.24273801662E+02 -0.10342662347E+03  0.13922105718E+03  0.47000000000E+01 0. -1.
          5    1    5    5  503    0 -0.31352997951E+02  0.82282152079E+01  0.21988360674E+02  0.39449867061E+02  0.47000000000E+01 0. -1.
         -5    1    5    5    0  503 -0.23728068715E+02 -0.93319903658E+01 -0.13600763249E+03  0.13845675638E+03  0.47000000000E+01 0. -1.
<mgrwt>
<rscale>  0 0.27440264E+03</rscale>
<asrwt>0</asrwt>
<pdfrwt beam="1">  1        1 0.49806006E-01 0.27440264E+03</pdfrwt>
<pdfrwt beam="2">  1       -1 0.89455728E-02 0.27440264E+03</pdfrwt>
<totfact> 0.57247433E+03</totfact>
</mgrwt>
</event>
<event>
 9    1  0.7986988E-001  0.2735712E+03  0.7818608E-02  0.1099253E+00
         -1   -1    0    0    0  501 -0.00000000000E+00  0.00000000000E+00  0.19936783760E+02  0.19936783760E+02  0.00000000000E+00 0.  1.
          1   -1    0    0  501    0  0.00000000000E+00 -0.00000000000E+00 -0.93848117268E+03  0.93848117268E+03  0.00000000000E+00 0.  1.
         35    2    1    2    0    0  0.00000000000E+00  0.71054273576E-14 -0.91854438892E+03  0.95841795644E+03  0.27357116955E+03 0.  0.
         25    2    3    3    0    0  0.26211096422E+02  0.42899033320E+02 -0.52723312327E+03  0.54444791019E+03  0.12618007769E+03 0.  0.
         25    2    3    3    0    0 -0.26211096422E+02 -0.42899033320E+02 -0.39131126565E+03  0.41397004625E+03  0.12537680778E+03 0.  0.
          5    1    4    4  502    0 -0.15209848572E+02 -0.19472597830E+02 -0.21230331543E+02  0.32914108483E+02  0.47000000000E+01 0. -1.
         -5    1    4    4    0  502  0.41420944994E+02  0.62371631150E+02 -0.50600279173E+03  0.51153380171E+03  0.47000000000E+01 0. -1.
          5    1    5    5  503    0 -0.13366511955E+02 -0.65712768554E+02 -0.94507183881E+02  0.11597641742E+03  0.47000000000E+01 0. -1.
         -5    1    5    5    0  503 -0.12844584467E+02  0.22813735234E+02 -0.29680408177E+03  0.29799362882E+03  0.47000000000E+01 0. -1.
<mgrwt>
<rscale>  0 0.27357117E+03</rscale>
<asrwt>0</asrwt>
<pdfrwt beam="1">  1        1 0.14438165E+00 0.27357117E+03</pdfrwt>
<pdfrwt beam="2">  1       -1 0.30671989E-02 0.27357117E+03</pdfrwt>
<totfact> 0.64963071E+03</totfact>
</mgrwt>
</event>
<event>
 9    1  0.7986988E-001  0.2787307E+03  0.7818608E-02  0.1096384E+00
          4   -1    0    0  501    0  0.00000000000E+00  0.00000000000E+00  0.50728698035E+02  0.50728698035E+02  0.00000000000E+00 0.  1.
         -4   -1    0    0    0  501 -0.00000000000E+00 -0.00000000000E+00 -0.38287408873E+03  0.38287408873E+03  0.00000000000E+00 0.  1.
         35    2    1    2    0    0  0.00000000000E+00  0.14210854715E-13 -0.33214539069E+03  0.43360278676E+03  0.27873072333E+03 0.  0.
         25    2    3    3    0    0 -0.38134356985E+02  0.45285563662E+02 -0.13176683602E+03  0.19021240957E+03  0.12374671802E+03 0.  0.
         25    2    3    3    0    0  0.38134356985E+02 -0.45285563662E+02 -0.20037855467E+03  0.24339037719E+03  0.12482907946E+03 0.  0.
          5    1    4    4  502    0 -0.38541012039E+01  0.83473690886E+02 -0.65565420491E+02  0.10631850982E+03  0.47000000000E+01 0. -1.
         -5    1    4    4    0  502 -0.34280255781E+02 -0.38188127224E+02 -0.66201415534E+02  0.83893899754E+02  0.47000000000E+01 0. -1.
          5    1    5    5  503    0  0.32141506675E+02 -0.24351694945E+01  0.54356384213E+01  0.33024879513E+02  0.47000000000E+01 0. -1.
         -5    1    5    5    0  503  0.59928503098E+01 -0.42850394167E+02 -0.20581419309E+03  0.21036549768E+03  0.47000000000E+01 0. -1.
<mgrwt>
<rscale>  0 0.27873072E+03</rscale>
<asrwt>0</asrwt>
<pdfrwt beam="1">  1        4 0.78044152E-02 0.27873072E+03</pdfrwt>
<pdfrwt beam="2">  1       -4 0.58903705E-01 0.27873072E+03</pdfrwt>
<totfact> 0.59584335E+02</totfact>
</mgrwt>
</event>
<event>
 9    1  0.7986988E-001  0.2747481E+03  0.7818608E-02  0.1098593E+00
          2   -1    0    0  501    0  0.00000000000E+00  0.00000000000E+00  0.16676874172E+04  0.16676874172E+04  0.00000000000E+00 0.  1.
         -2   -1    0    0    0  501 -0.00000000000E+00 -0.00000000000E+00 -0.11316045267E+02  0.11316045267E+02  0.00000000000E+00 0.  1.
         35    2    1    2    0    0 -0.71054273576E-14  0.71054273576E-14  0.16563713719E+04  0.16790034624E+04  0.27474807591E+03 0.  0.
         25    2    3    3    0    0  0.23102065084E+02 -0.51311032816E+02  0.87537680085E+03  0.88608162685E+03  0.12525804754E+03 0.  0.
         25    2    3    3    0    0 -0.23102065084E+02  0.51311032816E+02  0.78099457104E+03  0.79292183558E+03  0.12492393621E+03 0.  0.
          5    1    4    4  502    0  0.72517531090E+02 -0.11292829379E+02  0.47536690152E+03  0.48102193440E+03  0.47000000000E+01 0. -1.
         -5    1    4    4    0  502 -0.49415466006E+02 -0.40018203438E+02  0.40000989933E+03  0.40505969245E+03  0.47000000000E+01 0. -1.
          5    1    5    5  503    0  0.49692020049E+02  0.16950164679E+02  0.40224008809E+03  0.40567940964E+03  0.47000000000E+01 0. -1.
         -5    1    5    5    0  503 -0.72794085132E+02  0.34360868137E+02  0.37875448295E+03  0.38724242594E+03  0.47000000000E+01 0. -1.
<mgrwt>
<rscale>  0 0.27474808E+03</rscale>
<asrwt>0</asrwt>
<pdfrwt beam="1">  1        2 0.25656710E+00 0.27474808E+03</pdfrwt>
<pdfrwt beam="2">  1       -2 0.17409314E-02 0.27474808E+03</pdfrwt>
<totfact> 0.10535474E+04</totfact>
</mgrwt>
</event>
<event>
 9    1  0.7986988E-001  0.2750118E+03  0.7818608E-02  0.1098445E+00
         -2   -1    0    0    0  501 -0.00000000000E+00  0.00000000000E+00  0.71219644460E+02  0.71219644460E+02  0.00000000000E+00 0. -1.
          2   -1    0    0  501    0  0.00000000000E+00 -0.00000000000E+00 -0.26548683996E+03  0.26548683996E+03  0.00000000000E+00 0. -1.
         35    2    1    2    0    0  0.00000000000E+00  0.00000000000E+00 -0.19426719550E+03  0.33670648442E+03  0.27501184230E+03 0.  0.
         25    2    3    3    0    0 -0.38986452766E+02 -0.38617865907E+02 -0.11451765854E+03  0.17880438751E+03  0.12587863921E+03 0.  0.
         25    2    3    3    0    0  0.38986452766E+02  0.38617865907E+02 -0.79749536955E+02  0.15790209691E+03  0.12474694584E+03 0.  0.
          5    1    4    4  502    0 -0.43695170311E+02  0.11814451282E+02 -0.11932523815E+03  0.12770846341E+03  0.47000000000E+01 0. -1.
         -5    1    4    4    0  502  0.47087175450E+01 -0.50432317189E+02  0.48075796068E+01  0.51095924100E+02  0.47000000000E+01 0. -1.
          5    1    5    5  503    0  0.43671677031E+02 -0.32487659885E+02 -0.55427610211E+01  0.54913346458E+02  0.47000000000E+01 0. -1.
         -5    1    5    5    0  503 -0.46852242649E+01  0.71105525791E+02 -0.74206775934E+02  0.10298875045E+03  0.47000000000E+01 0. -1.
<mgrwt>
<rscale>  0 0.27501184E+03</rscale>
<asrwt>0</asrwt>
<pdfrwt beam="1">  1        2 0.40844129E-01 0.27501184E+03</pdfrwt>
<pdfrwt beam="2">  1       -2 0.10956868E-01 0.27501184E+03</pdfrwt>
<totfact> 0.71013992E+03</totfact>
</mgrwt>
</event>
<event>
 9    1  0.7986988E-001  0.2738110E+03  0.7818608E-02  0.1099118E+00
          2   -1    0    0  501    0  0.00000000000E+00  0.00000000000E+00  0.30916551218E+04  0.30916551218E+04  0.00000000000E+00 0. -1.
         -2   -1    0    0    0  501 -0.00000000000E+00 -0.00000000000E+00 -0.60624851622E+01  0.60624851622E+01  0.00000000000E+00 0. -1.
         35    2    1    2    0    0 -0.71054273576E-14 -0.26645352591E-14  0.30855926367E+04  0.30977176070E+04  0.27381098081E+03 0.  0.
         25    2    3    3    0    0  0.27081490897E+02 -0.52708685933E+01  0.10579068744E+04  0.10659828481E+04  0.12802846707E+03 0.  0.
         25    2    3    3    0    0 -0.27081490897E+02  0.52708685933E+01  0.20276857623E+04  0.20317347589E+04  0.12520140055E+03 0.  0.
          5    1    4    4  502    0  0.31680819599E+02 -0.90804697552E+01  0.64836614671E+02  0.72883508858E+02  0.47000000000E+01 0.  1.
         -5    1    4    4    0  502 -0.45993287025E+01  0.38096011618E+01  0.99307025972E+03  0.99309933925E+03  0.47000000000E+01 0.  1.
          5    1    5    5  503    0 -0.29808030059E+02 -0.38246144262E+02  0.33930806187E+03  0.34278759758E+03  0.47000000000E+01 0. -1.
         -5    1    5    5    0  503  0.27265391620E+01  0.43517012855E+02  0.16883777004E+04  0.16889471613E+04  0.47000000000E+01 0. -1.
<mgrwt>
<rscale>  0 0.27381098E+03</rscale>
<asrwt>0</asrwt>
<pdfrwt beam="1">  1        2 0.47563799E+00 0.27381098E+03</pdfrwt>
<pdfrwt beam="2">  1       -2 0.93269249E-03 0.27381098E+03</pdfrwt>
<totfact> 0.43330918E+03</totfact>
</mgrwt>
</event>
<event>
 9    1  0.7986988E-001  0.2724431E+03  0.7818608E-02  0.1099889E+00
         -2   -1    0    0    0  501 -0.00000000000E+00  0.00000000000E+00  0.13063898318E+03  0.13063898318E+03  0.00000000000E+00 0.  1.
          2   -1    0    0  501    0  0.00000000000E+00 -0.00000000000E+00 -0.14204263504E+03  0.14204263504E+03  0.00000000000E+00 0.  1.
         35    2    1    2    0    0 -0.14210854715E-13  0.00000000000E+00 -0.11403651865E+02  0.27268161822E+03  0.27244306128E+03 0.  0.
         25    2    3    3    0    0 -0.33600609293E+02 -0.44624870070E+02 -0.24198625979E+02  0.13955800920E+03  0.12558058949E+03 0.  0.
         25    2    3    3    0    0  0.33600609293E+02  0.44624870070E+02  0.12794974115E+02  0.13312360903E+03  0.12015741319E+03 0.  0.
          5    1    4    4  502    0  0.34326909314E+02 -0.41576562890E+02  0.20695959101E+02  0.57942730415E+02  0.47000000000E+01 0.  1.
         -5    1    4    4    0  502 -0.67927518608E+02 -0.30483071795E+01 -0.44894585080E+02  0.81615278780E+02  0.47000000000E+01 0.  1.
          5    1    5    5  503    0 -0.53596702844E+01 -0.36995161394E+02  0.19290453051E+02  0.42327055308E+02  0.47000000000E+01 0. -1.
         -5    1    5    5    0  503  0.38960279578E+02  0.81620031464E+02 -0.64954789362E+01  0.90796553721E+02  0.47000000000E+01 0. -1.
<mgrwt>
<rscale>  0 0.27244306E+03</rscale>
<asrwt>0</asrwt>
<pdfrwt beam="1">  1        2 0.21852713E-01 0.27244306E+03</pdfrwt>
<pdfrwt beam="2">  1       -2 0.20098305E-01 0.27244306E+03</pdfrwt>
<totfact> 0.51868095E+03</totfact>
</mgrwt>
</event>
<event>
 9    1  0.7986988E-001  0.2743652E+03  0.7818608E-02  0.1098807E+00
         -2   -1    0    0    0  501 -0.00000000000E+00  0.00000000000E+00  0.27978286807E+02  0.27978286807E+02  0.00000000000E+00 0. -1.
          2   -1    0    0  501    0  0.00000000000E+00 -0.00000000000E+00 -0.67263088066E+03  0.67263088066E+03  0.00000000000E+00 0. -1.
         35    2    1    2    0    0  0.00000000000E+00 -0.10658141036E-13 -0.64465259386E+03  0.70060916747E+03  0.27436515591E+03 0.  0.
         25    2    3    3    0    0  0.32477859967E+02 -0.27381546867E+02 -0.41750325677E+03  0.43782301930E+03  0.12480170800E+03 0.  0.
         25    2    3    3    0    0 -0.32477859967E+02  0.27381546867E+02 -0.22714933709E+03  0.26278614817E+03  0.12512065311E+03 0.  0.
          5    1    4    4  502    0  0.51489864549E+02  0.31949953492E+02 -0.12858170721E+03  0.14222289235E+03  0.47000000000E+01 0.  1.
         -5    1    4    4    0  502 -0.19012004582E+02 -0.59331500359E+02 -0.28892154956E+03  0.29560012695E+03  0.47000000000E+01 0.  1.
          5    1    5    5  503    0  0.15130226392E+02  0.41923707295E+02 -0.18936741351E+02  0.48653994255E+02  0.47000000000E+01 0.  1.
         -5    1    5    5    0  503 -0.47608086360E+02 -0.14542160427E+02 -0.20821259574E+03  0.21413215392E+03  0.47000000000E+01 0.  1.
<mgrwt>
<rscale>  0 0.27436516E+03</rscale>
<asrwt>0</asrwt>
<pdfrwt beam="1">  1        2 0.10348167E+00 0.27436516E+03</pdfrwt>
<pdfrwt beam="2">  1       -2 0.43043520E-02 0.27436516E+03</pdfrwt>
<totfact> 0.10782726E+04</totfact>
</mgrwt>
</event>
<event>
 9    1  0.7986988E-001  0.2869537E+03  0.7818608E-02  0.1091950E+00
          2   -1    0    0  501    0  0.00000000000E+00  0.00000000000E+00  0.12172778597E+04  0.12172778597E+04  0.00000000000E+00 0. -1.
         -2   -1    0    0    0  501 -0.00000000000E+00 -0.00000000000E+00 -0.16911184433E+02  0.16911184433E+02  0.00000000000E+00 0. -1.
         35    2    1    2    0    0  0.00000000000E+00  0.71054273576E-14  0.12003666753E+04  0.12341890441E+04  0.28695372723E+03 0.  0.
         25    2    3    3    0    0 -0.24416940576E+02 -0.48914539081E+02  0.78757487663E+03  0.79930245782E+03  0.12498565376E+03 0.  0.
         25    2    3    3    0    0  0.24416940576E+02  0.48914539081E+02  0.41279179864E+03  0.43488658633E+03  0.12546096931E+03 0.  0.
          5    1    4    4  502    0  0.14187455998E+02  0.34815865677E+02  0.13450693477E+03  0.13974131068E+03  0.47000000000E+01 0.  1.
         -5    1    4    4    0  502 -0.38604396574E+02 -0.83730404759E+02  0.65306794186E+03  0.65956114713E+03  0.47000000000E+01 0.  1.
          5    1    5    5  503    0  0.16528496623E+02  0.27238155950E+02  0.40990606058E+03  0.41116928003E+03  0.47000000000E+01 0. -1.
         -5    1    5    5    0  503  0.78884439537E+01  0.21676383132E+02  0.28857380592E+01  0.23717306294E+02  0.47000000000E+01 0. -1.
<mgrwt>
<rscale>  0 0.28695373E+03</rscale>
<asrwt>0</asrwt>
<pdfrwt beam="1">  1        2 0.18727345E+00 0.28695373E+03</pdfrwt>
<pdfrwt beam="2">  1       -2 0.26017216E-02 0.28695373E+03</pdfrwt>
<totfact> 0.10232178E+04</totfact>
</mgrwt>
</event>
<event>
 9    1  0.7986988E-001  0.2716789E+03  0.7818608E-02  0.1100323E+00
         -2   -1    0    0    0  501 -0.00000000000E+00  0.00000000000E+00  0.26030682097E+02  0.26030682097E+02  0.00000000000E+00 0.  1.
          2   -1    0    0  501    0  0.00000000000E+00 -0.00000000000E+00 -0.70886956185E+03  0.70886956185E+03  0.00000000000E+00 0.  1.
         35    2    1    2    0    0  0.00000000000E+00  0.00000000000E+00 -0.68283887975E+03  0.73490024394E+03  0.27167891499E+03 0.  0.
         25    2    3    3    0    0  0.50103933989E+02 -0.16733550037E+01 -0.27308291048E+03  0.30356273139E+03  0.12273080940E+03 0.  0.
         25    2    3    3    0    0 -0.50103933989E+02  0.16733550037E+01 -0.40975596927E+03  0.43133751255E+03  0.12505555191E+03 0.  0.
          5    1    4    4  502    0  0.78969338813E+02  0.23868619294E+02 -0.23528988128E+03  0.24937779711E+03  0.47000000000E+01 0. -1.
         -5    1    4    4    0  502 -0.28865404824E+02 -0.25541974298E+02 -0.37793029202E+02  0.54184934281E+02  0.47000000000E+01 0. -1.
          5    1    5    5  503    0  0.39062344467E+02  0.16382536234E+02 -0.10180552733E+03  0.11036625229E+03  0.47000000000E+01 0.  1.
         -5    1    5    5    0  503 -0.89166278456E+02 -0.14709181230E+02 -0.30795044194E+03  0.32097126026E+03  0.47000000000E+01 0.  1.
<mgrwt>
<rscale>  0 0.27167891E+03</rscale>
<asrwt>0</asrwt>
<pdfrwt beam="1">  1        2 0.10905684E+00 0.27167891E+03</pdfrwt>
<pdfrwt beam="2">  1       -2 0.40047209E-02 0.27167891E+03</pdfrwt>
<totfact> 0.11278225E+04</totfact>
</mgrwt>
</event>
<event>
 9    1  0.7986988E-001  0.2617983E+03  0.7818608E-02  0.1106068E+00
          1   -1    0    0  501    0  0.00000000000E+00  0.00000000000E+00  0.51431637281E+03  0.51431637281E+03  0.00000000000E+00 0.  1.
         -1   -1    0    0    0  501 -0.00000000000E+00 -0.00000000000E+00 -0.33315279953E+02  0.33315279953E+02  0.00000000000E+00 0.  1.
         35    2    1    2    0    0 -0.71054273576E-14  0.00000000000E+00  0.48100109286E+03  0.54763165276E+03  0.26179834946E+03 0.  0.
         25    2    3    3    0    0  0.18080299610E+02 -0.27567045479E+02  0.19667186345E+03  0.23518979193E+03  0.12468992390E+03 0.  0.
         25    2    3    3    0    0 -0.18080299610E+02  0.27567045479E+02  0.28432922940E+03  0.31244186084E+03  0.12525959635E+03 0.  0.
          5    1    4    4  502    0 -0.46517264089E+02 -0.18843560810E+02  0.13960737270E+03  0.14842925640E+03  0.47000000000E+01 0.  1.
         -5    1    4    4    0  502  0.64597563700E+02 -0.87234846686E+01  0.57064490755E+02  0.86760535533E+02  0.47000000000E+01 0.  1.
          5    1    5    5  503    0 -0.35744215263E+02  0.46915293736E+02  0.52535661083E+02  0.79125087024E+02  0.47000000000E+01 0. -1.
         -5    1    5    5    0  503  0.17663915652E+02 -0.19348248258E+02  0.23179356832E+03  0.23331677381E+03  0.47000000000E+01 0. -1.
<mgrwt>
<rscale>  0 0.26179835E+03</rscale>
<asrwt>0</asrwt>
<pdfrwt beam="1">  1        1 0.79125590E-01 0.26179835E+03</pdfrwt>
<pdfrwt beam="2">  1       -1 0.51254281E-02 0.26179835E+03</pdfrwt>
<totfact> 0.73187690E+03</totfact>
</mgrwt>
</event>
<event>
 9    1  0.7986988E-001  0.2751263E+03  0.7818608E-02  0.1098381E+00
          2   -1    0    0  501    0  0.00000000000E+00  0.00000000000E+00  0.31869584519E+03  0.31869584519E+03  0.00000000000E+00 0. -1.
         -2   -1    0    0    0  501 -0.00000000000E+00 -0.00000000000E+00 -0.59378310242E+02  0.59378310242E+02  0.00000000000E+00 0. -1.
         35    2    1    2    0    0  0.71054273576E-14  0.00000000000E+00  0.25931753495E+03  0.37807415544E+03  0.27512630386E+03 0.  0.
         25    2    3    3    0    0  0.34416590989E+02  0.18408700628E+02  0.19000069291E+03  0.23075932766E+03  0.12500488792E+03 0.  0.
         25    2    3    3    0    0 -0.34416590989E+02 -0.18408700628E+02  0.69316842047E+02  0.14731482777E+03  0.12398972496E+03 0.  0.
          5    1    4    4  502    0  0.74374119119E+02  0.37161794596E+02  0.97946347724E+02  0.12856160237E+03  0.47000000000E+01 0. -1.
         -5    1    4    4    0  502 -0.39957528130E+02 -0.18753093967E+02  0.92054345182E+02  0.10219772529E+03  0.47000000000E+01 0. -1.
          5    1    5    5  503    0 -0.24477388252E+02 -0.51085986811E+02 -0.12789926048E+02  0.58263134077E+02  0.47000000000E+01 0. -1.
         -5    1    5    5    0  503 -0.99392027368E+01  0.32677286183E+02  0.82106768095E+02  0.89051693697E+02  0.47000000000E+01 0. -1.
<mgrwt>
<rscale>  0 0.27512630E+03</rscale>
<asrwt>0</asrwt>
<pdfrwt beam="1">  1        2 0.49030129E-01 0.27512630E+03</pdfrwt>
<pdfrwt beam="2">  1       -2 0.91351248E-02 0.27512630E+03</pdfrwt>
<totfact> 0.77900528E+03</totfact>
</mgrwt>
</event>
<event>
 9    1  0.7986988E-001  0.2766431E+03  0.7818608E-02  0.1097537E+00
          2   -1    0    0  501    0  0.00000000000E+00  0.00000000000E+00  0.72517489360E+03  0.72517489360E+03  0.00000000000E+00 0.  1.
         -2   -1    0    0    0  501 -0.00000000000E+00 -0.00000000000E+00 -0.26383779112E+02  0.26383779112E+02  0.00000000000E+00 0.  1.
         35    2    1    2    0    0  0.00000000000E+00  0.00000000000E+00  0.69879111448E+03  0.75155867271E+03  0.27664312181E+03 0.  0.
         25    2    3    3    0    0 -0.13653228014E+02  0.11568823871E+02  0.18460239234E+03  0.22387323907E+03  0.12538315514E+03 0.  0.
         25    2    3    3    0    0  0.13653228014E+02 -0.11568823871E+02  0.51418872214E+03  0.52768543364E+03  0.11722468415E+03 0.  0.
          5    1    4    4  502    0  0.51922828854E+02 -0.13566652525E+02  0.59004477503E+02  0.79897763312E+02  0.47000000000E+01 0.  1.
         -5    1    4    4    0  502 -0.65576056868E+02  0.25135476396E+02  0.12559791484E+03  0.14397547576E+03  0.47000000000E+01 0.  1.
          5    1    5    5  503    0 -0.34746460901E+02  0.20667416490E+02  0.36862585468E+03  0.37086597227E+03  0.47000000000E+01 0. -1.
         -5    1    5    5    0  503  0.48399688916E+02 -0.32236240361E+02  0.14556286746E+03  0.15681946136E+03  0.47000000000E+01 0. -1.
<mgrwt>
<rscale>  0 0.27664312E+03</rscale>
<asrwt>0</asrwt>
<pdfrwt beam="1">  1        2 0.11156535E+00 0.27664312E+03</pdfrwt>
<pdfrwt beam="2">  1       -2 0.40590435E-02 0.27664312E+03</pdfrwt>
<totfact> 0.10755886E+04</totfact>
</mgrwt>
</event>
<event>
 9    1  0.7986988E-001  0.2785304E+03  0.7818608E-02  0.1096494E+00
          2   -1    0    0  501    0  0.00000000000E+00  0.00000000000E+00  0.11378177766E+03  0.11378177766E+03  0.00000000000E+00 0. -1.
         -2   -1    0    0    0  501 -0.00000000000E+00 -0.00000000000E+00 -0.17045610199E+03  0.17045610199E+03  0.00000000000E+00 0. -1.
         35    2    1    2    0    0 -0.35527136788E-14  0.00000000000E+00 -0.56674324332E+02  0.28423787965E+03  0.27853041700E+03 0.  0.
         25    2    3    3    0    0  0.28730500053E+02  0.19208638336E+01  0.27449839679E+02  0.13097491665E+03  0.12478703355E+03 0.  0.
         25    2    3    3    0    0 -0.28730500053E+02 -0.19208638336E+01 -0.84124164011E+02  0.15326296300E+03  0.12483400781E+03 0.  0.
          5    1    4    4  502    0  0.39527813294E+01 -0.44403230110E+02 -0.29258448582E+02  0.53529600576E+02  0.47000000000E+01 0.  1.
         -5    1    4    4    0  502  0.24777718724E+02  0.46324093943E+02  0.56708288261E+02  0.77445316077E+02  0.47000000000E+01 0.  1.
          5    1    5    5  503    0  0.63536646470E+01 -0.55637235589E+02 -0.13624497020E+02  0.57823766372E+02  0.47000000000E+01 0.  1.
         -5    1    5    5    0  503 -0.35084164700E+02  0.53716371755E+02 -0.70499666991E+02  0.95439196629E+02  0.47000000000E+01 0.  1.
<mgrwt>
<rscale>  0 0.27853042E+03</rscale>
<asrwt>0</asrwt>
<pdfrwt beam="1">  1        2 0.17504889E-01 0.27853042E+03</pdfrwt>
<pdfrwt beam="2">  1       -2 0.26224016E-01 0.27853042E+03</pdfrwt>
<totfact> 0.42114727E+03</totfact>
</mgrwt>
</event>
<event>
 9    1  0.7986988E-001  0.2744367E+03  0.7818608E-02  0.1098767E+00
         -2   -1    0    0    0  501 -0.00000000000E+00  0.00000000000E+00  0.17716423662E+02  0.17716423662E+02  0.00000000000E+00 0. -1.
          2   -1    0    0  501    0  0.00000000000E+00 -0.00000000000E+00 -0.10627917697E+04  0.10627917697E+04  0.00000000000E+00 0. -1.
         35    2    1    2    0    0  0.71054273576E-14 -0.35527136788E-14 -0.10450753461E+04  0.10805081934E+04  0.27443665394E+03 0.  0.
         25    2    3    3    0    0  0.26984075604E+02 -0.14320557563E+02 -0.72454383372E+03  0.73583542605E+03  0.12472685576E+03 0.  0.
         25    2    3    3    0    0 -0.26984075604E+02  0.14320557563E+02 -0.32053151237E+03  0.34467276736E+03  0.12298637092E+03 0.  0.
          5    1    4    4  502    0  0.52772821951E+02  0.41134111905E+02 -0.37894349936E+03  0.38483405724E+03  0.47000000000E+01 0.  1.
         -5    1    4    4    0  502 -0.25788746346E+02 -0.55454669468E+02 -0.34560033435E+03  0.35100136881E+03  0.47000000000E+01 0.  1.
          5    1    5    5  503    0 -0.67427033829E+02  0.66961624589E+01 -0.10400101436E+03  0.12421571748E+03  0.47000000000E+01 0. -1.
         -5    1    5    5    0  503  0.40442958225E+02  0.76243951041E+01 -0.21653049801E+03  0.22045704988E+03  0.47000000000E+01 0. -1.
<mgrwt>
<rscale>  0 0.27443665E+03</rscale>
<asrwt>0</asrwt>
<pdfrwt beam="1">  1        2 0.16350647E+00 0.27443665E+03</pdfrwt>
<pdfrwt beam="2">  1       -2 0.27256029E-02 0.27443665E+03</pdfrwt>
<totfact> 0.11724644E+04</totfact>
</mgrwt>
</event>
<event>
 8    1  0.7986988E-001  0.3521843E+03  0.7818608E-02  0.1061722E+00
         -2   -1    0    0    0  501 -0.00000000000E+00  0.00000000000E+00  0.34593315713E+02  0.34593315713E+02  0.00000000000E+00 0. -1.
          2   -1    0    0  501    0  0.00000000000E+00 -0.00000000000E+00 -0.89637120219E+03  0.89637120219E+03  0.00000000000E+00 0. -1.
         25    2    1    2    0    0 -0.32508447442E+02  0.25646728266E+02 -0.12218290654E+03  0.17971596171E+03  0.12511838560E+03 0.  0.
         25    2    1    2    0    0  0.32508447442E+02 -0.25646728266E+02 -0.73959497994E+03  0.75124855620E+03  0.12513634570E+03 0.  0.
          5    1    3    3  502    0 -0.66635968256E+02 -0.20517731190E+02 -0.89288407822E+02  0.11338359374E+03  0.47000000000E+01 0. -1.
         -5    1    3    3    0  502  0.34127520814E+02  0.46164459456E+02 -0.32894498720E+02  0.66332367965E+02  0.47000000000E+01 0. -1.
          5    1    4    4  503    0  0.18615130202E+02  0.49901379501E+02 -0.25117823742E+03  0.25680589499E+03  0.47000000000E+01 0. -1.
         -5    1    4    4    0  503  0.13893317240E+02 -0.75548107766E+02 -0.48841674252E+03  0.49444266121E+03  0.47000000000E+01 0. -1.
<mgrwt>
<rscale>  0 0.35218434E+03</rscale>
<asrwt>0</asrwt>
<pdfrwt beam="1">  1        2 0.13790328E+00 0.35218434E+03</pdfrwt>
<pdfrwt beam="2">  1       -2 0.53220479E-02 0.35218434E+03</pdfrwt>
<totfact> 0.54593941E+03</totfact>
</mgrwt>
</event>
<event>
 9    1  0.7986988E-001  0.2754532E+03  0.7818608E-02  0.1098199E+00
          4   -1    0    0  501    0  0.00000000000E+00  0.00000000000E+00  0.23144578801E+03  0.23144578801E+03  0.00000000000E+00 0. -1.
         -4   -1    0    0    0  501 -0.00000000000E+00 -0.00000000000E+00 -0.81957043533E+02  0.81957043533E+02  0.00000000000E+00 0. -1.
         35    2    1    2    0    0  0.71054273576E-14  0.14210854715E-13  0.14948874448E+03  0.31340283155E+03  0.27545317224E+03 0.  0.
         25    2    3    3    0    0 -0.28979691595E+02 -0.46664492503E+02  0.83851202226E+02  0.16218894713E+03  0.12750228653E+03 0.  0.
         25    2    3    3    0    0  0.28979691595E+02  0.46664492503E+02  0.65637542255E+02  0.15121388442E+03  0.12465935385E+03 0.  0.
          5    1    4    4  502    0  0.23833493066E+02  0.34198569430E+02  0.21547393593E+02  0.47158856151E+02  0.47000000000E+01 0.  1.
         -5    1    4    4    0  502 -0.52813184661E+02 -0.80863061934E+02  0.62303808633E+02  0.11503009097E+03  0.47000000000E+01 0.  1.
          5    1    5    5  503    0  0.65998980982E+02  0.10355823354E+01  0.45591209150E+01  0.66331090033E+02  0.47000000000E+01 0.  1.
         -5    1    5    5    0  503 -0.37019289387E+02  0.45628910168E+02  0.61078421340E+02  0.84882794388E+02  0.47000000000E+01 0.  1.
<mgrwt>
<rscale>  0 0.27545317E+03</rscale>
<asrwt>0</asrwt>
<pdfrwt beam="1">  1        4 0.35607044E-01 0.27545317E+03</pdfrwt>
<pdfrwt beam="2">  1       -4 0.12608776E-01 0.27545317E+03</pdfrwt>
<totfact> 0.73151662E+02</totfact>
</mgrwt>
</event>
<event>
 9    1  0.7986988E-001  0.2741282E+03  0.7818608E-02  0.1098940E+00
         -2   -1    0    0    0  501 -0.00000000000E+00  0.00000000000E+00  0.14096744379E+02  0.14096744379E+02  0.00000000000E+00 0.  1.
          2   -1    0    0  501    0  0.00000000000E+00 -0.00000000000E+00 -0.13326887633E+04  0.13326887633E+04  0.00000000000E+00 0.  1.
         35    2    1    2    0    0 -0.17763568394E-14  0.17763568394E-14 -0.13185920189E+04  0.13467855077E+04  0.27412823885E+03 0.  0.
         25    2    3    3    0    0 -0.32628025901E+01  0.29163065389E+01 -0.89687107765E+03  0.90661263219E+03  0.13247484365E+03 0.  0.
         25    2    3    3    0    0  0.32628025901E+01 -0.29163065389E+01 -0.42172094128E+03  0.44017287550E+03  0.12603355618E+03 0.  0.
          5    1    4    4  502    0 -0.19546619764E+02 -0.46630867123E+02 -0.72893426917E+03  0.73070087374E+03  0.47000000000E+01 0.  1.
         -5    1    4    4    0  502  0.16283817174E+02  0.49547173662E+02 -0.16793680848E+03  0.17591175846E+03  0.47000000000E+01 0.  1.
          5    1    5    5  503    0 -0.70017243513E+01  0.51135455802E+01  0.64459701849E+01  0.11781893902E+02  0.47000000000E+01 0.  1.
         -5    1    5    5    0  503  0.10264526941E+02 -0.80298521191E+01 -0.42816691147E+03  0.42839098160E+03  0.47000000000E+01 0.  1.
<mgrwt>
<rscale>  0 0.27412824E+03</rscale>
<asrwt>0</asrwt>
<pdfrwt beam="1">  1        2 0.20502907E+00 0.27412824E+03</pdfrwt>
<pdfrwt beam="2">  1       -2 0.21687296E-02 0.27412824E+03</pdfrwt>
<totfact> 0.11534989E+04</totfact>
</mgrwt>
</event>
<event>
 9    1  0.7986988E-001  0.2745900E+03  0.7818608E-02  0.1098681E+00
         -2   -1    0    0    0  501 -0.00000000000E+00  0.00000000000E+00  0.11146774322E+02  0.11146774322E+02  0.00000000000E+00 0. -1.
          2   -1    0    0  501    0  0.00000000000E+00 -0.00000000000E+00 -0.16910651880E+04  0.16910651880E+04  0.00000000000E+00 0. -1.
         35    2    1    2    0    0  0.00000000000E+00  0.00000000000E+00 -0.16799184137E+04  0.17022119623E+04  0.27459003635E+03 0.  0.
         25    2    3    3    0    0  0.15946116495E+02 -0.25250708212E+02 -0.52558678952E+03  0.54082254777E+03  0.12391802921E+03 0.  0.
         25    2    3    3    0    0 -0.15946116495E+02  0.25250708212E+02 -0.11543316242E+04  0.11613894146E+04  0.12430606101E+03 0.  0.
          5    1    4    4  502    0  0.80003476259E+01  0.33117040703E+02 -0.45108445922E+02  0.56723944156E+02  0.47000000000E+01 0.  1.
         -5    1    4    4    0  502  0.79457688692E+01 -0.58367748915E+02 -0.48047834359E+03  0.48409860361E+03  0.47000000000E+01 0.  1.
          5    1    5    5  503    0 -0.90497483282E+01  0.61772897612E+02 -0.31171863439E+03  0.31794399798E+03  0.47000000000E+01 0. -1.
         -5    1    5    5    0  503 -0.68963681668E+01 -0.36522189400E+02 -0.84261298979E+03  0.84344541659E+03  0.47000000000E+01 0. -1.
<mgrwt>
<rscale>  0 0.27459004E+03</rscale>
<asrwt>0</asrwt>
<pdfrwt beam="1">  1        2 0.26016404E+00 0.27459004E+03</pdfrwt>
<pdfrwt beam="2">  1       -2 0.17148873E-02 0.27459004E+03</pdfrwt>
<totfact> 0.10469479E+04</totfact>
</mgrwt>
</event>
<event>
 9    1  0.7986988E-001  0.2779856E+03  0.7818608E-02  0.1096794E+00
          1   -1    0    0  501    0  0.00000000000E+00  0.00000000000E+00  0.51549310580E+03  0.51549310580E+03  0.00000000000E+00 0. -1.
         -1   -1    0    0    0  501 -0.00000000000E+00 -0.00000000000E+00 -0.37476722805E+02  0.37476722805E+02  0.00000000000E+00 0. -1.
         35    2    1    2    0    0  0.35527136788E-14  0.00000000000E+00  0.47801638299E+03  0.55296982860E+03  0.27798555526E+03 0.  0.
         25    2    3    3    0    0  0.25411148148E+02  0.50023809571E+02  0.28532827192E+03  0.31651506093E+03  0.12498581144E+03 0.  0.
         25    2    3    3    0    0 -0.25411148148E+02 -0.50023809571E+02  0.19268811107E+03  0.23645476768E+03  0.12503615891E+03 0.  0.
          5    1    4    4  502    0  0.36410776269E+02  0.70689447476E+02  0.28122391704E+03  0.29228705775E+03  0.47000000000E+01 0.  1.
         -5    1    4    4    0  502 -0.10999628121E+02 -0.20665637905E+02  0.41043548798E+01  0.24228003174E+02  0.47000000000E+01 0.  1.
          5    1    5    5  503    0 -0.32119439464E+02 -0.90209799173E+02  0.12958022502E+03  0.16119116283E+03  0.47000000000E+01 0.  1.
         -5    1    5    5    0  503  0.67082913162E+01  0.40185989602E+02  0.63107886049E+02  0.75263604845E+02  0.47000000000E+01 0.  1.
<mgrwt>
<rscale>  0 0.27798556E+03</rscale>
<asrwt>0</asrwt>
<pdfrwt beam="1">  1        1 0.79306626E-01 0.27798556E+03</pdfrwt>
<pdfrwt beam="2">  1       -1 0.57656500E-02 0.27798556E+03</pdfrwt>
<totfact> 0.61258227E+03</totfact>
</mgrwt>
</event>
<event>
 9    1  0.7986988E-001  0.2726733E+03  0.7818608E-02  0.1099759E+00
          1   -1    0    0  501    0  0.00000000000E+00  0.00000000000E+00  0.62043186738E+03  0.62043186738E+03  0.00000000000E+00 0. -1.
         -1   -1    0    0    0  501 -0.00000000000E+00 -0.00000000000E+00 -0.29959271434E+02  0.29959271434E+02  0.00000000000E+00 0. -1.
         35    2    1    2    0    0 -0.35527136788E-14  0.00000000000E+00  0.59047259594E+03  0.65039113881E+03  0.27267333365E+03 0.  0.
         25    2    3    3    0    0 -0.23198077967E+02 -0.39004992864E+02  0.36812010346E+03  0.39140429964E+03  0.12500149967E+03 0.  0.
         25    2    3    3    0    0  0.23198077967E+02  0.39004992864E+02  0.22235249249E+03  0.25898683917E+03  0.12479587997E+03 0.  0.
          5    1    4    4  502    0 -0.65760898528E+02 -0.27486252095E+02  0.31097125688E+03  0.31906927529E+03  0.47000000000E+01 0.  1.
         -5    1    4    4    0  502  0.42562820561E+02 -0.11518740770E+02  0.57148846579E+02  0.72335024355E+02  0.47000000000E+01 0.  1.
          5    1    5    5  503    0 -0.39652057672E+00  0.54111380525E+02  0.25339778988E+02  0.59936575895E+02  0.47000000000E+01 0.  1.
         -5    1    5    5    0  503  0.23594598544E+02 -0.15106387661E+02  0.19701271350E+03  0.19905026327E+03  0.47000000000E+01 0.  1.
<mgrwt>
<rscale>  0 0.27267333E+03</rscale>
<asrwt>0</asrwt>
<pdfrwt beam="1">  1        1 0.95451047E-01 0.27267333E+03</pdfrwt>
<pdfrwt beam="2">  1       -1 0.46091191E-02 0.27267333E+03</pdfrwt>
<totfact> 0.66477474E+03</totfact>
</mgrwt>
</event>
<event>
 9    1  0.7986988E-001  0.2753703E+03  0.7818608E-02  0.1098245E+00
         -2   -1    0    0    0  501 -0.00000000000E+00  0.00000000000E+00  0.20762375105E+03  0.20762375105E+03  0.00000000000E+00 0.  1.
          2   -1    0    0  501    0  0.00000000000E+00 -0.00000000000E+00 -0.91305549597E+02  0.91305549597E+02  0.00000000000E+00 0.  1.
         35    2    1    2    0    0  0.00000000000E+00  0.00000000000E+00  0.11631820145E+03  0.29892930065E+03  0.27537030122E+03 0.  0.
         25    2    3    3    0    0  0.51106626145E+02  0.26091978966E+02  0.58129680289E+02  0.14922764275E+03  0.12488855443E+03 0.  0.
         25    2    3    3    0    0 -0.51106626145E+02 -0.26091978966E+02  0.58188521164E+02  0.14970165790E+03  0.12542728483E+03 0.  0.
          5    1    4    4  502    0  0.24773840859E+02  0.52477545170E+02 -0.20788801613E+02  0.61821518992E+02  0.47000000000E+01 0. -1.
         -5    1    4    4    0  502  0.26332785286E+02 -0.26385566204E+02  0.78918481902E+02  0.87406123759E+02  0.47000000000E+01 0. -1.
          5    1    5    5  503    0 -0.68862921651E+02 -0.55512118861E+02  0.70174817990E+02  0.11300571843E+03  0.47000000000E+01 0. -1.
         -5    1    5    5    0  503  0.17756295506E+02  0.29420139894E+02 -0.11986296826E+02  0.36695939463E+02  0.47000000000E+01 0. -1.
<mgrwt>
<rscale>  0 0.27537030E+03</rscale>
<asrwt>0</asrwt>
<pdfrwt beam="1">  1        2 0.14047008E-01 0.27537030E+03</pdfrwt>
<pdfrwt beam="2">  1       -2 0.31942115E-01 0.27537030E+03</pdfrwt>
<totfact> 0.38219557E+03</totfact>
</mgrwt>
</event>
<event>
 9    1  0.7986988E-001  0.2761247E+03  0.7818608E-02  0.1097825E+00
          1   -1    0    0  501    0  0.00000000000E+00  0.00000000000E+00  0.11763710515E+04  0.11763710515E+04  0.00000000000E+00 0.  1.
         -1   -1    0    0    0  501 -0.00000000000E+00 -0.00000000000E+00 -0.16203398292E+02  0.16203398292E+02  0.00000000000E+00 0.  1.
         35    2    1    2    0    0  0.00000000000E+00  0.14210854715E-13  0.11601676532E+04  0.11925744498E+04  0.27612467247E+03 0.  0.
         25    2    3    3    0    0 -0.48578941047E+01 -0.50438208845E+02  0.49215757539E+03  0.51056210289E+03  0.12604352363E+03 0.  0.
         25    2    3    3    0    0  0.48578941047E+01  0.50438208845E+02  0.66801007778E+03  0.68201234687E+03  0.12781144397E+03 0.  0.
          5    1    4    4  502    0 -0.31653087098E+02 -0.64775043496E+02  0.46156614102E+03  0.46718638328E+03  0.47000000000E+01 0. -1.
         -5    1    4    4    0  502  0.26795192993E+02  0.14336834652E+02  0.30591434371E+02  0.43375719617E+02  0.47000000000E+01 0. -1.
          5    1    5    5  503    0  0.15126472993E+02  0.85600559153E+02  0.58104815697E+03  0.58753324725E+03  0.47000000000E+01 0.  1.
         -5    1    5    5    0  503 -0.10268578889E+02 -0.35162350309E+02  0.86961920817E+02  0.94479099614E+02  0.47000000000E+01 0.  1.
<mgrwt>
<rscale>  0 0.27612467E+03</rscale>
<asrwt>0</asrwt>
<pdfrwt beam="1">  1        1 0.18098009E+00 0.27612467E+03</pdfrwt>
<pdfrwt beam="2">  1       -1 0.24928314E-02 0.27612467E+03</pdfrwt>
<totfact> 0.59000537E+03</totfact>
</mgrwt>
</event>
<event>
 9    1  0.7986988E-001  0.2776855E+03  0.7818608E-02  0.1096960E+00
          2   -1    0    0  501    0  0.00000000000E+00  0.00000000000E+00  0.47278958237E+03  0.47278958237E+03  0.00000000000E+00 0.  1.
         -2   -1    0    0    0  501 -0.00000000000E+00 -0.00000000000E+00 -0.40773558504E+02  0.40773558504E+02  0.00000000000E+00 0.  1.
         35    2    1    2    0    0  0.00000000000E+00  0.00000000000E+00  0.43201602387E+03  0.51356314088E+03  0.27768553219E+03 0.  0.
         25    2    3    3    0    0  0.23740446837E+02 -0.17813235240E+01  0.11249673689E+03  0.16987922891E+03  0.12504661001E+03 0.  0.
         25    2    3    3    0    0 -0.23740446837E+02  0.17813235240E+01  0.31951928698E+03  0.34368391196E+03  0.12433533151E+03 0.  0.
          5    1    4    4  502    0 -0.12919531609E+02  0.91848934928E+01 -0.23382002007E+02  0.28637118977E+02  0.47000000000E+01 0.  1.
         -5    1    4    4    0  502  0.36659978446E+02 -0.10966217017E+02  0.13587873889E+03  0.14124210993E+03  0.47000000000E+01 0.  1.
          5    1    5    5  503    0 -0.13109752549E+02 -0.17870035397E+01  0.32835419600E+03  0.32865426671E+03  0.47000000000E+01 0.  1.
         -5    1    5    5    0  503 -0.10630694288E+02  0.35683270637E+01 -0.88349090219E+01  0.15029645255E+02  0.47000000000E+01 0.  1.
<mgrwt>
<rscale>  0 0.27768553E+03</rscale>
<asrwt>0</asrwt>
<pdfrwt beam="1">  1        2 0.72736855E-01 0.27768553E+03</pdfrwt>
<pdfrwt beam="2">  1       -2 0.62728555E-02 0.27768553E+03</pdfrwt>
<totfact> 0.91115767E+03</totfact>
</mgrwt>
</event>
<event>
 9    1  0.7986988E-001  0.2714624E+03  0.7818608E-02  0.1100446E+00
         -3   -1    0    0    0  501 -0.00000000000E+00  0.00000000000E+00  0.11219420191E+04  0.11219420191E+04  0.00000000000E+00 0. -1.
          3   -1    0    0  501    0  0.00000000000E+00 -0.00000000000E+00 -0.16420593938E+02  0.16420593938E+02  0.00000000000E+00 0. -1.
         35    2    1    2    0    0  0.71054273576E-14  0.71054273576E-14  0.11055214252E+04  0.11383626130E+04  0.27146236806E+03 0.  0.
         25    2    3    3    0    0  0.30213346553E+02 -0.39766461793E+02  0.49730505577E+03  0.51531144044E+03  0.12545654373E+03 0.  0.
         25    2    3    3    0    0 -0.30213346553E+02  0.39766461793E+02  0.60821636939E+03  0.62305117259E+03  0.12558421032E+03 0.  0.
          5    1    4    4  502    0  0.64250418208E+02 -0.53634237979E+02  0.43347859497E+03  0.44150937705E+03  0.47000000000E+01 0.  1.
         -5    1    4    4    0  502 -0.34037071655E+02  0.13867776187E+02  0.63826460796E+02  0.73802063392E+02  0.47000000000E+01 0.  1.
          5    1    5    5  503    0 -0.57047868631E+02  0.50742463706E+02  0.20566604171E+03  0.21943078100E+03  0.47000000000E+01 0.  1.
         -5    1    5    5    0  503  0.26834522078E+02 -0.10976001914E+02  0.40255032767E+03  0.40362039158E+03  0.47000000000E+01 0.  1.
<mgrwt>
<rscale>  0 0.27146237E+03</rscale>
<asrwt>0</asrwt>
<pdfrwt beam="1">  1        3 0.25262461E-02 0.27146237E+03</pdfrwt>
<pdfrwt beam="2">  1       -3 0.17260640E+00 0.27146237E+03</pdfrwt>
<totfact> 0.40075649E+02</totfact>
</mgrwt>
</event>
<event>
 9    1  0.7986988E-001  0.2687445E+03  0.7818608E-02  0.1102000E+00
         -1   -1    0    0    0  501 -0.00000000000E+00  0.00000000000E+00  0.72904778461E+02  0.72904778461E+02  0.00000000000E+00 0.  1.
          1   -1    0    0  501    0  0.00000000000E+00 -0.00000000000E+00 -0.24766425724E+03  0.24766425724E+03  0.00000000000E+00 0.  1.
         35    2    1    2    0    0  0.00000000000E+00 -0.14210854715E-13 -0.17475947878E+03  0.32056903570E+03  0.26874454641E+03 0.  0.
         25    2    3    3    0    0 -0.82604894842E+01  0.39393324989E+02 -0.50690988886E+02  0.13892726101E+03  0.12292736781E+03 0.  0.
         25    2    3    3    0    0  0.82604894842E+01 -0.39393324989E+02 -0.12406848989E+03  0.18164177469E+03  0.12641469213E+03 0.  0.
          5    1    4    4  502    0  0.50919459762E+02  0.42795773469E+02 -0.42066676574E+02  0.78841390698E+02  0.47000000000E+01 0. -1.
         -5    1    4    4    0  502 -0.59179949246E+02 -0.34024484799E+01 -0.86243123116E+01  0.60085870313E+02  0.47000000000E+01 0. -1.
          5    1    5    5  503    0 -0.38907929032E+01 -0.73626417037E+02 -0.28310433634E+02  0.79117369822E+02  0.47000000000E+01 0. -1.
         -5    1    5    5    0  503  0.12151282387E+02  0.34233092048E+02 -0.95758056257E+02  0.10252440486E+03  0.47000000000E+01 0. -1.
<mgrwt>
<rscale>  0 0.26874455E+03</rscale>
<asrwt>0</asrwt>
<pdfrwt beam="1">  1        1 0.38102194E-01 0.26874455E+03</pdfrwt>
<pdfrwt beam="2">  1       -1 0.11216120E-01 0.26874455E+03</pdfrwt>
<totfact> 0.56465974E+03</totfact>
</mgrwt>
</event>
<event>
 9    1  0.7986988E-001  0.2752091E+03  0.7818608E-02  0.1098335E+00
         -2   -1    0    0    0  501 -0.00000000000E+00  0.00000000000E+00  0.12915197080E+03  0.12915197080E+03  0.00000000000E+00 0.  1.
          2   -1    0    0  501    0  0.00000000000E+00 -0.00000000000E+00 -0.14661030103E+03  0.14661030103E+03  0.00000000000E+00 0.  1.
         35    2    1    2    0    0 -0.71054273576E-14  0.00000000000E+00 -0.17458330224E+02  0.27576227183E+03  0.27520907919E+03 0.  0.
         25    2    3    3    0    0 -0.35795196762E+02  0.39053669370E+02  0.12770624400E+02  0.13671658734E+03  0.12538680634E+03 0.  0.
         25    2    3    3    0    0  0.35795196762E+02 -0.39053669370E+02 -0.30228954624E+02  0.13904568448E+03  0.12495370132E+03 0.  0.
          5    1    4    4  502    0  0.30569655074E+02  0.46962834642E+02 -0.23013729377E+02  0.60759636181E+02  0.47000000000E+01 0.  1.
         -5    1    4    4    0  502 -0.66364851836E+02 -0.79091652720E+01  0.35784353777E+02  0.75956951162E+02  0.47000000000E+01 0.  1.
          5    1    5    5  503    0  0.20387367957E+02  0.41129311201E+01 -0.73078488770E+02  0.76125662529E+02  0.47000000000E+01 0. -1.
         -5    1    5    5    0  503  0.15407828805E+02 -0.43166600490E+02  0.42849534146E+02  0.62920021955E+02  0.47000000000E+01 0. -1.
<mgrwt>
<rscale>  0 0.27520908E+03</rscale>
<asrwt>0</asrwt>
<pdfrwt beam="1">  1        2 0.22555431E-01 0.27520908E+03</pdfrwt>
<pdfrwt beam="2">  1       -2 0.19869534E-01 0.27520908E+03</pdfrwt>
<totfact> 0.51051019E+03</totfact>
</mgrwt>
</event>
<event>
 9    1  0.7986988E-001  0.2750237E+03  0.7818608E-02  0.1098438E+00
         -2   -1    0    0    0  501 -0.00000000000E+00  0.00000000000E+00  0.46934288540E+02  0.46934288540E+02  0.00000000000E+00 0.  1.
          2   -1    0    0  501    0  0.00000000000E+00 -0.00000000000E+00 -0.40289334118E+03  0.40289334118E+03  0.00000000000E+00 0.  1.
         35    2    1    2    0    0  0.14210854715E-13  0.00000000000E+00 -0.35595905264E+03  0.44982762972E+03  0.27502372498E+03 0.  0.
         25    2    3    3    0    0 -0.37192960724E+02 -0.46291626180E+02 -0.17859455055E+03  0.22539259439E+03  0.12401442311E+03 0.  0.
         25    2    3    3    0    0  0.37192960724E+02  0.46291626180E+02 -0.17736450209E+03  0.22443503533E+03  0.12404308727E+03 0.  0.
          5    1    4    4  502    0  0.43254610304E+02 -0.35085372489E+02 -0.79397317417E+02  0.97097727513E+02  0.47000000000E+01 0.  1.
         -5    1    4    4    0  502 -0.80447571028E+02 -0.11206253691E+02 -0.99197233136E+02  0.12829486688E+03  0.47000000000E+01 0.  1.
          5    1    5    5  503    0 -0.24882573429E+02  0.59765001648E+02 -0.12917228106E+03  0.14456336354E+03  0.47000000000E+01 0. -1.
         -5    1    5    5    0  503  0.62075534153E+02 -0.13473375469E+02 -0.48192221024E+02  0.79871671788E+02  0.47000000000E+01 0. -1.
<mgrwt>
<rscale>  0 0.27502372E+03</rscale>
<asrwt>0</asrwt>
<pdfrwt beam="1">  1        2 0.61983592E-01 0.27502372E+03</pdfrwt>
<pdfrwt beam="2">  1       -2 0.72206596E-02 0.27502372E+03</pdfrwt>
<totfact> 0.87350497E+03</totfact>
</mgrwt>
</event>
<event>
 9    1  0.7986988E-001  0.2871138E+03  0.7818608E-02  0.1091866E+00
         -2   -1    0    0    0  501 -0.00000000000E+00  0.00000000000E+00  0.35810941541E+02  0.35810941541E+02  0.00000000000E+00 0.  1.
          2   -1    0    0  501    0  0.00000000000E+00 -0.00000000000E+00 -0.57548295082E+03  0.57548295082E+03  0.00000000000E+00 0.  1.
         35    2    1    2    0    0 -0.35527136788E-14  0.00000000000E+00 -0.53967200928E+03  0.61129389236E+03  0.28711381931E+03 0.  0.
         25    2    3    3    0    0  0.28968961109E+02  0.15631979922E+02 -0.40205491438E+03  0.42263475415E+03  0.12604928295E+03 0.  0.
         25    2    3    3    0    0 -0.28968961109E+02 -0.15631979922E+02 -0.13761709489E+03  0.18865913821E+03  0.12478079227E+03 0.  0.
          5    1    4    4  502    0  0.17688134393E+02 -0.24719031804E+02 -0.36562099716E+03  0.36691239309E+03  0.47000000000E+01 0.  1.
         -5    1    4    4    0  502  0.11280826715E+02  0.40351011726E+02 -0.36433917219E+02  0.55722361064E+02  0.47000000000E+01 0.  1.
          5    1    5    5  503    0 -0.35288697972E+02 -0.94253970865E+00 -0.15820858842E+03  0.16216728411E+03  0.47000000000E+01 0. -1.
         -5    1    5    5    0  503  0.63197368636E+01 -0.14689440213E+02  0.20591493529E+02  0.26491854098E+02  0.47000000000E+01 0. -1.
<mgrwt>
<rscale>  0 0.28711382E+03</rscale>
<asrwt>0</asrwt>
<pdfrwt beam="1">  1        2 0.88535827E-01 0.28711382E+03</pdfrwt>
<pdfrwt beam="2">  1       -2 0.55093763E-02 0.28711382E+03</pdfrwt>
<totfact> 0.89157918E+03</totfact>
</mgrwt>
</event>
<event>
 9    1  0.7986988E-001  0.2705194E+03  0.7818608E-02  0.1100983E+00
          2   -1    0    0  501    0  0.00000000000E+00  0.00000000000E+00  0.55150784507E+03  0.55150784507E+03  0.00000000000E+00 0. -1.
         -2   -1    0    0    0  501 -0.00000000000E+00 -0.00000000000E+00 -0.33173024398E+02  0.33173024398E+02  0.00000000000E+00 0. -1.
         35    2    1    2    0    0  0.00000000000E+00 -0.14210854715E-13  0.51833482067E+03  0.58468086947E+03  0.27051937602E+03 0.  0.
         25    2    3    3    0    0  0.95188534690E+01  0.39777481370E+02  0.19208599541E+03  0.23318778663E+03  0.12572453064E+03 0.  0.
         25    2    3    3    0    0 -0.95188534690E+01 -0.39777481370E+02  0.32624882526E+03  0.35149308284E+03  0.12424264446E+03 0.  0.
          5    1    4    4  502    0  0.50101565468E+01  0.79876122949E+02  0.16751417725E+03  0.18571049045E+03  0.47000000000E+01 0. -1.
         -5    1    4    4    0  502  0.45086969222E+01 -0.40098641579E+02  0.24571818165E+02  0.47477296178E+02  0.47000000000E+01 0. -1.
          5    1    5    5  503    0  0.23945922081E+02 -0.69326281139E+02  0.26833897471E+03  0.27822191824E+03  0.47000000000E+01 0.  1.
         -5    1    5    5    0  503 -0.33464775551E+02  0.29548799769E+02  0.57909850550E+02  0.73271164595E+02  0.47000000000E+01 0.  1.
<mgrwt>
<rscale>  0 0.27051938E+03</rscale>
<asrwt>0</asrwt>
<pdfrwt beam="1">  1        2 0.84847354E-01 0.27051938E+03</pdfrwt>
<pdfrwt beam="2">  1       -2 0.51035426E-02 0.27051938E+03</pdfrwt>
<totfact> 0.10496500E+04</totfact>
</mgrwt>
</event>
<event>
 9    1  0.7986988E-001  0.2604798E+03  0.7818608E-02  0.1106855E+00
          1   -1    0    0  501    0  0.00000000000E+00  0.00000000000E+00  0.86131918534E+02  0.86131918534E+02  0.00000000000E+00 0. -1.
         -1   -1    0    0    0  501 -0.00000000000E+00 -0.00000000000E+00 -0.19693553331E+03  0.19693553331E+03  0.00000000000E+00 0. -1.
         35    2    1    2    0    0 -0.35527136788E-14  0.71054273576E-14 -0.11080361478E+03  0.28306745185E+03  0.26047982887E+03 0.  0.
         25    2    3    3    0    0 -0.42876109185E+01  0.88795741569E+01 -0.90953766778E+02  0.15496676149E+03  0.12507949085E+03 0.  0.
         25    2    3    3    0    0  0.42876109185E+01 -0.88795741569E+01 -0.19849848001E+02  0.12810069036E+03  0.12616869643E+03 0.  0.
          5    1    4    4  502    0  0.32214260561E+02  0.45401840875E+02 -0.70161090482E+01  0.56306318691E+02  0.47000000000E+01 0. -1.
         -5    1    4    4    0  502 -0.36501871480E+02 -0.36522266719E+02 -0.83937657730E+02  0.98660442797E+02  0.47000000000E+01 0. -1.
          5    1    5    5  503    0  0.33107400750E+02 -0.52120699715E+02  0.17007576829E+02  0.64218494165E+02  0.47000000000E+01 0. -1.
         -5    1    5    5    0  503 -0.28819789832E+02  0.43241125558E+02 -0.36857424830E+02  0.63882196194E+02  0.47000000000E+01 0. -1.
<mgrwt>
<rscale>  0 0.26047983E+03</rscale>
<asrwt>0</asrwt>
<pdfrwt beam="1">  1        1 0.13251064E-01 0.26047983E+03</pdfrwt>
<pdfrwt beam="2">  1       -1 0.30297774E-01 0.26047983E+03</pdfrwt>
<totfact> 0.43765637E+03</totfact>
</mgrwt>
</event>
<event>
 9    1  0.7986988E-001  0.2774919E+03  0.7818608E-02  0.1097067E+00
          2   -1    0    0  501    0  0.00000000000E+00  0.00000000000E+00  0.94496031663E+03  0.94496031663E+03  0.00000000000E+00 0.  1.
         -2   -1    0    0    0  501 -0.00000000000E+00 -0.00000000000E+00 -0.20371687687E+02  0.20371687687E+02  0.00000000000E+00 0.  1.
         35    2    1    2    0    0  0.00000000000E+00  0.00000000000E+00  0.92458862894E+03  0.96533200431E+03  0.27749188418E+03 0.  0.
         25    2    3    3    0    0  0.53701439507E+02  0.21390619063E+02  0.54184672020E+03  0.55921633149E+03  0.12563293367E+03 0.  0.
         25    2    3    3    0    0 -0.53701439507E+02 -0.21390619063E+02  0.38274190874E+03  0.40611567282E+03  0.12287053275E+03 0.  0.
          5    1    4    4  502    0  0.93419879395E+02  0.21276270791E+02  0.42576032247E+03  0.43643315153E+03  0.47000000000E+01 0.  1.
         -5    1    4    4    0  502 -0.39718439888E+02  0.11434827158E+00  0.11608639773E+03  0.12278317996E+03  0.47000000000E+01 0.  1.
          5    1    5    5  503    0  0.25388096551E+02 -0.25574956024E+02  0.38882759495E+02  0.53222108264E+02  0.47000000000E+01 0.  1.
         -5    1    5    5    0  503 -0.79089536058E+02  0.41843369608E+01  0.34385914924E+03  0.35289356456E+03  0.47000000000E+01 0.  1.
<mgrwt>
<rscale>  0 0.27749188E+03</rscale>
<asrwt>0</asrwt>
<pdfrwt beam="1">  1        2 0.14537848E+00 0.27749188E+03</pdfrwt>
<pdfrwt beam="2">  1       -2 0.31341065E-02 0.27749188E+03</pdfrwt>
<totfact> 0.11250371E+04</totfact>
</mgrwt>
</event>
<event>
 9    1  0.7986988E-001  0.2761768E+03  0.7818608E-02  0.1097796E+00
         -2   -1    0    0    0  501 -0.00000000000E+00  0.00000000000E+00  0.41994074083E+02  0.41994074083E+02  0.00000000000E+00 0. -1.
          2   -1    0    0  501    0  0.00000000000E+00 -0.00000000000E+00 -0.45407381334E+03  0.45407381334E+03  0.00000000000E+00 0. -1.
         35    2    1    2    0    0  0.17763568394E-14  0.00000000000E+00 -0.41207973926E+03  0.49606788742E+03  0.27617682275E+03 0.  0.
         25    2    3    3    0    0  0.53634978522E+01 -0.58135599860E+02 -0.18582348386E+03  0.23092715546E+03  0.12405026760E+03 0.  0.
         25    2    3    3    0    0 -0.53634978522E+01  0.58135599860E+02 -0.22625625540E+03  0.26514073197E+03  0.12529644673E+03 0.  0.
          5    1    4    4  502    0 -0.10224088393E+02 -0.58566247479E+01 -0.17456621477E+03  0.17502652763E+03  0.47000000000E+01 0. -1.
         -5    1    4    4    0  502  0.15587586245E+02 -0.52278975112E+02 -0.11257269097E+02  0.55900627825E+02  0.47000000000E+01 0. -1.
          5    1    5    5  503    0  0.36210589768E+02  0.31894935336E+02 -0.20622276153E+03  0.21184525268E+03  0.47000000000E+01 0.  1.
         -5    1    5    5    0  503 -0.41574087620E+02  0.26240664523E+02 -0.20033493870E+02  0.53295479290E+02  0.47000000000E+01 0.  1.
<mgrwt>
<rscale>  0 0.27617682E+03</rscale>
<asrwt>0</asrwt>
<pdfrwt beam="1">  1        2 0.69857513E-01 0.27617682E+03</pdfrwt>
<pdfrwt beam="2">  1       -2 0.64606265E-02 0.27617682E+03</pdfrwt>
<totfact> 0.91028031E+03</totfact>
</mgrwt>
</event>
<event>
 9    1  0.7986988E-001  0.2753288E+03  0.7818608E-02  0.1098268E+00
         -2   -1    0    0    0  501 -0.00000000000E+00  0.00000000000E+00  0.23727586113E+02  0.23727586113E+02  0.00000000000E+00 0.  1.
          2   -1    0    0  501    0  0.00000000000E+00 -0.00000000000E+00 -0.79871093561E+03  0.79871093561E+03  0.00000000000E+00 0.  1.
         35    2    1    2    0    0  0.35527136788E-14  0.71054273576E-14 -0.77498334949E+03  0.82243852172E+03  0.27532876714E+03 0.  0.
         25    2    3    3    0    0  0.29240907275E+02  0.48332209495E+02 -0.42168521096E+03  0.44338438360E+03  0.12482091711E+03 0.  0.
         25    2    3    3    0    0 -0.29240907275E+02 -0.48332209495E+02 -0.35329813853E+03  0.37905413812E+03  0.12518558942E+03 0.  0.
          5    1    4    4  502    0  0.66768574294E+01  0.52193339478E+02 -0.56120676875E+02  0.77073636764E+02  0.47000000000E+01 0.  1.
         -5    1    4    4    0  502  0.22564049845E+02 -0.38611299833E+01 -0.36556453408E+03  0.36631074684E+03  0.47000000000E+01 0.  1.
          5    1    5    5  503    0 -0.56382661405E+02 -0.59819990830E+02 -0.33283301415E+03  0.34286636044E+03  0.47000000000E+01 0.  1.
         -5    1    5    5    0  503  0.27141754131E+02  0.11487781335E+02 -0.20465124380E+02  0.36187777677E+02  0.47000000000E+01 0.  1.
<mgrwt>
<rscale>  0 0.27532877E+03</rscale>
<asrwt>0</asrwt>
<pdfrwt beam="1">  1        2 0.12287861E+00 0.27532877E+03</pdfrwt>
<pdfrwt beam="2">  1       -2 0.36503977E-02 0.27532877E+03</pdfrwt>
<totfact> 0.11178454E+04</totfact>
</mgrwt>
</event>
<event>
 9    1  0.7986988E-001  0.2728034E+03  0.7818608E-02  0.1099686E+00
          1   -1    0    0  501    0  0.00000000000E+00  0.00000000000E+00  0.38246052400E+02  0.38246052400E+02  0.00000000000E+00 0. -1.
         -1   -1    0    0    0  501 -0.00000000000E+00 -0.00000000000E+00 -0.48646656411E+03  0.48646656411E+03  0.00000000000E+00 0. -1.
         35    2    1    2    0    0  0.00000000000E+00 -0.35527136788E-14 -0.44822051171E+03  0.52471261651E+03  0.27280341421E+03 0.  0.
         25    2    3    3    0    0 -0.21660215155E+01 -0.15920565664E+02 -0.12474005503E+03  0.17758642756E+03  0.12537424721E+03 0.  0.
         25    2    3    3    0    0  0.21660215155E+01  0.15920565664E+02 -0.32348045668E+03  0.34712618894E+03  0.12489527269E+03 0.  0.
          5    1    4    4  502    0 -0.59767470141E+02 -0.26066257998E+02 -0.48596645169E+02  0.81457499438E+02  0.47000000000E+01 0. -1.
         -5    1    4    4    0  502  0.57601448626E+02  0.10145692334E+02 -0.76143409862E+02  0.96128928123E+02  0.47000000000E+01 0. -1.
          5    1    5    5  503    0  0.56772997074E+02  0.27206834912E+02 -0.22676477707E+03  0.23538848566E+03  0.47000000000E+01 0.  1.
         -5    1    5    5    0  503 -0.54606975558E+02 -0.11286269248E+02 -0.96715679603E+02  0.11173770328E+03  0.47000000000E+01 0.  1.
<mgrwt>
<rscale>  0 0.27280341E+03</rscale>
<asrwt>0</asrwt>
<pdfrwt beam="1">  1        1 0.58840082E-02 0.27280341E+03</pdfrwt>
<pdfrwt beam="2">  1       -1 0.74841009E-01 0.27280341E+03</pdfrwt>
<totfact> 0.24792529E+03</totfact>
</mgrwt>
</event>
<event>
 9    1  0.7986988E-001  0.3032172E+03  0.7818608E-02  0.1083643E+00
         -2   -1    0    0    0  501 -0.00000000000E+00  0.00000000000E+00  0.23428656691E+02  0.23428656691E+02  0.00000000000E+00 0.  1.
          2   -1    0    0  501    0  0.00000000000E+00 -0.00000000000E+00 -0.98107037329E+03  0.98107037329E+03  0.00000000000E+00 0.  1.
         35    2    1    2    0    0  0.00000000000E+00 -0.71054273576E-14 -0.95764171660E+03  0.10044990300E+04  0.30321715628E+03 0.  0.
         25    2    3    3    0    0 -0.80284767799E+02 -0.25439979778E+02 -0.40950919641E+03  0.43624911114E+03  0.12459000167E+03 0.  0.
         25    2    3    3    0    0  0.80284767799E+02  0.25439979778E+02 -0.54813252019E+03  0.56824991884E+03  0.12395916287E+03 0.  0.
          5    1    4    4  502    0  0.20757756253E+02 -0.37165596979E+02 -0.18232437948E+03  0.18728704012E+03  0.47000000000E+01 0. -1.
         -5    1    4    4    0  502 -0.10104252405E+03  0.11725617201E+02 -0.22718481693E+03  0.24896207103E+03  0.47000000000E+01 0. -1.
          5    1    5    5  503    0  0.28189978977E+02 -0.36838189643E+02 -0.36376587606E+03  0.36674163892E+03  0.47000000000E+01 0. -1.
         -5    1    5    5    0  503  0.52094788821E+02  0.62278169421E+02 -0.18436664413E+03  0.20150827992E+03  0.47000000000E+01 0. -1.
<mgrwt>
<rscale>  0 0.30321716E+03</rscale>
<asrwt>0</asrwt>
<pdfrwt beam="1">  1        2 0.15093387E+00 0.30321716E+03</pdfrwt>
<pdfrwt beam="2">  1       -2 0.36044096E-02 0.30321716E+03</pdfrwt>
<totfact> 0.86851591E+03</totfact>
</mgrwt>
</event>
<event>
 9    1  0.7986988E-001  0.2746703E+03  0.7818608E-02  0.1098636E+00
          4   -1    0    0  501    0  0.00000000000E+00  0.00000000000E+00  0.14849955594E+04  0.14849955594E+04  0.00000000000E+00 0. -1.
         -4   -1    0    0    0  501 -0.00000000000E+00 -0.00000000000E+00 -0.12701008811E+02  0.12701008811E+02  0.00000000000E+00 0. -1.
         35    2    1    2    0    0  0.00000000000E+00  0.00000000000E+00  0.14722945506E+04  0.14976965682E+04  0.27467028733E+03 0.  0.
         25    2    3    3    0    0  0.33907121647E+02  0.36733067379E+02  0.87231245975E+03  0.88266764186E+03  0.12519635544E+03 0.  0.
         25    2    3    3    0    0 -0.33907121647E+02 -0.36733067379E+02  0.59998209086E+03  0.61502892637E+03  0.12563064827E+03 0.  0.
          5    1    4    4  502    0 -0.18180526722E+02  0.54033161921E+02  0.19768666110E+03  0.20579655030E+03  0.47000000000E+01 0. -1.
         -5    1    4    4    0  502  0.52087648369E+02 -0.17300094542E+02  0.67462579866E+03  0.67687109157E+03  0.47000000000E+01 0. -1.
          5    1    5    5  503    0 -0.31689727121E+02 -0.74641965118E+02  0.52068774376E+03  0.52698527329E+03  0.47000000000E+01 0. -1.
         -5    1    5    5    0  503 -0.22173945259E+01  0.37908897739E+02  0.79294347101E+02  0.88043653084E+02  0.47000000000E+01 0. -1.
<mgrwt>
<rscale>  0 0.27467029E+03</rscale>
<asrwt>0</asrwt>
<pdfrwt beam="1">  1        4 0.22846072E+00 0.27467029E+03</pdfrwt>
<pdfrwt beam="2">  1       -4 0.19540025E-02 0.27467029E+03</pdfrwt>
<totfact> 0.18931288E+02</totfact>
</mgrwt>
</event>
<event>
 9    1  0.7986988E-001  0.2822905E+03  0.7818608E-02  0.1094444E+00
          2   -1    0    0  501    0  0.00000000000E+00  0.00000000000E+00  0.15412034441E+03  0.15412034441E+03  0.00000000000E+00 0.  1.
         -2   -1    0    0    0  501 -0.00000000000E+00 -0.00000000000E+00 -0.12926254166E+03  0.12926254166E+03  0.00000000000E+00 0.  1.
         35    2    1    2    0    0  0.00000000000E+00  0.00000000000E+00  0.24857802752E+02  0.28338288606E+03  0.28229054139E+03 0.  0.
         25    2    3    3    0    0 -0.48382784371E+02  0.32171393664E+02 -0.18211871495E+02  0.13901953901E+03  0.12497546787E+03 0.  0.
         25    2    3    3    0    0  0.48382784371E+02 -0.32171393664E+02  0.43069674247E+02  0.14436334706E+03  0.12493953233E+03 0.  0.
          5    1    4    4  502    0 -0.44665680427E+02  0.73707278701E+02  0.12230410698E+02  0.87174875322E+02  0.47000000000E+01 0. -1.
         -5    1    4    4    0  502 -0.37171039436E+01 -0.41535885037E+02 -0.30442282193E+02  0.51844663686E+02  0.47000000000E+01 0. -1.
          5    1    5    5  503    0  0.15339480611E+02  0.23464244830E+02 -0.33545151015E+02  0.43968597970E+02  0.47000000000E+01 0.  1.
         -5    1    5    5    0  503  0.33043303760E+02 -0.55635638493E+02  0.76614825262E+02  0.10039474909E+03  0.47000000000E+01 0.  1.
<mgrwt>
<rscale>  0 0.28229054E+03</rscale>
<asrwt>0</asrwt>
<pdfrwt beam="1">  1        2 0.23710822E-01 0.28229054E+03</pdfrwt>
<pdfrwt beam="2">  1       -2 0.19886545E-01 0.28229054E+03</pdfrwt>
<totfact> 0.48226890E+03</totfact>
</mgrwt>
</event>
<event>
 9    1  0.7986988E-001  0.2767042E+03  0.7818608E-02  0.1097503E+00
         -1   -1    0    0    0  501 -0.00000000000E+00  0.00000000000E+00  0.30328475714E+02  0.30328475714E+02  0.00000000000E+00 0. -1.
          1   -1    0    0  501    0  0.00000000000E+00 -0.00000000000E+00 -0.63113317324E+03  0.63113317324E+03  0.00000000000E+00 0. -1.
         35    2    1    2    0    0 -0.35527136788E-14  0.35527136788E-14 -0.60080469752E+03  0.66146164895E+03  0.27670422560E+03 0.  0.
         25    2    3    3    0    0  0.28521736301E+02  0.25190848023E+02 -0.22290234836E+03  0.26118845905E+03  0.13071299084E+03 0.  0.
         25    2    3    3    0    0 -0.28521736301E+02 -0.25190848023E+02 -0.37790234917E+03  0.40027318990E+03  0.12633436895E+03 0.  0.
          5    1    4    4  502    0 -0.17527384537E+02  0.46124774847E+02 -0.19893450406E+03  0.20501641634E+03  0.47000000000E+01 0.  1.
         -5    1    4    4    0  502  0.46049120838E+02 -0.20933926824E+02 -0.23967844291E+02  0.56172042709E+02  0.47000000000E+01 0.  1.
          5    1    5    5  503    0 -0.48109676544E+02  0.12558697802E+02 -0.53993000181E+02  0.73549955379E+02  0.47000000000E+01 0. -1.
         -5    1    5    5    0  503  0.19587940243E+02 -0.37749545825E+02 -0.32390934899E+03  0.32672323452E+03  0.47000000000E+01 0. -1.
<mgrwt>
<rscale>  0 0.27670423E+03</rscale>
<asrwt>0</asrwt>
<pdfrwt beam="1">  1        1 0.97097403E-01 0.27670423E+03</pdfrwt>
<pdfrwt beam="2">  1       -1 0.46659197E-02 0.27670423E+03</pdfrwt>
<totfact> 0.63748021E+03</totfact>
</mgrwt>
</event>
<event>
 9    1  0.7986988E-001  0.2763867E+03  0.7818608E-02  0.1097679E+00
         -1   -1    0    0    0  501 -0.00000000000E+00  0.00000000000E+00  0.19151165971E+02  0.19151165971E+02  0.00000000000E+00 0.  1.
          1   -1    0    0  501    0  0.00000000000E+00 -0.00000000000E+00 -0.99719257731E+03  0.99719257731E+03  0.00000000000E+00 0.  1.
         35    2    1    2    0    0  0.00000000000E+00  0.00000000000E+00 -0.97804141134E+03  0.10163437433E+04  0.27638668964E+03 0.  0.
         25    2    3    3    0    0  0.21541652091E+02  0.47447370213E+02 -0.38198605460E+03  0.40513271790E+03  0.12451456737E+03 0.  0.
         25    2    3    3    0    0 -0.21541652091E+02 -0.47447370213E+02 -0.59605535673E+03  0.61121102538E+03  0.12482641362E+03 0.  0.
          5    1    4    4  502    0 -0.24521675330E+02 -0.14847467574E+02 -0.20868849322E+02  0.35768124446E+02  0.47000000000E+01 0. -1.
         -5    1    4    4    0  502  0.46063327421E+02  0.62294837788E+02 -0.36111720528E+03  0.36936459346E+03  0.47000000000E+01 0. -1.
          5    1    5    5  503    0 -0.33222764218E+02  0.35068074253E+01 -0.38496353326E+02  0.51187000108E+02  0.47000000000E+01 0.  1.
         -5    1    5    5    0  503  0.11681112126E+02 -0.50954177639E+02 -0.55755900341E+03  0.56002402527E+03  0.47000000000E+01 0.  1.
<mgrwt>
<rscale>  0 0.27638669E+03</rscale>
<asrwt>0</asrwt>
<pdfrwt beam="1">  1        1 0.15341432E+00 0.27638669E+03</pdfrwt>
<pdfrwt beam="2">  1       -1 0.29463318E-02 0.27638669E+03</pdfrwt>
<totfact> 0.62221006E+03</totfact>
</mgrwt>
</event>
<event>
 9    1  0.7986988E-001  0.2731004E+03  0.7818608E-02  0.1099518E+00
         -2   -1    0    0    0  501 -0.00000000000E+00  0.00000000000E+00  0.83800088464E+01  0.83800088464E+01  0.00000000000E+00 0. -1.
          2   -1    0    0  501    0  0.00000000000E+00 -0.00000000000E+00 -0.22250520497E+04  0.22250520497E+04  0.00000000000E+00 0. -1.
         35    2    1    2    0    0 -0.71054273576E-14 -0.35527136788E-14 -0.22166720408E+04  0.22334320585E+04  0.27310039077E+03 0.  0.
         25    2    3    3    0    0  0.46234042771E+02 -0.31484760452E+02 -0.12987596861E+04  0.13059233674E+04  0.12462039318E+03 0.  0.
         25    2    3    3    0    0 -0.46234042771E+02  0.31484760452E+02 -0.91791235476E+03  0.92750869116E+03  0.12074934499E+03 0.  0.
          5    1    4    4  502    0 -0.34090189326E+02 -0.26365710426E+02 -0.75230198971E+03  0.75355004175E+03  0.47000000000E+01 0. -1.
         -5    1    4    4    0  502  0.80324232098E+02 -0.51190500256E+01 -0.54645769638E+03  0.55237332563E+03  0.47000000000E+01 0. -1.
          5    1    5    5  503    0 -0.54431512361E+02 -0.10842465326E+02 -0.18230788434E+03  0.19062686926E+03  0.47000000000E+01 0. -1.
         -5    1    5    5    0  503  0.81974695892E+01  0.42327225778E+02 -0.73560447042E+03  0.73688182190E+03  0.47000000000E+01 0. -1.
<mgrwt>
<rscale>  0 0.27310039E+03</rscale>
<asrwt>0</asrwt>
<pdfrwt beam="1">  1        2 0.34231618E+00 0.27310039E+03</pdfrwt>
<pdfrwt beam="2">  1       -2 0.12892303E-02 0.27310039E+03</pdfrwt>
<totfact> 0.83130205E+03</totfact>
</mgrwt>
</event>
<event>
 9    1  0.7986988E-001  0.2751917E+03  0.7818608E-02  0.1098344E+00
          2   -1    0    0  501    0  0.00000000000E+00  0.00000000000E+00  0.37622607017E+03  0.37622607017E+03  0.00000000000E+00 0. -1.
         -2   -1    0    0    0  501 -0.00000000000E+00 -0.00000000000E+00 -0.50322463684E+02  0.50322463684E+02  0.00000000000E+00 0. -1.
         35    2    1    2    0    0  0.00000000000E+00 -0.14210854715E-13  0.32590360648E+03  0.42654853385E+03  0.27519173500E+03 0.  0.
         25    2    3    3    0    0 -0.45620317491E+02 -0.30945907361E+02  0.14346569744E+03  0.19844491590E+03  0.12553531676E+03 0.  0.
         25    2    3    3    0    0  0.45620317491E+02  0.30945907361E+02  0.18243790905E+03  0.22810361795E+03  0.12533478095E+03 0.  0.
          5    1    4    4  502    0 -0.49832892244E+02  0.41033515154E+02  0.72049297320E+02  0.96851730803E+02  0.47000000000E+01 0. -1.
         -5    1    4    4    0  502  0.42125747536E+01 -0.71979422515E+02  0.71416400117E+02  0.10159318509E+03  0.47000000000E+01 0. -1.
          5    1    5    5  503    0 -0.18504551325E+02 -0.29839650252E+02  0.10397389732E+03  0.10984299919E+03  0.47000000000E+01 0.  1.
         -5    1    5    5    0  503  0.64124868815E+02  0.60785557613E+02  0.78464011726E+02  0.11826061877E+03  0.47000000000E+01 0.  1.
<mgrwt>
<rscale>  0 0.27519173E+03</rscale>
<asrwt>0</asrwt>
<pdfrwt beam="1">  1        2 0.57880932E-01 0.27519173E+03</pdfrwt>
<pdfrwt beam="2">  1       -2 0.77419177E-02 0.27519173E+03</pdfrwt>
<totfact> 0.84421979E+03</totfact>
</mgrwt>
</event>
<event>
 9    1  0.7986988E-001  0.2744451E+03  0.7818608E-02  0.1098762E+00
          1   -1    0    0  501    0  0.00000000000E+00  0.00000000000E+00  0.59410627546E+03  0.59410627546E+03  0.00000000000E+00 0. -1.
         -1   -1    0    0    0  501 -0.00000000000E+00 -0.00000000000E+00 -0.31694707467E+02  0.31694707467E+02  0.00000000000E+00 0. -1.
         35    2    1    2    0    0  0.00000000000E+00  0.00000000000E+00  0.56241156800E+03  0.62580098293E+03  0.27444507360E+03 0.  0.
         25    2    3    3    0    0  0.77762605646E+01  0.33977191996E+02  0.38268164362E+03  0.40424064387E+03  0.12550035055E+03 0.  0.
         25    2    3    3    0    0 -0.77762605646E+01 -0.33977191996E+02  0.17972992438E+03  0.22156033906E+03  0.12478468786E+03 0.  0.
          5    1    4    4  502    0 -0.16692706733E+02  0.77365556542E+02  0.25752046391E+03  0.26944935541E+03  0.47000000000E+01 0.  1.
         -5    1    4    4    0  502  0.24468967297E+02 -0.43388364546E+02  0.12516117971E+03  0.13479128846E+03  0.47000000000E+01 0.  1.
          5    1    5    5  503    0 -0.64551014433E+02 -0.31944491933E+01  0.91046155810E+02  0.11175209375E+03  0.47000000000E+01 0. -1.
         -5    1    5    5    0  503  0.56774753868E+02 -0.30782742803E+02  0.88683768567E+02  0.10980824531E+03  0.47000000000E+01 0. -1.
<mgrwt>
<rscale>  0 0.27444507E+03</rscale>
<asrwt>0</asrwt>
<pdfrwt beam="1">  1        1 0.91400957E-01 0.27444507E+03</pdfrwt>
<pdfrwt beam="2">  1       -1 0.48761093E-02 0.27444507E+03</pdfrwt>
<totfact> 0.64926997E+03</totfact>
</mgrwt>
</event>
<event>
 9    1  0.7986988E-001  0.2755119E+03  0.7818608E-02  0.1098166E+00
         -2   -1    0    0    0  501 -0.00000000000E+00  0.00000000000E+00  0.12664957467E+02  0.12664957467E+02  0.00000000000E+00 0.  1.
          2   -1    0    0  501    0  0.00000000000E+00 -0.00000000000E+00 -0.14983628244E+04  0.14983628244E+04  0.00000000000E+00 0.  1.
         35    2    1    2    0    0 -0.35527136788E-14 -0.35527136788E-14 -0.14856978669E+04  0.15110277818E+04  0.27551189768E+03 0.  0.
         25    2    3    3    0    0  0.28603090428E+02 -0.14409564848E+02 -0.10266853949E+04  0.10347195439E+04  0.12464293840E+03 0.  0.
         25    2    3    3    0    0 -0.28603090428E+02  0.14409564848E+02 -0.45901247199E+03  0.47630823792E+03  0.12309068092E+03 0.  0.
          5    1    4    4  502    0  0.13427033417E+02  0.62058451966E+01 -0.98783449479E+03  0.98795641444E+03  0.47000000000E+01 0. -1.
         -5    1    4    4    0  502  0.15176057012E+02 -0.20615410044E+02 -0.38850900120E+02  0.46763129470E+02  0.47000000000E+01 0. -1.
          5    1    5    5  503    0 -0.31639144769E+02 -0.36086820996E+02 -0.76457042657E+02  0.90393935102E+02  0.47000000000E+01 0.  1.
         -5    1    5    5    0  503  0.30360543406E+01  0.50496385844E+02 -0.38255542933E+03  0.38591430282E+03  0.47000000000E+01 0.  1.
<mgrwt>
<rscale>  0 0.27551190E+03</rscale>
<asrwt>0</asrwt>
<pdfrwt beam="1">  1        2 0.23051733E+00 0.27551190E+03</pdfrwt>
<pdfrwt beam="2">  1       -2 0.19484553E-02 0.27551190E+03</pdfrwt>
<totfact> 0.10983896E+04</totfact>
</mgrwt>
</event>
<event>
 9    1  0.7986988E-001  0.2654085E+03  0.7818608E-02  0.1103937E+00
         -2   -1    0    0    0  501 -0.00000000000E+00  0.00000000000E+00  0.51779819868E+02  0.51779819868E+02  0.00000000000E+00 0.  1.
          2   -1    0    0  501    0  0.00000000000E+00 -0.00000000000E+00 -0.34010193592E+03  0.34010193592E+03  0.00000000000E+00 0.  1.
         35    2    1    2    0    0  0.00000000000E+00  0.00000000000E+00 -0.28832211605E+03  0.39188175579E+03  0.26540849255E+03 0.  0.
         25    2    3    3    0    0  0.12951187467E+01 -0.41780625630E+02 -0.16621009820E+03  0.21219267126E+03  0.12511049109E+03 0.  0.
         25    2    3    3    0    0 -0.12951187467E+01  0.41780625630E+02 -0.12211201785E+03  0.17968908453E+03  0.12501809543E+03 0.  0.
          5    1    4    4  502    0 -0.53070593649E+02 -0.65740072258E+01 -0.12296189326E+03  0.13416938054E+03  0.47000000000E+01 0.  1.
         -5    1    4    4    0  502  0.54365712395E+02 -0.35206618405E+02 -0.43248204941E+02  0.78023290717E+02  0.47000000000E+01 0.  1.
          5    1    5    5  503    0  0.24501521968E+02  0.87515675146E+01  0.18904242374E+02  0.32501921366E+02  0.47000000000E+01 0. -1.
         -5    1    5    5    0  503 -0.25796640715E+02  0.33029058116E+02 -0.14101626023E+03  0.14718716316E+03  0.47000000000E+01 0. -1.
<mgrwt>
<rscale>  0 0.26540849E+03</rscale>
<asrwt>0</asrwt>
<pdfrwt beam="1">  1        2 0.52323375E-01 0.26540849E+03</pdfrwt>
<pdfrwt beam="2">  1       -2 0.79661261E-02 0.26540849E+03</pdfrwt>
<totfact> 0.89915132E+03</totfact>
</mgrwt>
</event>
<event>
 9    1  0.7986988E-001  0.2761760E+03  0.7818608E-02  0.1097796E+00
          2   -1    0    0  501    0  0.00000000000E+00  0.00000000000E+00  0.25929415280E+03  0.25929415280E+03  0.00000000000E+00 0. -1.
         -2   -1    0    0    0  501 -0.00000000000E+00 -0.00000000000E+00 -0.73539243671E+02  0.73539243671E+02  0.00000000000E+00 0. -1.
         35    2    1    2    0    0  0.00000000000E+00 -0.35527136788E-14  0.18575490913E+03  0.33283339647E+03  0.27617600102E+03 0.  0.
         25    2    3    3    0    0  0.55861852985E+02  0.16438511151E+02  0.93459202973E+02  0.16681314810E+03  0.12530455893E+03 0.  0.
         25    2    3    3    0    0 -0.55861852985E+02 -0.16438511151E+02  0.92295706153E+02  0.16602024837E+03  0.12511376514E+03 0.  0.
          5    1    4    4  502    0 -0.19329135149E+02 -0.15534824400E+02  0.79981101277E+02  0.83869021672E+02  0.47000000000E+01 0.  1.
         -5    1    4    4    0  502  0.75190988134E+02  0.31973335551E+02  0.13478101696E+02  0.82944126423E+02  0.47000000000E+01 0.  1.
          5    1    5    5  503    0  0.98315606670E+01  0.27975197764E+02  0.80240707701E+02  0.85673405719E+02  0.47000000000E+01 0.  1.
         -5    1    5    5    0  503 -0.65693413652E+02 -0.44413708915E+02  0.12054998452E+02  0.80346842654E+02  0.47000000000E+01 0.  1.
<mgrwt>
<rscale>  0 0.27617600E+03</rscale>
<asrwt>0</asrwt>
<pdfrwt beam="1">  1        2 0.39891407E-01 0.27617600E+03</pdfrwt>
<pdfrwt beam="2">  1       -2 0.11313730E-01 0.27617600E+03</pdfrwt>
<totfact> 0.69203822E+03</totfact>
</mgrwt>
</event>
<event>
 9    1  0.7986988E-001  0.2763931E+03  0.7818608E-02  0.1097675E+00
          1   -1    0    0  501    0  0.00000000000E+00  0.00000000000E+00  0.64110362553E+03  0.64110362553E+03  0.00000000000E+00 0.  1.
         -1   -1    0    0    0  501 -0.00000000000E+00 -0.00000000000E+00 -0.29789707796E+02  0.29789707796E+02  0.00000000000E+00 0.  1.
         35    2    1    2    0    0 -0.71054273576E-14  0.00000000000E+00  0.61131391773E+03  0.67089333332E+03  0.27639312344E+03 0.  0.
         25    2    3    3    0    0  0.51764364994E+02  0.10122539853E+02  0.36978464315E+03  0.39341841225E+03  0.12351254792E+03 0.  0.
         25    2    3    3    0    0 -0.51764364994E+02 -0.10122539853E+02  0.24152927458E+03  0.27747492107E+03  0.12599176976E+03 0.  0.
          5    1    4    4  502    0 -0.33015016369E+02  0.18836943655E+02  0.19714247995E+03  0.20082845703E+03  0.47000000000E+01 0. -1.
         -5    1    4    4    0  502  0.84779381363E+02 -0.87144038017E+01  0.17264216319E+03  0.19258995522E+03  0.47000000000E+01 0. -1.
          5    1    5    5  503    0 -0.18271358241E+02 -0.11829314668E+01 -0.11441910893E+02  0.22096361323E+02  0.47000000000E+01 0.  1.
         -5    1    5    5    0  503 -0.33493006753E+02 -0.89396083864E+01  0.25297118548E+03  0.25537855975E+03  0.47000000000E+01 0.  1.
<mgrwt>
<rscale>  0 0.27639312E+03</rscale>
<asrwt>0</asrwt>
<pdfrwt beam="1">  1        1 0.98631317E-01 0.27639312E+03</pdfrwt>
<pdfrwt beam="2">  1       -1 0.45830324E-02 0.27639312E+03</pdfrwt>
<totfact> 0.64042046E+03</totfact>
</mgrwt>
</event>
<event>
 9    1  0.7986988E-001  0.2771854E+03  0.7818608E-02  0.1097236E+00
          2   -1    0    0  501    0  0.00000000000E+00  0.00000000000E+00  0.25909014539E+04  0.25909014539E+04  0.00000000000E+00 0.  1.
         -2   -1    0    0    0  501 -0.00000000000E+00 -0.00000000000E+00 -0.74136132920E+01  0.74136132920E+01  0.00000000000E+00 0.  1.
         35    2    1    2    0    0  0.00000000000E+00 -0.35527136788E-14  0.25834878406E+04  0.25983150672E+04  0.27718543582E+03 0.  0.
         25    2    3    3    0    0  0.28760419162E+02  0.18152031447E+02  0.17631866893E+04  0.17678638919E+04  0.12393054930E+03 0.  0.
         25    2    3    3    0    0 -0.28760419162E+02 -0.18152031447E+02  0.82030115133E+03  0.83045117530E+03  0.12489402599E+03 0.  0.
          5    1    4    4  502    0 -0.41808349282E+02 -0.19840315437E+02  0.51422062309E+03  0.51632016753E+03  0.47000000000E+01 0. -1.
         -5    1    4    4    0  502  0.70568768443E+02  0.37992346884E+02  0.12489660662E+04  0.12515437244E+04  0.47000000000E+01 0. -1.
          5    1    5    5  503    0  0.11057785080E+02 -0.63334308386E+02  0.31323764917E+03  0.31980216399E+03  0.47000000000E+01 0. -1.
         -5    1    5    5    0  503 -0.39818204242E+02  0.45182276940E+02  0.50706350215E+03  0.51064901131E+03  0.47000000000E+01 0. -1.
<mgrwt>
<rscale>  0 0.27718544E+03</rscale>
<asrwt>0</asrwt>
<pdfrwt beam="1">  1        2 0.39859950E+00 0.27718544E+03</pdfrwt>
<pdfrwt beam="2">  1       -2 0.11405580E-02 0.27718544E+03</pdfrwt>
<totfact> 0.62910689E+03</totfact>
</mgrwt>
</event>
<event>
 9    1  0.7986988E-001  0.2688462E+03  0.7818608E-02  0.1101942E+00
         -2   -1    0    0    0  501 -0.00000000000E+00  0.00000000000E+00  0.12327559585E+02  0.12327559585E+02  0.00000000000E+00 0.  1.
          2   -1    0    0  501    0  0.00000000000E+00 -0.00000000000E+00 -0.14657862837E+04  0.14657862837E+04  0.00000000000E+00 0.  1.
         35    2    1    2    0    0  0.00000000000E+00  0.71054273576E-14 -0.14534587241E+04  0.14781138433E+04  0.26884618466E+03 0.  0.
         25    2    3    3    0    0 -0.39091115026E+02 -0.33386655869E+02 -0.73326398887E+03  0.74533721485E+03  0.12332356789E+03 0.  0.
         25    2    3    3    0    0  0.39091115026E+02  0.33386655869E+02 -0.72019473527E+03  0.73277662846E+03  0.12505337440E+03 0.  0.
          5    1    4    4  502    0 -0.48475832443E+02 -0.59941501516E+01 -0.99967468594E+02  0.11136166730E+03  0.47000000000E+01 0. -1.
         -5    1    4    4    0  502  0.93847174176E+01 -0.27392505718E+02 -0.63329652028E+03  0.63397554754E+03  0.47000000000E+01 0. -1.
          5    1    5    5  503    0  0.26807391243E+02 -0.46653522930E+02 -0.27543608316E+03  0.28068187211E+03  0.47000000000E+01 0.  1.
         -5    1    5    5    0  503  0.12283723783E+02  0.80040178799E+02 -0.44475865211E+03  0.45209475635E+03  0.47000000000E+01 0.  1.
<mgrwt>
<rscale>  0 0.26884618E+03</rscale>
<asrwt>0</asrwt>
<pdfrwt beam="1">  1        2 0.22550560E+00 0.26884618E+03</pdfrwt>
<pdfrwt beam="2">  1       -2 0.18965475E-02 0.26884618E+03</pdfrwt>
<totfact> 0.11891098E+04</totfact>
</mgrwt>
</event>
<event>
 9    1  0.7986988E-001  0.2723914E+03  0.7818608E-02  0.1099919E+00
          1   -1    0    0  501    0  0.00000000000E+00  0.00000000000E+00  0.65693267798E+02  0.65693267798E+02  0.00000000000E+00 0. -1.
         -1   -1    0    0    0  501 -0.00000000000E+00 -0.00000000000E+00 -0.28236168856E+03  0.28236168856E+03  0.00000000000E+00 0. -1.
         35    2    1    2    0    0 -0.71054273576E-14  0.35527136788E-14 -0.21666842076E+03  0.34805495636E+03  0.27239135098E+03 0.  0.
         25    2    3    3    0    0 -0.40280637652E+02 -0.11213120808E+02 -0.76227664713E+02  0.15430387077E+03  0.12747848375E+03 0.  0.
         25    2    3    3    0    0  0.40280637652E+02  0.11213120808E+02 -0.14044075605E+03  0.19375108558E+03  0.12675808991E+03 0.  0.
          5    1    4    4  502    0 -0.82946842303E+00  0.23771095363E+01 -0.10388619172E+03  0.10402292775E+03  0.47000000000E+01 0. -1.
         -5    1    4    4    0  502 -0.39451169229E+02 -0.13590230344E+02  0.27658527011E+02  0.50280943018E+02  0.47000000000E+01 0. -1.
          5    1    5    5  503    0 -0.30693708870E+02 -0.29025668809E+02 -0.17149383650E+02  0.45834316550E+02  0.47000000000E+01 0. -1.
         -5    1    5    5    0  503  0.70974346522E+02  0.40238789617E+02 -0.12329137240E+03  0.14791676903E+03  0.47000000000E+01 0. -1.
<mgrwt>
<rscale>  0 0.27239135E+03</rscale>
<asrwt>0</asrwt>
<pdfrwt beam="1">  1        1 0.10106656E-01 0.27239135E+03</pdfrwt>
<pdfrwt beam="2">  1       -1 0.43440261E-01 0.27239135E+03</pdfrwt>
<totfact> 0.33490611E+03</totfact>
</mgrwt>
</event>
<event>
 9    1  0.7986988E-001  0.2795672E+03  0.7818608E-02  0.1095926E+00
          1   -1    0    0  501    0  0.00000000000E+00  0.00000000000E+00  0.20561845532E+04  0.20561845532E+04  0.00000000000E+00 0.  1.
         -1   -1    0    0    0  501 -0.00000000000E+00 -0.00000000000E+00 -0.95027749856E+01  0.95027749856E+01  0.00000000000E+00 0.  1.
         35    2    1    2    0    0  0.00000000000E+00  0.00000000000E+00  0.20466817782E+04  0.20656873282E+04  0.27956723083E+03 0.  0.
         25    2    3    3    0    0  0.54418046524E+02  0.49893988399E+00  0.12396664633E+04  0.12471551703E+04  0.12514593815E+03 0.  0.
         25    2    3    3    0    0 -0.54418046524E+02 -0.49893988399E+00  0.80701531492E+03  0.81853215789E+03  0.12553725449E+03 0.  0.
          5    1    4    4  502    0  0.48843674146E+02  0.31864929037E+02  0.11563927756E+04  0.11578719357E+04  0.47000000000E+01 0.  1.
         -5    1    4    4    0  502  0.55743723772E+01 -0.31365989153E+02  0.83273687744E+02  0.89283234559E+02  0.47000000000E+01 0.  1.
          5    1    5    5  503    0 -0.42168455106E+02  0.12294818247E+02  0.79584610049E+03  0.79707116799E+03  0.47000000000E+01 0. -1.
         -5    1    5    5    0  503 -0.12249591417E+02 -0.12793758131E+02  0.11169214423E+02  0.21460989908E+02  0.47000000000E+01 0. -1.
<mgrwt>
<rscale>  0 0.27956723E+03</rscale>
<asrwt>0</asrwt>
<pdfrwt beam="1">  1        1 0.31633573E+00 0.27956723E+03</pdfrwt>
<pdfrwt beam="2">  1       -1 0.14619670E-02 0.27956723E+03</pdfrwt>
<totfact> 0.33604901E+03</totfact>
</mgrwt>
</event>
<event>
 9    1  0.7986988E-001  0.2766922E+03  0.7818608E-02  0.1097509E+00
         -2   -1    0    0    0  501 -0.00000000000E+00  0.00000000000E+00  0.13231997540E+03  0.13231997540E+03  0.00000000000E+00 0. -1.
          2   -1    0    0  501    0  0.00000000000E+00 -0.00000000000E+00 -0.14464667901E+03  0.14464667901E+03  0.00000000000E+00 0. -1.
         35    2    1    2    0    0 -0.71054273576E-14  0.71054273576E-14 -0.12326703612E+02  0.27696665441E+03  0.27669221173E+03 0.  0.
         25    2    3    3    0    0  0.34082275030E+02  0.33145784216E+02 -0.40775176005E+02  0.13989456912E+03  0.12509049128E+03 0.  0.
         25    2    3    3    0    0 -0.34082275030E+02 -0.33145784216E+02  0.28448472392E+02  0.13707208529E+03  0.12537621984E+03 0.  0.
          5    1    4    4  502    0 -0.34216116814E+02  0.35604214867E+02  0.14710471247E+02  0.51738677316E+02  0.47000000000E+01 0. -1.
         -5    1    4    4    0  502  0.68298391844E+02 -0.24584306506E+01 -0.55485647252E+02  0.88155891809E+02  0.47000000000E+01 0. -1.
          5    1    5    5  503    0 -0.44399979798E+02 -0.76362459791E+02  0.26537418606E+02  0.92352087457E+02  0.47000000000E+01 0. -1.
         -5    1    5    5    0  503  0.10317704768E+02  0.43216675575E+02  0.19110537867E+01  0.44719997831E+02  0.47000000000E+01 0. -1.
<mgrwt>
<rscale>  0 0.27669221E+03</rscale>
<asrwt>0</asrwt>
<pdfrwt beam="1">  1        2 0.22253335E-01 0.27669221E+03</pdfrwt>
<pdfrwt beam="2">  1       -2 0.20356919E-01 0.27669221E+03</pdfrwt>
<totfact> 0.49738065E+03</totfact>
</mgrwt>
</event>
<event>
 9    1  0.7986988E-001  0.2597401E+03  0.7818608E-02  0.1107299E+00
          2   -1    0    0  501    0  0.00000000000E+00  0.00000000000E+00  0.41613839377E+03  0.41613839377E+03  0.00000000000E+00 0. -1.
         -2   -1    0    0    0  501 -0.00000000000E+00 -0.00000000000E+00 -0.40530337250E+02  0.40530337250E+02  0.00000000000E+00 0. -1.
         35    2    1    2    0    0  0.35527136788E-14 -0.71054273576E-14  0.37560805652E+03  0.45666873102E+03  0.25974009658E+03 0.  0.
         25    2    3    3    0    0  0.11007937256E+02 -0.11226030503E+02  0.26374582432E+03  0.29194006413E+03  0.12417706213E+03 0.  0.
         25    2    3    3    0    0 -0.11007937256E+02  0.11226030503E+02  0.11186223221E+03  0.16472866689E+03  0.11989652312E+03 0.  0.
          5    1    4    4  502    0  0.38177233667E+02 -0.28928581833E+02  0.31788421434E+02  0.57679786360E+02  0.47000000000E+01 0. -1.
         -5    1    4    4    0  502 -0.27169296410E+02  0.17702551330E+02  0.23195740288E+03  0.23426027777E+03  0.47000000000E+01 0. -1.
          5    1    5    5  503    0  0.11171282372E+02 -0.40740516272E+02  0.37731007172E+01  0.42672163115E+02  0.47000000000E+01 0. -1.
         -5    1    5    5    0  503 -0.22179219629E+02  0.51966546775E+02  0.10808913149E+03  0.12205650377E+03  0.47000000000E+01 0. -1.
<mgrwt>
<rscale>  0 0.25974010E+03</rscale>
<asrwt>0</asrwt>
<pdfrwt beam="1">  1        2 0.64021288E-01 0.25974010E+03</pdfrwt>
<pdfrwt beam="2">  1       -2 0.62354368E-02 0.25974010E+03</pdfrwt>
<totfact> 0.10551351E+04</totfact>
</mgrwt>
</event>
<event>
 9    1  0.7986988E-001  0.2795210E+03  0.7818608E-02  0.1095951E+00
         -2   -1    0    0    0  501 -0.00000000000E+00  0.00000000000E+00  0.14533068946E+03  0.14533068946E+03  0.00000000000E+00 0. -1.
          2   -1    0    0  501    0  0.00000000000E+00 -0.00000000000E+00 -0.13440377908E+03  0.13440377908E+03  0.00000000000E+00 0. -1.
         35    2    1    2    0    0 -0.71054273576E-14  0.71054273576E-14  0.10926910375E+02  0.27973446854E+03  0.27952097509E+03 0.  0.
         25    2    3    3    0    0  0.35627898999E+02 -0.45267550570E+02 -0.11501424758E+02  0.13674853196E+03  0.12348837962E+03 0.  0.
         25    2    3    3    0    0 -0.35627898999E+02  0.45267550570E+02  0.22428335134E+02  0.14298593658E+03  0.12893195694E+03 0.  0.
          5    1    4    4  502    0 -0.64381999402E+01  0.10334079091E+02  0.45018756468E+02  0.46872401721E+02  0.47000000000E+01 0. -1.
         -5    1    4    4    0  502  0.42066098939E+02 -0.55601629661E+02 -0.56520181227E+02  0.89876130239E+02  0.47000000000E+01 0. -1.
          5    1    5    5  503    0 -0.71068855024E+02  0.14464202437E+02 -0.24242507043E+02  0.76614518561E+02  0.47000000000E+01 0.  1.
         -5    1    5    5    0  503  0.35440956025E+02  0.30803348132E+02  0.46670842176E+02  0.66371418017E+02  0.47000000000E+01 0.  1.
<mgrwt>
<rscale>  0 0.27952098E+03</rscale>
<asrwt>0</asrwt>
<pdfrwt beam="1">  1        2 0.20677505E-01 0.27952098E+03</pdfrwt>
<pdfrwt beam="2">  1       -2 0.22358568E-01 0.27952098E+03</pdfrwt>
<totfact> 0.46003245E+03</totfact>
</mgrwt>
</event>
<event>
 9    1  0.7986988E-001  0.2768486E+03  0.7818608E-02  0.1097423E+00
         -4   -1    0    0    0  501 -0.00000000000E+00  0.00000000000E+00  0.33081451681E+02  0.33081451681E+02  0.00000000000E+00 0. -1.
          4   -1    0    0  501    0  0.00000000000E+00 -0.00000000000E+00 -0.57921531901E+03  0.57921531901E+03  0.00000000000E+00 0. -1.
         35    2    1    2    0    0  0.00000000000E+00  0.71054273576E-14 -0.54613386732E+03  0.61229677069E+03  0.27684857658E+03 0.  0.
         25    2    3    3    0    0 -0.44932906967E+02  0.40128984660E+02 -0.26819128323E+03  0.30192757288E+03  0.12491754611E+03 0.  0.
         25    2    3    3    0    0  0.44932906967E+02 -0.40128984660E+02 -0.27794258409E+03  0.31036919781E+03  0.12428860510E+03 0.  0.
          5    1    4    4  502    0 -0.13524853018E+02  0.75483796088E+02 -0.94177536680E+02  0.12154103643E+03  0.47000000000E+01 0.  1.
         -5    1    4    4    0  502 -0.31408053949E+02 -0.35354811427E+02 -0.17401374655E+03  0.18038653645E+03  0.47000000000E+01 0.  1.
          5    1    5    5  503    0 -0.31675998154E+02 -0.42263984838E+02 -0.16873529986E+03  0.17687087010E+03  0.47000000000E+01 0. -1.
         -5    1    5    5    0  503  0.76608905121E+02  0.21350001776E+01 -0.10920728424E+03  0.13349832771E+03  0.47000000000E+01 0. -1.
<mgrwt>
<rscale>  0 0.27684858E+03</rscale>
<asrwt>0</asrwt>
<pdfrwt beam="1">  1        4 0.89110041E-01 0.27684858E+03</pdfrwt>
<pdfrwt beam="2">  1       -4 0.50894546E-02 0.27684858E+03</pdfrwt>
<totfact> 0.48455871E+02</totfact>
</mgrwt>
</event>
<event>
 9    1  0.7986988E-001  0.2739341E+03  0.7818608E-02  0.1099049E+00
          2   -1    0    0  501    0  0.00000000000E+00  0.00000000000E+00  0.71565092069E+02  0.71565092069E+02  0.00000000000E+00 0. -1.
         -2   -1    0    0    0  501 -0.00000000000E+00 -0.00000000000E+00 -0.26213855434E+03  0.26213855434E+03  0.00000000000E+00 0. -1.
         35    2    1    2    0    0  0.00000000000E+00 -0.71054273576E-14 -0.19057346227E+03  0.33370364641E+03  0.27393407803E+03 0.  0.
         25    2    3    3    0    0  0.16326282129E+02  0.30867633779E+02 -0.14846621096E+03  0.19767355223E+03  0.12575078191E+03 0.  0.
         25    2    3    3    0    0 -0.16326282129E+02 -0.30867633779E+02 -0.42107251317E+02  0.13603009418E+03  0.12454640744E+03 0.  0.
          5    1    4    4  502    0  0.30631199779E+01  0.79257514943E+02 -0.81008993861E+02  0.11347106885E+03  0.47000000000E+01 0. -1.
         -5    1    4    4    0  502  0.13263162151E+02 -0.48389881164E+02 -0.67457217095E+02  0.84202483381E+02  0.47000000000E+01 0. -1.
          5    1    5    5  503    0  0.41397942493E+02  0.25190248463E+02 -0.13852542966E+02  0.50619375805E+02  0.47000000000E+01 0.  1.
         -5    1    5    5    0  503 -0.57724224622E+02 -0.56057882243E+02 -0.28254708351E+02  0.85410718377E+02  0.47000000000E+01 0.  1.
<mgrwt>
<rscale>  0 0.27393408E+03</rscale>
<asrwt>0</asrwt>
<pdfrwt beam="1">  1        2 0.11010014E-01 0.27393408E+03</pdfrwt>
<pdfrwt beam="2">  1       -2 0.40329008E-01 0.27393408E+03</pdfrwt>
<totfact> 0.33174438E+03</totfact>
</mgrwt>
</event>
<event>
 9    1  0.7986988E-001  0.2703563E+03  0.7818608E-02  0.1101076E+00
         -2   -1    0    0    0  501 -0.00000000000E+00  0.00000000000E+00  0.55234029855E+02  0.55234029855E+02  0.00000000000E+00 0.  1.
          2   -1    0    0  501    0  0.00000000000E+00 -0.00000000000E+00 -0.33083113866E+03  0.33083113866E+03  0.00000000000E+00 0.  1.
         35    2    1    2    0    0 -0.71054273576E-14  0.00000000000E+00 -0.27559710881E+03  0.38606516852E+03  0.27035633516E+03 0.  0.
         25    2    3    3    0    0  0.32186868904E+02 -0.36225908977E+01 -0.19366980938E+03  0.23270974158E+03  0.12488679301E+03 0.  0.
         25    2    3    3    0    0 -0.32186868904E+02  0.36225908977E+01 -0.81927299422E+02  0.15335542693E+03  0.12552564234E+03 0.  0.
          5    1    4    4  502    0  0.70776195953E+02 -0.22273572724E+02 -0.16487261604E+03  0.18086030929E+03  0.47000000000E+01 0.  1.
         -5    1    4    4    0  502 -0.38589327049E+02  0.18650981826E+02 -0.28797193344E+02  0.51849432299E+02  0.47000000000E+01 0.  1.
          5    1    5    5  503    0  0.23501768428E+02  0.44178385802E+02 -0.58281707513E+01  0.50597633004E+02  0.47000000000E+01 0. -1.
         -5    1    5    5    0  503 -0.55688637332E+02 -0.40555794904E+02 -0.76099128671E+02  0.10275779393E+03  0.47000000000E+01 0. -1.
<mgrwt>
<rscale>  0 0.27035634E+03</rscale>
<asrwt>0</asrwt>
<pdfrwt beam="1">  1        2 0.50897100E-01 0.27035634E+03</pdfrwt>
<pdfrwt beam="2">  1       -2 0.84975428E-02 0.27035634E+03</pdfrwt>
<totfact> 0.83792204E+03</totfact>
</mgrwt>
</event>
<event>
 9    1  0.7986988E-001  0.2726030E+03  0.7818608E-02  0.1099799E+00
          2   -1    0    0  501    0  0.00000000000E+00  0.00000000000E+00  0.60172999322E+03  0.60172999322E+03  0.00000000000E+00 0. -1.
         -2   -1    0    0    0  501 -0.00000000000E+00 -0.00000000000E+00 -0.30874474779E+02  0.30874474779E+02  0.00000000000E+00 0. -1.
         35    2    1    2    0    0  0.71054273576E-14  0.00000000000E+00  0.57085551844E+03  0.63260446800E+03  0.27260298971E+03 0.  0.
         25    2    3    3    0    0  0.29190668149E+02 -0.27313631042E+02  0.37085888368E+03  0.39338119649E+03  0.12495729108E+03 0.  0.
         25    2    3    3    0    0 -0.29190668149E+02  0.27313631042E+02  0.19999663475E+03  0.23922327151E+03  0.12502395839E+03 0.  0.
          5    1    4    4  502    0 -0.44522417621E+02 -0.24348387919E+02  0.95198007568E+02  0.10798074046E+03  0.47000000000E+01 0. -1.
         -5    1    4    4    0  502  0.73713085770E+02 -0.29652431224E+01  0.27566087611E+03  0.28540045603E+03  0.47000000000E+01 0. -1.
          5    1    5    5  503    0 -0.74317515030E+02  0.10704859282E+02  0.79759896037E+02  0.10964222758E+03  0.47000000000E+01 0.  1.
         -5    1    5    5    0  503  0.45126846881E+02  0.16608771760E+02  0.12023673872E+03  0.12958104393E+03  0.47000000000E+01 0.  1.
<mgrwt>
<rscale>  0 0.27260299E+03</rscale>
<asrwt>0</asrwt>
<pdfrwt beam="1">  1        2 0.92573836E-01 0.27260299E+03</pdfrwt>
<pdfrwt beam="2">  1       -2 0.47499196E-02 0.27260299E+03</pdfrwt>
<totfact> 0.10592346E+04</totfact>
</mgrwt>
</event>
<event>
 9    1  0.7986988E-001  0.2755143E+03  0.7818608E-02  0.1098164E+00
          2   -1    0    0  501    0  0.00000000000E+00  0.00000000000E+00  0.11257300331E+04  0.11257300331E+04  0.00000000000E+00 0.  1.
         -2   -1    0    0    0  501 -0.00000000000E+00 -0.00000000000E+00 -0.16857528435E+02  0.16857528435E+02  0.00000000000E+00 0.  1.
         35    2    1    2    0    0  0.71054273576E-14 -0.17763568394E-14  0.11088725047E+04  0.11425875615E+04  0.27551425403E+03 0.  0.
         25    2    3    3    0    0 -0.25404403266E+02  0.68026596402E+01  0.34967641909E+03  0.37254939395E+03  0.12580855688E+03 0.  0.
         25    2    3    3    0    0  0.25404403266E+02 -0.68026596402E+01  0.75919608557E+03  0.77003816758E+03  0.12604928915E+03 0.  0.
          5    1    4    4  502    0  0.25546842186E+02 -0.43964652869E+02  0.20007917949E+03  0.20649285681E+03  0.47000000000E+01 0. -1.
         -5    1    4    4    0  502 -0.50951245452E+02  0.50767312510E+02  0.14959723960E+03  0.16605653714E+03  0.47000000000E+01 0. -1.
          5    1    5    5  503    0  0.68883364225E+02  0.26632113652E+01  0.26638928605E+03  0.27520420107E+03  0.47000000000E+01 0.  1.
         -5    1    5    5    0  503 -0.43478960959E+02 -0.94658710054E+01  0.49280679952E+03  0.49483396651E+03  0.47000000000E+01 0.  1.
<mgrwt>
<rscale>  0 0.27551425E+03</rscale>
<asrwt>0</asrwt>
<pdfrwt beam="1">  1        2 0.17318918E+00 0.27551425E+03</pdfrwt>
<pdfrwt beam="2">  1       -2 0.25934668E-02 0.27551425E+03</pdfrwt>
<totfact> 0.11590214E+04</totfact>
</mgrwt>
</event>
<event>
 9    1  0.7986988E-001  0.2813098E+03  0.7818608E-02  0.1094976E+00
         -1   -1    0    0    0  501 -0.00000000000E+00  0.00000000000E+00  0.29074000989E+02  0.29074000989E+02  0.00000000000E+00 0.  1.
          1   -1    0    0  501    0  0.00000000000E+00 -0.00000000000E+00 -0.68046384973E+03  0.68046384973E+03  0.00000000000E+00 0.  1.
         35    2    1    2    0    0  0.17763568394E-14  0.00000000000E+00 -0.65138984874E+03  0.70953785072E+03  0.28130984085E+03 0.  0.
         25    2    3    3    0    0 -0.53974581242E+01  0.11956439012E+02 -0.16588535156E+03  0.20811879522E+03  0.12499357613E+03 0.  0.
         25    2    3    3    0    0  0.53974581242E+01 -0.11956439012E+02 -0.48550449718E+03  0.50141905550E+03  0.12463692651E+03 0.  0.
          5    1    4    4  502    0 -0.77868339725E+01  0.61499975197E+02 -0.13719945998E+03  0.15062756571E+03  0.47000000000E+01 0.  1.
         -5    1    4    4    0  502  0.23893758483E+01 -0.49543536185E+02 -0.28685891578E+02  0.57491229508E+02  0.47000000000E+01 0.  1.
          5    1    5    5  503    0 -0.97479182369E+01  0.55203427180E+02 -0.21005911177E+03  0.21746117061E+03  0.47000000000E+01 0.  1.
         -5    1    5    5    0  503  0.15145376361E+02 -0.67159866192E+02 -0.27544538541E+03  0.28395788490E+03  0.47000000000E+01 0.  1.
<mgrwt>
<rscale>  0 0.28130984E+03</rscale>
<asrwt>0</asrwt>
<pdfrwt beam="1">  1        1 0.10468673E+00 0.28130984E+03</pdfrwt>
<pdfrwt beam="2">  1       -1 0.44729240E-02 0.28130984E+03</pdfrwt>
<totfact> 0.61010129E+03</totfact>
</mgrwt>
</event>
<event>
 9    1  0.7986988E-001  0.2861913E+03  0.7818608E-02  0.1092355E+00
          2   -1    0    0  501    0  0.00000000000E+00  0.00000000000E+00  0.56059592162E+03  0.56059592162E+03  0.00000000000E+00 0.  1.
         -2   -1    0    0    0  501 -0.00000000000E+00 -0.00000000000E+00 -0.36526080373E+02  0.36526080373E+02  0.00000000000E+00 0.  1.
         35    2    1    2    0    0  0.00000000000E+00  0.00000000000E+00  0.52406984125E+03  0.59712200200E+03  0.28619134641E+03 0.  0.
         25    2    3    3    0    0  0.24096113197E+02 -0.22465916749E+02  0.13357148757E+03  0.18665333552E+03  0.12614588889E+03 0.  0.
         25    2    3    3    0    0 -0.24096113197E+02  0.22465916749E+02  0.39049835368E+03  0.41046866647E+03  0.12210741926E+03 0.  0.
          5    1    4    4  502    0  0.58044262005E+02 -0.14208806206E+02  0.13863493379E+03  0.15103893998E+03  0.47000000000E+01 0. -1.
         -5    1    4    4    0  502 -0.33948148808E+02 -0.82571105434E+01 -0.50634462207E+01  0.35614395540E+02  0.47000000000E+01 0. -1.
          5    1    5    5  503    0  0.37061589571E+02  0.20890690641E+02  0.28680652225E+03  0.28998285050E+03  0.47000000000E+01 0.  1.
         -5    1    5    5    0  503 -0.61157702768E+02  0.15752261080E+01  0.10369183143E+03  0.12048581597E+03  0.47000000000E+01 0.  1.
<mgrwt>
<rscale>  0 0.28619135E+03</rscale>
<asrwt>0</asrwt>
<pdfrwt beam="1">  1        2 0.86245520E-01 0.28619135E+03</pdfrwt>
<pdfrwt beam="2">  1       -2 0.56193974E-02 0.28619135E+03</pdfrwt>
<totfact> 0.89135577E+03</totfact>
</mgrwt>
</event>
<event>
 9    1  0.7986988E-001  0.2743203E+03  0.7818608E-02  0.1098832E+00
         -2   -1    0    0    0  501 -0.00000000000E+00  0.00000000000E+00  0.90164590089E+02  0.90164590089E+02  0.00000000000E+00 0.  1.
          2   -1    0    0  501    0  0.00000000000E+00 -0.00000000000E+00 -0.20865066468E+03  0.20865066468E+03  0.00000000000E+00 0.  1.
         35    2    1    2    0    0 -0.14210854715E-13  0.71054273576E-14 -0.11848607460E+03  0.29881525477E+03  0.27432026285E+03 0.  0.
         25    2    3    3    0    0 -0.48236725038E+02  0.21320549605E+02 -0.34051986823E+02  0.13963631937E+03  0.12472937266E+03 0.  0.
         25    2    3    3    0    0  0.48236725038E+02 -0.21320549605E+02 -0.84434087772E+02  0.15917893540E+03  0.12420737023E+03 0.  0.
          5    1    4    4  502    0 -0.88280751769E+02  0.31306583503E+02 -0.21137203515E+02  0.96137738043E+02  0.47000000000E+01 0.  1.
         -5    1    4    4    0  502  0.40044026731E+02 -0.99860338987E+01 -0.12914783308E+02  0.43498581330E+02  0.47000000000E+01 0.  1.
          5    1    5    5  503    0 -0.39829293388E+02 -0.19438379504E+02 -0.15358663692E+02  0.47140235044E+02  0.47000000000E+01 0.  1.
         -5    1    5    5    0  503  0.88066018426E+02 -0.18821701007E+01 -0.69075424080E+02  0.11203870036E+03  0.47000000000E+01 0.  1.
<mgrwt>
<rscale>  0 0.27432026E+03</rscale>
<asrwt>0</asrwt>
<pdfrwt beam="1">  1        2 0.32100102E-01 0.27432026E+03</pdfrwt>
<pdfrwt beam="2">  1       -2 0.13871475E-01 0.27432026E+03</pdfrwt>
<totfact> 0.62928122E+03</totfact>
</mgrwt>
</event>
<event>
 9    1  0.7986988E-001  0.2741117E+03  0.7818608E-02  0.1098949E+00
          3   -1    0    0  501    0  0.00000000000E+00  0.00000000000E+00  0.13886524516E+04  0.13886524516E+04  0.00000000000E+00 0. -1.
         -3   -1    0    0    0  501 -0.00000000000E+00 -0.00000000000E+00 -0.13527001363E+02  0.13527001363E+02  0.00000000000E+00 0. -1.
         35    2    1    2    0    0  0.00000000000E+00  0.00000000000E+00  0.13751254502E+04  0.14021794529E+04  0.27411168238E+03 0.  0.
         25    2    3    3    0    0 -0.75335535797E+01  0.32145549754E+02  0.47677665672E+03  0.49444886163E+03  0.12678172411E+03 0.  0.
         25    2    3    3    0    0  0.75335535797E+01 -0.32145549754E+02  0.89834879350E+03  0.90773059132E+03  0.12591338626E+03 0.  0.
          5    1    4    4  502    0 -0.55596770858E+02  0.49785345452E+02  0.21396402944E+03  0.22665453325E+03  0.47000000000E+01 0. -1.
         -5    1    4    4    0  502  0.48063217278E+02 -0.17639795698E+02  0.26281262729E+03  0.26779432837E+03  0.47000000000E+01 0. -1.
          5    1    5    5  503    0  0.77732232142E+01 -0.64403702032E+02  0.24246375372E+03  0.25103589724E+03  0.47000000000E+01 0. -1.
         -5    1    5    5    0  503 -0.23966963448E+00  0.32258152278E+02  0.65588503978E+03  0.65669469408E+03  0.47000000000E+01 0. -1.
<mgrwt>
<rscale>  0 0.27411168E+03</rscale>
<asrwt>0</asrwt>
<pdfrwt beam="1">  1        3 0.21363873E+00 0.27411168E+03</pdfrwt>
<pdfrwt beam="2">  1       -3 0.20810782E-02 0.27411168E+03</pdfrwt>
<totfact> 0.30196171E+02</totfact>
</mgrwt>
</event>
<event>
 9    1  0.7986988E-001  0.2776346E+03  0.7818608E-02  0.1096988E+00
          2   -1    0    0  501    0  0.00000000000E+00  0.00000000000E+00  0.73583979867E+02  0.73583979867E+02  0.00000000000E+00 0. -1.
         -2   -1    0    0    0  501 -0.00000000000E+00 -0.00000000000E+00 -0.26188104430E+03  0.26188104430E+03  0.00000000000E+00 0. -1.
         35    2    1    2    0    0 -0.35527136788E-14  0.35527136788E-14 -0.18829706443E+03  0.33546502416E+03  0.27763464835E+03 0.  0.
         25    2    3    3    0    0 -0.11986960226E+02  0.18646289647E+02 -0.27278222005E+02  0.13002858898E+03  0.12518770396E+03 0.  0.
         25    2    3    3    0    0  0.11986960226E+02 -0.18646289647E+02 -0.16101884242E+03  0.20543643519E+03  0.12564111570E+03 0.  0.
          5    1    4    4  502    0  0.53109367685E+02  0.23113529529E+02  0.24701337816E+01  0.58163835363E+02  0.47000000000E+01 0.  1.
         -5    1    4    4    0  502 -0.65096327912E+02 -0.44672398827E+01 -0.29748355787E+02  0.71864753612E+02  0.47000000000E+01 0.  1.
          5    1    5    5  503    0 -0.30793737613E+02  0.13699328750E+02 -0.14547137388E+03  0.14939858267E+03  0.47000000000E+01 0.  1.
         -5    1    5    5    0  503  0.42780697839E+02 -0.32345618396E+02 -0.15547468545E+02  0.56037852521E+02  0.47000000000E+01 0.  1.
<mgrwt>
<rscale>  0 0.27763465E+03</rscale>
<asrwt>0</asrwt>
<pdfrwt beam="1">  1        2 0.11320612E-01 0.27763465E+03</pdfrwt>
<pdfrwt beam="2">  1       -2 0.40289392E-01 0.27763465E+03</pdfrwt>
<totfact> 0.32134255E+03</totfact>
</mgrwt>
</event>
<event>
 9    1  0.7986988E-001  0.2761617E+03  0.7818608E-02  0.1097804E+00
          2   -1    0    0  501    0  0.00000000000E+00  0.00000000000E+00  0.75915982426E+03  0.75915982426E+03  0.00000000000E+00 0.  1.
         -2   -1    0    0    0  501 -0.00000000000E+00 -0.00000000000E+00 -0.25115028098E+02  0.25115028098E+02  0.00000000000E+00 0.  1.
         35    2    1    2    0    0 -0.71054273576E-14  0.00000000000E+00  0.73404479616E+03  0.78427485235E+03  0.27616169406E+03 0.  0.
         25    2    3    3    0    0  0.28399566642E+02 -0.47543345582E+02  0.31214388307E+03  0.34101565557E+03  0.12566212042E+03 0.  0.
         25    2    3    3    0    0 -0.28399566642E+02  0.47543345582E+02  0.42190091309E+03  0.44325919679E+03  0.12414278061E+03 0.  0.
          5    1    4    4  502    0 -0.30697301191E+02  0.80775604790E-01  0.21702854764E+03  0.21923916465E+03  0.47000000000E+01 0.  1.
         -5    1    4    4    0  502  0.59096867832E+02 -0.47624121187E+02  0.95115335430E+02  0.12177649092E+03  0.47000000000E+01 0.  1.
          5    1    5    5  503    0 -0.31929367822E+02  0.32428442859E+02  0.39295286029E+02  0.60310015253E+02  0.47000000000E+01 0.  1.
         -5    1    5    5    0  503  0.35298011799E+01  0.15114902723E+02  0.38260562706E+03  0.38294918153E+03  0.47000000000E+01 0.  1.
<mgrwt>
<rscale>  0 0.27616169E+03</rscale>
<asrwt>0</asrwt>
<pdfrwt beam="1">  1        2 0.11679380E+00 0.27616169E+03</pdfrwt>
<pdfrwt beam="2">  1       -2 0.38638511E-02 0.27616169E+03</pdfrwt>
<totfact> 0.10944214E+04</totfact>
</mgrwt>
</event>
<event>
 9    1  0.7986988E-001  0.2762530E+03  0.7818608E-02  0.1097753E+00
          1   -1    0    0  501    0  0.00000000000E+00  0.00000000000E+00  0.11181052931E+03  0.11181052931E+03  0.00000000000E+00 0. -1.
         -1   -1    0    0    0  501 -0.00000000000E+00 -0.00000000000E+00 -0.17063619340E+03  0.17063619340E+03  0.00000000000E+00 0. -1.
         35    2    1    2    0    0  0.35527136788E-14 -0.71054273576E-14 -0.58825664084E+02  0.28244672271E+03  0.27625295006E+03 0.  0.
         25    2    3    3    0    0  0.16717385679E+02  0.55471939347E+02 -0.37001672590E+02  0.14283546516E+03  0.12520478942E+03 0.  0.
         25    2    3    3    0    0 -0.16717385679E+02 -0.55471939347E+02 -0.21823991493E+02  0.13961125755E+03  0.12513356701E+03 0.  0.
          5    1    4    4  502    0 -0.13978994353E+02 -0.19339160880E+02  0.29357799633E+02  0.38123297680E+02  0.47000000000E+01 0.  1.
         -5    1    4    4    0  502  0.30696380033E+02  0.74811100227E+02 -0.66359472224E+02  0.10471216748E+03  0.47000000000E+01 0.  1.
          5    1    5    5  503    0  0.30234343690E+02  0.16771774978E+02 -0.38249005008E+02  0.51773394310E+02  0.47000000000E+01 0. -1.
         -5    1    5    5    0  503 -0.46951729370E+02 -0.72243714324E+02  0.16425013514E+02  0.87837863243E+02  0.47000000000E+01 0. -1.
<mgrwt>
<rscale>  0 0.27625295E+03</rscale>
<asrwt>0</asrwt>
<pdfrwt beam="1">  1        1 0.17201620E-01 0.27625295E+03</pdfrwt>
<pdfrwt beam="2">  1       -1 0.26251722E-01 0.27625295E+03</pdfrwt>
<totfact> 0.39665363E+03</totfact>
</mgrwt>
</event>
<event>
 9    1  0.7986988E-001  0.2753340E+03  0.7818608E-02  0.1098265E+00
         -1   -1    0    0    0  501 -0.00000000000E+00  0.00000000000E+00  0.39476805188E+02  0.39476805188E+02  0.00000000000E+00 0.  1.
          1   -1    0    0  501    0  0.00000000000E+00 -0.00000000000E+00 -0.48008440782E+03  0.48008440782E+03  0.00000000000E+00 0.  1.
         35    2    1    2    0    0  0.71054273576E-14  0.35527136788E-14 -0.44060760263E+03  0.51956121300E+03  0.27533396914E+03 0.  0.
         25    2    3    3    0    0 -0.21127807781E+02 -0.31767323347E+02 -0.31192566301E+03  0.33617004172E+03  0.11940322696E+03 0.  0.
         25    2    3    3    0    0  0.21127807781E+02  0.31767323347E+02 -0.12868193961E+03  0.18339117129E+03  0.12497092873E+03 0.  0.
          5    1    4    4  502    0  0.39079773957E+02  0.43428139361E+01 -0.20060429285E+03  0.20447557575E+03  0.47000000000E+01 0. -1.
         -5    1    4    4    0  502 -0.60207581738E+02 -0.36110137283E+02 -0.11132137016E+03  0.13169446597E+03  0.47000000000E+01 0. -1.
          5    1    5    5  503    0  0.37811187363E+02  0.16145448921E+02  0.10152956345E+02  0.42609082755E+02  0.47000000000E+01 0. -1.
         -5    1    5    5    0  503 -0.16683379582E+02  0.15621874426E+02 -0.13883489596E+03  0.14078208853E+03  0.47000000000E+01 0. -1.
<mgrwt>
<rscale>  0 0.27533397E+03</rscale>
<asrwt>0</asrwt>
<pdfrwt beam="1">  1        1 0.73859145E-01 0.27533397E+03</pdfrwt>
<pdfrwt beam="2">  1       -1 0.60733542E-02 0.27533397E+03</pdfrwt>
<totfact> 0.62233964E+03</totfact>
</mgrwt>
</event>
<event>
 9    1  0.7986988E-001  0.2754841E+03  0.7818608E-02  0.1098181E+00
          3   -1    0    0  501    0  0.00000000000E+00  0.00000000000E+00  0.48909477470E+03  0.48909477470E+03  0.00000000000E+00 0.  1.
         -3   -1    0    0    0  501 -0.00000000000E+00 -0.00000000000E+00 -0.38791809901E+02  0.38791809901E+02  0.00000000000E+00 0.  1.
         35    2    1    2    0    0  0.00000000000E+00  0.88817841970E-15  0.45030296480E+03  0.52788658460E+03  0.27548409409E+03 0.  0.
         25    2    3    3    0    0  0.53590635509E+02  0.10475534109E+01  0.19372467289E+03  0.23728835569E+03  0.12610892624E+03 0.  0.
         25    2    3    3    0    0 -0.53590635509E+02 -0.10475534109E+01  0.25657829191E+03  0.29059822891E+03  0.12546655803E+03 0.  0.
          5    1    4    4  502    0  0.55282545434E+01  0.22370627243E+01  0.18855321112E+03  0.18870603984E+03  0.47000000000E+01 0. -1.
         -5    1    4    4    0  502  0.48062380966E+02 -0.11895093135E+01  0.51714617643E+01  0.48582315849E+02  0.47000000000E+01 0. -1.
          5    1    5    5  503    0  0.18773412236E+02 -0.29746055425E+02  0.17170763185E+03  0.17533644702E+03  0.47000000000E+01 0. -1.
         -5    1    5    5    0  503 -0.72364047745E+02  0.28698502014E+02  0.84870660063E+02  0.11526178189E+03  0.47000000000E+01 0. -1.
<mgrwt>
<rscale>  0 0.27548409E+03</rscale>
<asrwt>0</asrwt>
<pdfrwt beam="1">  1        3 0.75245346E-01 0.27548409E+03</pdfrwt>
<pdfrwt beam="2">  1       -3 0.59679711E-02 0.27548409E+03</pdfrwt>
<totfact> 0.74404973E+02</totfact>
</mgrwt>
</event>
<event>
 9    1  0.7986988E-001  0.2763759E+03  0.7818608E-02  0.1097685E+00
         -2   -1    0    0    0  501 -0.00000000000E+00  0.00000000000E+00  0.13485325519E+03  0.13485325519E+03  0.00000000000E+00 0.  1.
          2   -1    0    0  501    0  0.00000000000E+00 -0.00000000000E+00 -0.14160506622E+03  0.14160506622E+03  0.00000000000E+00 0.  1.
         35    2    1    2    0    0 -0.71054273576E-14 -0.35527136788E-14 -0.67518110324E+01  0.27645832141E+03  0.27637586097E+03 0.  0.
         25    2    3    3    0    0 -0.58431613266E+02 -0.27161335177E+02 -0.18691931150E+02  0.13532163792E+03  0.11751836385E+03 0.  0.
         25    2    3    3    0    0  0.58431613266E+02  0.27161335177E+02  0.11940120118E+02  0.14113668350E+03  0.12500002161E+03 0.  0.
          5    1    4    4  502    0 -0.20546205959E+02 -0.68432128435E+01  0.49692844968E+02  0.54409971350E+02  0.47000000000E+01 0. -1.
         -5    1    4    4    0  502 -0.37885407307E+02 -0.20318122334E+02 -0.68384776118E+02  0.80911666567E+02  0.47000000000E+01 0. -1.
          5    1    5    5  503    0  0.51034065691E+02  0.60225466141E+02 -0.32122480974E+02  0.85355295189E+02  0.47000000000E+01 0.  1.
         -5    1    5    5    0  503  0.73975475746E+01 -0.33064130964E+02  0.44062601092E+02  0.55781388308E+02  0.47000000000E+01 0.  1.
<mgrwt>
<rscale>  0 0.27637586E+03</rscale>
<asrwt>0</asrwt>
<pdfrwt beam="1">  1        2 0.21785395E-01 0.27637586E+03</pdfrwt>
<pdfrwt beam="2">  1       -2 0.20746655E-01 0.27637586E+03</pdfrwt>
<totfact> 0.49315881E+03</totfact>
</mgrwt>
</event>
<event>
 9    1  0.7986988E-001  0.2756293E+03  0.7818608E-02  0.1098100E+00
         -2   -1    0    0    0  501 -0.00000000000E+00  0.00000000000E+00  0.34623288403E+02  0.34623288403E+02  0.00000000000E+00 0. -1.
          2   -1    0    0  501    0  0.00000000000E+00 -0.00000000000E+00 -0.54855795746E+03  0.54855795746E+03  0.00000000000E+00 0. -1.
         35    2    1    2    0    0  0.00000000000E+00  0.00000000000E+00 -0.51393466906E+03  0.58318124586E+03  0.27562931895E+03 0.  0.
         25    2    3    3    0    0  0.33029133734E+02 -0.93321951933E+01 -0.36012354394E+03  0.38203526490E+03  0.12281678705E+03 0.  0.
         25    2    3    3    0    0 -0.33029133734E+02  0.93321951933E+01 -0.15381112511E+03  0.20114598096E+03  0.12499531954E+03 0.  0.
          5    1    4    4  502    0  0.32579454437E+01  0.32966634829E+02 -0.30295235711E+03  0.30479441251E+03  0.47000000000E+01 0. -1.
         -5    1    4    4    0  502  0.29771188290E+02 -0.42298830022E+02 -0.57171186835E+02  0.77240852388E+02  0.47000000000E+01 0. -1.
          5    1    5    5  503    0 -0.11561096721E+02 -0.44959238092E+02 -0.12691666777E+02  0.48354528772E+02  0.47000000000E+01 0.  1.
         -5    1    5    5    0  503 -0.21468037013E+02  0.54291433285E+02 -0.14111945833E+03  0.15279145219E+03  0.47000000000E+01 0.  1.
<mgrwt>
<rscale>  0 0.27562932E+03</rscale>
<asrwt>0</asrwt>
<pdfrwt beam="1">  1        2 0.84393518E-01 0.27562932E+03</pdfrwt>
<pdfrwt beam="2">  1       -2 0.53266606E-02 0.27562932E+03</pdfrwt>
<totfact> 0.99018680E+03</totfact>
</mgrwt>
</event>
<event>
 9    1  0.7986988E-001  0.2755501E+03  0.7818608E-02  0.1098144E+00
         -1   -1    0    0    0  501 -0.00000000000E+00  0.00000000000E+00  0.45267486640E+02  0.45267486640E+02  0.00000000000E+00 0. -1.
          1   -1    0    0  501    0  0.00000000000E+00 -0.00000000000E+00 -0.41932889020E+03  0.41932889020E+03  0.00000000000E+00 0. -1.
         35    2    1    2    0    0  0.00000000000E+00  0.71054273576E-14 -0.37406140356E+03  0.46459637684E+03  0.27555010386E+03 0.  0.
         25    2    3    3    0    0 -0.22309674085E+02 -0.19040183534E+02 -0.10297073932E+03  0.16498838055E+03  0.12553064332E+03 0.  0.
         25    2    3    3    0    0  0.22309674085E+02  0.19040183534E+02 -0.27109066424E+03  0.29960799629E+03  0.12415535855E+03 0.  0.
          5    1    4    4  502    0  0.11330370084E+02 -0.64811251705E+02 -0.79617568887E+02  0.10339208340E+03  0.47000000000E+01 0. -1.
         -5    1    4    4    0  502 -0.33640044169E+02  0.45771068171E+02 -0.23353170431E+02  0.61596297149E+02  0.47000000000E+01 0. -1.
          5    1    5    5  503    0 -0.46210923125E+02  0.21834495069E+02 -0.16829568522E+03  0.17594806693E+03  0.47000000000E+01 0.  1.
         -5    1    5    5    0  503  0.68520597210E+02 -0.27943115355E+01 -0.10279497902E+03  0.12365992936E+03  0.47000000000E+01 0.  1.
<mgrwt>
<rscale>  0 0.27555010E+03</rscale>
<asrwt>0</asrwt>
<pdfrwt beam="1">  1        1 0.64512137E-01 0.27555010E+03</pdfrwt>
<pdfrwt beam="2">  1       -1 0.69642287E-02 0.27555010E+03</pdfrwt>
<totfact> 0.60348728E+03</totfact>
</mgrwt>
</event>
<event>
 9    1  0.7986988E-001  0.2750483E+03  0.7818608E-02  0.1098425E+00
          1   -1    0    0  501    0  0.00000000000E+00  0.00000000000E+00  0.93601493671E+02  0.93601493671E+02  0.00000000000E+00 0.  1.
         -1   -1    0    0    0  501 -0.00000000000E+00 -0.00000000000E+00 -0.20205764437E+03  0.20205764437E+03  0.00000000000E+00 0.  1.
         35    2    1    2    0    0  0.00000000000E+00  0.53290705182E-14 -0.10845615070E+03  0.29565913804E+03  0.27504833990E+03 0.  0.
         25    2    3    3    0    0 -0.47979492921E+02  0.43180669280E+01 -0.20834772330E+02  0.13565756213E+03  0.12509280148E+03 0.  0.
         25    2    3    3    0    0  0.47979492921E+02 -0.43180669280E+01 -0.87621378371E+02  0.16000157591E+03  0.12490925067E+03 0.  0.
          5    1    4    4  502    0 -0.34938574781E+02  0.32472290548E+02  0.43086034343E+02  0.64448817030E+02  0.47000000000E+01 0. -1.
         -5    1    4    4    0  502 -0.13040918139E+02 -0.28154223620E+02 -0.63920806673E+02  0.71208745104E+02  0.47000000000E+01 0. -1.
          5    1    5    5  503    0  0.26240041122E+02 -0.11447273195E+02 -0.11809525200E+03  0.12160657206E+03  0.47000000000E+01 0.  1.
         -5    1    5    5    0  503  0.21739451799E+02  0.71292062665E+01  0.30473873633E+02  0.38395003851E+02  0.47000000000E+01 0.  1.
<mgrwt>
<rscale>  0 0.27504834E+03</rscale>
<asrwt>0</asrwt>
<pdfrwt beam="1">  1        1 0.14400230E-01 0.27504834E+03</pdfrwt>
<pdfrwt beam="2">  1       -1 0.31085791E-01 0.27504834E+03</pdfrwt>
<totfact> 0.37605425E+03</totfact>
</mgrwt>
</event>
<event>
 9    1  0.7986988E-001  0.2716589E+03  0.7818608E-02  0.1100334E+00
          2   -1    0    0  501    0  0.00000000000E+00  0.00000000000E+00  0.12237786787E+03  0.12237786787E+03  0.00000000000E+00 0. -1.
         -2   -1    0    0    0  501 -0.00000000000E+00 -0.00000000000E+00 -0.15075959803E+03  0.15075959803E+03  0.00000000000E+00 0. -1.
         35    2    1    2    0    0  0.71054273576E-14  0.00000000000E+00 -0.28381730162E+02  0.27313746589E+03  0.27165889028E+03 0.  0.
         25    2    3    3    0    0  0.50930592207E+02 -0.36081761814E+01 -0.49989827206E+01  0.13564739049E+03  0.12557181436E+03 0.  0.
         25    2    3    3    0    0 -0.50930592207E+02  0.36081761814E+01 -0.23382747441E+02  0.13749007540E+03  0.12549830197E+03 0.  0.
          5    1    4    4  502    0 -0.28502641436E+02 -0.36070192798E+02  0.12655864699E+02  0.47913675382E+02  0.47000000000E+01 0. -1.
         -5    1    4    4    0  502  0.79433233643E+02  0.32462016617E+02 -0.17654847419E+02  0.87733715111E+02  0.47000000000E+01 0. -1.
          5    1    5    5  503    0  0.10249135752E+02  0.56224862122E+01  0.44332019497E+02  0.46087689111E+02  0.47000000000E+01 0.  1.
         -5    1    5    5    0  503 -0.61179727959E+02 -0.20143100308E+01 -0.67714766938E+02  0.91402386290E+02  0.47000000000E+01 0.  1.
<mgrwt>
<rscale>  0 0.27165889E+03</rscale>
<asrwt>0</asrwt>
<pdfrwt beam="1">  1        2 0.18827364E-01 0.27165889E+03</pdfrwt>
<pdfrwt beam="2">  1       -2 0.23193784E-01 0.27165889E+03</pdfrwt>
<totfact> 0.48009333E+03</totfact>
</mgrwt>
</event>
<event>
 9    1  0.7986988E-001  0.2745160E+03  0.7818608E-02  0.1098722E+00
          1   -1    0    0  501    0  0.00000000000E+00  0.00000000000E+00  0.52373243278E+02  0.52373243278E+02  0.00000000000E+00 0.  1.
         -1   -1    0    0    0  501 -0.00000000000E+00 -0.00000000000E+00 -0.35972098871E+03  0.35972098871E+03  0.00000000000E+00 0.  1.
         35    2    1    2    0    0 -0.71054273576E-14  0.00000000000E+00 -0.30734774543E+03  0.41209423198E+03  0.27451597297E+03 0.  0.
         25    2    3    3    0    0  0.35287341132E+02 -0.42771861580E+02 -0.16592714038E+03  0.21504128327E+03  0.12504522786E+03 0.  0.
         25    2    3    3    0    0 -0.35287341132E+02  0.42771861580E+02 -0.14142060505E+03  0.19705294871E+03  0.12552070935E+03 0.  0.
          5    1    4    4  502    0 -0.23489932432E+02 -0.33662373738E+02 -0.14662111298E+03  0.15233112979E+03  0.47000000000E+01 0. -1.
         -5    1    4    4    0  502  0.58777273564E+02 -0.91094878414E+01 -0.19306027397E+02  0.62710153486E+02  0.47000000000E+01 0. -1.
          5    1    5    5  503    0  0.42637852304E+02  0.18623564526E+02 -0.87309955453E+02  0.99045150946E+02  0.47000000000E+01 0. -1.
         -5    1    5    5    0  503 -0.77925193435E+02  0.24148297054E+02 -0.54110649599E+02  0.98007797764E+02  0.47000000000E+01 0. -1.
<mgrwt>
<rscale>  0 0.27451597E+03</rscale>
<asrwt>0</asrwt>
<pdfrwt beam="1">  1        1 0.80574224E-02 0.27451597E+03</pdfrwt>
<pdfrwt beam="2">  1       -1 0.55341688E-01 0.27451597E+03</pdfrwt>
<totfact> 0.29122308E+03</totfact>
</mgrwt>
</event>
<event>
 9    1  0.7986988E-001  0.2693054E+03  0.7818608E-02  0.1101678E+00
          1   -1    0    0  501    0  0.00000000000E+00  0.00000000000E+00  0.42438943274E+02  0.42438943274E+02  0.00000000000E+00 0. -1.
         -1   -1    0    0    0  501 -0.00000000000E+00 -0.00000000000E+00 -0.42723372318E+03  0.42723372318E+03  0.00000000000E+00 0. -1.
         35    2    1    2    0    0 -0.71054273576E-14  0.00000000000E+00 -0.38479477991E+03  0.46967266646E+03  0.26930538608E+03 0.  0.
         25    2    3    3    0    0 -0.40061476740E+02  0.27672899126E+02 -0.17442497587E+03  0.22041941353E+03  0.12565800566E+03 0.  0.
         25    2    3    3    0    0  0.40061476740E+02 -0.27672899126E+02 -0.21036980404E+03  0.24925325293E+03  0.12450308583E+03 0.  0.
          5    1    4    4  502    0 -0.97695456420E+01 -0.27722389486E+02 -0.14940835540E+03  0.15234474577E+03  0.47000000000E+01 0. -1.
         -5    1    4    4    0  502 -0.30291931098E+02  0.55395288612E+02 -0.25016620470E+02  0.68074667754E+02  0.47000000000E+01 0. -1.
          5    1    5    5  503    0  0.19733278004E+02  0.26347622445E+02 -0.18154708681E+03  0.18456715362E+03  0.47000000000E+01 0.  1.
         -5    1    5    5    0  503  0.20328198737E+02 -0.54020521572E+02 -0.28822717232E+02  0.64686099306E+02  0.47000000000E+01 0.  1.
<mgrwt>
<rscale>  0 0.26930539E+03</rscale>
<asrwt>0</asrwt>
<pdfrwt beam="1">  1        1 0.65290683E-02 0.26930539E+03</pdfrwt>
<pdfrwt beam="2">  1       -1 0.65728264E-01 0.26930539E+03</pdfrwt>
<totfact> 0.27850050E+03</totfact>
</mgrwt>
</event>
<event>
 9    1  0.7986988E-001  0.2714338E+03  0.7818608E-02  0.1100462E+00
         -1   -1    0    0    0  501 -0.00000000000E+00  0.00000000000E+00  0.67418619954E+02  0.67418619954E+02  0.00000000000E+00 0. -1.
          1   -1    0    0  501    0  0.00000000000E+00 -0.00000000000E+00 -0.27320454484E+03  0.27320454484E+03  0.00000000000E+00 0. -1.
         35    2    1    2    0    0 -0.71054273576E-14  0.00000000000E+00 -0.20578592488E+03  0.34062316479E+03  0.27143377371E+03 0.  0.
         25    2    3    3    0    0  0.20180610802E+02 -0.22394812721E+02 -0.15699704021E+03  0.20328387593E+03  0.12556862224E+03 0.  0.
         25    2    3    3    0    0 -0.20180610802E+02  0.22394812721E+02 -0.48788884676E+02  0.13733928886E+03  0.12479158748E+03 0.  0.
          5    1    4    4  502    0 -0.84526572392E+01  0.49488305355E+02 -0.75661021951E+02  0.90924254322E+02  0.47000000000E+01 0. -1.
         -5    1    4    4    0  502  0.28633268041E+02 -0.71883118076E+02 -0.81336018255E+02  0.11235962161E+03  0.47000000000E+01 0. -1.
          5    1    5    5  503    0  0.22284162830E+02  0.56795707497E+02 -0.54820217314E+02  0.82156451539E+02  0.47000000000E+01 0.  1.
         -5    1    5    5    0  503 -0.42464773632E+02 -0.34400894776E+02  0.60313326377E+01  0.55182837317E+02  0.47000000000E+01 0.  1.
<mgrwt>
<rscale>  0 0.27143377E+03</rscale>
<asrwt>0</asrwt>
<pdfrwt beam="1">  1        1 0.42031468E-01 0.27143377E+03</pdfrwt>
<pdfrwt beam="2">  1       -1 0.10372095E-01 0.27143377E+03</pdfrwt>
<totfact> 0.56387973E+03</totfact>
</mgrwt>
</event>
<event>
 9    1  0.7986988E-001  0.2795901E+03  0.7818608E-02  0.1095913E+00
         -3   -1    0    0    0  501 -0.00000000000E+00  0.00000000000E+00  0.19071616540E+03  0.19071616540E+03  0.00000000000E+00 0.  1.
          3   -1    0    0  501    0  0.00000000000E+00 -0.00000000000E+00 -0.10246983105E+03  0.10246983105E+03  0.00000000000E+00 0.  1.
         35    2    1    2    0    0 -0.17763568394E-14  0.00000000000E+00  0.88246334349E+02  0.29318599646E+03  0.27959008028E+03 0.  0.
         25    2    3    3    0    0 -0.51172310473E+01  0.29979235567E+02 -0.15267540428E+02  0.12949143712E+03  0.12493996110E+03 0.  0.
         25    2    3    3    0    0  0.51172310473E+01 -0.29979235567E+02  0.10351387478E+03  0.16369455933E+03  0.12310908117E+03 0.  0.
          5    1    4    4  502    0  0.51398527994E+02 -0.87717761059E+01  0.14959696550E+02  0.54448464229E+02  0.47000000000E+01 0. -1.
         -5    1    4    4    0  502 -0.56515759042E+02  0.38751011672E+02 -0.30227236978E+02  0.75042972896E+02  0.47000000000E+01 0. -1.
          5    1    5    5  503    0 -0.42285267652E+01  0.62796612705E+01 -0.26686764211E+02  0.28135173153E+02  0.47000000000E+01 0. -1.
         -5    1    5    5    0  503  0.93457578125E+01 -0.36258896837E+02  0.13020063899E+03  0.13555938618E+03  0.47000000000E+01 0. -1.
<mgrwt>
<rscale>  0 0.27959008E+03</rscale>
<asrwt>0</asrwt>
<pdfrwt beam="1">  1        3 0.15764589E-01 0.27959008E+03</pdfrwt>
<pdfrwt beam="2">  1       -3 0.29340948E-01 0.27959008E+03</pdfrwt>
<totfact> 0.97090896E+02</totfact>
</mgrwt>
</event>
<event>
 9    1  0.7986988E-001  0.2539920E+03  0.7818608E-02  0.1110808E+00
          3   -1    0    0  501    0  0.00000000000E+00  0.00000000000E+00  0.45667970545E+02  0.45667970545E+02  0.00000000000E+00 0. -1.
         -3   -1    0    0    0  501 -0.00000000000E+00 -0.00000000000E+00 -0.35315732065E+03  0.35315732065E+03  0.00000000000E+00 0. -1.
         35    2    1    2    0    0  0.00000000000E+00  0.00000000000E+00 -0.30748935010E+03  0.39882529119E+03  0.25399195355E+03 0.  0.
         25    2    3    3    0    0  0.24976126150E+02 -0.24171065652E+01 -0.16300976209E+03  0.20709481622E+03  0.12524548331E+03 0.  0.
         25    2    3    3    0    0 -0.24976126150E+02  0.24171065652E+01 -0.14447958801E+03  0.19173047497E+03  0.12351750644E+03 0.  0.
          5    1    4    4  502    0 -0.39117103999E+02 -0.37606286319E+02 -0.69269638989E+02  0.88117838612E+02  0.47000000000E+01 0.  1.
         -5    1    4    4    0  502  0.64093230149E+02  0.35189179754E+02 -0.93740123101E+02  0.11897697761E+03  0.47000000000E+01 0.  1.
          5    1    5    5  503    0  0.98000253257E+01 -0.45217903014E+02 -0.14167659091E+02  0.48615962538E+02  0.47000000000E+01 0. -1.
         -5    1    5    5    0  503 -0.34776151476E+02  0.47635009579E+02 -0.13031192892E+03  0.14311451243E+03  0.47000000000E+01 0. -1.
<mgrwt>
<rscale>  0 0.25399195E+03</rscale>
<asrwt>0</asrwt>
<pdfrwt beam="1">  1        3 0.70258417E-02 0.25399195E+03</pdfrwt>
<pdfrwt beam="2">  1       -3 0.54331895E-01 0.25399195E+03</pdfrwt>
<totfact> 0.11222877E+03</totfact>
</mgrwt>
</event>
<event>
 9    1  0.7986988E-001  0.2707199E+03  0.7818608E-02  0.1100868E+00
         -1   -1    0    0    0  501 -0.00000000000E+00  0.00000000000E+00  0.37779746376E+03  0.37779746376E+03  0.00000000000E+00 0.  1.
          1   -1    0    0  501    0  0.00000000000E+00 -0.00000000000E+00 -0.48497731511E+02  0.48497731511E+02  0.00000000000E+00 0.  1.
         35    2    1    2    0    0  0.00000000000E+00  0.00000000000E+00  0.32929973225E+03  0.42629519527E+03  0.27071992880E+03 0.  0.
         25    2    3    3    0    0 -0.45558071198E+02 -0.85016433284E+01  0.12980236488E+03  0.18605700604E+03  0.12498295795E+03 0.  0.
         25    2    3    3    0    0  0.45558071198E+02  0.85016433284E+01  0.19949736737E+03  0.24023818923E+03  0.12556819736E+03 0.  0.
          5    1    4    4  502    0 -0.24349665945E+02 -0.46645458164E+02  0.41878592306E+01  0.52993708720E+02  0.47000000000E+01 0. -1.
         -5    1    4    4    0  502 -0.21208405253E+02  0.38143814836E+02  0.12561450565E+03  0.13306329732E+03  0.47000000000E+01 0. -1.
          5    1    5    5  503    0  0.21262813649E+02 -0.50320886768E+02  0.14928690733E+03  0.15903763576E+03  0.47000000000E+01 0.  1.
         -5    1    5    5    0  503  0.24295257549E+02  0.58822530096E+02  0.50210460039E+02  0.81200553468E+02  0.47000000000E+01 0.  1.
<mgrwt>
<rscale>  0 0.27071993E+03</rscale>
<asrwt>0</asrwt>
<pdfrwt beam="1">  1        1 0.74611897E-02 0.27071993E+03</pdfrwt>
<pdfrwt beam="2">  1       -1 0.58122685E-01 0.27071993E+03</pdfrwt>
<totfact> 0.29450641E+03</totfact>
</mgrwt>
</event>
<event>
 8    1  0.7986988E-001  0.3688667E+03  0.7818608E-02  0.1055127E+00
          3   -1    0    0  501    0  0.00000000000E+00  0.00000000000E+00  0.33765189127E+03  0.33765189127E+03  0.00000000000E+00 0. -1.
         -3   -1    0    0    0  501 -0.00000000000E+00 -0.00000000000E+00 -0.10074180175E+03  0.10074180175E+03  0.00000000000E+00 0. -1.
         25    2    1    2    0    0  0.65381060681E+02  0.11789898289E+03  0.82715283159E+02  0.20084379690E+03  0.12378028689E+03 0.  0.
         25    2    1    2    0    0 -0.65381060681E+02 -0.11789898289E+03  0.15419480636E+03  0.23754989611E+03  0.12032897228E+03 0.  0.
          5    1    3    3  502    0  0.69013409878E+02  0.13463856366E+03  0.95483930506E+02  0.17896833394E+03  0.47000000000E+01 0.  1.
         -5    1    3    3    0  502 -0.36323491973E+01 -0.16739580766E+02 -0.12768647347E+02  0.21875462966E+02  0.47000000000E+01 0.  1.
          5    1    4    4  503    0 -0.45766550165E+02 -0.73230734652E+02  0.12206344530E+02  0.87340726230E+02  0.47000000000E+01 0. -1.
         -5    1    4    4    0  503 -0.19614510516E+02 -0.44668248242E+02  0.14198846183E+03  0.15020916988E+03  0.47000000000E+01 0. -1.
<mgrwt>
<rscale>  0 0.36886670E+03</rscale>
<asrwt>0</asrwt>
<pdfrwt beam="1">  1        3 0.51946444E-01 0.36886670E+03</pdfrwt>
<pdfrwt beam="2">  1       -3 0.15498739E-01 0.36886670E+03</pdfrwt>
<totfact> 0.33703799E+02</totfact>
</mgrwt>
</event>
<event>
 9    1  0.7986988E-001  0.2757912E+03  0.7818608E-02  0.1098010E+00
          2   -1    0    0  501    0  0.00000000000E+00  0.00000000000E+00  0.50657008045E+03  0.50657008045E+03  0.00000000000E+00 0. -1.
         -2   -1    0    0    0  501 -0.00000000000E+00 -0.00000000000E+00 -0.37537158901E+02  0.37537158901E+02  0.00000000000E+00 0. -1.
         35    2    1    2    0    0 -0.35527136788E-14  0.00000000000E+00  0.46903292155E+03  0.54410723935E+03  0.27579123702E+03 0.  0.
         25    2    3    3    0    0  0.19606850282E+02 -0.54726910956E+02  0.21944998841E+03  0.25931855214E+03  0.12533295939E+03 0.  0.
         25    2    3    3    0    0 -0.19606850282E+02  0.54726910956E+02  0.24958293314E+03  0.28478868721E+03  0.12423160825E+03 0.  0.
          5    1    4    4  502    0  0.27059931898E+02 -0.88629346315E+02  0.10744838975E+03  0.14196706450E+03  0.47000000000E+01 0.  1.
         -5    1    4    4    0  502 -0.74530816165E+01  0.33902435359E+02  0.11200159866E+03  0.11735148764E+03  0.47000000000E+01 0.  1.
          5    1    5    5  503    0 -0.37595674727E+02  0.48722093457E+02  0.38371714865E+02  0.72675688168E+02  0.47000000000E+01 0.  1.
         -5    1    5    5    0  503  0.17988824445E+02  0.60048174991E+01  0.21121121828E+03  0.21211299904E+03  0.47000000000E+01 0.  1.
<mgrwt>
<rscale>  0 0.27579124E+03</rscale>
<asrwt>0</asrwt>
<pdfrwt beam="1">  1        2 0.77933853E-01 0.27579124E+03</pdfrwt>
<pdfrwt beam="2">  1       -2 0.57749479E-02 0.27579124E+03</pdfrwt>
<totfact> 0.95759319E+03</totfact>
</mgrwt>
</event>
<event>
 9    1  0.7986988E-001  0.2730588E+03  0.7818608E-02  0.1099542E+00
          1   -1    0    0  501    0  0.00000000000E+00  0.00000000000E+00  0.25663800835E+03  0.25663800835E+03  0.00000000000E+00 0.  1.
         -1   -1    0    0    0  501 -0.00000000000E+00 -0.00000000000E+00 -0.72632548040E+02  0.72632548040E+02  0.00000000000E+00 0.  1.
         35    2    1    2    0    0 -0.71054273576E-14  0.00000000000E+00  0.18400546031E+03  0.32927055639E+03  0.27305876635E+03 0.  0.
         25    2    3    3    0    0  0.31633401679E+02 -0.30868498836E+01  0.14572945806E+03  0.19421172683E+03  0.12438214964E+03 0.  0.
         25    2    3    3    0    0 -0.31633401679E+02  0.30868498836E+01  0.38276002248E+02  0.13505882956E+03  0.12556127727E+03 0.  0.
          5    1    4    4  502    0  0.30257929739E+02  0.48667850150E+02  0.24872862339E+02  0.62648633115E+02  0.47000000000E+01 0.  1.
         -5    1    4    4    0  502  0.13754719407E+01 -0.51754700033E+02  0.12085659572E+03  0.13156309371E+03  0.47000000000E+01 0.  1.
          5    1    5    5  503    0 -0.54102994690E+02 -0.24301277101E+02  0.66712877860E+02  0.89388948844E+02  0.47000000000E+01 0.  1.
         -5    1    5    5    0  503  0.22469593010E+02  0.27388126984E+02 -0.28436875613E+02  0.45669880713E+02  0.47000000000E+01 0.  1.
<mgrwt>
<rscale>  0 0.27305877E+03</rscale>
<asrwt>0</asrwt>
<pdfrwt beam="1">  1        1 0.39482770E-01 0.27305877E+03</pdfrwt>
<pdfrwt beam="2">  1       -1 0.11174238E-01 0.27305877E+03</pdfrwt>
<totfact> 0.54343344E+03</totfact>
</mgrwt>
</event>
<event>
 9    1  0.7986988E-001  0.2752440E+03  0.7818608E-02  0.1098315E+00
          1   -1    0    0  501    0  0.00000000000E+00  0.00000000000E+00  0.12401660702E+03  0.12401660702E+03  0.00000000000E+00 0. -1.
         -1   -1    0    0    0  501 -0.00000000000E+00 -0.00000000000E+00 -0.15272000796E+03  0.15272000796E+03  0.00000000000E+00 0. -1.
         35    2    1    2    0    0  0.00000000000E+00  0.00000000000E+00 -0.28703400946E+02  0.27673661498E+03  0.27524401691E+03 0.  0.
         25    2    3    3    0    0  0.45256455128E+02  0.34264187617E+02  0.40939648947E+01  0.13632354697E+03  0.12387561352E+03 0.  0.
         25    2    3    3    0    0 -0.45256455128E+02 -0.34264187617E+02 -0.32797365841E+02  0.14041306801E+03  0.12416916356E+03 0.  0.
          5    1    4    4  502    0 -0.38379015772E+02  0.89017370563E+01 -0.21509805593E+02  0.45132599204E+02  0.47000000000E+01 0.  1.
         -5    1    4    4    0  502  0.83635470900E+02  0.25362450561E+02  0.25603770488E+02  0.91190947765E+02  0.47000000000E+01 0.  1.
          5    1    5    5  503    0 -0.43175418572E+01 -0.22147861667E+02  0.45558318526E+02  0.51057020389E+02  0.47000000000E+01 0.  1.
         -5    1    5    5    0  503 -0.40938913270E+02 -0.12116325950E+02 -0.78355684367E+02  0.89356047624E+02  0.47000000000E+01 0.  1.
<mgrwt>
<rscale>  0 0.27524402E+03</rscale>
<asrwt>0</asrwt>
<pdfrwt beam="1">  1        1 0.19079478E-01 0.27524402E+03</pdfrwt>
<pdfrwt beam="2">  1       -1 0.23495386E-01 0.27524402E+03</pdfrwt>
<totfact> 0.41695549E+03</totfact>
</mgrwt>
</event>
<event>
 9    1  0.7986988E-001  0.2762957E+03  0.7818608E-02  0.1097729E+00
          1   -1    0    0  501    0  0.00000000000E+00  0.00000000000E+00  0.20048154841E+03  0.20048154841E+03  0.00000000000E+00 0.  1.
         -1   -1    0    0    0  501 -0.00000000000E+00 -0.00000000000E+00 -0.95194963317E+02  0.95194963317E+02  0.00000000000E+00 0.  1.
         35    2    1    2    0    0 -0.71054273576E-14  0.00000000000E+00  0.10528658509E+03  0.29567651173E+03  0.27629573755E+03 0.  0.
         25    2    3    3    0    0 -0.20112663504E+02 -0.50117962341E+02  0.27019102864E+02  0.13848029819E+03  0.12462115264E+03 0.  0.
         25    2    3    3    0    0  0.20112663504E+02  0.50117962341E+02  0.78267482227E+02  0.15719621353E+03  0.12517396452E+03 0.  0.
          5    1    4    4  502    0  0.14201215246E+02  0.16674138000E+02 -0.34607880722E+02  0.41224953615E+02  0.47000000000E+01 0. -1.
         -5    1    4    4    0  502 -0.34313878750E+02 -0.66792100342E+02  0.61626983587E+02  0.97255344577E+02  0.47000000000E+01 0. -1.
          5    1    5    5  503    0 -0.13637664330E+02  0.31865737504E+02 -0.27558754726E+02  0.44530731827E+02  0.47000000000E+01 0.  1.
         -5    1    5    5    0  503  0.33750327833E+02  0.18252224838E+02  0.10582623695E+03  0.11266548171E+03  0.47000000000E+01 0.  1.
<mgrwt>
<rscale>  0 0.27629574E+03</rscale>
<asrwt>0</asrwt>
<pdfrwt beam="1">  1        1 0.30843315E-01 0.27629574E+03</pdfrwt>
<pdfrwt beam="2">  1       -1 0.14645379E-01 0.27629574E+03</pdfrwt>
<totfact> 0.48507253E+03</totfact>
</mgrwt>
</event>
<event>
 9    1  0.7986988E-001  0.2728724E+03  0.7818608E-02  0.1099647E+00
         -1   -1    0    0    0  501 -0.00000000000E+00  0.00000000000E+00  0.64133567677E+02  0.64133567677E+02  0.00000000000E+00 0. -1.
          1   -1    0    0  501    0  0.00000000000E+00 -0.00000000000E+00 -0.29025097449E+03  0.29025097449E+03  0.00000000000E+00 0. -1.
         35    2    1    2    0    0 -0.35527136788E-14  0.00000000000E+00 -0.22611740682E+03  0.35438454217E+03  0.27287235489E+03 0.  0.
         25    2    3    3    0    0  0.28574477754E+02 -0.33994040372E+02 -0.68943540675E+02  0.14830045859E+03  0.12356261028E+03 0.  0.
         25    2    3    3    0    0 -0.28574477754E+02  0.33994040372E+02 -0.15717386614E+03  0.20608408357E+03  0.12567788089E+03 0.  0.
          5    1    4    4  502    0  0.48652844242E+02 -0.63330753521E+01 -0.93675035281E+02  0.10585041016E+03  0.47000000000E+01 0. -1.
         -5    1    4    4    0  502 -0.20078366488E+02 -0.27660965020E+02  0.24731494606E+02  0.42450048435E+02  0.47000000000E+01 0. -1.
          5    1    5    5  503    0 -0.65583179188E+02  0.47407613655E+02 -0.59149003157E+02  0.10034605024E+03  0.47000000000E+01 0.  1.
         -5    1    5    5    0  503  0.37008701434E+02 -0.13413573283E+02 -0.98024862983E+02  0.10573803333E+03  0.47000000000E+01 0.  1.
<mgrwt>
<rscale>  0 0.27287235E+03</rscale>
<asrwt>0</asrwt>
<pdfrwt beam="1">  1        1 0.44653995E-01 0.27287235E+03</pdfrwt>
<pdfrwt beam="2">  1       -1 0.98667029E-02 0.27287235E+03</pdfrwt>
<totfact> 0.56469298E+03</totfact>
</mgrwt>
</event>
<event>
 9    1  0.7986988E-001  0.2800735E+03  0.7818608E-02  0.1095649E+00
          2   -1    0    0  501    0  0.00000000000E+00  0.00000000000E+00  0.77409837669E+03  0.77409837669E+03  0.00000000000E+00 0.  1.
         -2   -1    0    0    0  501 -0.00000000000E+00 -0.00000000000E+00 -0.25333082615E+02  0.25333082615E+02  0.00000000000E+00 0.  1.
         35    2    1    2    0    0  0.14210854715E-13  0.00000000000E+00  0.74876529408E+03  0.79943145931E+03  0.28007354840E+03 0.  0.
         25    2    3    3    0    0  0.57527550311E+02 -0.17683082821E+02  0.41866374607E+03  0.44134718056E+03  0.12603924412E+03 0.  0.
         25    2    3    3    0    0 -0.57527550311E+02  0.17683082821E+02  0.33010154801E+03  0.35808427874E+03  0.12504082622E+03 0.  0.
          5    1    4    4  502    0  0.51669593339E+02  0.19161551190E+02  0.39042247816E+03  0.39432057184E+03  0.47000000000E+01 0. -1.
         -5    1    4    4    0  502  0.58579569714E+01 -0.36844634011E+02  0.28241267903E+02  0.47026608724E+02  0.47000000000E+01 0. -1.
          5    1    5    5  503    0  0.55572806577E+01  0.60982059180E+02  0.12919741574E+03  0.14305158910E+03  0.47000000000E+01 0. -1.
         -5    1    5    5    0  503 -0.63084830969E+02 -0.43298976359E+02  0.20090413227E+03  0.21503268964E+03  0.47000000000E+01 0. -1.
<mgrwt>
<rscale>  0 0.28007355E+03</rscale>
<asrwt>0</asrwt>
<pdfrwt beam="1">  1        2 0.11909204E+00 0.28007355E+03</pdfrwt>
<pdfrwt beam="2">  1       -2 0.38973979E-02 0.28007355E+03</pdfrwt>
<totfact> 0.10547586E+04</totfact>
</mgrwt>
</event>
<event>
 9    1  0.7986988E-001  0.2767734E+03  0.7818608E-02  0.1097464E+00
          2   -1    0    0  501    0  0.00000000000E+00  0.00000000000E+00  0.83973560857E+01  0.83973560857E+01  0.00000000000E+00 0. -1.
         -2   -1    0    0    0  501 -0.00000000000E+00 -0.00000000000E+00 -0.22805841538E+04  0.22805841538E+04  0.00000000000E+00 0. -1.
         35    2    1    2    0    0  0.00000000000E+00  0.00000000000E+00 -0.22721867977E+04  0.22889815099E+04  0.27677338906E+03 0.  0.
         25    2    3    3    0    0  0.20972847353E+02 -0.38466473628E+02 -0.80751803054E+03  0.81833747421E+03  0.12518515135E+03 0.  0.
         25    2    3    3    0    0 -0.20972847353E+02  0.38466473628E+02 -0.14646687672E+04  0.14706440357E+04  0.12497900717E+03 0.  0.
          5    1    4    4  502    0 -0.14639251946E+02  0.41831260647E+02 -0.28652451413E+03  0.28996991096E+03  0.47000000000E+01 0.  1.
         -5    1    4    4    0  502  0.35612099299E+02 -0.80297734275E+02 -0.52099351641E+03  0.52836756325E+03  0.47000000000E+01 0.  1.
          5    1    5    5  503    0  0.20425580052E+02  0.65301147988E+02 -0.49731607004E+03  0.50202271639E+03  0.47000000000E+01 0.  1.
         -5    1    5    5    0  503 -0.41398427405E+02 -0.26834674360E+02 -0.96735269712E+03  0.96862131928E+03  0.47000000000E+01 0.  1.
<mgrwt>
<rscale>  0 0.27677339E+03</rscale>
<asrwt>0</asrwt>
<pdfrwt beam="1">  1        2 0.12918997E-02 0.27677339E+03</pdfrwt>
<pdfrwt beam="2">  1       -2 0.35085942E+00 0.27677339E+03</pdfrwt>
<totfact> 0.18369954E+02</totfact>
</mgrwt>
</event>
<event>
 9    1  0.7986988E-001  0.2739030E+03  0.7818608E-02  0.1099066E+00
         -1   -1    0    0    0  501 -0.00000000000E+00  0.00000000000E+00  0.12627326227E+03  0.12627326227E+03  0.00000000000E+00 0.  1.
          1   -1    0    0  501    0  0.00000000000E+00 -0.00000000000E+00 -0.14853272434E+03  0.14853272434E+03  0.00000000000E+00 0.  1.
         35    2    1    2    0    0  0.00000000000E+00 -0.35527136788E-14 -0.22259462067E+02  0.27480598661E+03  0.27390298762E+03 0.  0.
         25    2    3    3    0    0  0.14822594176E+02  0.74557265458E+01  0.42865003759E+02  0.13331729556E+03  0.12514310046E+03 0.  0.
         25    2    3    3    0    0 -0.14822594176E+02 -0.74557265458E+01 -0.65124465825E+02  0.14148869105E+03  0.12450926267E+03 0.  0.
          5    1    4    4  502    0  0.19900767088E+02 -0.29954153330E+00  0.86282601282E+02  0.88673037277E+02  0.47000000000E+01 0. -1.
         -5    1    4    4    0  502 -0.50781729124E+01  0.77552680791E+01 -0.43417597524E+02  0.44644258285E+02  0.47000000000E+01 0. -1.
          5    1    5    5  503    0 -0.32606788694E+01  0.53848489507E+02 -0.56628209081E+02  0.78352638198E+02  0.47000000000E+01 0.  1.
         -5    1    5    5    0  503 -0.11561915306E+02 -0.61304216053E+02 -0.84962567448E+01  0.63136052855E+02  0.47000000000E+01 0.  1.
<mgrwt>
<rscale>  0 0.27390299E+03</rscale>
<asrwt>0</asrwt>
<pdfrwt beam="1">  1        1 0.22851188E-01 0.27390299E+03</pdfrwt>
<pdfrwt beam="2">  1       -1 0.19426656E-01 0.27390299E+03</pdfrwt>
<totfact> 0.45129467E+03</totfact>
</mgrwt>
</event>
<event>
 9    1  0.7986988E-001  0.2738089E+03  0.7818608E-02  0.1099119E+00
         -3   -1    0    0    0  501 -0.00000000000E+00  0.00000000000E+00  0.95894910464E+02  0.95894910464E+02  0.00000000000E+00 0.  1.
          3   -1    0    0  501    0  0.00000000000E+00 -0.00000000000E+00 -0.19545182409E+03  0.19545182409E+03  0.00000000000E+00 0.  1.
         35    2    1    2    0    0  0.17763568394E-14  0.35527136788E-14 -0.99556913626E+02  0.29134673455E+03  0.27380894924E+03 0.  0.
         25    2    3    3    0    0  0.13127643268E+02  0.31252450632E+02 -0.96695330056E+02  0.16148328833E+03  0.12481111676E+03 0.  0.
         25    2    3    3    0    0 -0.13127643268E+02 -0.31252450632E+02 -0.28615835694E+01  0.12986344622E+03  0.12532866917E+03 0.  0.
          5    1    4    4  502    0  0.32209042934E+02  0.63152880931E+02 -0.16458211033E+02  0.72929222723E+02  0.47000000000E+01 0. -1.
         -5    1    4    4    0  502 -0.19081399666E+02 -0.31900430299E+02 -0.80237119023E+02  0.88554065607E+02  0.47000000000E+01 0. -1.
          5    1    5    5  503    0 -0.88373641203E+01  0.48575333913E+02 -0.41783917845E+01  0.49771588555E+02  0.47000000000E+01 0.  1.
         -5    1    5    5    0  503 -0.42902791476E+01 -0.79827784546E+02  0.13168082151E+01  0.80091857667E+02  0.47000000000E+01 0.  1.
<mgrwt>
<rscale>  0 0.27380895E+03</rscale>
<asrwt>0</asrwt>
<pdfrwt beam="1">  1        3 0.30069511E-01 0.27380895E+03</pdfrwt>
<pdfrwt beam="2">  1       -3 0.14753063E-01 0.27380895E+03</pdfrwt>
<totfact> 0.10380754E+03</totfact>
</mgrwt>
</event>
<event>
 9    1  0.7986988E-001  0.2748416E+03  0.7818608E-02  0.1098540E+00
         -2   -1    0    0    0  501 -0.00000000000E+00  0.00000000000E+00  0.28146260973E+02  0.28146260973E+02  0.00000000000E+00 0. -1.
          2   -1    0    0  501    0  0.00000000000E+00 -0.00000000000E+00 -0.67094069034E+03  0.67094069034E+03  0.00000000000E+00 0. -1.
         35    2    1    2    0    0  0.00000000000E+00  0.00000000000E+00 -0.64279442936E+03  0.69908695131E+03  0.27484156722E+03 0.  0.
         25    2    3    3    0    0 -0.16912749208E+02 -0.50914612291E+02 -0.37390610411E+03  0.39791278576E+03  0.12510184472E+03 0.  0.
         25    2    3    3    0    0  0.16912749208E+02  0.50914612291E+02 -0.26888832526E+03  0.30117416555E+03  0.12460580927E+03 0.  0.
          5    1    4    4  502    0  0.38374607486E+02 -0.67862430191E+02 -0.21516284446E+03  0.22889967140E+03  0.47000000000E+01 0. -1.
         -5    1    4    4    0  502 -0.55287356694E+02  0.16947817900E+02 -0.15874325965E+03  0.16901311436E+03  0.47000000000E+01 0. -1.
          5    1    5    5  503    0 -0.22465462745E+02  0.63457925903E+01  0.19031485297E+01  0.23888869255E+02  0.47000000000E+01 0.  1.
         -5    1    5    5    0  503  0.39378211953E+02  0.44568819701E+02 -0.27079147379E+03  0.27728529629E+03  0.47000000000E+01 0.  1.
<mgrwt>
<rscale>  0 0.27484157E+03</rscale>
<asrwt>0</asrwt>
<pdfrwt beam="1">  1        2 0.10322165E+00 0.27484157E+03</pdfrwt>
<pdfrwt beam="2">  1       -2 0.43301938E-02 0.27484157E+03</pdfrwt>
<totfact> 0.10718697E+04</totfact>
</mgrwt>
</event>
<event>
 9    1  0.7986988E-001  0.2753305E+03  0.7818608E-02  0.1098267E+00
         -1   -1    0    0    0  501 -0.00000000000E+00  0.00000000000E+00  0.21022435239E+02  0.21022435239E+02  0.00000000000E+00 0.  1.
          1   -1    0    0  501    0  0.00000000000E+00 -0.00000000000E+00 -0.90149987120E+03  0.90149987120E+03  0.00000000000E+00 0.  1.
         35    2    1    2    0    0 -0.66613381478E-15 -0.14210854715E-13 -0.88047743596E+03  0.92252230644E+03  0.27533051164E+03 0.  0.
         25    2    3    3    0    0  0.12456628199E+00  0.48734917196E+02 -0.39242503108E+03  0.41483564719E+03  0.12536387632E+03 0.  0.
         25    2    3    3    0    0 -0.12456628199E+00 -0.48734917196E+02 -0.48805240488E+03  0.50768665925E+03  0.13105527996E+03 0.  0.
          5    1    4    4  502    0  0.18344946189E+01 -0.25440670195E+02 -0.27253251913E+03  0.27376387098E+03  0.47000000000E+01 0.  1.
         -5    1    4    4    0  502 -0.17099283369E+01  0.74175587391E+02 -0.11989251195E+03  0.14107177620E+03  0.47000000000E+01 0.  1.
          5    1    5    5  503    0  0.64776411997E+02 -0.24860713811E+02 -0.27425454423E+03  0.28293406241E+03  0.47000000000E+01 0. -1.
         -5    1    5    5    0  503 -0.64900978279E+02 -0.23874203384E+02 -0.21379786065E+03  0.22475259684E+03  0.47000000000E+01 0. -1.
<mgrwt>
<rscale>  0 0.27533051E+03</rscale>
<asrwt>0</asrwt>
<pdfrwt beam="1">  1        1 0.13869226E+00 0.27533051E+03</pdfrwt>
<pdfrwt beam="2">  1       -1 0.32342215E-02 0.27533051E+03</pdfrwt>
<totfact> 0.64189131E+03</totfact>
</mgrwt>
</event>
<event>
 9    1  0.7986988E-001  0.2645070E+03  0.7818608E-02  0.1104465E+00
          2   -1    0    0  501    0  0.00000000000E+00  0.00000000000E+00  0.61126154720E+02  0.61126154720E+02  0.00000000000E+00 0.  1.
         -2   -1    0    0    0  501 -0.00000000000E+00 -0.00000000000E+00 -0.28614582354E+03  0.28614582354E+03  0.00000000000E+00 0.  1.
         35    2    1    2    0    0 -0.71054273576E-14  0.35527136788E-14 -0.22501966882E+03  0.34727197826E+03  0.26450704249E+03 0.  0.
         25    2    3    3    0    0 -0.30412563224E+02  0.26220595500E+02 -0.13545956152E+03  0.18830140079E+03  0.12448164966E+03 0.  0.
         25    2    3    3    0    0  0.30412563224E+02 -0.26220595500E+02 -0.89560107302E+02  0.15897057747E+03  0.12505274108E+03 0.  0.
          5    1    4    4  502    0 -0.68328742650E+02  0.21794052120E+02 -0.13120924529E+03  0.14960532687E+03  0.47000000000E+01 0.  1.
         -5    1    4    4    0  502  0.37916179426E+02  0.44265433802E+01 -0.42503162333E+01  0.38696073918E+02  0.47000000000E+01 0.  1.
          5    1    5    5  503    0  0.64672343324E+02  0.41405870137E+01 -0.92294567422E+02  0.11287175744E+03  0.47000000000E+01 0.  1.
         -5    1    5    5    0  503 -0.34259780100E+02 -0.30361182513E+02  0.27344601202E+01  0.46098820031E+02  0.47000000000E+01 0.  1.
<mgrwt>
<rscale>  0 0.26450704E+03</rscale>
<asrwt>0</asrwt>
<pdfrwt beam="1">  1        2 0.94040238E-02 0.26450704E+03</pdfrwt>
<pdfrwt beam="2">  1       -2 0.44022434E-01 0.26450704E+03</pdfrwt>
<totfact> 0.34024860E+03</totfact>
</mgrwt>
</event>
<event>
 9    1  0.7986988E-001  0.2667827E+03  0.7818608E-02  0.1103135E+00
          3   -1    0    0  501    0  0.00000000000E+00  0.00000000000E+00  0.13074829101E+03  0.13074829101E+03  0.00000000000E+00 0. -1.
         -3   -1    0    0    0  501 -0.00000000000E+00 -0.00000000000E+00 -0.13608787835E+03  0.13608787835E+03  0.00000000000E+00 0. -1.
         35    2    1    2    0    0  0.00000000000E+00 -0.71054273576E-14 -0.53395873377E+01  0.26683616936E+03  0.26678273948E+03 0.  0.
         25    2    3    3    0    0 -0.69520207628E+01  0.35780092790E+02 -0.31110811288E+02  0.13364871526E+03  0.12476197689E+03 0.  0.
         25    2    3    3    0    0  0.69520207628E+01 -0.35780092790E+02  0.25771223950E+02  0.13318745410E+03  0.12548384882E+03 0.  0.
          5    1    4    4  502    0 -0.37022657055E+02  0.14395398373E+02  0.37994268348E+02  0.55168460709E+02  0.47000000000E+01 0.  1.
         -5    1    4    4    0  502  0.30070636292E+02  0.21384694417E+02 -0.69105079636E+02  0.78480254547E+02  0.47000000000E+01 0.  1.
          5    1    5    5  503    0  0.19686104384E+02  0.35021006743E+02  0.43033314260E+02  0.59059036187E+02  0.47000000000E+01 0.  1.
         -5    1    5    5    0  503 -0.12734083621E+02 -0.70801099533E+02 -0.17262090310E+02  0.74128417915E+02  0.47000000000E+01 0.  1.
<mgrwt>
<rscale>  0 0.26678274E+03</rscale>
<asrwt>0</asrwt>
<pdfrwt beam="1">  1        3 0.20115122E-01 0.26678274E+03</pdfrwt>
<pdfrwt beam="2">  1       -3 0.20936597E-01 0.26678274E+03</pdfrwt>
<totfact> 0.11650090E+03</totfact>
</mgrwt>
</event>
<event>
 9    1  0.7986988E-001  0.2718289E+03  0.7818608E-02  0.1100237E+00
         -2   -1    0    0    0  501 -0.00000000000E+00  0.00000000000E+00  0.66938147891E+01  0.66938147891E+01  0.00000000000E+00 0.  1.
          2   -1    0    0  501    0  0.00000000000E+00 -0.00000000000E+00 -0.27596726920E+04  0.27596726920E+04  0.00000000000E+00 0.  1.
         35    2    1    2    0    0  0.00000000000E+00 -0.71054273576E-14 -0.27529788772E+04  0.27663665067E+04  0.27182890117E+03 0.  0.
         25    2    3    3    0    0 -0.28472639880E+01 -0.45027677525E+02 -0.10905537722E+04  0.10986369848E+04  0.12514030394E+03 0.  0.
         25    2    3    3    0    0  0.28472639880E+01  0.45027677525E+02 -0.16624251050E+04  0.16677295219E+04  0.12501571928E+03 0.  0.
          5    1    4    4  502    0  0.60197428762E+02 -0.32406866471E+02 -0.55015952469E+03  0.55441097394E+03  0.47000000000E+01 0. -1.
         -5    1    4    4    0  502 -0.63044692750E+02 -0.12620811054E+02 -0.54039424754E+03  0.54422601089E+03  0.47000000000E+01 0. -1.
          5    1    5    5  503    0  0.37455918733E+02  0.47574794343E+01 -0.16396991051E+03  0.16832647151E+03  0.47000000000E+01 0. -1.
         -5    1    5    5    0  503 -0.34608654745E+02  0.40270198091E+02 -0.14984551944E+04  0.14994030504E+04  0.47000000000E+01 0. -1.
<mgrwt>
<rscale>  0 0.27182890E+03</rscale>
<asrwt>0</asrwt>
<pdfrwt beam="1">  1        2 0.42456462E+00 0.27182890E+03</pdfrwt>
<pdfrwt beam="2">  1       -2 0.10298187E-02 0.27182890E+03</pdfrwt>
<totfact> 0.58695000E+03</totfact>
</mgrwt>
</event>
<event>
 9    1  0.7986988E-001  0.2750721E+03  0.7818608E-02  0.1098411E+00
         -1   -1    0    0    0  501 -0.00000000000E+00  0.00000000000E+00  0.58389464846E+02  0.58389464846E+02  0.00000000000E+00 0. -1.
          1   -1    0    0  501    0  0.00000000000E+00 -0.00000000000E+00 -0.32396528549E+03  0.32396528549E+03  0.00000000000E+00 0. -1.
         35    2    1    2    0    0  0.00000000000E+00  0.00000000000E+00 -0.26557582065E+03  0.38235475034E+03  0.27507206073E+03 0.  0.
         25    2    3    3    0    0  0.47473927296E+02 -0.24385164893E+02 -0.15170035492E+03  0.20440692145E+03  0.12617758046E+03 0.  0.
         25    2    3    3    0    0 -0.47473927296E+02  0.24385164893E+02 -0.11387546573E+03  0.17794782889E+03  0.12589439254E+03 0.  0.
          5    1    4    4  502    0  0.52930534402E+02 -0.31275037800E+02 -0.17149611565E+03  0.18224373006E+03  0.47000000000E+01 0. -1.
         -5    1    4    4    0  502 -0.54566071065E+01  0.68898729066E+01  0.19795760728E+02  0.22163191390E+02  0.47000000000E+01 0. -1.
          5    1    5    5  503    0 -0.14144772672E+02  0.70608966716E+02 -0.91529091123E+02  0.11655627523E+03  0.47000000000E+01 0. -1.
         -5    1    5    5    0  503 -0.33329154624E+02 -0.46223801823E+02 -0.22346374604E+02  0.61391553661E+02  0.47000000000E+01 0. -1.
<mgrwt>
<rscale>  0 0.27507206E+03</rscale>
<asrwt>0</asrwt>
<pdfrwt beam="1">  1        1 0.49840813E-01 0.27507206E+03</pdfrwt>
<pdfrwt beam="2">  1       -1 0.89829946E-02 0.27507206E+03</pdfrwt>
<totfact> 0.56835841E+03</totfact>
</mgrwt>
</event>
<event>
 9    1  0.7986988E-001  0.2752884E+03  0.7818608E-02  0.1098290E+00
         -1   -1    0    0    0  501 -0.00000000000E+00  0.00000000000E+00  0.27610141482E+02  0.27610141482E+02  0.00000000000E+00 0. -1.
          1   -1    0    0  501    0  0.00000000000E+00 -0.00000000000E+00 -0.68619468583E+03  0.68619468583E+03  0.00000000000E+00 0. -1.
         35    2    1    2    0    0  0.00000000000E+00  0.14210854715E-13 -0.65858454435E+03  0.71380482731E+03  0.27528844771E+03 0.  0.
         25    2    3    3    0    0 -0.10795597677E+02  0.45598534996E+02 -0.41438532353E+03  0.43542065951E+03  0.12522053765E+03 0.  0.
         25    2    3    3    0    0  0.10795597677E+02 -0.45598534996E+02 -0.24419922082E+03  0.27838416780E+03  0.12517473432E+03 0.  0.
          5    1    4    4  502    0 -0.28784404867E+02  0.19822333001E+02 -0.39819303526E+03  0.39975148553E+03  0.47000000000E+01 0. -1.
         -5    1    4    4    0  502  0.17988807190E+02  0.25776201994E+02 -0.16192288267E+02  0.35669173984E+02  0.47000000000E+01 0. -1.
          5    1    5    5  503    0  0.53603263905E+02 -0.50047284077E+02 -0.21215458333E+03  0.22452104082E+03  0.47000000000E+01 0.  1.
         -5    1    5    5    0  503 -0.42807666228E+02  0.44487490814E+01 -0.32044637493E+02  0.53863126982E+02  0.47000000000E+01 0.  1.
<mgrwt>
<rscale>  0 0.27528845E+03</rscale>
<asrwt>0</asrwt>
<pdfrwt beam="1">  1        1 0.10556841E+00 0.27528845E+03</pdfrwt>
<pdfrwt beam="2">  1       -1 0.42477142E-02 0.27528845E+03</pdfrwt>
<totfact> 0.65065161E+03</totfact>
</mgrwt>
</event>
<event>
 9    1  0.7986988E-001  0.2782472E+03  0.7818608E-02  0.1096650E+00
          2   -1    0    0  501    0  0.00000000000E+00  0.00000000000E+00  0.63457848615E+02  0.63457848615E+02  0.00000000000E+00 0. -1.
         -2   -1    0    0    0  501 -0.00000000000E+00 -0.00000000000E+00 -0.30501152584E+03  0.30501152584E+03  0.00000000000E+00 0. -1.
         35    2    1    2    0    0  0.71054273576E-14  0.71054273576E-14 -0.24155367723E+03  0.36846937446E+03  0.27824719393E+03 0.  0.
         25    2    3    3    0    0  0.42476132673E+02 -0.44374105518E+02 -0.11805385755E+03  0.18239776319E+03  0.12473551077E+03 0.  0.
         25    2    3    3    0    0 -0.42476132673E+02  0.44374105518E+02 -0.12349981968E+03  0.18607161127E+03  0.12488857423E+03 0.  0.
          5    1    4    4  502    0  0.20886658853E+01  0.37462809830E+02 -0.67916132461E+01  0.38419274538E+02  0.47000000000E+01 0.  1.
         -5    1    4    4    0  502  0.40387466787E+02 -0.81836915348E+02 -0.11126224430E+03  0.14397848865E+03  0.47000000000E+01 0.  1.
          5    1    5    5  503    0 -0.53756350620E+02  0.78169739216E+02 -0.57812454562E+02  0.11119632756E+03  0.47000000000E+01 0. -1.
         -5    1    5    5    0  503  0.11280217947E+02 -0.33795633698E+02 -0.65687365119E+02  0.74875283707E+02  0.47000000000E+01 0. -1.
<mgrwt>
<rscale>  0 0.27824719E+03</rscale>
<asrwt>0</asrwt>
<pdfrwt beam="1">  1        2 0.97627458E-02 0.27824719E+03</pdfrwt>
<pdfrwt beam="2">  1       -2 0.46924851E-01 0.27824719E+03</pdfrwt>
<totfact> 0.28703270E+03</totfact>
</mgrwt>
</event>
<event>
 9    1  0.7986988E-001  0.2788815E+03  0.7818608E-02  0.1096301E+00
          2   -1    0    0  501    0  0.00000000000E+00  0.00000000000E+00  0.47672835614E+02  0.47672835614E+02  0.00000000000E+00 0. -1.
         -2   -1    0    0    0  501 -0.00000000000E+00 -0.00000000000E+00 -0.40785758255E+03  0.40785758255E+03  0.00000000000E+00 0. -1.
         35    2    1    2    0    0  0.00000000000E+00  0.71054273576E-14 -0.36018474694E+03  0.45553041817E+03  0.27888153389E+03 0.  0.
         25    2    3    3    0    0  0.25666133585E+02  0.42763204017E+02 -0.23883382085E+03  0.27398745537E+03  0.12465989607E+03 0.  0.
         25    2    3    3    0    0 -0.25666133585E+02 -0.42763204017E+02 -0.12135092609E+03  0.18154296280E+03  0.12547652389E+03 0.  0.
          5    1    4    4  502    0  0.75099758826E+01  0.12985496493E+02 -0.23827341885E+03  0.23879140476E+03  0.47000000000E+01 0. -1.
         -5    1    4    4    0  502  0.18156157702E+02  0.29777707524E+02 -0.56040199625E+00  0.35196050607E+02  0.47000000000E+01 0. -1.
          5    1    5    5  503    0  0.12682542617E+01  0.42453063035E+02 -0.22849017059E+02  0.48456564163E+02  0.47000000000E+01 0.  1.
         -5    1    5    5    0  503 -0.26934387847E+02 -0.85216267052E+02 -0.98501909033E+02  0.13308639864E+03  0.47000000000E+01 0.  1.
<mgrwt>
<rscale>  0 0.27888153E+03</rscale>
<asrwt>0</asrwt>
<pdfrwt beam="1">  1        2 0.73342824E-02 0.27888153E+03</pdfrwt>
<pdfrwt beam="2">  1       -2 0.62747321E-01 0.27888153E+03</pdfrwt>
<totfact> 0.22850487E+03</totfact>
</mgrwt>
</event>
<event>
 9    1  0.7986988E-001  0.2755306E+03  0.7818608E-02  0.1098155E+00
          1   -1    0    0  501    0  0.00000000000E+00  0.00000000000E+00  0.23936560908E+03  0.23936560908E+03  0.00000000000E+00 0. -1.
         -1   -1    0    0    0  501 -0.00000000000E+00 -0.00000000000E+00 -0.79289937340E+02  0.79289937340E+02  0.00000000000E+00 0. -1.
         35    2    1    2    0    0 -0.71054273576E-14  0.00000000000E+00  0.16007567174E+03  0.31865554642E+03  0.27553064545E+03 0.  0.
         25    2    3    3    0    0  0.56317345168E+02  0.15313854179E+02  0.86050818941E+02  0.16244318223E+03  0.12480739769E+03 0.  0.
         25    2    3    3    0    0 -0.56317345168E+02 -0.15313854179E+02  0.74024852796E+02  0.15621236418E+03  0.12456510906E+03 0.  0.
          5    1    4    4  502    0  0.85542915917E+02 -0.12581778408E+01  0.94421248129E+02  0.12750151204E+03  0.47000000000E+01 0. -1.
         -5    1    4    4    0  502 -0.29225570749E+02  0.16572032019E+02 -0.83704291884E+01  0.34941670190E+02  0.47000000000E+01 0. -1.
          5    1    5    5  503    0 -0.85332110112E+02 -0.11092235367E+02  0.88196117420E+02  0.12330957720E+03  0.47000000000E+01 0.  1.
         -5    1    5    5    0  503  0.29014764944E+02 -0.42216188118E+01 -0.14171264624E+02  0.32902786982E+02  0.47000000000E+01 0.  1.
<mgrwt>
<rscale>  0 0.27553065E+03</rscale>
<asrwt>0</asrwt>
<pdfrwt beam="1">  1        1 0.36825478E-01 0.27553065E+03</pdfrwt>
<pdfrwt beam="2">  1       -1 0.12198452E-01 0.27553065E+03</pdfrwt>
<totfact> 0.51745648E+03</totfact>
</mgrwt>
</event>
<event>
 9    1  0.7986988E-001  0.2717703E+03  0.7818608E-02  0.1100271E+00
          2   -1    0    0  501    0  0.00000000000E+00  0.00000000000E+00  0.99286356899E+02  0.99286356899E+02  0.00000000000E+00 0.  1.
         -2   -1    0    0    0  501 -0.00000000000E+00 -0.00000000000E+00 -0.18597496106E+03  0.18597496106E+03  0.00000000000E+00 0.  1.
         35    2    1    2    0    0 -0.21316282073E-13  0.00000000000E+00 -0.86688604159E+02  0.28526131796E+03  0.27177031742E+03 0.  0.
         25    2    3    3    0    0  0.47010791516E+02 -0.21173717395E+02 -0.42116611931E+02  0.14205588525E+03  0.12548993866E+03 0.  0.
         25    2    3    3    0    0 -0.47010791516E+02  0.21173717395E+02 -0.44571992228E+02  0.14320543271E+03  0.12594757893E+03 0.  0.
          5    1    4    4  502    0 -0.27723472809E+02  0.20728714542E+02  0.15995208384E+02  0.38421442482E+02  0.47000000000E+01 0. -1.
         -5    1    4    4    0  502  0.74734264325E+02 -0.41902431937E+02 -0.58111820315E+02  0.10363444276E+03  0.47000000000E+01 0. -1.
          5    1    5    5  503    0  0.28113197923E+02  0.43104863837E+01 -0.58130781277E+02  0.64886130430E+02  0.47000000000E+01 0. -1.
         -5    1    5    5    0  503 -0.75123989439E+02  0.16863231011E+02  0.13558789048E+02  0.78319302281E+02  0.47000000000E+01 0. -1.
<mgrwt>
<rscale>  0 0.27177032E+03</rscale>
<asrwt>0</asrwt>
<pdfrwt beam="1">  1        2 0.15274824E-01 0.27177032E+03</pdfrwt>
<pdfrwt beam="2">  1       -2 0.28611532E-01 0.27177032E+03</pdfrwt>
<totfact> 0.42247439E+03</totfact>
</mgrwt>
</event>
<event>
 9    1  0.7986988E-001  0.2762568E+03  0.7818608E-02  0.1097751E+00
          2   -1    0    0  501    0  0.00000000000E+00  0.00000000000E+00  0.60590727891E+03  0.60590727891E+03  0.00000000000E+00 0.  1.
         -2   -1    0    0    0  501 -0.00000000000E+00 -0.00000000000E+00 -0.31489063317E+02  0.31489063317E+02  0.00000000000E+00 0.  1.
         35    2    1    2    0    0 -0.35527136788E-14  0.00000000000E+00  0.57441821559E+03  0.63739634222E+03  0.27625678395E+03 0.  0.
         25    2    3    3    0    0 -0.29810513072E+02 -0.19608235739E+02  0.39351362396E+03  0.41420798676E+03  0.12426638507E+03 0.  0.
         25    2    3    3    0    0  0.29810513072E+02  0.19608235739E+02  0.18090459163E+03  0.22318835546E+03  0.12575142600E+03 0.  0.
          5    1    4    4  502    0 -0.41406524836E+02 -0.56866363937E+02  0.13097864438E+03  0.14874736613E+03  0.47000000000E+01 0.  1.
         -5    1    4    4    0  502  0.11596011764E+02  0.37258128198E+02  0.26253497958E+03  0.26546062063E+03  0.47000000000E+01 0.  1.
          5    1    5    5  503    0  0.45434994745E+02 -0.36555763127E+02  0.40684913747E+02  0.71260190653E+02  0.47000000000E+01 0. -1.
         -5    1    5    5    0  503 -0.15624481673E+02  0.56163998865E+02  0.14021967788E+03  0.15192816481E+03  0.47000000000E+01 0. -1.
<mgrwt>
<rscale>  0 0.27625678E+03</rscale>
<asrwt>0</asrwt>
<pdfrwt beam="1">  1        2 0.93216496E-01 0.27625678E+03</pdfrwt>
<pdfrwt beam="2">  1       -2 0.48444717E-02 0.27625678E+03</pdfrwt>
<totfact> 0.10203147E+04</totfact>
</mgrwt>
</event>
<event>
 9    1  0.7986988E-001  0.2745886E+03  0.7818608E-02  0.1098682E+00
          2   -1    0    0  501    0  0.00000000000E+00  0.00000000000E+00  0.98230590723E+03  0.98230590723E+03  0.00000000000E+00 0.  1.
         -2   -1    0    0    0  501 -0.00000000000E+00 -0.00000000000E+00 -0.19189263866E+02  0.19189263866E+02  0.00000000000E+00 0.  1.
         35    2    1    2    0    0  0.00000000000E+00 -0.10658141036E-13  0.96311664337E+03  0.10014951711E+04  0.27458861776E+03 0.  0.
         25    2    3    3    0    0  0.22774512609E+02  0.31070685337E+02  0.62476341183E+03  0.63846057206E+03  0.12577167964E+03 0.  0.
         25    2    3    3    0    0 -0.22774512609E+02 -0.31070685337E+02  0.33835323154E+03  0.36303459904E+03  0.12580598117E+03 0.  0.
          5    1    4    4  502    0  0.66139078437E+01  0.56097007979E+02  0.11911131353E+03  0.13190986730E+03  0.47000000000E+01 0. -1.
         -5    1    4    4    0  502  0.16160604765E+02 -0.25026322643E+02  0.50565209830E+03  0.50655070475E+03  0.47000000000E+01 0. -1.
          5    1    5    5  503    0 -0.16348560491E+02 -0.65739593314E+02  0.93198741503E+02  0.11531290031E+03  0.47000000000E+01 0. -1.
         -5    1    5    5    0  503 -0.64259521179E+01  0.34668907977E+02  0.24515449003E+03  0.24772169874E+03  0.47000000000E+01 0. -1.
<mgrwt>
<rscale>  0 0.27458862E+03</rscale>
<asrwt>0</asrwt>
<pdfrwt beam="1">  1        2 0.15112395E+00 0.27458862E+03</pdfrwt>
<pdfrwt beam="2">  1       -2 0.29521952E-02 0.27458862E+03</pdfrwt>
<totfact> 0.11651928E+04</totfact>
</mgrwt>
</event>
<event>
 9    1  0.7986988E-001  0.2757912E+03  0.7818608E-02  0.1098010E+00
         -2   -1    0    0    0  501 -0.00000000000E+00  0.00000000000E+00  0.31491499041E+02  0.31491499041E+02  0.00000000000E+00 0. -1.
          2   -1    0    0  501    0  0.00000000000E+00 -0.00000000000E+00 -0.60381987820E+03  0.60381987820E+03  0.00000000000E+00 0. -1.
         35    2    1    2    0    0 -0.22204460493E-14  0.17763568394E-14 -0.57232837916E+03  0.63531137724E+03  0.27579117546E+03 0.  0.
         25    2    3    3    0    0  0.65729233673E+00  0.11802577414E+02 -0.15633520098E+03  0.20065097961E+03  0.12522135475E+03 0.  0.
         25    2    3    3    0    0 -0.65729233673E+00 -0.11802577414E+02 -0.41599317818E+03  0.43466039764E+03  0.12545757894E+03 0.  0.
          5    1    4    4  502    0  0.58864411347E+02  0.74120452664E+01 -0.11329002129E+03  0.12797138845E+03  0.47000000000E+01 0.  1.
         -5    1    4    4    0  502 -0.58207119010E+02  0.43905321473E+01 -0.43045179693E+02  0.72679591157E+02  0.47000000000E+01 0.  1.
          5    1    5    5  503    0 -0.25290047919E+01 -0.21729183809E+02 -0.42605863465E+01  0.22777091347E+02  0.47000000000E+01 0. -1.
         -5    1    5    5    0  503  0.18717124551E+01  0.99266063948E+01 -0.41173259183E+03  0.41188330629E+03  0.47000000000E+01 0. -1.
<mgrwt>
<rscale>  0 0.27579118E+03</rscale>
<asrwt>0</asrwt>
<pdfrwt beam="1">  1        2 0.92895366E-01 0.27579118E+03</pdfrwt>
<pdfrwt beam="2">  1       -2 0.48448460E-02 0.27579118E+03</pdfrwt>
<totfact> 0.10242368E+04</totfact>
</mgrwt>
</event>
<event>
 9    1  0.7986988E-001  0.2741791E+03  0.7818608E-02  0.1098911E+00
         -4   -1    0    0    0  501 -0.00000000000E+00  0.00000000000E+00  0.19161745873E+02  0.19161745873E+02  0.00000000000E+00 0. -1.
          4   -1    0    0  501    0  0.00000000000E+00 -0.00000000000E+00 -0.98078458889E+03  0.98078458889E+03  0.00000000000E+00 0. -1.
         35    2    1    2    0    0  0.00000000000E+00  0.00000000000E+00 -0.96162284301E+03  0.99994633476E+03  0.27417910240E+03 0.  0.
         25    2    3    3    0    0  0.13432765083E+02  0.65164262926E+02 -0.48763149397E+03  0.50502859517E+03  0.11332514148E+03 0.  0.
         25    2    3    3    0    0 -0.13432765083E+02 -0.65164262926E+02 -0.47399134905E+03  0.49491773959E+03  0.12589261157E+03 0.  0.
          5    1    4    4  502    0  0.39852862390E+02 -0.39935427566E+01 -0.69373825500E+02  0.80243483779E+02  0.47000000000E+01 0.  1.
         -5    1    4    4    0  502 -0.26420097307E+02  0.69157805683E+02 -0.41825766847E+03  0.42478511139E+03  0.47000000000E+01 0.  1.
          5    1    5    5  503    0 -0.48700861714E+02 -0.55243312319E+02 -0.13442657522E+03  0.15334989929E+03  0.47000000000E+01 0. -1.
         -5    1    5    5    0  503  0.35268096631E+02 -0.99209506068E+01 -0.33956477383E+03  0.34156784030E+03  0.47000000000E+01 0. -1.
<mgrwt>
<rscale>  0 0.27417910E+03</rscale>
<asrwt>0</asrwt>
<pdfrwt beam="1">  1        4 0.15089000E+00 0.27417910E+03</pdfrwt>
<pdfrwt beam="2">  1       -4 0.29479596E-02 0.27417910E+03</pdfrwt>
<totfact> 0.32313537E+02</totfact>
</mgrwt>
</event>
<event>
 9    1  0.7986988E-001  0.2759623E+03  0.7818608E-02  0.1097915E+00
         -1   -1    0    0    0  501 -0.00000000000E+00  0.00000000000E+00  0.10457383180E+04  0.10457383180E+04  0.00000000000E+00 0. -1.
          1   -1    0    0  501    0  0.00000000000E+00 -0.00000000000E+00 -0.18206083284E+02  0.18206083284E+02  0.00000000000E+00 0. -1.
         35    2    1    2    0    0  0.00000000000E+00 -0.71054273576E-14  0.10275322347E+04  0.10639444013E+04  0.27596230837E+03 0.  0.
         25    2    3    3    0    0 -0.19537262491E+02 -0.54806786686E+02  0.49473334892E+03  0.51361550235E+03  0.12511718199E+03 0.  0.
         25    2    3    3    0    0  0.19537262491E+02  0.54806786686E+02  0.53279888581E+03  0.55032889894E+03  0.12490698860E+03 0.  0.
          5    1    4    4  502    0  0.34977243892E+02 -0.67869875762E+02  0.21298393767E+03  0.22630504929E+03  0.47000000000E+01 0. -1.
         -5    1    4    4    0  502 -0.54514506383E+02  0.13063089076E+02  0.28174941125E+03  0.28731045307E+03  0.47000000000E+01 0. -1.
          5    1    5    5  503    0  0.43861351567E+02 -0.23151707556E+02  0.28656698375E+03  0.29086516790E+03  0.47000000000E+01 0. -1.
         -5    1    5    5    0  503 -0.24324089075E+02  0.77958494242E+02  0.24623190206E+03  0.25946373104E+03  0.47000000000E+01 0. -1.
<mgrwt>
<rscale>  0 0.27596231E+03</rscale>
<asrwt>0</asrwt>
<pdfrwt beam="1">  1        1 0.28009367E-02 0.27596231E+03</pdfrwt>
<pdfrwt beam="2">  1       -1 0.16088277E+00 0.27596231E+03</pdfrwt>
<totfact> 0.11768168E+03</totfact>
</mgrwt>
</event>
<event>
 9    1  0.7986988E-001  0.2749876E+03  0.7818608E-02  0.1098459E+00
         -1   -1    0    0    0  501 -0.00000000000E+00  0.00000000000E+00  0.41084867707E+03  0.41084867707E+03  0.00000000000E+00 0. -1.
          1   -1    0    0  501    0  0.00000000000E+00 -0.00000000000E+00 -0.46013413064E+02  0.46013413064E+02  0.00000000000E+00 0. -1.
         35    2    1    2    0    0  0.00000000000E+00  0.00000000000E+00  0.36483526400E+03  0.45686209013E+03  0.27498763525E+03 0.  0.
         25    2    3    3    0    0 -0.47071715156E+02 -0.30728905867E+02  0.15716278715E+03  0.20817112997E+03  0.12439881697E+03 0.  0.
         25    2    3    3    0    0  0.47071715156E+02  0.30728905867E+02  0.20767247685E+03  0.24869096016E+03  0.12473701937E+03 0.  0.
          5    1    4    4  502    0 -0.93831841013E+01 -0.50521877585E+02  0.70639438666E+01  0.52081604829E+02  0.47000000000E+01 0. -1.
         -5    1    4    4    0  502 -0.37688531055E+02  0.19792971718E+02  0.15009884329E+03  0.15608952514E+03  0.47000000000E+01 0. -1.
          5    1    5    5  503    0  0.80865147666E+02 -0.53608791436E+01  0.91340070345E+02  0.12220069387E+03  0.47000000000E+01 0.  1.
         -5    1    5    5    0  503 -0.33793432510E+02  0.36089785010E+02  0.11633240651E+03  0.12649026629E+03  0.47000000000E+01 0.  1.
<mgrwt>
<rscale>  0 0.27498764E+03</rscale>
<asrwt>0</asrwt>
<pdfrwt beam="1">  1        1 0.70789869E-02 0.27498764E+03</pdfrwt>
<pdfrwt beam="2">  1       -1 0.63207486E-01 0.27498764E+03</pdfrwt>
<totfact> 0.26927758E+03</totfact>
</mgrwt>
</event>
<event>
 9    1  0.7986988E-001  0.2756390E+03  0.7818608E-02  0.1098095E+00
         -1   -1    0    0    0  501 -0.00000000000E+00  0.00000000000E+00  0.71990492389E+01  0.71990492389E+01  0.00000000000E+00 0. -1.
          1   -1    0    0  501    0  0.00000000000E+00 -0.00000000000E+00 -0.26384335453E+04  0.26384335453E+04  0.00000000000E+00 0. -1.
         35    2    1    2    0    0  0.00000000000E+00  0.00000000000E+00 -0.26312344960E+04  0.26456325945E+04  0.27563898858E+03 0.  0.
         25    2    3    3    0    0  0.42676566431E+02  0.28568336080E+02 -0.15653506829E+04  0.15711727928E+04  0.12499498055E+03 0.  0.
         25    2    3    3    0    0 -0.42676566431E+02 -0.28568336080E+02 -0.10658838131E+04  0.10744598017E+04  0.12537193980E+03 0.  0.
          5    1    4    4  502    0  0.53287073590E+02  0.20216452420E+02 -0.15462822949E+04  0.15473394077E+04  0.47000000000E+01 0. -1.
         -5    1    4    4    0  502 -0.10610507158E+02  0.83518836604E+01 -0.19068388041E+02  0.23833385100E+02  0.47000000000E+01 0. -1.
          5    1    5    5  503    0 -0.47702203224E+02  0.41548975302E+02 -0.58771713268E+03  0.59113055714E+03  0.47000000000E+01 0. -1.
         -5    1    5    5    0  503  0.50256367930E+01 -0.70117311382E+02 -0.47816668039E+03  0.48332924453E+03  0.47000000000E+01 0. -1.
<mgrwt>
<rscale>  0 0.27563899E+03</rscale>
<asrwt>0</asrwt>
<pdfrwt beam="1">  1        1 0.40591319E+00 0.27563899E+03</pdfrwt>
<pdfrwt beam="2">  1       -1 0.11075451E-02 0.27563899E+03</pdfrwt>
<totfact> 0.20781244E+03</totfact>
</mgrwt>
</event>
<event>
 9    1  0.7986988E-001  0.2829759E+03  0.7818608E-02  0.1094075E+00
         -1   -1    0    0    0  501 -0.00000000000E+00  0.00000000000E+00  0.82144335799E+03  0.82144335799E+03  0.00000000000E+00 0.  1.
          1   -1    0    0  501    0  0.00000000000E+00 -0.00000000000E+00 -0.24370321258E+02  0.24370321258E+02  0.00000000000E+00 0.  1.
         35    2    1    2    0    0  0.35527136788E-14  0.00000000000E+00  0.79707303673E+03  0.84581367924E+03  0.28297588964E+03 0.  0.
         25    2    3    3    0    0 -0.31048316912E+02 -0.64159733766E+02  0.39748675246E+03  0.42251895376E+03  0.12428225330E+03 0.  0.
         25    2    3    3    0    0  0.31048316912E+02  0.64159733766E+02  0.39958628427E+03  0.42329472548E+03  0.12011975952E+03 0.  0.
          5    1    4    4  502    0  0.20917865702E+02 -0.83911872632E+02  0.26395431049E+03  0.27779979751E+03  0.47000000000E+01 0. -1.
         -5    1    4    4    0  502 -0.51966182614E+02  0.19752138866E+02  0.13353244197E+03  0.14471915625E+03  0.47000000000E+01 0. -1.
          5    1    5    5  503    0  0.34827293975E+02  0.70897471730E+02  0.12109345255E+03  0.14465512834E+03  0.47000000000E+01 0.  1.
         -5    1    5    5    0  503 -0.37789770635E+01 -0.67377379643E+01  0.27849283171E+03  0.27863959714E+03  0.47000000000E+01 0.  1.
<mgrwt>
<rscale>  0 0.28297589E+03</rscale>
<asrwt>0</asrwt>
<pdfrwt beam="1">  1        1 0.37492808E-02 0.28297589E+03</pdfrwt>
<pdfrwt beam="2">  1       -1 0.12637588E+00 0.28297589E+03</pdfrwt>
<totfact> 0.14534141E+03</totfact>
</mgrwt>
</event>
<event>
 9    1  0.7986988E-001  0.2856277E+03  0.7818608E-02  0.1092654E+00
          1   -1    0    0  501    0  0.00000000000E+00  0.00000000000E+00  0.15734608849E+03  0.15734608849E+03  0.00000000000E+00 0. -1.
         -1   -1    0    0    0  501 -0.00000000000E+00 -0.00000000000E+00 -0.12962374497E+03  0.12962374497E+03  0.00000000000E+00 0. -1.
         35    2    1    2    0    0  0.00000000000E+00  0.00000000000E+00  0.27722343523E+02  0.28696983345E+03  0.28562765444E+03 0.  0.
         25    2    3    3    0    0 -0.59301179853E+02  0.16105338184E+02 -0.15483935120E+02  0.14179336045E+03  0.12684475934E+03 0.  0.
         25    2    3    3    0    0  0.59301179853E+02 -0.16105338184E+02  0.43206278643E+02  0.14517647300E+03  0.12423129215E+03 0.  0.
          5    1    4    4  502    0 -0.31831309415E+02  0.12676479271E+02 -0.71337798499E+02  0.79278602917E+02  0.47000000000E+01 0. -1.
         -5    1    4    4    0  502 -0.27469870438E+02  0.34288589129E+01  0.55853863379E+02  0.62514757535E+02  0.47000000000E+01 0. -1.
          5    1    5    5  503    0 -0.52596747834E+01  0.33454279519E+02 -0.22107616500E+02  0.40714735714E+02  0.47000000000E+01 0.  1.
         -5    1    5    5    0  503  0.64560854637E+02 -0.49559617703E+02  0.65313895144E+02  0.10446173729E+03  0.47000000000E+01 0.  1.
<mgrwt>
<rscale>  0 0.28562765E+03</rscale>
<asrwt>0</asrwt>
<pdfrwt beam="1">  1        1 0.24207090E-01 0.28562765E+03</pdfrwt>
<pdfrwt beam="2">  1       -1 0.19942115E-01 0.28562765E+03</pdfrwt>
<totfact> 0.40228709E+03</totfact>
</mgrwt>
</event>
<event>
 9    1  0.7986988E-001  0.2738543E+03  0.7818608E-02  0.1099094E+00
         -1   -1    0    0    0  501 -0.00000000000E+00  0.00000000000E+00  0.99922450037E+01  0.99922450037E+01  0.00000000000E+00 0.  1.
          1   -1    0    0  501    0  0.00000000000E+00 -0.00000000000E+00 -0.18763590701E+04  0.18763590701E+04  0.00000000000E+00 0.  1.
         35    2    1    2    0    0  0.00000000000E+00  0.71054273576E-14 -0.18663668251E+04  0.18863513151E+04  0.27385426448E+03 0.  0.
         25    2    3    3    0    0 -0.23674869892E+02 -0.16881361220E+02 -0.12487036436E+04  0.12554550647E+04  0.12673259247E+03 0.  0.
         25    2    3    3    0    0  0.23674869892E+02  0.16881361220E+02 -0.61766318142E+03  0.63089625038E+03  0.12520700155E+03 0.  0.
          5    1    4    4  502    0  0.24289996628E+02 -0.19345255555E+02 -0.82845246456E+02  0.88598350487E+02  0.47000000000E+01 0.  1.
         -5    1    4    4    0  502 -0.47964866520E+02  0.24638943344E+01 -0.11658583972E+04  0.11668567142E+04  0.47000000000E+01 0.  1.
          5    1    5    5  503    0  0.63134163999E+02 -0.20411592456E+02 -0.23014703276E+03  0.23956690602E+03  0.47000000000E+01 0. -1.
         -5    1    5    5    0  503 -0.39459294107E+02  0.37292953676E+02 -0.38751614866E+03  0.39132934436E+03  0.47000000000E+01 0. -1.
<mgrwt>
<rscale>  0 0.27385426E+03</rscale>
<asrwt>0</asrwt>
<pdfrwt beam="1">  1        1 0.28867091E+00 0.27385426E+03</pdfrwt>
<pdfrwt beam="2">  1       -1 0.15372669E-02 0.27385426E+03</pdfrwt>
<totfact> 0.40875275E+03</totfact>
</mgrwt>
</event>
<event>
 9    1  0.7986988E-001  0.2739128E+03  0.7818608E-02  0.1099061E+00
         -1   -1    0    0    0  501 -0.00000000000E+00  0.00000000000E+00  0.67167733642E+01  0.67167733642E+01  0.00000000000E+00 0.  1.
          1   -1    0    0  501    0  0.00000000000E+00 -0.00000000000E+00 -0.27925699484E+04  0.27925699484E+04  0.00000000000E+00 0.  1.
         35    2    1    2    0    0  0.71054273576E-14  0.00000000000E+00 -0.27858531751E+04  0.27992867218E+04  0.27391282881E+03 0.  0.
         25    2    3    3    0    0 -0.39584932244E+02 -0.39590926528E+01 -0.98932788585E+03  0.99796316509E+03  0.12481254694E+03 0.  0.
         25    2    3    3    0    0  0.39584932244E+02  0.39590926528E+01 -0.17965252892E+04  0.18013235567E+04  0.12522300061E+03 0.  0.
          5    1    4    4  502    0 -0.78465650235E+02  0.15415823446E+02 -0.46785693781E+03  0.47466483980E+03  0.47000000000E+01 0. -1.
         -5    1    4    4    0  502  0.38880717990E+02 -0.19374916099E+02 -0.52147094804E+03  0.52329832529E+03  0.47000000000E+01 0. -1.
          5    1    5    5  503    0  0.37650286230E+02 -0.54760528766E+02 -0.68358429144E+03  0.68682299981E+03  0.47000000000E+01 0. -1.
         -5    1    5    5    0  503  0.19346460145E+01  0.58719621419E+02 -0.11129409978E+04  0.11145005569E+04  0.47000000000E+01 0. -1.
<mgrwt>
<rscale>  0 0.27391283E+03</rscale>
<asrwt>0</asrwt>
<pdfrwt beam="1">  1        1 0.42962721E+00 0.27391283E+03</pdfrwt>
<pdfrwt beam="2">  1       -1 0.10333472E-02 0.27391283E+03</pdfrwt>
<totfact> 0.18065479E+03</totfact>
</mgrwt>
</event>
<event>
 9    1  0.7986988E-001  0.2622121E+03  0.7818608E-02  0.1105821E+00
          3   -1    0    0  501    0  0.00000000000E+00  0.00000000000E+00  0.23304516766E+02  0.23304516766E+02  0.00000000000E+00 0. -1.
         -3   -1    0    0    0  501 -0.00000000000E+00 -0.00000000000E+00 -0.73757343602E+03  0.73757343602E+03  0.00000000000E+00 0. -1.
         35    2    1    2    0    0  0.71054273576E-14  0.35527136788E-14 -0.71426891925E+03  0.76087795279E+03  0.26221207070E+03 0.  0.
         25    2    3    3    0    0  0.37553366253E+02 -0.61004349336E+01 -0.37369053958E+03  0.39617966794E+03  0.12596126110E+03 0.  0.
         25    2    3    3    0    0 -0.37553366253E+02  0.61004349336E+01 -0.34057837968E+03  0.36469828485E+03  0.12475470188E+03 0.  0.
          5    1    4    4  502    0 -0.17232667967E+02 -0.20422797927E+02 -0.30854261922E+03  0.30973326169E+03  0.47000000000E+01 0.  1.
         -5    1    4    4    0  502  0.54786034220E+02  0.14322362994E+02 -0.65147920352E+02  0.86446406249E+02  0.47000000000E+01 0.  1.
          5    1    5    5  503    0 -0.64992147685E+02  0.45471090139E+02 -0.17405535369E+03  0.19133466870E+03  0.47000000000E+01 0. -1.
         -5    1    5    5    0  503  0.27438781432E+02 -0.39370655205E+02 -0.16652302599E+03  0.17336361615E+03  0.47000000000E+01 0. -1.
<mgrwt>
<rscale>  0 0.26221207E+03</rscale>
<asrwt>0</asrwt>
<pdfrwt beam="1">  1        3 0.35853111E-02 0.26221207E+03</pdfrwt>
<pdfrwt beam="2">  1       -3 0.11347281E+00 0.26221207E+03</pdfrwt>
<totfact> 0.65713147E+02</totfact>
</mgrwt>
</event>
<event>
 9    1  0.7986988E-001  0.2757665E+03  0.7818608E-02  0.1098024E+00
         -4   -1    0    0    0  501 -0.00000000000E+00  0.00000000000E+00  0.22706297069E+03  0.22706297069E+03  0.00000000000E+00 0.  1.
          4   -1    0    0  501    0  0.00000000000E+00 -0.00000000000E+00 -0.83729134579E+02  0.83729134579E+02  0.00000000000E+00 0.  1.
         35    2    1    2    0    0 -0.71054273576E-14  0.00000000000E+00  0.14333383611E+03  0.31079210526E+03  0.27576646664E+03 0.  0.
         25    2    3    3    0    0  0.52824168173E+02  0.16395558746E+02  0.52657226980E+02  0.14670313297E+03  0.12525900598E+03 0.  0.
         25    2    3    3    0    0 -0.52824168173E+02 -0.16395558746E+02  0.90676609126E+02  0.16408897230E+03  0.12507492273E+03 0.  0.
          5    1    4    4  502    0  0.28101575157E+02  0.56957166361E+02  0.71170480741E+02  0.95504683943E+02  0.47000000000E+01 0. -1.
         -5    1    4    4    0  502  0.24722593016E+02 -0.40561607614E+02 -0.18513253761E+02  0.51198449025E+02  0.47000000000E+01 0. -1.
          5    1    5    5  503    0 -0.47178071690E+02  0.46722752120E+02  0.71556621606E+02  0.97730374550E+02  0.47000000000E+01 0. -1.
         -5    1    5    5    0  503 -0.56460964833E+01 -0.63118310866E+02  0.19119987520E+02  0.66358597746E+02  0.47000000000E+01 0. -1.
<mgrwt>
<rscale>  0 0.27576647E+03</rscale>
<asrwt>0</asrwt>
<pdfrwt beam="1">  1        4 0.12881405E-01 0.27576647E+03</pdfrwt>
<pdfrwt beam="2">  1       -4 0.34932764E-01 0.27576647E+03</pdfrwt>
<totfact> 0.73176286E+02</totfact>
</mgrwt>
</event>
<event>
 9    1  0.7986988E-001  0.2748471E+03  0.7818608E-02  0.1098537E+00
         -1   -1    0    0    0  501 -0.00000000000E+00  0.00000000000E+00  0.17232058558E+02  0.17232058558E+02  0.00000000000E+00 0.  1.
          1   -1    0    0  501    0  0.00000000000E+00 -0.00000000000E+00 -0.10959355383E+04  0.10959355383E+04  0.00000000000E+00 0.  1.
         35    2    1    2    0    0 -0.35527136788E-14 -0.14210854715E-13 -0.10787034798E+04  0.11131675969E+04  0.27484705108E+03 0.  0.
         25    2    3    3    0    0  0.27891427348E+02 -0.49947899937E+02 -0.53941537062E+03  0.55667354082E+03  0.12507503574E+03 0.  0.
         25    2    3    3    0    0 -0.27891427348E+02  0.49947899937E+02 -0.53928810915E+03  0.55649405607E+03  0.12482485864E+03 0.  0.
          5    1    4    4  502    0 -0.24404651896E+02  0.27064320859E+02 -0.81973528975E+02  0.89832143191E+02  0.47000000000E+01 0. -1.
         -5    1    4    4    0  502  0.52296079244E+02 -0.77012220796E+02 -0.45744184164E+03  0.46684139763E+03  0.47000000000E+01 0. -1.
          5    1    5    5  503    0  0.28456187728E+02 -0.28533945255E+02 -0.16231390803E+03  0.16730760709E+03  0.47000000000E+01 0.  1.
         -5    1    5    5    0  503 -0.56347615076E+02  0.78481845192E+02 -0.37697420113E+03  0.38918644897E+03  0.47000000000E+01 0.  1.
<mgrwt>
<rscale>  0 0.27484705E+03</rscale>
<asrwt>0</asrwt>
<pdfrwt beam="1">  1        1 0.16860550E+00 0.27484705E+03</pdfrwt>
<pdfrwt beam="2">  1       -1 0.26510855E-02 0.27484705E+03</pdfrwt>
<totfact> 0.61496608E+03</totfact>
</mgrwt>
</event>
<event>
 9    1  0.7986988E-001  0.2738832E+03  0.7818608E-02  0.1099078E+00
         -2   -1    0    0    0  501 -0.00000000000E+00  0.00000000000E+00  0.73695283797E+01  0.73695283797E+01  0.00000000000E+00 0. -1.
          2   -1    0    0  501    0  0.00000000000E+00 -0.00000000000E+00 -0.25446672830E+04  0.25446672830E+04  0.00000000000E+00 0. -1.
         35    2    1    2    0    0  0.00000000000E+00  0.00000000000E+00 -0.25372977546E+04  0.25520368113E+04  0.27388317041E+03 0.  0.
         25    2    3    3    0    0 -0.39171799327E+02  0.27340564757E+02 -0.15312901533E+04  0.15371273947E+04  0.12501662873E+03 0.  0.
         25    2    3    3    0    0  0.39171799327E+02 -0.27340564757E+02 -0.10060076013E+04  0.10149094167E+04  0.12533113699E+03 0.  0.
          5    1    4    4  502    0 -0.29532501086E+02  0.72105703557E+02 -0.12150136505E+04  0.12175186496E+04  0.47000000000E+01 0.  1.
         -5    1    4    4    0  502 -0.96392982416E+01 -0.44765138800E+02 -0.31627650277E+03  0.31960874508E+03  0.47000000000E+01 0.  1.
          5    1    5    5  503    0 -0.34940125832E+02  0.21348554466E+02 -0.21344269402E+03  0.21738547974E+03  0.47000000000E+01 0. -1.
         -5    1    5    5    0  503  0.74111925159E+02 -0.48689119223E+02 -0.79256490727E+03  0.79752393695E+03  0.47000000000E+01 0. -1.
<mgrwt>
<rscale>  0 0.27388317E+03</rscale>
<asrwt>0</asrwt>
<pdfrwt beam="1">  1        2 0.39148778E+00 0.27388317E+03</pdfrwt>
<pdfrwt beam="2">  1       -2 0.11337721E-02 0.27388317E+03</pdfrwt>
<totfact> 0.67312112E+03</totfact>
</mgrwt>
</event>
<event>
 9    1  0.7986988E-001  0.2747306E+03  0.7818608E-02  0.1098602E+00
         -2   -1    0    0    0  501 -0.00000000000E+00  0.00000000000E+00  0.58210483611E+03  0.58210483611E+03  0.00000000000E+00 0. -1.
          2   -1    0    0  501    0  0.00000000000E+00 -0.00000000000E+00 -0.32415501243E+02  0.32415501243E+02  0.00000000000E+00 0. -1.
         35    2    1    2    0    0 -0.35527136788E-14  0.00000000000E+00  0.54968933486E+03  0.61452033735E+03  0.27473055919E+03 0.  0.
         25    2    3    3    0    0  0.27085771843E+02  0.25871637399E+02  0.17842118694E+03  0.22119636945E+03  0.12526265705E+03 0.  0.
         25    2    3    3    0    0 -0.27085771843E+02 -0.25871637399E+02  0.37126814792E+03  0.39332396790E+03  0.12434116537E+03 0.  0.
          5    1    4    4  502    0 -0.50122578546E+02  0.54034605606E+01  0.73344517848E+02  0.89123389548E+02  0.47000000000E+01 0. -1.
         -5    1    4    4    0  502  0.77208350388E+02  0.20468176839E+02  0.10507666909E+03  0.13207297990E+03  0.47000000000E+01 0. -1.
          5    1    5    5  503    0 -0.41179918548E+02  0.10353479792E+02  0.34144176483E+03  0.34410397994E+03  0.47000000000E+01 0.  1.
         -5    1    5    5    0  503  0.14094146705E+02 -0.36225117191E+02  0.29826383086E+02  0.49219987961E+02  0.47000000000E+01 0.  1.
<mgrwt>
<rscale>  0 0.27473056E+03</rscale>
<asrwt>0</asrwt>
<pdfrwt beam="1">  1        2 0.49870006E-02 0.27473056E+03</pdfrwt>
<pdfrwt beam="2">  1       -2 0.89554583E-01 0.27473056E+03</pdfrwt>
<totfact> 0.17417761E+03</totfact>
</mgrwt>
</event>
<event>
 9    1  0.7986988E-001  0.2781203E+03  0.7818608E-02  0.1096720E+00
         -1   -1    0    0    0  501 -0.00000000000E+00  0.00000000000E+00  0.62955689585E+02  0.62955689585E+02  0.00000000000E+00 0.  1.
          1   -1    0    0  501    0  0.00000000000E+00 -0.00000000000E+00 -0.30716396850E+03  0.30716396850E+03  0.00000000000E+00 0.  1.
         35    2    1    2    0    0  0.71054273576E-14  0.00000000000E+00 -0.24420827892E+03  0.37011965809E+03  0.27812025782E+03 0.  0.
         25    2    3    3    0    0  0.60238046139E+02  0.10749320939E+02 -0.12881230937E+03  0.18900181951E+03  0.12403590863E+03 0.  0.
         25    2    3    3    0    0 -0.60238046139E+02 -0.10749320939E+02 -0.11539596955E+03  0.18111783858E+03  0.12547219437E+03 0.  0.
          5    1    4    4  502    0  0.56460896526E+02  0.29316216171E+02 -0.53608468398E+01  0.64016420127E+02  0.47000000000E+01 0. -1.
         -5    1    4    4    0  502  0.37771496138E+01 -0.18566895232E+02 -0.12345146253E+03  0.12498539938E+03  0.47000000000E+01 0. -1.
          5    1    5    5  503    0 -0.67759885511E+02 -0.43246923993E+02 -0.12259188159E+03  0.14667159899E+03  0.47000000000E+01 0.  1.
         -5    1    5    5    0  503  0.75218393716E+01  0.32497603055E+02  0.71959120385E+01  0.34446239590E+02  0.47000000000E+01 0.  1.
<mgrwt>
<rscale>  0 0.27812026E+03</rscale>
<asrwt>0</asrwt>
<pdfrwt beam="1">  1        1 0.47255996E-01 0.27812026E+03</pdfrwt>
<pdfrwt beam="2">  1       -1 0.96854905E-02 0.27812026E+03</pdfrwt>
<totfact> 0.54147253E+03</totfact>
</mgrwt>
</event>
<event>
 9    1  0.7986988E-001  0.2783069E+03  0.7818608E-02  0.1096617E+00
         -1   -1    0    0    0  501 -0.00000000000E+00  0.00000000000E+00  0.16976067054E+04  0.16976067054E+04  0.00000000000E+00 0.  1.
          1   -1    0    0  501    0  0.00000000000E+00 -0.00000000000E+00 -0.11406463065E+02  0.11406463065E+02  0.00000000000E+00 0.  1.
         35    2    1    2    0    0 -0.35527136788E-14  0.00000000000E+00  0.16862002423E+04  0.17090131684E+04  0.27830693979E+03 0.  0.
         25    2    3    3    0    0  0.23056808268E+02 -0.34655760765E+00  0.47981773361E+03  0.49600419254E+03  0.12354499188E+03 0.  0.
         25    2    3    3    0    0 -0.23056808268E+02  0.34655760765E+00  0.12063825087E+04  0.12130089759E+04  0.12450012775E+03 0.  0.
          5    1    4    4  502    0  0.69760179312E+01 -0.57085493695E+02  0.14607792568E+03  0.15706135358E+03  0.47000000000E+01 0. -1.
         -5    1    4    4    0  502  0.16080790336E+02  0.56738936087E+02  0.33373980793E+03  0.33894283896E+03  0.47000000000E+01 0. -1.
          5    1    5    5  503    0 -0.33144606841E+02 -0.32275932396E+02  0.17567641393E+03  0.18172669915E+03  0.47000000000E+01 0. -1.
         -5    1    5    5    0  503  0.10087798573E+02  0.32622490003E+02  0.10307060948E+04  0.10312822768E+04  0.47000000000E+01 0. -1.
<mgrwt>
<rscale>  0 0.27830694E+03</rscale>
<asrwt>0</asrwt>
<pdfrwt beam="1">  1        1 0.17548418E-02 0.27830694E+03</pdfrwt>
<pdfrwt beam="2">  1       -1 0.26117006E+00 0.27830694E+03</pdfrwt>
<totfact> 0.49155633E+02</totfact>
</mgrwt>
</event>
<event>
 9    1  0.7986988E-001  0.2768538E+03  0.7818608E-02  0.1097420E+00
          2   -1    0    0  501    0  0.00000000000E+00  0.00000000000E+00  0.57177022730E+02  0.57177022730E+02  0.00000000000E+00 0. -1.
         -2   -1    0    0    0  501 -0.00000000000E+00 -0.00000000000E+00 -0.33513469158E+03  0.33513469158E+03  0.00000000000E+00 0. -1.
         35    2    1    2    0    0  0.00000000000E+00 -0.71054273576E-14 -0.27795766885E+03  0.39231171431E+03  0.27685378002E+03 0.  0.
         25    2    3    3    0    0  0.26087636999E+02  0.46540091650E+02 -0.17654190981E+03  0.22309514203E+03  0.12553028138E+03 0.  0.
         25    2    3    3    0    0 -0.26087636999E+02 -0.46540091650E+02 -0.10141575904E+03  0.16921657227E+03  0.12450922543E+03 0.  0.
          5    1    4    4  502    0  0.63584100711E+02  0.46505272908E+02 -0.55994928850E+02  0.96763631228E+02  0.47000000000E+01 0. -1.
         -5    1    4    4    0  502 -0.37496463712E+02  0.34818741244E-01 -0.12054698096E+03  0.12633151081E+03  0.47000000000E+01 0. -1.
          5    1    5    5  503    0 -0.19116882566E+01 -0.28103456413E+02  0.25707098971E+02  0.38423999686E+02  0.47000000000E+01 0. -1.
         -5    1    5    5    0  503 -0.24175948742E+02 -0.18436635236E+02 -0.12712285801E+03  0.13079257259E+03  0.47000000000E+01 0. -1.
<mgrwt>
<rscale>  0 0.27685378E+03</rscale>
<asrwt>0</asrwt>
<pdfrwt beam="1">  1        2 0.87964648E-02 0.27685378E+03</pdfrwt>
<pdfrwt beam="2">  1       -2 0.51559185E-01 0.27685378E+03</pdfrwt>
<totfact> 0.27115661E+03</totfact>
</mgrwt>
</event>
<event>
 9    1  0.7986988E-001  0.2721388E+03  0.7818608E-02  0.1100062E+00
         -3   -1    0    0    0  501 -0.00000000000E+00  0.00000000000E+00  0.26001290725E+02  0.26001290725E+02  0.00000000000E+00 0. -1.
          3   -1    0    0  501    0  0.00000000000E+00 -0.00000000000E+00 -0.71207538423E+03  0.71207538423E+03  0.00000000000E+00 0. -1.
         35    2    1    2    0    0  0.00000000000E+00 -0.35527136788E-14 -0.68607409351E+03  0.73807667496E+03  0.27213878139E+03 0.  0.
         25    2    3    3    0    0 -0.35743591108E+02  0.20453254101E+02 -0.24954310151E+03  0.28214638542E+03  0.12505552123E+03 0.  0.
         25    2    3    3    0    0  0.35743591108E+02 -0.20453254101E+02 -0.43653099200E+03  0.45593028953E+03  0.12496872420E+03 0.  0.
          5    1    4    4  502    0 -0.14612986621E+02  0.72980778082E+02 -0.15053571144E+03  0.16799649927E+03  0.47000000000E+01 0.  1.
         -5    1    4    4    0  502 -0.21130604487E+02 -0.52527523981E+02 -0.99007390064E+02  0.11414988615E+03  0.47000000000E+01 0.  1.
          5    1    5    5  503    0  0.36035441170E+01 -0.28714017825E+01 -0.41094758562E+03  0.41100029027E+03  0.47000000000E+01 0. -1.
         -5    1    5    5    0  503  0.32140046991E+02 -0.17581852318E+02 -0.25583406381E+02  0.44929999260E+02  0.47000000000E+01 0. -1.
<mgrwt>
<rscale>  0 0.27213878E+03</rscale>
<asrwt>0</asrwt>
<pdfrwt beam="1">  1        3 0.10955006E+00 0.27213878E+03</pdfrwt>
<pdfrwt beam="2">  1       -3 0.40001985E-02 0.27213878E+03</pdfrwt>
<totfact> 0.60429103E+02</totfact>
</mgrwt>
</event>
<event>
 9    1  0.7986988E-001  0.2635842E+03  0.7818608E-02  0.1105009E+00
          2   -1    0    0  501    0  0.00000000000E+00  0.00000000000E+00  0.15594781937E+03  0.15594781937E+03  0.00000000000E+00 0. -1.
         -2   -1    0    0    0  501 -0.00000000000E+00 -0.00000000000E+00 -0.11137797485E+03  0.11137797485E+03  0.00000000000E+00 0. -1.
         35    2    1    2    0    0 -0.71054273576E-14  0.00000000000E+00  0.44569844514E+02  0.26732579422E+03  0.26358415964E+03 0.  0.
         25    2    3    3    0    0 -0.22215242868E+02  0.69517264952E+01  0.59804054601E+02  0.13923439346E+03  0.12356313309E+03 0.  0.
         25    2    3    3    0    0  0.22215242868E+02 -0.69517264952E+01 -0.15234210086E+02  0.12809140076E+03  0.12503392449E+03 0.  0.
          5    1    4    4  502    0 -0.68081794844E+00  0.43973436661E+02  0.80182374944E+02  0.91571992970E+02  0.47000000000E+01 0. -1.
         -5    1    4    4    0  502 -0.21534424920E+02 -0.37021710165E+02 -0.20378320344E+02  0.47662400488E+02  0.47000000000E+01 0. -1.
          5    1    5    5  503    0 -0.29275962605E+02  0.31577890553E+02 -0.40054240376E+02  0.58997265447E+02  0.47000000000E+01 0.  1.
         -5    1    5    5    0  503  0.51491205473E+02 -0.38529617048E+02  0.24820030289E+02  0.69094135312E+02  0.47000000000E+01 0.  1.
<mgrwt>
<rscale>  0 0.26358416E+03</rscale>
<asrwt>0</asrwt>
<pdfrwt beam="1">  1        2 0.23991972E-01 0.26358416E+03</pdfrwt>
<pdfrwt beam="2">  1       -2 0.17135073E-01 0.26358416E+03</pdfrwt>
<totfact> 0.61085962E+03</totfact>
</mgrwt>
</event>
<event>
 9    1  0.7986988E-001  0.2703337E+03  0.7818608E-02  0.1101089E+00
          2   -1    0    0  501    0  0.00000000000E+00  0.00000000000E+00  0.16926355366E+04  0.16926355366E+04  0.00000000000E+00 0. -1.
         -2   -1    0    0    0  501 -0.00000000000E+00 -0.00000000000E+00 -0.10793866189E+02  0.10793866189E+02  0.00000000000E+00 0. -1.
         35    2    1    2    0    0  0.00000000000E+00  0.00000000000E+00  0.16818416704E+04  0.17034294028E+04  0.27033373069E+03 0.  0.
         25    2    3    3    0    0 -0.22292481751E+02  0.45990982777E+01  0.55697949850E+03  0.57134411686E+03  0.12525905823E+03 0.  0.
         25    2    3    3    0    0  0.22292481751E+02 -0.45990982777E+01  0.11248621719E+04  0.11320852859E+04  0.12563471806E+03 0.  0.
          5    1    4    4  502    0 -0.55016336480E+02  0.46207024180E+02  0.26712331731E+03  0.27665654341E+03  0.47000000000E+01 0.  1.
         -5    1    4    4    0  502  0.32723854729E+02 -0.41607925902E+02  0.28985618119E+03  0.29468757344E+03  0.47000000000E+01 0.  1.
          5    1    5    5  503    0  0.37356212734E+02  0.42423583801E+01  0.98082906711E+02  0.10514671095E+03  0.47000000000E+01 0.  1.
         -5    1    5    5    0  503 -0.15063730982E+02 -0.88414566578E+01  0.10267792652E+04  0.10269385749E+04  0.47000000000E+01 0.  1.
<mgrwt>
<rscale>  0 0.27033373E+03</rscale>
<asrwt>0</asrwt>
<pdfrwt beam="1">  1        2 0.26040526E+00 0.27033373E+03</pdfrwt>
<pdfrwt beam="2">  1       -2 0.16605961E-02 0.27033373E+03</pdfrwt>
<totfact> 0.10951086E+04</totfact>
</mgrwt>
</event>
<event>
 9    1  0.7986988E-001  0.2768958E+03  0.7818608E-02  0.1097397E+00
          1   -1    0    0  501    0  0.00000000000E+00  0.00000000000E+00  0.23158845104E+04  0.23158845104E+04  0.00000000000E+00 0.  1.
         -1   -1    0    0    0  501 -0.00000000000E+00 -0.00000000000E+00 -0.82766760107E+01  0.82766760107E+01  0.00000000000E+00 0.  1.
         35    2    1    2    0    0  0.53290705182E-14 -0.71054273576E-14  0.23076078344E+04  0.23241611865E+04  0.27689583436E+03 0.  0.
         25    2    3    3    0    0 -0.51322335890E+01  0.20872384753E+02  0.69217378144E+03  0.70375310605E+03  0.12530719970E+03 0.  0.
         25    2    3    3    0    0  0.51322335890E+01 -0.20872384753E+02  0.16154340530E+04  0.16204080804E+04  0.12503268053E+03 0.  0.
          5    1    4    4  502    0  0.47679839670E+02  0.39448109080E+02  0.23180792357E+03  0.23997192305E+03  0.47000000000E+01 0.  1.
         -5    1    4    4    0  502 -0.52812073259E+02 -0.18575724328E+02  0.46036585787E+03  0.46378118300E+03  0.47000000000E+01 0.  1.
          5    1    5    5  503    0 -0.30713314489E+01  0.52018517924E+02  0.77627515382E+03  0.77803635116E+03  0.47000000000E+01 0.  1.
         -5    1    5    5    0  503  0.82035650379E+01 -0.72890902676E+02  0.83915889917E+03  0.84237172924E+03  0.47000000000E+01 0.  1.
<mgrwt>
<rscale>  0 0.27689583E+03</rscale>
<asrwt>0</asrwt>
<pdfrwt beam="1">  1        1 0.35628941E+00 0.27689583E+03</pdfrwt>
<pdfrwt beam="2">  1       -1 0.12733366E-02 0.27689583E+03</pdfrwt>
<totfact> 0.27800070E+03</totfact>
</mgrwt>
</event>
<event>
 9    1  0.7986988E-001  0.2691459E+03  0.7818608E-02  0.1101769E+00
          2   -1    0    0  501    0  0.00000000000E+00  0.00000000000E+00  0.95026944484E+02  0.95026944484E+02  0.00000000000E+00 0. -1.
         -2   -1    0    0    0  501 -0.00000000000E+00 -0.00000000000E+00 -0.19057621684E+03  0.19057621684E+03  0.00000000000E+00 0. -1.
         35    2    1    2    0    0 -0.71054273576E-14  0.00000000000E+00 -0.95549272357E+02  0.28560316133E+03  0.26914587552E+03 0.  0.
         25    2    3    3    0    0 -0.29178199875E+02 -0.30636181452E+02 -0.23320171021E+02  0.13420721759E+03  0.12521103752E+03 0.  0.
         25    2    3    3    0    0  0.29178199875E+02  0.30636181452E+02 -0.72229101337E+02  0.15139594373E+03  0.12614969574E+03 0.  0.
          5    1    4    4  502    0  0.45885968947E+02 -0.32424383102E+02 -0.39456447160E+01  0.56520092692E+02  0.47000000000E+01 0. -1.
         -5    1    4    4    0  502 -0.75064168822E+02  0.17882016491E+01 -0.19374526305E+02  0.77687124902E+02  0.47000000000E+01 0. -1.
          5    1    5    5  503    0  0.28702273759E+02 -0.31030428142E+02  0.14446943801E+02  0.44916724889E+02  0.47000000000E+01 0.  1.
         -5    1    5    5    0  503  0.47592611562E+00  0.61666609594E+02 -0.86676045138E+02  0.10647921884E+03  0.47000000000E+01 0.  1.
<mgrwt>
<rscale>  0 0.26914588E+03</rscale>
<asrwt>0</asrwt>
<pdfrwt beam="1">  1        2 0.14619530E-01 0.26914588E+03</pdfrwt>
<pdfrwt beam="2">  1       -2 0.29319417E-01 0.26914588E+03</pdfrwt>
<totfact> 0.42566903E+03</totfact>
</mgrwt>
</event>
<event>
 9    1  0.7986988E-001  0.2845167E+03  0.7818608E-02  0.1093247E+00
          2   -1    0    0  501    0  0.00000000000E+00  0.00000000000E+00  0.28803300678E+03  0.28803300678E+03  0.00000000000E+00 0.  1.
         -2   -1    0    0    0  501 -0.00000000000E+00 -0.00000000000E+00 -0.70260840148E+02  0.70260840148E+02  0.00000000000E+00 0.  1.
         35    2    1    2    0    0  0.71054273576E-14  0.71054273576E-14  0.21777216663E+03  0.35829384693E+03  0.28451672040E+03 0.  0.
         25    2    3    3    0    0  0.24447524878E+02  0.59519864435E+02  0.13676088663E+03  0.19624261207E+03  0.12516919328E+03 0.  0.
         25    2    3    3    0    0 -0.24447524878E+02 -0.59519864435E+02  0.81011280008E+02  0.16205123486E+03  0.12472962557E+03 0.  0.
          5    1    4    4  502    0  0.84879964746E+01  0.33957076620E+02 -0.17205594858E+02  0.39284241512E+02  0.47000000000E+01 0.  1.
         -5    1    4    4    0  502  0.15959528404E+02  0.25562787815E+02  0.15396648148E+03  0.15695837056E+03  0.47000000000E+01 0.  1.
          5    1    5    5  503    0 -0.22555079876E+02  0.37002034108E+02  0.28107060823E+02  0.51865007707E+02  0.47000000000E+01 0. -1.
         -5    1    5    5    0  503 -0.18924450028E+01 -0.96521898544E+02  0.52904219185E+02  0.11018622715E+03  0.47000000000E+01 0. -1.
<mgrwt>
<rscale>  0 0.28451672E+03</rscale>
<asrwt>0</asrwt>
<pdfrwt beam="1">  1        2 0.44312770E-01 0.28451672E+03</pdfrwt>
<pdfrwt beam="2">  1       -2 0.10809360E-01 0.28451672E+03</pdfrwt>
<totfact> 0.66556235E+03</totfact>
</mgrwt>
</event>
<event>
 9    1  0.7986988E-001  0.2750007E+03  0.7818608E-02  0.1098451E+00
         -3   -1    0    0    0  501 -0.00000000000E+00  0.00000000000E+00  0.50845841296E+02  0.50845841296E+02  0.00000000000E+00 0.  1.
          3   -1    0    0  501    0  0.00000000000E+00 -0.00000000000E+00 -0.37183672702E+03  0.37183672702E+03  0.00000000000E+00 0.  1.
         35    2    1    2    0    0 -0.71054273576E-14 -0.71054273576E-14 -0.32099088572E+03  0.42268256831E+03  0.27500073607E+03 0.  0.
         25    2    3    3    0    0 -0.52424880742E+01  0.57649843530E+02 -0.15414638505E+03  0.20670852217E+03  0.12496526307E+03 0.  0.
         25    2    3    3    0    0  0.52424880742E+01 -0.57649843530E+02 -0.16684450068E+03  0.21597404615E+03  0.12432502991E+03 0.  0.
          5    1    4    4  502    0 -0.40664062034E+02  0.55646399239E+02 -0.26251410389E+02  0.73900705253E+02  0.47000000000E+01 0. -1.
         -5    1    4    4    0  502  0.35421573960E+02  0.20034442909E+01 -0.12789497466E+03  0.13280781691E+03  0.47000000000E+01 0. -1.
          5    1    5    5  503    0  0.61412628178E+02 -0.26580193707E+02 -0.11580120358E+03  0.13382834657E+03  0.47000000000E+01 0.  1.
         -5    1    5    5    0  503 -0.56170140104E+02 -0.31069649824E+02 -0.51043297099E+02  0.82145699572E+02  0.47000000000E+01 0.  1.
<mgrwt>
<rscale>  0 0.27500074E+03</rscale>
<asrwt>0</asrwt>
<pdfrwt beam="1">  1        3 0.57205648E-01 0.27500074E+03</pdfrwt>
<pdfrwt beam="2">  1       -3 0.78224374E-02 0.27500074E+03</pdfrwt>
<totfact> 0.85509063E+02</totfact>
</mgrwt>
</event>
<event>
 9    1  0.7986988E-001  0.2737470E+03  0.7818608E-02  0.1099154E+00
         -2   -1    0    0    0  501 -0.00000000000E+00  0.00000000000E+00  0.22325062839E+02  0.22325062839E+02  0.00000000000E+00 0. -1.
          2   -1    0    0  501    0  0.00000000000E+00 -0.00000000000E+00 -0.83916247214E+03  0.83916247214E+03  0.00000000000E+00 0. -1.
         35    2    1    2    0    0  0.00000000000E+00  0.00000000000E+00 -0.81683740930E+03  0.86148753498E+03  0.27374699942E+03 0.  0.
         25    2    3    3    0    0  0.96169740481E+00 -0.15507142457E+02 -0.23912483566E+03  0.27019423797E+03  0.12483125760E+03 0.  0.
         25    2    3    3    0    0 -0.96169740481E+00  0.15507142457E+02 -0.57771257364E+03  0.59129329701E+03  0.12503819023E+03 0.  0.
          5    1    4    4  502    0  0.44923193285E+02 -0.43132105737E+02 -0.18405245566E+03  0.19436015095E+03  0.47000000000E+01 0. -1.
         -5    1    4    4    0  502 -0.43961495880E+02  0.27624963280E+02 -0.55072379996E+02  0.75834087023E+02  0.47000000000E+01 0. -1.
          5    1    5    5  503    0 -0.49858283173E+02 -0.28878474596E+02 -0.21774493615E+03  0.22528817527E+03  0.47000000000E+01 0.  1.
         -5    1    5    5    0  503  0.48896585768E+02  0.44385617053E+02 -0.35996763749E+03  0.36600512174E+03  0.47000000000E+01 0.  1.
<mgrwt>
<rscale>  0 0.27374700E+03</rscale>
<asrwt>0</asrwt>
<pdfrwt beam="1">  1        2 0.12910191E+00 0.27374700E+03</pdfrwt>
<pdfrwt beam="2">  1       -2 0.34346254E-02 0.27374700E+03</pdfrwt>
<totfact> 0.11490493E+04</totfact>
</mgrwt>
</event>
<event>
 9    1  0.7986988E-001  0.2755613E+03  0.7818608E-02  0.1098138E+00
          2   -1    0    0  501    0  0.00000000000E+00  0.00000000000E+00  0.51643034626E+03  0.51643034626E+03  0.00000000000E+00 0.  1.
         -2   -1    0    0    0  501 -0.00000000000E+00 -0.00000000000E+00 -0.36759096704E+02  0.36759096704E+02  0.00000000000E+00 0.  1.
         35    2    1    2    0    0  0.35527136788E-14  0.14210854715E-13  0.47967124955E+03  0.55318944296E+03  0.27556134010E+03 0.  0.
         25    2    3    3    0    0 -0.18245380872E+02 -0.35199173836E+02  0.32481766541E+03  0.35027278385E+03  0.12495051653E+03 0.  0.
         25    2    3    3    0    0  0.18245380872E+02  0.35199173836E+02  0.15485358414E+03  0.20291665911E+03  0.12499464893E+03 0.  0.
          5    1    4    4  502    0  0.38991999627E+02  0.12433396041E+02  0.20518611508E+03  0.20928066608E+03  0.47000000000E+01 0. -1.
         -5    1    4    4    0  502 -0.57237380499E+02 -0.47632569877E+02  0.11963155033E+03  0.14099211778E+03  0.47000000000E+01 0. -1.
          5    1    5    5  503    0 -0.57962294913E+01  0.33047802858E+02 -0.10713449322E+02  0.35533386363E+02  0.47000000000E+01 0. -1.
         -5    1    5    5    0  503  0.24041610364E+02  0.21513709783E+01  0.16556703346E+03  0.16738327275E+03  0.47000000000E+01 0. -1.
<mgrwt>
<rscale>  0 0.27556134E+03</rscale>
<asrwt>0</asrwt>
<pdfrwt beam="1">  1        2 0.79450818E-01 0.27556134E+03</pdfrwt>
<pdfrwt beam="2">  1       -2 0.56552460E-02 0.27556134E+03</pdfrwt>
<totfact> 0.96756688E+03</totfact>
</mgrwt>
</event>
<event>
 9    1  0.7986988E-001  0.2763601E+03  0.7818608E-02  0.1097694E+00
         -4   -1    0    0    0  501 -0.00000000000E+00  0.00000000000E+00  0.25550397737E+02  0.25550397737E+02  0.00000000000E+00 0. -1.
          4   -1    0    0  501    0  0.00000000000E+00 -0.00000000000E+00 -0.74729689271E+03  0.74729689271E+03  0.00000000000E+00 0. -1.
         35    2    1    2    0    0 -0.35527136788E-14  0.71054273576E-14 -0.72174649497E+03  0.77284729044E+03  0.27636014790E+03 0.  0.
         25    2    3    3    0    0 -0.17431632699E+02  0.45686655016E+02 -0.45377849242E+03  0.47329263678E+03  0.12529911248E+03 0.  0.
         25    2    3    3    0    0  0.17431632699E+02 -0.45686655016E+02 -0.26796800255E+03  0.29955465366E+03  0.12463951168E+03 0.  0.
          5    1    4    4  502    0  0.17101816010E+02  0.82054614639E+02 -0.29536743660E+03  0.30706586345E+03  0.47000000000E+01 0. -1.
         -5    1    4    4    0  502 -0.34533448709E+02 -0.36367959623E+02 -0.15841105581E+03  0.16622677333E+03  0.47000000000E+01 0. -1.
          5    1    5    5  503    0 -0.23975272780E+02 -0.97961560764E+01 -0.23277977909E+03  0.23426330043E+03  0.47000000000E+01 0.  1.
         -5    1    5    5    0  503  0.41406905480E+02 -0.35890498940E+02 -0.35188223468E+02  0.65291353228E+02  0.47000000000E+01 0.  1.
<mgrwt>
<rscale>  0 0.27636015E+03</rscale>
<asrwt>0</asrwt>
<pdfrwt beam="1">  1        4 0.11496876E+00 0.27636015E+03</pdfrwt>
<pdfrwt beam="2">  1       -4 0.39308302E-02 0.27636015E+03</pdfrwt>
<totfact> 0.40394248E+02</totfact>
</mgrwt>
</event>
<event>
 9    1  0.7986988E-001  0.2740293E+03  0.7818608E-02  0.1098995E+00
          2   -1    0    0  501    0  0.00000000000E+00  0.00000000000E+00  0.19107533900E+03  0.19107533900E+03  0.00000000000E+00 0. -1.
         -2   -1    0    0    0  501 -0.00000000000E+00 -0.00000000000E+00 -0.98249254087E+02  0.98249254087E+02  0.00000000000E+00 0. -1.
         35    2    1    2    0    0  0.00000000000E+00 -0.71054273576E-14  0.92826084912E+02  0.28932459309E+03  0.27402926509E+03 0.  0.
         25    2    3    3    0    0 -0.54972151858E+02  0.97923951496E+01  0.46172934377E+02  0.14420155427E+03  0.12467686194E+03 0.  0.
         25    2    3    3    0    0  0.54972151858E+02 -0.97923951496E+01  0.46653150535E+02  0.14512303881E+03  0.12556413285E+03 0.  0.
          5    1    4    4  502    0 -0.76792616779E+02  0.47340429490E+02  0.43962818169E+02  0.10046413110E+03  0.47000000000E+01 0.  1.
         -5    1    4    4    0  502  0.21820464921E+02 -0.37548034341E+02  0.22101162086E+01  0.43737423174E+02  0.47000000000E+01 0.  1.
          5    1    5    5  503    0 -0.13821145782E+02  0.30443164068E+02  0.55331182879E+02  0.64818516706E+02  0.47000000000E+01 0.  1.
         -5    1    5    5    0  503  0.68793297639E+02 -0.40235559218E+02 -0.86780323441E+01  0.80304522108E+02  0.47000000000E+01 0.  1.
<mgrwt>
<rscale>  0 0.27402927E+03</rscale>
<asrwt>0</asrwt>
<pdfrwt beam="1">  1        2 0.29396206E-01 0.27402927E+03</pdfrwt>
<pdfrwt beam="2">  1       -2 0.15115270E-01 0.27402927E+03</pdfrwt>
<totfact> 0.60160480E+03</totfact>
</mgrwt>
</event>
<event>
 9    1  0.7986988E-001  0.2770183E+03  0.7818608E-02  0.1097329E+00
          1   -1    0    0  501    0  0.00000000000E+00  0.00000000000E+00  0.34379467789E+03  0.34379467789E+03  0.00000000000E+00 0.  1.
         -1   -1    0    0    0  501 -0.00000000000E+00 -0.00000000000E+00 -0.55803013512E+02  0.55803013512E+02  0.00000000000E+00 0.  1.
         35    2    1    2    0    0  0.71054273576E-14  0.00000000000E+00  0.28799166437E+03  0.39959769140E+03  0.27701825973E+03 0.  0.
         25    2    3    3    0    0  0.43980824979E+02  0.36348169585E+02  0.17574005545E+03  0.22342373891E+03  0.12561089769E+03 0.  0.
         25    2    3    3    0    0 -0.43980824979E+02 -0.36348169585E+02  0.11225160892E+03  0.17617395249E+03  0.12321256199E+03 0.  0.
          5    1    4    4  502    0  0.41781440519E+02  0.63797019242E+02  0.42792540865E+02  0.87573055158E+02  0.47000000000E+01 0.  1.
         -5    1    4    4    0  502  0.21993844591E+01 -0.27448849658E+02  0.13294751459E+03  0.13585068375E+03  0.47000000000E+01 0.  1.
          5    1    5    5  503    0  0.77863526276E+01  0.40199517093E+02  0.49312894039E+02  0.64268810322E+02  0.47000000000E+01 0. -1.
         -5    1    5    5    0  503 -0.51767177606E+02 -0.76547686677E+02  0.62938714880E+02  0.11190514217E+03  0.47000000000E+01 0. -1.
<mgrwt>
<rscale>  0 0.27701826E+03</rscale>
<asrwt>0</asrwt>
<pdfrwt beam="1">  1        1 0.52891488E-01 0.27701826E+03</pdfrwt>
<pdfrwt beam="2">  1       -1 0.85850792E-02 0.27701826E+03</pdfrwt>
<totfact> 0.56532620E+03</totfact>
</mgrwt>
</event>
<event>
 9    1  0.7986988E-001  0.2818945E+03  0.7818608E-02  0.1094659E+00
          1   -1    0    0  501    0  0.00000000000E+00  0.00000000000E+00  0.65143888366E+03  0.65143888366E+03  0.00000000000E+00 0. -1.
         -1   -1    0    0    0  501 -0.00000000000E+00 -0.00000000000E+00 -0.30495773603E+02  0.30495773603E+02  0.00000000000E+00 0. -1.
         35    2    1    2    0    0  0.14210854715E-13  0.35527136788E-14  0.62094311005E+03  0.68193465726E+03  0.28189453852E+03 0.  0.
         25    2    3    3    0    0  0.39659038024E+02  0.13691223129E+02  0.43249586186E+03  0.45206473858E+03  0.12469790876E+03 0.  0.
         25    2    3    3    0    0 -0.39659038024E+02 -0.13691223129E+02  0.18844724819E+03  0.22986991868E+03  0.12476988930E+03 0.  0.
          5    1    4    4  502    0  0.44654184769E+01  0.61670541178E+02  0.30565276433E+03  0.31187962093E+03  0.47000000000E+01 0. -1.
         -5    1    4    4    0  502  0.35193619547E+02 -0.47979318049E+02  0.12684309754E+03  0.14018511765E+03  0.47000000000E+01 0. -1.
          5    1    5    5  503    0 -0.71157486883E+02  0.25976799724E+02  0.81071093120E+02  0.11105311433E+03  0.47000000000E+01 0.  1.
         -5    1    5    5    0  503  0.31498448859E+02 -0.39668022853E+02  0.10737615507E+03  0.11881680435E+03  0.47000000000E+01 0.  1.
<mgrwt>
<rscale>  0 0.28189454E+03</rscale>
<asrwt>0</asrwt>
<pdfrwt beam="1">  1        1 0.10022136E+00 0.28189454E+03</pdfrwt>
<pdfrwt beam="2">  1       -1 0.46916580E-02 0.28189454E+03</pdfrwt>
<totfact> 0.60480807E+03</totfact>
</mgrwt>
</event>
<event>
 9    1  0.7986988E-001  0.2771443E+03  0.7818608E-02  0.1097259E+00
          2   -1    0    0  501    0  0.00000000000E+00  0.00000000000E+00  0.10454116388E+04  0.10454116388E+04  0.00000000000E+00 0.  1.
         -2   -1    0    0    0  501 -0.00000000000E+00 -0.00000000000E+00 -0.18368119710E+02  0.18368119710E+02  0.00000000000E+00 0.  1.
         35    2    1    2    0    0  0.00000000000E+00  0.71054273576E-14  0.10270435191E+04  0.10637797585E+04  0.27714433877E+03 0.  0.
         25    2    3    3    0    0  0.33121683898E+02  0.11021567740E+02  0.69562201486E+03  0.70747271241E+03  0.12413351819E+03 0.  0.
         25    2    3    3    0    0 -0.33121683898E+02 -0.11021567740E+02  0.33142150420E+03  0.35630704608E+03  0.12607924785E+03 0.  0.
          5    1    4    4  502    0  0.51026540436E+02  0.40726025780E+02  0.62731529756E+03  0.63072092842E+03  0.47000000000E+01 0. -1.
         -5    1    4    4    0  502 -0.17904856538E+02 -0.29704458040E+02  0.68306717307E+02  0.76751783982E+02  0.47000000000E+01 0. -1.
          5    1    5    5  503    0 -0.60495415638E+02 -0.31108507456E+02  0.92376114748E+02  0.11481668487E+03  0.47000000000E+01 0.  1.
         -5    1    5    5    0  503  0.27373731740E+02  0.20086939716E+02  0.23904538946E+03  0.24149036121E+03  0.47000000000E+01 0.  1.
<mgrwt>
<rscale>  0 0.27714434E+03</rscale>
<asrwt>0</asrwt>
<pdfrwt beam="1">  1        2 0.16083251E+00 0.27714434E+03</pdfrwt>
<pdfrwt beam="2">  1       -2 0.28258654E-02 0.27714434E+03</pdfrwt>
<totfact> 0.11385038E+04</totfact>
</mgrwt>
</event>
<event>
 9    1  0.7986988E-001  0.2745141E+03  0.7818608E-02  0.1098723E+00
          2   -1    0    0  501    0  0.00000000000E+00  0.00000000000E+00  0.26361961511E+03  0.26361961511E+03  0.00000000000E+00 0.  1.
         -2   -1    0    0    0  501 -0.00000000000E+00 -0.00000000000E+00 -0.71464720075E+02  0.71464720075E+02  0.00000000000E+00 0.  1.
         35    2    1    2    0    0 -0.14210854715E-13  0.00000000000E+00  0.19215489503E+03  0.33508433518E+03  0.27451413078E+03 0.  0.
         25    2    3    3    0    0 -0.54963076208E+02  0.27525457910E+01  0.78696732728E+02  0.15741569486E+03  0.12473174813E+03 0.  0.
         25    2    3    3    0    0  0.54963076208E+02 -0.27525457910E+01  0.11345816230E+03  0.17766864033E+03  0.12515939800E+03 0.  0.
          5    1    4    4  502    0  0.36307071536E+02 -0.43009102392E+01  0.39829718452E+00  0.36863937840E+02  0.47000000000E+01 0.  1.
         -5    1    4    4    0  502 -0.91270147744E+02  0.70534560303E+01  0.78298435544E+02  0.12055175702E+03  0.47000000000E+01 0.  1.
          5    1    5    5  503    0  0.37593642502E+02 -0.62758815470E+02  0.70512607005E+02  0.10171562624E+03  0.47000000000E+01 0.  1.
         -5    1    5    5    0  503  0.17369433706E+02  0.60006269679E+02  0.42945555299E+02  0.75953014081E+02  0.47000000000E+01 0.  1.
<mgrwt>
<rscale>  0 0.27451413E+03</rscale>
<asrwt>0</asrwt>
<pdfrwt beam="1">  1        2 0.40556864E-01 0.27451413E+03</pdfrwt>
<pdfrwt beam="2">  1       -2 0.10994572E-01 0.27451413E+03</pdfrwt>
<totfact> 0.71158311E+03</totfact>
</mgrwt>
</event>
<event>
 9    1  0.7986988E-001  0.2787099E+03  0.7818608E-02  0.1096396E+00
          1   -1    0    0  501    0  0.00000000000E+00  0.00000000000E+00  0.14131129880E+04  0.14131129880E+04  0.00000000000E+00 0.  1.
         -1   -1    0    0    0  501 -0.00000000000E+00 -0.00000000000E+00 -0.13742564048E+02  0.13742564048E+02  0.00000000000E+00 0.  1.
         35    2    1    2    0    0  0.71054273576E-14 -0.35527136788E-14  0.13993704240E+04  0.14268555521E+04  0.27870985447E+03 0.  0.
         25    2    3    3    0    0 -0.47473668193E+02 -0.10368775209E+02  0.88496946729E+03  0.89517273155E+03  0.12570600865E+03 0.  0.
         25    2    3    3    0    0  0.47473668193E+02  0.10368775209E+02  0.51440095670E+03  0.53168282054E+03  0.12536752659E+03 0.  0.
          5    1    4    4  502    0 -0.53892687642E+02 -0.29234773660E+02  0.18595031466E+03  0.19585378039E+03  0.47000000000E+01 0. -1.
         -5    1    4    4    0  502  0.64190194493E+01  0.18865998451E+02  0.69901915263E+03  0.69931895116E+03  0.47000000000E+01 0. -1.
          5    1    5    5  503    0 -0.22412402882E+02 -0.33831885778E+02  0.28242635848E+03  0.28536581832E+03  0.47000000000E+01 0.  1.
         -5    1    5    5    0  503  0.69886071074E+02  0.44200660987E+02  0.23197459822E+03  0.24631700222E+03  0.47000000000E+01 0.  1.
<mgrwt>
<rscale>  0 0.27870985E+03</rscale>
<asrwt>0</asrwt>
<pdfrwt beam="1">  1        1 0.21740188E+00 0.27870985E+03</pdfrwt>
<pdfrwt beam="2">  1       -1 0.21142417E-02 0.27870985E+03</pdfrwt>
<totfact> 0.51703694E+03</totfact>
</mgrwt>
</event>
<event>
 9    1  0.7986988E-001  0.2739972E+03  0.7818608E-02  0.1099013E+00
         -1   -1    0    0    0  501 -0.00000000000E+00  0.00000000000E+00  0.54611889794E+02  0.54611889794E+02  0.00000000000E+00 0.  1.
          1   -1    0    0  501    0  0.00000000000E+00 -0.00000000000E+00 -0.34367266079E+03  0.34367266079E+03  0.00000000000E+00 0.  1.
         35    2    1    2    0    0  0.00000000000E+00  0.00000000000E+00 -0.28906077100E+03  0.39828455058E+03  0.27399717864E+03 0.  0.
         25    2    3    3    0    0 -0.33453709167E+02  0.27497583065E+02 -0.93169601568E+02  0.16153828323E+03  0.12465462110E+03 0.  0.
         25    2    3    3    0    0  0.33453709167E+02 -0.27497583065E+02 -0.19589116943E+03  0.23674626735E+03  0.12569875542E+03 0.  0.
          5    1    4    4  502    0  0.28002917436E+02  0.18623009642E+02  0.14686110850E+02  0.36996644780E+02  0.47000000000E+01 0. -1.
         -5    1    4    4    0  502 -0.61456626603E+02  0.88745734227E+01 -0.10785571242E+03  0.12454163845E+03  0.47000000000E+01 0. -1.
          5    1    5    5  503    0 -0.44630007447E+02 -0.22835745629E+02 -0.49001056567E+02  0.70260247565E+02  0.47000000000E+01 0.  1.
         -5    1    5    5    0  503  0.78083716615E+02 -0.46618374364E+01 -0.14689011286E+03  0.16648601979E+03  0.47000000000E+01 0.  1.
<mgrwt>
<rscale>  0 0.27399718E+03</rscale>
<asrwt>0</asrwt>
<pdfrwt beam="1">  1        1 0.52872717E-01 0.27399718E+03</pdfrwt>
<pdfrwt beam="2">  1       -1 0.84018292E-02 0.27399718E+03</pdfrwt>
<totfact> 0.58438049E+03</totfact>
</mgrwt>
</event>
<event>
 9    1  0.7986988E-001  0.2777854E+03  0.7818608E-02  0.1096905E+00
         -2   -1    0    0    0  501 -0.00000000000E+00  0.00000000000E+00  0.45644666163E+02  0.45644666163E+02  0.00000000000E+00 0. -1.
          2   -1    0    0  501    0  0.00000000000E+00 -0.00000000000E+00 -0.42263836435E+03  0.42263836435E+03  0.00000000000E+00 0. -1.
         35    2    1    2    0    0 -0.71054273576E-14  0.00000000000E+00 -0.37699369819E+03  0.46828303051E+03  0.27778543553E+03 0.  0.
         25    2    3    3    0    0  0.33721291571E+02  0.37059977735E+02 -0.24658549636E+03  0.28107807184E+03  0.12525936291E+03 0.  0.
         25    2    3    3    0    0 -0.33721291571E+02 -0.37059977735E+02 -0.13040820182E+03  0.18720495868E+03  0.12461472624E+03 0.  0.
          5    1    4    4  502    0  0.38475347930E+02 -0.32736255293E+02 -0.16924341184E+03  0.17668456995E+03  0.47000000000E+01 0. -1.
         -5    1    4    4    0  502 -0.47540563594E+01  0.69796233028E+02 -0.77342084524E+02  0.10439350188E+03  0.47000000000E+01 0. -1.
          5    1    5    5  503    0 -0.51253263149E+02  0.21293698191E+02 -0.16756878595E+02  0.58165295034E+02  0.47000000000E+01 0.  1.
         -5    1    5    5    0  503  0.17531971578E+02 -0.58353675926E+02 -0.11365132323E+03  0.12903966364E+03  0.47000000000E+01 0.  1.
<mgrwt>
<rscale>  0 0.27778544E+03</rscale>
<asrwt>0</asrwt>
<pdfrwt beam="1">  1        2 0.65021286E-01 0.27778544E+03</pdfrwt>
<pdfrwt beam="2">  1       -2 0.70222564E-02 0.27778544E+03</pdfrwt>
<totfact> 0.86603505E+03</totfact>
</mgrwt>
</event>
<event>
 9    1  0.7986988E-001  0.2697853E+03  0.7818608E-02  0.1101403E+00
         -1   -1    0    0    0  501 -0.00000000000E+00  0.00000000000E+00  0.35812608177E+03  0.35812608177E+03  0.00000000000E+00 0.  1.
          1   -1    0    0  501    0  0.00000000000E+00 -0.00000000000E+00 -0.50809003683E+02  0.50809003683E+02  0.00000000000E+00 0.  1.
         35    2    1    2    0    0  0.00000000000E+00  0.71054273576E-14  0.30731707808E+03  0.40893508545E+03  0.26978531767E+03 0.  0.
         25    2    3    3    0    0 -0.82704795050E+01  0.47527404789E+02  0.17639314155E+03  0.22163981105E+03  0.12522943112E+03 0.  0.
         25    2    3    3    0    0  0.82704795050E+01 -0.47527404789E+02  0.13092393654E+03  0.18729527440E+03  0.12494473826E+03 0.  0.
          5    1    4    4  502    0 -0.15943930665E+02 -0.31513009830E+01 -0.15511175928E+02  0.22952694866E+02  0.47000000000E+01 0.  1.
         -5    1    4    4    0  502  0.76734511602E+01  0.50678705772E+02  0.19190431748E+03  0.19868711618E+03  0.47000000000E+01 0.  1.
          5    1    5    5  503    0 -0.55697821707E+02 -0.41233682684E+02  0.69778389110E+02  0.98455967403E+02  0.47000000000E+01 0.  1.
         -5    1    5    5    0  503  0.63968301212E+02 -0.62937221046E+01  0.61145547427E+02  0.88839306998E+02  0.47000000000E+01 0.  1.
<mgrwt>
<rscale>  0 0.26978532E+03</rscale>
<asrwt>0</asrwt>
<pdfrwt beam="1">  1        1 0.78167700E-02 0.26978532E+03</pdfrwt>
<pdfrwt beam="2">  1       -1 0.55096319E-01 0.26978532E+03</pdfrwt>
<totfact> 0.30589590E+03</totfact>
</mgrwt>
</event>
<event>
 9    1  0.7986988E-001  0.2624136E+03  0.7818608E-02  0.1105702E+00
          1   -1    0    0  501    0  0.00000000000E+00  0.00000000000E+00  0.20224030919E+03  0.20224030919E+03  0.00000000000E+00 0. -1.
         -1   -1    0    0    0  501 -0.00000000000E+00 -0.00000000000E+00 -0.85122640559E+02  0.85122640559E+02  0.00000000000E+00 0. -1.
         35    2    1    2    0    0  0.00000000000E+00  0.00000000000E+00  0.11711766863E+03  0.28736294974E+03  0.26241363642E+03 0.  0.
         25    2    3    3    0    0 -0.17697181000E+02 -0.29028066085E+02  0.37629988372E+02  0.13453117321E+03  0.12460658773E+03 0.  0.
         25    2    3    3    0    0  0.17697181000E+02  0.29028066085E+02  0.79487680253E+02  0.15283177653E+03  0.12602952737E+03 0.  0.
          5    1    4    4  502    0 -0.65119248851E+02 -0.71257006471E+01  0.47643058506E+02  0.81137187556E+02  0.47000000000E+01 0.  1.
         -5    1    4    4    0  502  0.47422067851E+02 -0.21902365438E+02 -0.10013070133E+02  0.53393985659E+02  0.47000000000E+01 0.  1.
          5    1    5    5  503    0  0.56424599971E+02  0.90057310119E+01 -0.50956711166E+01  0.57557749583E+02  0.47000000000E+01 0. -1.
         -5    1    5    5    0  503 -0.38727418970E+02  0.20022335073E+02  0.84583351370E+02  0.95274026948E+02  0.47000000000E+01 0. -1.
<mgrwt>
<rscale>  0 0.26241364E+03</rscale>
<asrwt>0</asrwt>
<pdfrwt beam="1">  1        1 0.31113894E-01 0.26241364E+03</pdfrwt>
<pdfrwt beam="2">  1       -1 0.13095791E-01 0.26241364E+03</pdfrwt>
<totfact> 0.57129291E+03</totfact>
</mgrwt>
</event>
<event>
 9    1  0.7986988E-001  0.2753909E+03  0.7818608E-02  0.1098233E+00
         -1   -1    0    0    0  501 -0.00000000000E+00  0.00000000000E+00  0.21009160166E+02  0.21009160166E+02  0.00000000000E+00 0.  1.
          1   -1    0    0  501    0  0.00000000000E+00 -0.00000000000E+00 -0.90246497450E+03  0.90246497450E+03  0.00000000000E+00 0.  1.
         35    2    1    2    0    0  0.00000000000E+00  0.00000000000E+00 -0.88145581433E+03  0.92347413467E+03  0.27539085819E+03 0.  0.
         25    2    3    3    0    0 -0.27713827839E+02 -0.84938662847E+01 -0.60342155959E+03  0.61700189967E+03  0.12543350273E+03 0.  0.
         25    2    3    3    0    0  0.27713827839E+02  0.84938662847E+01 -0.27803425474E+03  0.30647223499E+03  0.12562635866E+03 0.  0.
          5    1    4    4  502    0  0.26413496941E+02 -0.19145709712E+02 -0.44666314322E+02  0.55510365303E+02  0.47000000000E+01 0. -1.
         -5    1    4    4    0  502 -0.54127324780E+02  0.10651843427E+02 -0.55875524527E+03  0.56149153437E+03  0.47000000000E+01 0. -1.
          5    1    5    5  503    0 -0.38208390295E+02  0.24389161233E+02 -0.18922312721E+03  0.19463348670E+03  0.47000000000E+01 0.  1.
         -5    1    5    5    0  503  0.65922218134E+02 -0.15895294948E+02 -0.88811127537E+02  0.11183874829E+03  0.47000000000E+01 0.  1.
<mgrwt>
<rscale>  0 0.27539086E+03</rscale>
<asrwt>0</asrwt>
<pdfrwt beam="1">  1        1 0.13884074E+00 0.27539086E+03</pdfrwt>
<pdfrwt beam="2">  1       -1 0.32321791E-02 0.27539086E+03</pdfrwt>
<totfact> 0.64137449E+03</totfact>
</mgrwt>
</event>
<event>
 9    1  0.7986988E-001  0.2733866E+03  0.7818608E-02  0.1099357E+00
         -2   -1    0    0    0  501 -0.00000000000E+00  0.00000000000E+00  0.18463653838E+02  0.18463653838E+02  0.00000000000E+00 0.  1.
          2   -1    0    0  501    0  0.00000000000E+00 -0.00000000000E+00 -0.10119911327E+04  0.10119911327E+04  0.00000000000E+00 0.  1.
         35    2    1    2    0    0 -0.71054273576E-14  0.00000000000E+00 -0.99352747887E+03  0.10304547865E+04  0.27338656852E+03 0.  0.
         25    2    3    3    0    0 -0.26020010800E+01 -0.61556861971E+02 -0.44666075441E+03  0.46620621308E+03  0.11851744985E+03 0.  0.
         25    2    3    3    0    0  0.26020010800E+01  0.61556861971E+02 -0.54686672446E+03  0.56424857347E+03  0.12456813667E+03 0.  0.
          5    1    4    4  502    0 -0.49019684067E+02 -0.77054821165E+00 -0.25653195900E+03  0.26121688146E+03  0.47000000000E+01 0. -1.
         -5    1    4    4    0  502  0.46417682987E+02 -0.60786313760E+02 -0.19012879541E+03  0.20498933162E+03  0.47000000000E+01 0. -1.
          5    1    5    5  503    0 -0.33400850101E+02 -0.83328063807E+01 -0.48292523776E+02  0.59492102856E+02  0.47000000000E+01 0.  1.
         -5    1    5    5    0  503  0.36002851181E+02  0.69889668352E+02 -0.49857420068E+03  0.50475647061E+03  0.47000000000E+01 0.  1.
<mgrwt>
<rscale>  0 0.27338657E+03</rscale>
<asrwt>0</asrwt>
<pdfrwt beam="1">  1        2 0.15569099E+00 0.27338657E+03</pdfrwt>
<pdfrwt beam="2">  1       -2 0.28405612E-02 0.27338657E+03</pdfrwt>
<totfact> 0.11830750E+04</totfact>
</mgrwt>
</event>
<event>
 9    1  0.7986988E-001  0.2702799E+03  0.7818608E-02  0.1101120E+00
          1   -1    0    0  501    0  0.00000000000E+00  0.00000000000E+00  0.79502037683E+02  0.79502037683E+02  0.00000000000E+00 0.  1.
         -1   -1    0    0    0  501 -0.00000000000E+00 -0.00000000000E+00 -0.22971495874E+03  0.22971495874E+03  0.00000000000E+00 0.  1.
         35    2    1    2    0    0  0.00000000000E+00  0.00000000000E+00 -0.15021292106E+03  0.30921699643E+03  0.27027990903E+03 0.  0.
         25    2    3    3    0    0  0.22392097624E+01  0.35816732794E+02 -0.12405582925E+03  0.17997015792E+03  0.12534574808E+03 0.  0.
         25    2    3    3    0    0 -0.22392097624E+01 -0.35816732794E+02 -0.26157091812E+02  0.12924683851E+03  0.12137833169E+03 0.  0.
          5    1    4    4  502    0  0.38387414454E+02  0.18058668675E+02 -0.13193188696E+03  0.13866442189E+03  0.47000000000E+01 0.  1.
         -5    1    4    4    0  502 -0.36148204691E+02  0.17758064119E+02  0.78760577096E+01  0.41305736026E+02  0.47000000000E+01 0.  1.
          5    1    5    5  503    0  0.41660676584E+02  0.26832991796E+02 -0.72131348977E+01  0.50296528083E+02  0.47000000000E+01 0.  1.
         -5    1    5    5    0  503 -0.43899886346E+02 -0.62649724590E+02 -0.18943956915E+02  0.78950310424E+02  0.47000000000E+01 0.  1.
<mgrwt>
<rscale>  0 0.27027991E+03</rscale>
<asrwt>0</asrwt>
<pdfrwt beam="1">  1        1 0.12231083E-01 0.27027991E+03</pdfrwt>
<pdfrwt beam="2">  1       -1 0.35340762E-01 0.27027991E+03</pdfrwt>
<totfact> 0.37384570E+03</totfact>
</mgrwt>
</event>
<event>
 9    1  0.7986988E-001  0.2727644E+03  0.7818608E-02  0.1099708E+00
          2   -1    0    0  501    0  0.00000000000E+00  0.00000000000E+00  0.32793584422E+03  0.32793584422E+03  0.00000000000E+00 0. -1.
         -2   -1    0    0    0  501 -0.00000000000E+00 -0.00000000000E+00 -0.56718710547E+02  0.56718710547E+02  0.00000000000E+00 0. -1.
         35    2    1    2    0    0  0.71054273576E-14  0.00000000000E+00  0.27121713368E+03  0.38465455477E+03  0.27276435417E+03 0.  0.
         25    2    3    3    0    0  0.31722776394E+02  0.27039808908E+02  0.19003111022E+03  0.23154062256E+03  0.12554581329E+03 0.  0.
         25    2    3    3    0    0 -0.31722776394E+02 -0.27039808908E+02  0.81186023454E+02  0.15311393221E+03  0.12294397108E+03 0.  0.
          5    1    4    4  502    0  0.85051043112E+01  0.28924123066E+02 -0.84347384134E+01  0.31657171488E+02  0.47000000000E+01 0.  1.
         -5    1    4    4    0  502  0.23217672083E+02 -0.18843141579E+01  0.19846584863E+03  0.19988345107E+03  0.47000000000E+01 0.  1.
          5    1    5    5  503    0 -0.53705677595E+02 -0.58922452886E+02  0.81492389996E+02  0.11410194953E+03  0.47000000000E+01 0. -1.
         -5    1    5    5    0  503  0.21982901201E+02  0.31882643977E+02 -0.30636654171E+00  0.39011982681E+02  0.47000000000E+01 0. -1.
<mgrwt>
<rscale>  0 0.27276435E+03</rscale>
<asrwt>0</asrwt>
<pdfrwt beam="1">  1        2 0.50451667E-01 0.27276435E+03</pdfrwt>
<pdfrwt beam="2">  1       -2 0.87259557E-02 0.27276435E+03</pdfrwt>
<totfact> 0.81166817E+03</totfact>
</mgrwt>
</event>
<event>
 9    1  0.7986988E-001  0.2696958E+03  0.7818608E-02  0.1101454E+00
         -1   -1    0    0    0  501 -0.00000000000E+00  0.00000000000E+00  0.26424932132E+02  0.26424932132E+02  0.00000000000E+00 0. -1.
          1   -1    0    0  501    0  0.00000000000E+00 -0.00000000000E+00 -0.68813614773E+03  0.68813614773E+03  0.00000000000E+00 0. -1.
         35    2    1    2    0    0  0.35527136788E-14  0.00000000000E+00 -0.66171121560E+03  0.71456107986E+03  0.26969576193E+03 0.  0.
         25    2    3    3    0    0 -0.42445957909E+01  0.17189420978E+02 -0.20420348403E+03  0.23996634471E+03  0.12478497874E+03 0.  0.
         25    2    3    3    0    0  0.42445957909E+01 -0.17189420978E+02 -0.45750773157E+03  0.47459473515E+03  0.12495337290E+03 0.  0.
          5    1    4    4  502    0  0.33000994478E+02  0.38156547859E+02 -0.26585661668E+02  0.57217787334E+02  0.47000000000E+01 0. -1.
         -5    1    4    4    0  502 -0.37245590269E+02 -0.20967126881E+02 -0.17761782236E+03  0.18274855738E+03  0.47000000000E+01 0. -1.
          5    1    5    5  503    0 -0.21597868531E+02  0.53850010976E+01 -0.85506004456E+01  0.24303681406E+02  0.47000000000E+01 0. -1.
         -5    1    5    5    0  503  0.25842464322E+02 -0.22574422076E+02 -0.44895713112E+03  0.45029105374E+03  0.47000000000E+01 0. -1.
<mgrwt>
<rscale>  0 0.26969576E+03</rscale>
<asrwt>0</asrwt>
<pdfrwt beam="1">  1        1 0.10586709E+00 0.26969576E+03</pdfrwt>
<pdfrwt beam="2">  1       -1 0.40653745E-02 0.26969576E+03</pdfrwt>
<totfact> 0.69132500E+03</totfact>
</mgrwt>
</event>
<event>
 9    1  0.7986988E-001  0.2790757E+03  0.7818608E-02  0.1096195E+00
          1   -1    0    0  501    0  0.00000000000E+00  0.00000000000E+00  0.18421605842E+04  0.18421605842E+04  0.00000000000E+00 0. -1.
         -1   -1    0    0    0  501 -0.00000000000E+00 -0.00000000000E+00 -0.10569549475E+02  0.10569549475E+02  0.00000000000E+00 0. -1.
         35    2    1    2    0    0 -0.71054273576E-14  0.00000000000E+00  0.18315910347E+04  0.18527301337E+04  0.27907567029E+03 0.  0.
         25    2    3    3    0    0 -0.11534972891E+02 -0.79093123654E+01  0.52176153799E+03  0.53685780037E+03  0.12564068796E+03 0.  0.
         25    2    3    3    0    0  0.11534972891E+02  0.79093123654E+01  0.13098294968E+04  0.13158723333E+04  0.12518416123E+03 0.  0.
          5    1    4    4  502    0 -0.64327763867E+02 -0.24808999675E+02  0.33168905696E+03  0.33881155260E+03  0.47000000000E+01 0. -1.
         -5    1    4    4    0  502  0.52792790976E+02  0.16899687310E+02  0.19007248102E+03  0.19804624776E+03  0.47000000000E+01 0. -1.
          5    1    5    5  503    0 -0.19630698038E+02 -0.49160927297E+02  0.82044004792E+03  0.82215942694E+03  0.47000000000E+01 0. -1.
         -5    1    5    5    0  503  0.31165670928E+02  0.57070239663E+02  0.48938944884E+03  0.49371290638E+03  0.47000000000E+01 0. -1.
<mgrwt>
<rscale>  0 0.27907567E+03</rscale>
<asrwt>0</asrwt>
<pdfrwt beam="1">  1        1 0.28340907E+00 0.27907567E+03</pdfrwt>
<pdfrwt beam="2">  1       -1 0.16260860E-02 0.27907567E+03</pdfrwt>
<totfact> 0.39639233E+03</totfact>
</mgrwt>
</event>
<event>
 9    1  0.7986988E-001  0.2808565E+03  0.7818608E-02  0.1095222E+00
         -2   -1    0    0    0  501 -0.00000000000E+00  0.00000000000E+00  0.24132153983E+02  0.24132153983E+02  0.00000000000E+00 0. -1.
          2   -1    0    0  501    0  0.00000000000E+00 -0.00000000000E+00 -0.81717116002E+03  0.81717116002E+03  0.00000000000E+00 0. -1.
         35    2    1    2    0    0 -0.17763568394E-14  0.00000000000E+00 -0.79303900604E+03  0.84130331400E+03  0.28085654889E+03 0.  0.
         25    2    3    3    0    0  0.15356689013E+02  0.33154224213E+02 -0.55415898518E+03  0.56928338211E+03  0.12512536837E+03 0.  0.
         25    2    3    3    0    0 -0.15356689013E+02 -0.33154224213E+02 -0.23888002086E+03  0.27201993190E+03  0.12488454069E+03 0.  0.
          5    1    4    4  502    0 -0.19063320523E+02 -0.13875491117E+02 -0.18224396669E+02  0.30168826246E+02  0.47000000000E+01 0. -1.
         -5    1    4    4    0  502  0.34420009536E+02  0.47029715330E+02 -0.53593458851E+03  0.53911455586E+03  0.47000000000E+01 0. -1.
          5    1    5    5  503    0 -0.16621617196E+02 -0.65395192990E+01 -0.24381829336E+03  0.24451685759E+03  0.47000000000E+01 0.  1.
         -5    1    5    5    0  503  0.12649281833E+01 -0.26614704914E+02  0.49382724983E+01  0.27503074305E+02  0.47000000000E+01 0.  1.
<mgrwt>
<rscale>  0 0.28085655E+03</rscale>
<asrwt>0</asrwt>
<pdfrwt beam="1">  1        2 0.12571863E+00 0.28085655E+03</pdfrwt>
<pdfrwt beam="2">  1       -2 0.37126395E-02 0.28085655E+03</pdfrwt>
<totfact> 0.10592003E+04</totfact>
</mgrwt>
</event>
<event>
 9    1  0.7986988E-001  0.2772006E+03  0.7818608E-02  0.1097228E+00
          2   -1    0    0  501    0  0.00000000000E+00  0.00000000000E+00  0.39476223274E+03  0.39476223274E+03  0.00000000000E+00 0.  1.
         -2   -1    0    0    0  501 -0.00000000000E+00 -0.00000000000E+00 -0.48662301170E+02  0.48662301170E+02  0.00000000000E+00 0.  1.
         35    2    1    2    0    0  0.00000000000E+00  0.00000000000E+00  0.34609993157E+03  0.44342453391E+03  0.27720056753E+03 0.  0.
         25    2    3    3    0    0 -0.29697620602E+02 -0.45468671734E+02  0.13384233619E+03  0.19106675528E+03  0.12507351934E+03 0.  0.
         25    2    3    3    0    0  0.29697620602E+02  0.45468671734E+02  0.21225759538E+03  0.25235777863E+03  0.12522704523E+03 0.  0.
          5    1    4    4  502    0  0.38311238587E+02  0.98316617146E+01  0.76406809371E+02  0.86165556299E+02  0.47000000000E+01 0.  1.
         -5    1    4    4    0  502 -0.68008859189E+02 -0.55300333448E+02  0.57435526815E+02  0.10490119898E+03  0.47000000000E+01 0.  1.
          5    1    5    5  503    0 -0.26836867612E+02  0.83625573047E+01 -0.10691670193E+01  0.28519869319E+02  0.47000000000E+01 0. -1.
         -5    1    5    5    0  503  0.56534488213E+02  0.37106114429E+02  0.21332676240E+03  0.22383790931E+03  0.47000000000E+01 0. -1.
<mgrwt>
<rscale>  0 0.27720057E+03</rscale>
<asrwt>0</asrwt>
<pdfrwt beam="1">  1        2 0.60732649E-01 0.27720057E+03</pdfrwt>
<pdfrwt beam="2">  1       -2 0.74865081E-02 0.27720057E+03</pdfrwt>
<totfact> 0.84454941E+03</totfact>
</mgrwt>
</event>
<event>
 9    1  0.7986988E-001  0.2734342E+03  0.7818608E-02  0.1099330E+00
          2   -1    0    0  501    0  0.00000000000E+00  0.00000000000E+00  0.23354582212E+03  0.23354582212E+03  0.00000000000E+00 0.  1.
         -2   -1    0    0    0  501 -0.00000000000E+00 -0.00000000000E+00 -0.80033800361E+02  0.80033800361E+02  0.00000000000E+00 0.  1.
         35    2    1    2    0    0  0.00000000000E+00  0.14210854715E-13  0.15351202176E+03  0.31357962248E+03  0.27343415809E+03 0.  0.
         25    2    3    3    0    0 -0.20191534260E+02  0.43481446558E+02  0.57380451727E+02  0.14896887786E+03  0.12884438707E+03 0.  0.
         25    2    3    3    0    0  0.20191534260E+02 -0.43481446558E+02  0.96131570034E+02  0.16461074463E+03  0.12472804111E+03 0.  0.
          5    1    4    4  502    0 -0.30704678933E+01 -0.29169387622E+02  0.67262829794E+02  0.73529988570E+02  0.47000000000E+01 0. -1.
         -5    1    4    4    0  502 -0.17121066367E+02  0.72650834180E+02 -0.98823780664E+01  0.75438889287E+02  0.47000000000E+01 0. -1.
          5    1    5    5  503    0  0.43806916403E+02  0.26332456044E+02  0.68863438934E+02  0.85887760408E+02  0.47000000000E+01 0. -1.
         -5    1    5    5    0  503 -0.23615382143E+02 -0.69813902603E+02  0.27268131100E+02  0.78722984217E+02  0.47000000000E+01 0. -1.
<mgrwt>
<rscale>  0 0.27343416E+03</rscale>
<asrwt>0</asrwt>
<pdfrwt beam="1">  1        2 0.35930126E-01 0.27343416E+03</pdfrwt>
<pdfrwt beam="2">  1       -2 0.12312892E-01 0.27343416E+03</pdfrwt>
<totfact> 0.67581945E+03</totfact>
</mgrwt>
</event>
<event>
 9    1  0.7986988E-001  0.2784265E+03  0.7818608E-02  0.1096551E+00
         -2   -1    0    0    0  501 -0.00000000000E+00  0.00000000000E+00  0.17266879534E+03  0.17266879534E+03  0.00000000000E+00 0. -1.
          2   -1    0    0  501    0  0.00000000000E+00 -0.00000000000E+00 -0.11223989379E+03  0.11223989379E+03  0.00000000000E+00 0. -1.
         35    2    1    2    0    0  0.00000000000E+00  0.00000000000E+00  0.60428901548E+02  0.28490868913E+03  0.27842648760E+03 0.  0.
         25    2    3    3    0    0 -0.51072818198E+02 -0.19094637791E+02  0.56450797512E+02  0.14750925187E+03  0.12489695312E+03 0.  0.
         25    2    3    3    0    0  0.51072818198E+02  0.19094637791E+02  0.39781040363E+01  0.13739943725E+03  0.12605452033E+03 0.  0.
          5    1    4    4  502    0 -0.94224619800E+01 -0.35019296726E+02 -0.31838900683E+02  0.48486488114E+02  0.47000000000E+01 0. -1.
         -5    1    4    4    0  502 -0.41650356218E+02  0.15924658935E+02  0.88289698196E+02  0.99022763760E+02  0.47000000000E+01 0. -1.
          5    1    5    5  503    0  0.25022969064E+02  0.68395189341E+01  0.64792835318E+02  0.69950907847E+02  0.47000000000E+01 0. -1.
         -5    1    5    5    0  503  0.26049849134E+02  0.12255118857E+02 -0.60814731282E+02  0.67448529406E+02  0.47000000000E+01 0. -1.
<mgrwt>
<rscale>  0 0.27842649E+03</rscale>
<asrwt>0</asrwt>
<pdfrwt beam="1">  1        2 0.17267676E-01 0.27842649E+03</pdfrwt>
<pdfrwt beam="2">  1       -2 0.26564430E-01 0.27842649E+03</pdfrwt>
<totfact> 0.41818321E+03</totfact>
</mgrwt>
</event>
<event>
 9    1  0.7986988E-001  0.2758672E+03  0.7818608E-02  0.1097968E+00
          1   -1    0    0  501    0  0.00000000000E+00  0.00000000000E+00  0.30079120216E+02  0.30079120216E+02  0.00000000000E+00 0. -1.
         -1   -1    0    0    0  501 -0.00000000000E+00 -0.00000000000E+00 -0.63252125182E+03  0.63252125182E+03  0.00000000000E+00 0. -1.
         35    2    1    2    0    0  0.00000000000E+00  0.35527136788E-14 -0.60244213161E+03  0.66260037204E+03  0.27586723454E+03 0.  0.
         25    2    3    3    0    0  0.18903270900E+02 -0.16138568582E+02 -0.42955881625E+03  0.44803147006E+03  0.12487447500E+03 0.  0.
         25    2    3    3    0    0 -0.18903270900E+02  0.16138568582E+02 -0.17288331536E+03  0.21456890198E+03  0.12463300493E+03 0.  0.
          5    1    4    4  502    0 -0.47527998755E+02 -0.36256059150E+01 -0.91819551863E+02  0.10356145899E+03  0.47000000000E+01 0.  1.
         -5    1    4    4    0  502  0.66431269654E+02 -0.12512962668E+02 -0.33773926438E+03  0.34447001107E+03  0.47000000000E+01 0.  1.
          5    1    5    5  503    0 -0.23084862505E+01 -0.28670465469E+02 -0.16295317149E+03  0.16553897064E+03  0.47000000000E+01 0. -1.
         -5    1    5    5    0  503 -0.16594784649E+02  0.44809034052E+02 -0.99301438682E+01  0.49029931343E+02  0.47000000000E+01 0. -1.
<mgrwt>
<rscale>  0 0.27586723E+03</rscale>
<asrwt>0</asrwt>
<pdfrwt beam="1">  1        1 0.46275570E-02 0.27586723E+03</pdfrwt>
<pdfrwt beam="2">  1       -1 0.97310960E-01 0.27586723E+03</pdfrwt>
<totfact> 0.19839666E+03</totfact>
</mgrwt>
</event>
<event>
 9    1  0.7986988E-001  0.2579970E+03  0.7818608E-02  0.1108353E+00
         -4   -1    0    0    0  501 -0.00000000000E+00  0.00000000000E+00  0.31947730839E+03  0.31947730839E+03  0.00000000000E+00 0.  1.
          4   -1    0    0  501    0  0.00000000000E+00 -0.00000000000E+00 -0.52087009742E+02  0.52087009742E+02  0.00000000000E+00 0.  1.
         35    2    1    2    0    0 -0.35527136788E-14  0.00000000000E+00  0.26739029865E+03  0.37156431813E+03  0.25799703622E+03 0.  0.
         25    2    3    3    0    0  0.24241821658E+02 -0.11857568085E+02  0.10692671395E+03  0.16633522716E+03  0.12452235864E+03 0.  0.
         25    2    3    3    0    0 -0.24241821658E+02  0.11857568085E+02  0.16046358470E+03  0.20522909097E+03  0.12506858090E+03 0.  0.
          5    1    4    4  502    0  0.26017487061E+02  0.51938189921E+02  0.27803150522E+02  0.64572365484E+02  0.47000000000E+01 0. -1.
         -5    1    4    4    0  502 -0.17756654026E+01 -0.63795758006E+02  0.79123563425E+02  0.10176286167E+03  0.47000000000E+01 0. -1.
          5    1    5    5  503    0  0.17776330815E+02 -0.45401997300E+02  0.10187524735E+03  0.11303979529E+03  0.47000000000E+01 0.  1.
         -5    1    5    5    0  503 -0.42018152473E+02  0.57259565385E+02  0.58588337350E+02  0.92189295684E+02  0.47000000000E+01 0.  1.
<mgrwt>
<rscale>  0 0.25799704E+03</rscale>
<asrwt>0</asrwt>
<pdfrwt beam="1">  1        4 0.80133863E-02 0.25799704E+03</pdfrwt>
<pdfrwt beam="2">  1       -4 0.49150354E-01 0.25799704E+03</pdfrwt>
<totfact> 0.82214051E+02</totfact>
</mgrwt>
</event>
<event>
 9    1  0.7986988E-001  0.2756746E+03  0.7818608E-02  0.1098075E+00
         -4   -1    0    0    0  501 -0.00000000000E+00  0.00000000000E+00  0.56190574630E+02  0.56190574630E+02  0.00000000000E+00 0. -1.
          4   -1    0    0  501    0  0.00000000000E+00 -0.00000000000E+00 -0.33811942478E+03  0.33811942478E+03  0.00000000000E+00 0. -1.
         35    2    1    2    0    0  0.35527136788E-14  0.71054273576E-14 -0.28192885015E+03  0.39430999941E+03  0.27567462540E+03 0.  0.
         25    2    3    3    0    0 -0.52328371539E+01 -0.59309599796E+02 -0.13424992941E+03  0.19218399076E+03  0.12396221821E+03 0.  0.
         25    2    3    3    0    0  0.52328371539E+01  0.59309599796E+02 -0.14767892074E+03  0.20212600865E+03  0.12450240371E+03 0.  0.
          5    1    4    4  502    0  0.46660152868E+02 -0.20986362249E+01 -0.93744385020E+02  0.10484118400E+03  0.47000000000E+01 0. -1.
         -5    1    4    4    0  502 -0.51892990022E+02 -0.57210963571E+02 -0.40505544393E+02  0.87342806760E+02  0.47000000000E+01 0. -1.
          5    1    5    5  503    0 -0.13875943395E+02 -0.32978576007E+02 -0.74266783739E+02  0.82569809540E+02  0.47000000000E+01 0.  1.
         -5    1    5    5    0  503  0.19108780549E+02  0.92288175803E+02 -0.73412136999E+02  0.11955619911E+03  0.47000000000E+01 0.  1.
<mgrwt>
<rscale>  0 0.27567463E+03</rscale>
<asrwt>0</asrwt>
<pdfrwt beam="1">  1        4 0.52018373E-01 0.27567463E+03</pdfrwt>
<pdfrwt beam="2">  1       -4 0.86447038E-02 0.27567463E+03</pdfrwt>
<totfact> 0.65025604E+02</totfact>
</mgrwt>
</event>
<event>
 9    1  0.7986988E-001  0.2744803E+03  0.7818608E-02  0.1098742E+00
         -2   -1    0    0    0  501 -0.00000000000E+00  0.00000000000E+00  0.11265661325E+04  0.11265661325E+04  0.00000000000E+00 0. -1.
          2   -1    0    0  501    0  0.00000000000E+00 -0.00000000000E+00 -0.16718821490E+02  0.16718821490E+02  0.00000000000E+00 0. -1.
         35    2    1    2    0    0 -0.71054273576E-14 -0.71054273576E-14  0.11098473111E+04  0.11432849540E+04  0.27448029486E+03 0.  0.
         25    2    3    3    0    0  0.11599261309E+02  0.49259199336E+02  0.66944290424E+03  0.68289947952E+03  0.12504753295E+03 0.  0.
         25    2    3    3    0    0 -0.11599261309E+02 -0.49259199336E+02  0.44040440681E+03  0.46038547452E+03  0.12424867013E+03 0.  0.
          5    1    4    4  502    0 -0.55349470138E+02  0.81152335306E+01  0.28689332634E+03  0.29233421209E+03  0.47000000000E+01 0. -1.
         -5    1    4    4    0  502  0.66948731447E+02  0.41143965805E+02  0.38254957791E+03  0.39056526743E+03  0.47000000000E+01 0. -1.
          5    1    5    5  503    0  0.39798909900E+02  0.20149212574E+02  0.19783002955E+03  0.20285155802E+03  0.47000000000E+01 0. -1.
         -5    1    5    5    0  503 -0.51398171209E+02 -0.69408411910E+02  0.24257437725E+03  0.25753391650E+03  0.47000000000E+01 0. -1.
<mgrwt>
<rscale>  0 0.27448029E+03</rscale>
<asrwt>0</asrwt>
<pdfrwt beam="1">  1        2 0.25721273E-02 0.27448029E+03</pdfrwt>
<pdfrwt beam="2">  1       -2 0.17331781E+00 0.27448029E+03</pdfrwt>
<totfact> 0.83571556E+02</totfact>
</mgrwt>
</event>
<event>
 9    1  0.7986988E-001  0.2751555E+03  0.7818608E-02  0.1098365E+00
         -3   -1    0    0    0  501 -0.00000000000E+00  0.00000000000E+00  0.15934289038E+03  0.15934289038E+03  0.00000000000E+00 0.  1.
          3   -1    0    0  501    0  0.00000000000E+00 -0.00000000000E+00 -0.11878558328E+03  0.11878558328E+03  0.00000000000E+00 0.  1.
         35    2    1    2    0    0  0.00000000000E+00  0.00000000000E+00  0.40557307102E+02  0.27812847367E+03  0.27515550640E+03 0.  0.
         25    2    3    3    0    0  0.16336149054E+02  0.51271863734E+02  0.52522810752E+02  0.14416652257E+03  0.12300271056E+03 0.  0.
         25    2    3    3    0    0 -0.16336149054E+02 -0.51271863734E+02 -0.11965503649E+02  0.13396195110E+03  0.12209405099E+03 0.  0.
          5    1    4    4  502    0 -0.22297476405E+02 -0.15500488542E+02 -0.23157110553E+02  0.35997004990E+02  0.47000000000E+01 0.  1.
         -5    1    4    4    0  502  0.38633625459E+02  0.66772352276E+02  0.75679921305E+02  0.10816951758E+03  0.47000000000E+01 0.  1.
          5    1    5    5  503    0  0.32227789003E+02 -0.14720795037E+02  0.40153723902E+02  0.53756336685E+02  0.47000000000E+01 0.  1.
         -5    1    5    5    0  503 -0.48563938057E+02 -0.36551068698E+02 -0.52119227552E+02  0.80205614411E+02  0.47000000000E+01 0.  1.
<mgrwt>
<rscale>  0 0.27515551E+03</rscale>
<asrwt>0</asrwt>
<pdfrwt beam="1">  1        3 0.18274705E-01 0.27515551E+03</pdfrwt>
<pdfrwt beam="2">  1       -3 0.24514291E-01 0.27515551E+03</pdfrwt>
<totfact> 0.10422963E+03</totfact>
</mgrwt>
</event>
<event>
 9    1  0.7986988E-001  0.2755864E+03  0.7818608E-02  0.1098124E+00
          2   -1    0    0  501    0  0.00000000000E+00  0.00000000000E+00  0.40006974897E+04  0.40006974897E+04  0.00000000000E+00 0. -1.
         -2   -1    0    0    0  501 -0.00000000000E+00 -0.00000000000E+00 -0.47459132478E+01  0.47459132478E+01  0.00000000000E+00 0. -1.
         35    2    1    2    0    0  0.00000000000E+00  0.00000000000E+00  0.39959515765E+04  0.40054434030E+04  0.27558638005E+03 0.  0.
         25    2    3    3    0    0 -0.31158317940E+01  0.56760814533E+02  0.19134393951E+04  0.19184155426E+04  0.12584266768E+03 0.  0.
         25    2    3    3    0    0  0.31158317940E+01 -0.56760814533E+02  0.20825121814E+04  0.20870278604E+04  0.12488717223E+03 0.  0.
          5    1    4    4  502    0  0.39651335376E+02 -0.44767455741E+01  0.12704578278E+04  0.12710930147E+04  0.47000000000E+01 0.  1.
         -5    1    4    4    0  502 -0.42767167170E+02  0.61237560108E+02  0.64298156726E+03  0.64732252795E+03  0.47000000000E+01 0.  1.
          5    1    5    5  503    0 -0.31047124985E+02  0.29600917486E+02  0.78722076084E+03  0.78840266018E+03  0.47000000000E+01 0.  1.
         -5    1    5    5    0  503  0.34162956779E+02 -0.86361732019E+02  0.12952914206E+04  0.12986252002E+04  0.47000000000E+01 0.  1.
<mgrwt>
<rscale>  0 0.27558638E+03</rscale>
<asrwt>0</asrwt>
<pdfrwt beam="1">  1        2 0.61548922E+00 0.27558638E+03</pdfrwt>
<pdfrwt beam="2">  1       -2 0.73014370E-03 0.27558638E+03</pdfrwt>
<totfact> 0.15025683E+03</totfact>
</mgrwt>
</event>
<event>
 9    1  0.7986988E-001  0.2728906E+03  0.7818608E-02  0.1099637E+00
          1   -1    0    0  501    0  0.00000000000E+00  0.00000000000E+00  0.13031819361E+04  0.13031819361E+04  0.00000000000E+00 0. -1.
         -1   -1    0    0    0  501 -0.00000000000E+00 -0.00000000000E+00 -0.14286051441E+02  0.14286051441E+02  0.00000000000E+00 0. -1.
         35    2    1    2    0    0  0.14210854715E-13  0.00000000000E+00  0.12888958847E+04  0.13174679876E+04  0.27289063140E+03 0.  0.
         25    2    3    3    0    0  0.48259799681E+02 -0.21608030670E+02  0.74158105332E+03  0.75368768174E+03  0.12372044176E+03 0.  0.
         25    2    3    3    0    0 -0.48259799681E+02  0.21608030670E+02  0.54731483137E+03  0.56378030583E+03  0.12449414986E+03 0.  0.
          5    1    4    4  502    0 -0.20120348743E+02  0.38223702144E+02  0.25436303517E+03  0.25804752179E+03  0.47000000000E+01 0. -1.
         -5    1    4    4    0  502  0.68380148424E+02 -0.59831732814E+02  0.48721801814E+03  0.49564015995E+03  0.47000000000E+01 0. -1.
          5    1    5    5  503    0  0.28517232676E+01 -0.58365233682E+01 -0.43034586681E+01  0.90998399508E+01  0.47000000000E+01 0.  1.
         -5    1    5    5    0  503 -0.51111522948E+02  0.27444554038E+02  0.55161829004E+03  0.55468046588E+03  0.47000000000E+01 0.  1.
<mgrwt>
<rscale>  0 0.27289063E+03</rscale>
<asrwt>0</asrwt>
<pdfrwt beam="1">  1        1 0.20048943E+00 0.27289063E+03</pdfrwt>
<pdfrwt beam="2">  1       -1 0.21978551E-02 0.27289063E+03</pdfrwt>
<totfact> 0.57959043E+03</totfact>
</mgrwt>
</event>
<event>
 9    1  0.7986988E-001  0.2727071E+03  0.7818608E-02  0.1099740E+00
         -2   -1    0    0    0  501 -0.00000000000E+00  0.00000000000E+00  0.49817350588E+01  0.49817350588E+01  0.00000000000E+00 0.  1.
          2   -1    0    0  501    0  0.00000000000E+00 -0.00000000000E+00 -0.37320901636E+04  0.37320901636E+04  0.00000000000E+00 0.  1.
         35    2    1    2    0    0  0.00000000000E+00  0.00000000000E+00 -0.37271084285E+04  0.37370718986E+04  0.27270705462E+03 0.  0.
         25    2    3    3    0    0  0.35309157797E+02  0.17989526965E+01 -0.23910642137E+04  0.23946426750E+04  0.12599799115E+03 0.  0.
         25    2    3    3    0    0 -0.35309157797E+02 -0.17989526965E+01 -0.13360442148E+04  0.13424292237E+04  0.12590513816E+03 0.  0.
          5    1    4    4  502    0  0.47095049080E+02  0.39288356215E+02 -0.60071476914E+03  0.60385581263E+03  0.47000000000E+01 0.  1.
         -5    1    4    4    0  502 -0.11785891283E+02 -0.37489403519E+02 -0.17903494446E+04  0.17907868623E+04  0.47000000000E+01 0.  1.
          5    1    5    5  503    0 -0.61739231608E+02 -0.13865809924E+02 -0.33521737457E+03  0.34116971088E+03  0.47000000000E+01 0.  1.
         -5    1    5    5    0  503  0.26430073811E+02  0.12066857227E+02 -0.10008268402E+04  0.10012595128E+04  0.47000000000E+01 0.  1.
<mgrwt>
<rscale>  0 0.27270705E+03</rscale>
<asrwt>0</asrwt>
<pdfrwt beam="1">  1        2 0.57416806E+00 0.27270705E+03</pdfrwt>
<pdfrwt beam="2">  1       -2 0.76642033E-03 0.27270705E+03</pdfrwt>
<totfact> 0.22082359E+03</totfact>
</mgrwt>
</event>
<event>
 9    1  0.7986988E-001  0.2640446E+03  0.7818608E-02  0.1104737E+00
          2   -1    0    0  501    0  0.00000000000E+00  0.00000000000E+00  0.66300401354E+03  0.66300401354E+03  0.00000000000E+00 0. -1.
         -2   -1    0    0    0  501 -0.00000000000E+00 -0.00000000000E+00 -0.26289260698E+02  0.26289260698E+02  0.00000000000E+00 0. -1.
         35    2    1    2    0    0  0.71054273576E-14  0.71054273576E-14  0.63671475284E+03  0.68929327424E+03  0.26404458226E+03 0.  0.
         25    2    3    3    0    0 -0.30148567166E+02 -0.25254123472E+02  0.33581161560E+03  0.36048863641E+03  0.12504362821E+03 0.  0.
         25    2    3    3    0    0  0.30148567166E+02  0.25254123472E+02  0.30090313724E+03  0.32880463782E+03  0.12658232498E+03 0.  0.
          5    1    4    4  502    0  0.32697545290E+02 -0.51122039003E+02  0.12673006403E+03  0.14058873166E+03  0.47000000000E+01 0.  1.
         -5    1    4    4    0  502 -0.62846112456E+02  0.25867915531E+02  0.20908155157E+03  0.21989990476E+03  0.47000000000E+01 0.  1.
          5    1    5    5  503    0 -0.21740835375E+02  0.35959908450E+02  0.25519130404E+03  0.25867058316E+03  0.47000000000E+01 0. -1.
         -5    1    5    5    0  503  0.51889402541E+02 -0.10705784979E+02  0.45711833205E+02  0.70134054660E+02  0.47000000000E+01 0. -1.
<mgrwt>
<rscale>  0 0.26404458E+03</rscale>
<asrwt>0</asrwt>
<pdfrwt beam="1">  1        2 0.10200060E+00 0.26404458E+03</pdfrwt>
<pdfrwt beam="2">  1       -2 0.40445021E-02 0.26404458E+03</pdfrwt>
<totfact> 0.12030926E+04</totfact>
</mgrwt>
</event>
<event>
 9    1  0.7986988E-001  0.2739505E+03  0.7818608E-02  0.1099040E+00
         -2   -1    0    0    0  501 -0.00000000000E+00  0.00000000000E+00  0.10525911481E+02  0.10525911481E+02  0.00000000000E+00 0. -1.
          2   -1    0    0  501    0  0.00000000000E+00 -0.00000000000E+00 -0.17824797160E+04  0.17824797160E+04  0.00000000000E+00 0. -1.
         35    2    1    2    0    0 -0.14210854715E-13  0.00000000000E+00 -0.17719538045E+04  0.17930056275E+04  0.27395053354E+03 0.  0.
         25    2    3    3    0    0 -0.39099909494E+02 -0.23239596463E+02 -0.67729871733E+03  0.69022053860E+03  0.12490779660E+03 0.  0.
         25    2    3    3    0    0  0.39099909494E+02  0.23239596463E+02 -0.10946550872E+04  0.11027850889E+04  0.12568337428E+03 0.  0.
          5    1    4    4  502    0  0.80172455237E+01 -0.54408215098E+02 -0.14910492892E+03  0.15899339585E+03  0.47000000000E+01 0. -1.
         -5    1    4    4    0  502 -0.47117155018E+02  0.31168618635E+02 -0.52819378841E+03  0.53122714275E+03  0.47000000000E+01 0. -1.
          5    1    5    5  503    0  0.62265717706E+02 -0.24667326942E+02 -0.36117467817E+03  0.36736185808E+03  0.47000000000E+01 0. -1.
         -5    1    5    5    0  503 -0.23165808212E+02  0.47906923405E+02 -0.73348040901E+03  0.73542323079E+03  0.47000000000E+01 0. -1.
<mgrwt>
<rscale>  0 0.27395053E+03</rscale>
<asrwt>0</asrwt>
<pdfrwt beam="1">  1        2 0.27422772E+00 0.27395053E+03</pdfrwt>
<pdfrwt beam="2">  1       -2 0.16193706E-02 0.27395053E+03</pdfrwt>
<totfact> 0.10193254E+04</totfact>
</mgrwt>
</event>
<event>
 9    1  0.7986988E-001  0.2742948E+03  0.7818608E-02  0.1098846E+00
         -3   -1    0    0    0  501 -0.00000000000E+00  0.00000000000E+00  0.45048999918E+02  0.45048999918E+02  0.00000000000E+00 0. -1.
          3   -1    0    0  501    0  0.00000000000E+00 -0.00000000000E+00 -0.41753229946E+03  0.41753229946E+03  0.00000000000E+00 0. -1.
         35    2    1    2    0    0 -0.14210854715E-13 -0.35527136788E-14 -0.37248329954E+03  0.46258129937E+03  0.27429482331E+03 0.  0.
         25    2    3    3    0    0  0.55208694165E+02 -0.63727363562E+01 -0.19495152437E+03  0.23843645124E+03  0.12552781662E+03 0.  0.
         25    2    3    3    0    0 -0.55208694165E+02  0.63727363562E+01 -0.17753177516E+03  0.22414484813E+03  0.12503907417E+03 0.  0.
          5    1    4    4  502    0  0.52104011277E+02  0.44003217717E+02 -0.16722684547E+03  0.18065995408E+03  0.47000000000E+01 0. -1.
         -5    1    4    4    0  502  0.31046828881E+01 -0.50375954073E+02 -0.27724678903E+02  0.57776497167E+02  0.47000000000E+01 0. -1.
          5    1    5    5  503    0 -0.58428222980E+02 -0.10949857056E+02 -0.16208904442E+02  0.61794621071E+02  0.47000000000E+01 0. -1.
         -5    1    5    5    0  503  0.32195288145E+01  0.17322593413E+02 -0.16132287072E+03  0.16235022706E+03  0.47000000000E+01 0. -1.
<mgrwt>
<rscale>  0 0.27429482E+03</rscale>
<asrwt>0</asrwt>
<pdfrwt beam="1">  1        3 0.64235739E-01 0.27429482E+03</pdfrwt>
<pdfrwt beam="2">  1       -3 0.69306153E-02 0.27429482E+03</pdfrwt>
<totfact> 0.81830492E+02</totfact>
</mgrwt>
</event>
<event>
 9    1  0.7986988E-001  0.2744188E+03  0.7818608E-02  0.1098777E+00
          1   -1    0    0  501    0  0.00000000000E+00  0.00000000000E+00  0.60648681432E+02  0.60648681432E+02  0.00000000000E+00 0. -1.
         -1   -1    0    0    0  501 -0.00000000000E+00 -0.00000000000E+00 -0.31041751760E+03  0.31041751760E+03  0.00000000000E+00 0. -1.
         35    2    1    2    0    0  0.00000000000E+00  0.00000000000E+00 -0.24976883617E+03  0.37106619903E+03  0.27441875399E+03 0.  0.
         25    2    3    3    0    0  0.97709971398E+01 -0.13825207865E+02 -0.20419099292E+03  0.23789326278E+03  0.12088272883E+03 0.  0.
         25    2    3    3    0    0 -0.97709971398E+01  0.13825207865E+02 -0.45577843249E+02  0.13317293625E+03  0.12398016937E+03 0.  0.
          5    1    4    4  502    0 -0.34882542530E+02  0.37608953111E+02 -0.65683981540E+02  0.83472753389E+02  0.47000000000E+01 0. -1.
         -5    1    4    4    0  502  0.44653539670E+02 -0.51434160976E+02 -0.13850701138E+03  0.15442050939E+03  0.47000000000E+01 0. -1.
          5    1    5    5  503    0 -0.47132914033E+02 -0.32063126419E+01 -0.70437830823E+02  0.84943334271E+02  0.47000000000E+01 0.  1.
         -5    1    5    5    0  503  0.37361916894E+02  0.17031520507E+02  0.24859987574E+02  0.48229601978E+02  0.47000000000E+01 0.  1.
<mgrwt>
<rscale>  0 0.27441875E+03</rscale>
<asrwt>0</asrwt>
<pdfrwt beam="1">  1        1 0.93305664E-02 0.27441875E+03</pdfrwt>
<pdfrwt beam="2">  1       -1 0.47756541E-01 0.27441875E+03</pdfrwt>
<totfact> 0.31404751E+03</totfact>
</mgrwt>
</event>
<event>
 9    1  0.7986988E-001  0.2803667E+03  0.7818608E-02  0.1095489E+00
         -3   -1    0    0    0  501 -0.00000000000E+00  0.00000000000E+00  0.18302623958E+03  0.18302623958E+03  0.00000000000E+00 0. -1.
          3   -1    0    0  501    0  0.00000000000E+00 -0.00000000000E+00 -0.10736914437E+03  0.10736914437E+03  0.00000000000E+00 0. -1.
         35    2    1    2    0    0 -0.28421709430E-13  0.00000000000E+00  0.75657095208E+02  0.29039538396E+03  0.28036669376E+03 0.  0.
         25    2    3    3    0    0  0.61020516129E+02  0.14379272522E+01  0.46405096449E+02  0.14734656303E+03  0.12582529808E+03 0.  0.
         25    2    3    3    0    0 -0.61020516129E+02 -0.14379272522E+01  0.29251998759E+02  0.14304882093E+03  0.12602267540E+03 0.  0.
          5    1    4    4  502    0  0.78988036620E+02  0.45349052668E+02  0.38604233069E+02  0.99035464950E+02  0.47000000000E+01 0. -1.
         -5    1    4    4    0  502 -0.17967520491E+02 -0.43911125416E+02  0.78008633809E+01  0.48311098076E+02  0.47000000000E+01 0. -1.
          5    1    5    5  503    0  0.21478649716E+02  0.20304053427E+02 -0.27361252865E+02  0.40550155826E+02  0.47000000000E+01 0. -1.
         -5    1    5    5    0  503 -0.82499165845E+02 -0.21741980679E+02  0.56613251624E+02  0.10249866511E+03  0.47000000000E+01 0. -1.
<mgrwt>
<rscale>  0 0.28036669E+03</rscale>
<asrwt>0</asrwt>
<pdfrwt beam="1">  1        3 0.16518330E-01 0.28036669E+03</pdfrwt>
<pdfrwt beam="2">  1       -3 0.28157883E-01 0.28036669E+03</pdfrwt>
<totfact> 0.96656819E+02</totfact>
</mgrwt>
</event>
<event>
 9    1  0.7986988E-001  0.2755328E+03  0.7818608E-02  0.1098154E+00
         -2   -1    0    0    0  501 -0.00000000000E+00  0.00000000000E+00  0.34661271736E+02  0.34661271736E+02  0.00000000000E+00 0.  1.
          2   -1    0    0  501    0  0.00000000000E+00 -0.00000000000E+00 -0.54757323403E+03  0.54757323403E+03  0.00000000000E+00 0.  1.
         35    2    1    2    0    0  0.00000000000E+00 -0.88817841970E-15 -0.51291196230E+03  0.58223450577E+03  0.27553282679E+03 0.  0.
         25    2    3    3    0    0 -0.24151014339E+02  0.27245005341E+01 -0.14375463704E+03  0.19181595414E+03  0.12464858682E+03 0.  0.
         25    2    3    3    0    0  0.24151014339E+02 -0.27245005341E+01 -0.36915732526E+03  0.39041855163E+03  0.12473500016E+03 0.  0.
          5    1    4    4  502    0  0.36754009842E+02 -0.14520946932E+02 -0.61395488871E+01  0.40267843248E+02  0.47000000000E+01 0.  1.
         -5    1    4    4    0  502 -0.60905024182E+02  0.17245447466E+02 -0.13761508815E+03  0.15154811089E+03  0.47000000000E+01 0.  1.
          5    1    5    5  503    0  0.14050567648E+02  0.40412272354E+01  0.49110071285E+01  0.16123211834E+02  0.47000000000E+01 0. -1.
         -5    1    5    5    0  503  0.10100446691E+02 -0.67657277695E+01 -0.37406833239E+03  0.37429533979E+03  0.47000000000E+01 0. -1.
<mgrwt>
<rscale>  0 0.27553283E+03</rscale>
<asrwt>0</asrwt>
<pdfrwt beam="1">  1        2 0.84242032E-01 0.27553283E+03</pdfrwt>
<pdfrwt beam="2">  1       -2 0.53325036E-02 0.27553283E+03</pdfrwt>
<totfact> 0.99054274E+03</totfact>
</mgrwt>
</event>
<event>
 9    1  0.7986988E-001  0.2866933E+03  0.7818608E-02  0.1092088E+00
         -3   -1    0    0    0  501 -0.00000000000E+00  0.00000000000E+00  0.49930471541E+02  0.49930471541E+02  0.00000000000E+00 0.  1.
          3   -1    0    0  501    0  0.00000000000E+00 -0.00000000000E+00 -0.41153746342E+03  0.41153746342E+03  0.00000000000E+00 0.  1.
         35    2    1    2    0    0  0.71054273576E-14 -0.35527136788E-14 -0.36160699188E+03  0.46146793496E+03  0.28669328283E+03 0.  0.
         25    2    3    3    0    0 -0.20076539568E+01 -0.25904730922E+02 -0.92990366036E+02  0.16435221604E+03  0.13300134203E+03 0.  0.
         25    2    3    3    0    0  0.20076539568E+01  0.25904730922E+02 -0.26861662584E+03  0.29711571892E+03  0.12428907029E+03 0.  0.
          5    1    4    4  502    0 -0.39939405600E+02  0.20238171841E+02  0.91442186750E+01  0.45939595714E+02  0.47000000000E+01 0.  1.
         -5    1    4    4    0  502  0.37931751643E+02 -0.46142902764E+02 -0.10213458471E+03  0.11841262032E+03  0.47000000000E+01 0.  1.
          5    1    5    5  503    0  0.58880955943E+02 -0.52318003077E+01 -0.98135965198E+02  0.11466078830E+03  0.47000000000E+01 0.  1.
         -5    1    5    5    0  503 -0.56873301986E+02  0.31136531230E+02 -0.17048066064E+03  0.18245493063E+03  0.47000000000E+01 0.  1.
<mgrwt>
<rscale>  0 0.28669328E+03</rscale>
<asrwt>0</asrwt>
<pdfrwt beam="1">  1        3 0.63313455E-01 0.28669328E+03</pdfrwt>
<pdfrwt beam="2">  1       -3 0.76816112E-02 0.28669328E+03</pdfrwt>
<totfact> 0.71623110E+02</totfact>
</mgrwt>
</event>
<event>
 9    1  0.7986988E-001  0.2755439E+03  0.7818608E-02  0.1098148E+00
         -1   -1    0    0    0  501 -0.00000000000E+00  0.00000000000E+00  0.14225575146E+03  0.14225575146E+03  0.00000000000E+00 0.  1.
          1   -1    0    0  501    0  0.00000000000E+00 -0.00000000000E+00 -0.13342950517E+03  0.13342950517E+03  0.00000000000E+00 0.  1.
         35    2    1    2    0    0 -0.71054273576E-14  0.14210854715E-13  0.88262462826E+01  0.27568525663E+03  0.27554393134E+03 0.  0.
         25    2    3    3    0    0 -0.24775640450E+02  0.55970431242E+02  0.28426704058E+01  0.13570428942E+03  0.12108283057E+03 0.  0.
         25    2    3    3    0    0  0.24775640450E+02 -0.55970431242E+02  0.59835758769E+01  0.13998096721E+03  0.12574715292E+03 0.  0.
          5    1    4    4  502    0  0.30686746721E+02  0.59416145709E+02 -0.27215990727E+02  0.72351606385E+02  0.47000000000E+01 0.  1.
         -5    1    4    4    0  502 -0.55462387171E+02 -0.34457144671E+01  0.30058661132E+02  0.63352683037E+02  0.47000000000E+01 0.  1.
          5    1    5    5  503    0 -0.49453643876E+02 -0.29116961471E+02 -0.12156134843E+02  0.58849995346E+02  0.47000000000E+01 0.  1.
         -5    1    5    5    0  503  0.74229284326E+02 -0.26853469771E+02  0.18139710720E+02  0.81130971863E+02  0.47000000000E+01 0.  1.
<mgrwt>
<rscale>  0 0.27554393E+03</rscale>
<asrwt>0</asrwt>
<pdfrwt beam="1">  1        1 0.20527616E-01 0.27554393E+03</pdfrwt>
<pdfrwt beam="2">  1       -1 0.21885500E-01 0.27554393E+03</pdfrwt>
<totfact> 0.42645910E+03</totfact>
</mgrwt>
</event>
<event>
 9    1  0.7986988E-001  0.2758578E+03  0.7818608E-02  0.1097973E+00
         -1   -1    0    0    0  501 -0.00000000000E+00  0.00000000000E+00  0.89825941825E+01  0.89825941825E+01  0.00000000000E+00 0. -1.
          1   -1    0    0  501    0  0.00000000000E+00 -0.00000000000E+00 -0.21179167534E+04  0.21179167534E+04  0.00000000000E+00 0. -1.
         35    2    1    2    0    0  0.17763568394E-14  0.00000000000E+00 -0.21089341592E+04  0.21268993476E+04  0.27585783808E+03 0.  0.
         25    2    3    3    0    0 -0.60899212396E+01  0.33003800402E+02 -0.69733671312E+03  0.70940245069E+03  0.12588489822E+03 0.  0.
         25    2    3    3    0    0  0.60899212396E+01 -0.33003800402E+02 -0.14115974461E+04  0.14174968969E+04  0.12475481910E+03 0.  0.
          5    1    4    4  502    0 -0.28250251139E+02  0.75733766436E+02 -0.39387871872E+03  0.40211467908E+03  0.47000000000E+01 0. -1.
         -5    1    4    4    0  502  0.22160329899E+02 -0.42729966034E+02 -0.30345799440E+03  0.30728777161E+03  0.47000000000E+01 0. -1.
          5    1    5    5  503    0 -0.43162010442E+01  0.36926564571E+02 -0.92591611768E+03  0.92667413245E+03  0.47000000000E+01 0. -1.
         -5    1    5    5    0  503  0.10406122284E+02 -0.69930364973E+02 -0.48568132842E+03  0.49082276445E+03  0.47000000000E+01 0. -1.
<mgrwt>
<rscale>  0 0.27585784E+03</rscale>
<asrwt>0</asrwt>
<pdfrwt beam="1">  1        1 0.32583370E+00 0.27585784E+03</pdfrwt>
<pdfrwt beam="2">  1       -1 0.13819361E-02 0.27585784E+03</pdfrwt>
<totfact> 0.33253884E+03</totfact>
</mgrwt>
</event>
<event>
 9    1  0.7986988E-001  0.2744128E+03  0.7818608E-02  0.1098780E+00
          1   -1    0    0  501    0  0.00000000000E+00  0.00000000000E+00  0.21808863278E+03  0.21808863278E+03  0.00000000000E+00 0. -1.
         -1   -1    0    0    0  501 -0.00000000000E+00 -0.00000000000E+00 -0.86320822682E+02  0.86320822682E+02  0.00000000000E+00 0. -1.
         35    2    1    2    0    0  0.00000000000E+00  0.00000000000E+00  0.13176781010E+03  0.30440945546E+03  0.27441275626E+03 0.  0.
         25    2    3    3    0    0  0.56100679950E+02 -0.25050648402E+02  0.52976997553E+02  0.14420148641E+03  0.11921696665E+03 0.  0.
         25    2    3    3    0    0 -0.56100679950E+02  0.25050648402E+02  0.78790812542E+02  0.16020796904E+03  0.12523489900E+03 0.  0.
          5    1    4    4  502    0  0.42386635021E+02 -0.10515783690E+02  0.90968901650E+02  0.10101801623E+03  0.47000000000E+01 0.  1.
         -5    1    4    4    0  502  0.13714044929E+02 -0.14534864712E+02 -0.37991904097E+02  0.43183470187E+02  0.47000000000E+01 0.  1.
          5    1    5    5  503    0 -0.56076102426E+02  0.66833446429E+02  0.22996817014E+02  0.90344797402E+02  0.47000000000E+01 0.  1.
         -5    1    5    5    0  503 -0.24577524516E-01 -0.41782798026E+02  0.55793995529E+02  0.69863171643E+02  0.47000000000E+01 0.  1.
<mgrwt>
<rscale>  0 0.27441276E+03</rscale>
<asrwt>0</asrwt>
<pdfrwt beam="1">  1        1 0.33552097E-01 0.27441276E+03</pdfrwt>
<pdfrwt beam="2">  1       -1 0.13280127E-01 0.27441276E+03</pdfrwt>
<totfact> 0.50904824E+03</totfact>
</mgrwt>
</event>
<event>
 9    1  0.7986988E-001  0.2738787E+03  0.7818608E-02  0.1099080E+00
          2   -1    0    0  501    0  0.00000000000E+00  0.00000000000E+00  0.89218276361E+03  0.89218276361E+03  0.00000000000E+00 0. -1.
         -2   -1    0    0    0  501 -0.00000000000E+00 -0.00000000000E+00 -0.21018544207E+02  0.21018544207E+02  0.00000000000E+00 0. -1.
         35    2    1    2    0    0  0.35527136788E-14  0.00000000000E+00  0.87116421941E+03  0.91320130782E+03  0.27387868013E+03 0.  0.
         25    2    3    3    0    0 -0.19310068025E+02  0.52711398849E+02  0.37858500771E+03  0.40220475997E+03  0.12365553196E+03 0.  0.
         25    2    3    3    0    0  0.19310068025E+02 -0.52711398849E+02  0.49257921170E+03  0.51099654785E+03  0.12382173406E+03 0.  0.
          5    1    4    4  502    0 -0.13308889206E+02  0.48099700408E+02  0.41708322194E+02  0.65210289460E+02  0.47000000000E+01 0.  1.
         -5    1    4    4    0  502 -0.60011788196E+01  0.46116984410E+01  0.33687668552E+03  0.33699447051E+03  0.47000000000E+01 0.  1.
          5    1    5    5  503    0  0.51346216080E+02 -0.56876440038E+02  0.16717733458E+03  0.18396117670E+03  0.47000000000E+01 0.  1.
         -5    1    5    5    0  503 -0.32036148054E+02  0.41650411886E+01  0.32540187712E+03  0.32703537115E+03  0.47000000000E+01 0.  1.
<mgrwt>
<rscale>  0 0.27387868E+03</rscale>
<asrwt>0</asrwt>
<pdfrwt beam="1">  1        2 0.13725886E+00 0.27387868E+03</pdfrwt>
<pdfrwt beam="2">  1       -2 0.32336229E-02 0.27387868E+03</pdfrwt>
<totfact> 0.11600328E+04</totfact>
</mgrwt>
</event>
<event>
 9    1  0.7986988E-001  0.2764714E+03  0.7818608E-02  0.1097632E+00
          1   -1    0    0  501    0  0.00000000000E+00  0.00000000000E+00  0.32028047938E+03  0.32028047938E+03  0.00000000000E+00 0. -1.
         -1   -1    0    0    0  501 -0.00000000000E+00 -0.00000000000E+00 -0.59663691092E+02  0.59663691092E+02  0.00000000000E+00 0. -1.
         35    2    1    2    0    0  0.00000000000E+00 -0.71054273576E-14  0.26061678829E+03  0.37994417047E+03  0.27647144941E+03 0.  0.
         25    2    3    3    0    0  0.41658692584E+02  0.36250182664E+01  0.18881153325E+03  0.23005576790E+03  0.12460848218E+03 0.  0.
         25    2    3    3    0    0 -0.41658692584E+02 -0.36250182664E+01  0.71805255034E+02  0.14988840257E+03  0.12474754967E+03 0.  0.
          5    1    4    4  502    0  0.31053786695E+01 -0.55161186694E+02  0.11688328558E+03  0.12936843642E+03  0.47000000000E+01 0.  1.
         -5    1    4    4    0  502  0.38553313914E+02  0.58786204961E+02  0.71928247674E+02  0.10068733148E+03  0.47000000000E+01 0.  1.
          5    1    5    5  503    0 -0.67110026860E+01 -0.57507911248E+02  0.61635159401E+02  0.84694629627E+02  0.47000000000E+01 0. -1.
         -5    1    5    5    0  503 -0.34947689898E+02  0.53882892982E+02  0.10170095633E+02  0.65193772942E+02  0.47000000000E+01 0. -1.
<mgrwt>
<rscale>  0 0.27647145E+03</rscale>
<asrwt>0</asrwt>
<pdfrwt beam="1">  1        1 0.49273919E-01 0.27647145E+03</pdfrwt>
<pdfrwt beam="2">  1       -1 0.91790296E-02 0.27647145E+03</pdfrwt>
<totfact> 0.55788708E+03</totfact>
</mgrwt>
</event>
<event>
 9    1  0.7986988E-001  0.2814018E+03  0.7818608E-02  0.1094926E+00
          1   -1    0    0  501    0  0.00000000000E+00  0.00000000000E+00  0.28026706753E+03  0.28026706753E+03  0.00000000000E+00 0. -1.
         -1   -1    0    0    0  501 -0.00000000000E+00 -0.00000000000E+00 -0.70635286524E+02  0.70635286524E+02  0.00000000000E+00 0. -1.
         35    2    1    2    0    0 -0.71054273576E-14 -0.71054273576E-14  0.20963178100E+03  0.35090235405E+03  0.28140180965E+03 0.  0.
         25    2    3    3    0    0  0.45838439291E+02  0.43691411737E+02  0.83389629305E+02  0.16306347473E+03  0.12500305812E+03 0.  0.
         25    2    3    3    0    0 -0.45838439291E+02 -0.43691411737E+02  0.12624215170E+03  0.18783887932E+03  0.12383966143E+03 0.  0.
          5    1    4    4  502    0 -0.27862472638E+02 -0.35172818357E+01 -0.14260547439E+02  0.31845594142E+02  0.47000000000E+01 0. -1.
         -5    1    4    4    0  502  0.73700911929E+02  0.47208693572E+02  0.97650176743E+02  0.13121788059E+03  0.47000000000E+01 0. -1.
          5    1    5    5  503    0  0.37228029775E+02 -0.35022697698E+01  0.93325889718E+01  0.38824983083E+02  0.47000000000E+01 0. -1.
         -5    1    5    5    0  503 -0.83066469066E+02 -0.40189141967E+02  0.11690956273E+03  0.14901389624E+03  0.47000000000E+01 0. -1.
<mgrwt>
<rscale>  0 0.28140181E+03</rscale>
<asrwt>0</asrwt>
<pdfrwt beam="1">  1        1 0.43118010E-01 0.28140181E+03</pdfrwt>
<pdfrwt beam="2">  1       -1 0.10866967E-01 0.28140181E+03</pdfrwt>
<totfact> 0.50861182E+03</totfact>
</mgrwt>
</event>
<event>
 9    1  0.7986988E-001  0.2737804E+03  0.7818608E-02  0.1099135E+00
          4   -1    0    0  501    0  0.00000000000E+00  0.00000000000E+00  0.11483015872E+03  0.11483015872E+03  0.00000000000E+00 0. -1.
         -4   -1    0    0    0  501 -0.00000000000E+00 -0.00000000000E+00 -0.16318825483E+03  0.16318825483E+03  0.00000000000E+00 0. -1.
         35    2    1    2    0    0  0.00000000000E+00  0.00000000000E+00 -0.48358096111E+02  0.27801841354E+03  0.27378044636E+03 0.  0.
         25    2    3    3    0    0  0.96911919565E+01  0.39472790315E+02 -0.66004876469E+02  0.14676114718E+03  0.12462010363E+03 0.  0.
         25    2    3    3    0    0 -0.96911919565E+01 -0.39472790315E+02  0.17646780359E+02  0.13125726636E+03  0.12355177351E+03 0.  0.
          5    1    4    4  502    0  0.23410284348E+02  0.82364552835E+02 -0.41299692116E+02  0.95182538031E+02  0.47000000000E+01 0. -1.
         -5    1    4    4    0  502 -0.13719092391E+02 -0.42891762521E+02 -0.24705184353E+02  0.51578609152E+02  0.47000000000E+01 0. -1.
          5    1    5    5  503    0 -0.61535856508E+02 -0.39833559784E+02  0.27202408293E+02  0.78329018493E+02  0.47000000000E+01 0.  1.
         -5    1    5    5    0  503  0.51844664551E+02  0.36076946961E+00 -0.95556279339E+01  0.52928247867E+02  0.47000000000E+01 0.  1.
<mgrwt>
<rscale>  0 0.27378045E+03</rscale>
<asrwt>0</asrwt>
<pdfrwt beam="1">  1        4 0.17666178E-01 0.27378045E+03</pdfrwt>
<pdfrwt beam="2">  1       -4 0.25105885E-01 0.27378045E+03</pdfrwt>
<totfact> 0.78582160E+02</totfact>
</mgrwt>
</event>
<event>
 9    1  0.7986988E-001  0.2707061E+03  0.7818608E-02  0.1100876E+00
          1   -1    0    0  501    0  0.00000000000E+00  0.00000000000E+00  0.33404881667E+03  0.33404881667E+03  0.00000000000E+00 0. -1.
         -1   -1    0    0    0  501 -0.00000000000E+00 -0.00000000000E+00 -0.54843619715E+02  0.54843619715E+02  0.00000000000E+00 0. -1.
         35    2    1    2    0    0  0.17763568394E-14  0.00000000000E+00  0.27920519695E+03  0.38889243638E+03  0.27070608613E+03 0.  0.
         25    2    3    3    0    0  0.11391274011E+02 -0.18721922181E+01  0.73266851653E+02  0.14745441450E+03  0.12744216954E+03 0.  0.
         25    2    3    3    0    0 -0.11391274011E+02  0.18721922181E+01  0.20593834530E+03  0.24143802189E+03  0.12549282896E+03 0.  0.
          5    1    4    4  502    0  0.49728322492E+02 -0.38056948897E+02  0.70563931625E+02  0.94459493242E+02  0.47000000000E+01 0. -1.
         -5    1    4    4    0  502 -0.38337048481E+02  0.36184756679E+02  0.27029200287E+01  0.52994921255E+02  0.47000000000E+01 0. -1.
          5    1    5    5  503    0 -0.47628318020E+01  0.23588078900E+02  0.21511055319E+03  0.21650339981E+03  0.47000000000E+01 0. -1.
         -5    1    5    5    0  503 -0.66284422093E+01 -0.21715886682E+02 -0.91722078935E+01  0.24934622078E+02  0.47000000000E+01 0. -1.
<mgrwt>
<rscale>  0 0.27070609E+03</rscale>
<asrwt>0</asrwt>
<pdfrwt beam="1">  1        1 0.51392124E-01 0.27070609E+03</pdfrwt>
<pdfrwt beam="2">  1       -1 0.84374802E-02 0.27070609E+03</pdfrwt>
<totfact> 0.60160271E+03</totfact>
</mgrwt>
</event>
<event>
 9    1  0.7986988E-001  0.2754597E+03  0.7818608E-02  0.1098195E+00
         -2   -1    0    0    0  501 -0.00000000000E+00  0.00000000000E+00  0.11736535280E+02  0.11736535280E+02  0.00000000000E+00 0.  1.
          2   -1    0    0  501    0  0.00000000000E+00 -0.00000000000E+00 -0.16162786320E+04  0.16162786320E+04  0.00000000000E+00 0.  1.
         35    2    1    2    0    0  0.71054273576E-14  0.71054273576E-14 -0.16045420967E+04  0.16280151673E+04  0.27545969714E+03 0.  0.
         25    2    3    3    0    0  0.43342810895E+02  0.30858912029E+02 -0.67290393919E+03  0.68664194103E+03  0.12588316841E+03 0.  0.
         25    2    3    3    0    0 -0.43342810895E+02 -0.30858912029E+02 -0.93163815750E+03  0.94137322623E+03  0.12410891523E+03 0.  0.
          5    1    4    4  502    0 -0.28229726768E+02  0.54130795925E+02 -0.29469592829E+03  0.30098976841E+03  0.47000000000E+01 0. -1.
         -5    1    4    4    0  502  0.71572537663E+02 -0.23271883896E+02 -0.37820801091E+03  0.38565217261E+03  0.47000000000E+01 0. -1.
          5    1    5    5  503    0  0.22095212273E+02  0.34561439248E+02 -0.23478084615E+03  0.23838378135E+03  0.47000000000E+01 0. -1.
         -5    1    5    5    0  503 -0.65438023168E+02 -0.65420351276E+02 -0.69685731135E+03  0.70298944489E+03  0.47000000000E+01 0. -1.
<mgrwt>
<rscale>  0 0.27545970E+03</rscale>
<asrwt>0</asrwt>
<pdfrwt beam="1">  1        2 0.24865809E+00 0.27545970E+03</pdfrwt>
<pdfrwt beam="2">  1       -2 0.18056220E-02 0.27545970E+03</pdfrwt>
<totfact> 0.10631262E+04</totfact>
</mgrwt>
</event>
<event>
 9    1  0.7986988E-001  0.2769513E+03  0.7818608E-02  0.1097366E+00
          2   -1    0    0  501    0  0.00000000000E+00  0.00000000000E+00  0.19126071408E+03  0.19126071408E+03  0.00000000000E+00 0. -1.
         -2   -1    0    0    0  501 -0.00000000000E+00 -0.00000000000E+00 -0.10025847925E+03  0.10025847925E+03  0.00000000000E+00 0. -1.
         35    2    1    2    0    0  0.00000000000E+00 -0.71054273576E-14  0.91002234828E+02  0.29151919332E+03  0.27695131943E+03 0.  0.
         25    2    3    3    0    0 -0.54163897583E+01  0.37288890582E+02 -0.32119750900E+01  0.13052346992E+03  0.12492502063E+03 0.  0.
         25    2    3    3    0    0  0.54163897583E+01 -0.37288890582E+02  0.94214209918E+02  0.16099572340E+03  0.12499402771E+03 0.  0.
          5    1    4    4  502    0  0.10898172107E+01 -0.23486841369E+02  0.46024436472E+02  0.51895646943E+02  0.47000000000E+01 0. -1.
         -5    1    4    4    0  502 -0.65062069689E+01  0.60775731951E+02 -0.49236411562E+02  0.78627822982E+02  0.47000000000E+01 0. -1.
          5    1    5    5  503    0 -0.90387846209E+01  0.11420957074E+02 -0.26129216284E+02  0.30281410659E+02  0.47000000000E+01 0.  1.
         -5    1    5    5    0  503  0.14455174379E+02 -0.48709847656E+02  0.12034342620E+03  0.13071431274E+03  0.47000000000E+01 0.  1.
<mgrwt>
<rscale>  0 0.27695132E+03</rscale>
<asrwt>0</asrwt>
<pdfrwt beam="1">  1        2 0.29424725E-01 0.27695132E+03</pdfrwt>
<pdfrwt beam="2">  1       -2 0.15424381E-01 0.27695132E+03</pdfrwt>
<totfact> 0.58138157E+03</totfact>
</mgrwt>
</event>
<event>
 9    1  0.7986988E-001  0.3157768E+03  0.7818608E-02  0.1077610E+00
          4   -1    0    0  501    0  0.00000000000E+00  0.00000000000E+00  0.70854623618E+03  0.70854623618E+03  0.00000000000E+00 0.  1.
         -4   -1    0    0    0  501 -0.00000000000E+00 -0.00000000000E+00 -0.35182950880E+02  0.35182950880E+02  0.00000000000E+00 0.  1.
         35    2    1    2    0    0  0.00000000000E+00 -0.35527136788E-14  0.67336328530E+03  0.74372918706E+03  0.31577680360E+03 0.  0.
         25    2    3    3    0    0  0.89139240219E+02 -0.18456059661E+02  0.40385948385E+03  0.43264576245E+03  0.12567196499E+03 0.  0.
         25    2    3    3    0    0 -0.89139240219E+02  0.18456059661E+02  0.26950380145E+03  0.31108342461E+03  0.12591333443E+03 0.  0.
          5    1    4    4  502    0  0.71660638448E+02  0.42264942243E+02  0.29646635754E+03  0.30795448300E+03  0.47000000000E+01 0. -1.
         -5    1    4    4    0  502  0.17478601770E+02 -0.60721001904E+02  0.10739312631E+03  0.12469127945E+03  0.47000000000E+01 0. -1.
          5    1    5    5  503    0 -0.77214960244E+02  0.19776369151E+02  0.56795129280E+02  0.97984853790E+02  0.47000000000E+01 0. -1.
         -5    1    5    5    0  503 -0.11924279974E+02 -0.13203094902E+01  0.21270867217E+03  0.21309857082E+03  0.47000000000E+01 0. -1.
<mgrwt>
<rscale>  0 0.31577680E+03</rscale>
<asrwt>0</asrwt>
<pdfrwt beam="1">  1        4 0.10900710E+00 0.31577680E+03</pdfrwt>
<pdfrwt beam="2">  1       -4 0.54127622E-02 0.31577680E+03</pdfrwt>
<totfact> 0.27786826E+02</totfact>
</mgrwt>
</event>
<event>
 9    1  0.7986988E-001  0.2746813E+03  0.7818608E-02  0.1098630E+00
         -4   -1    0    0    0  501 -0.00000000000E+00  0.00000000000E+00  0.10714706420E+04  0.10714706420E+04  0.00000000000E+00 0.  1.
          4   -1    0    0  501    0  0.00000000000E+00 -0.00000000000E+00 -0.17604262219E+02  0.17604262219E+02  0.00000000000E+00 0.  1.
         35    2    1    2    0    0  0.00000000000E+00 -0.71054273576E-14  0.10538663797E+04  0.10890749042E+04  0.27468127087E+03 0.  0.
         25    2    3    3    0    0 -0.23088399355E+02 -0.46082516185E+02  0.58399545495E+03  0.60039970060E+03  0.12950844216E+03 0.  0.
         25    2    3    3    0    0  0.23088399355E+02  0.46082516185E+02  0.46987092479E+03  0.48867520359E+03  0.12396812555E+03 0.  0.
          5    1    4    4  502    0 -0.53525221690E+02 -0.17116214871E+02  0.10197476929E+03  0.11652835595E+03  0.47000000000E+01 0.  1.
         -5    1    4    4    0  502  0.30436822335E+02 -0.28966301314E+02  0.48202068566E+03  0.48387134465E+03  0.47000000000E+01 0.  1.
          5    1    5    5  503    0  0.17801669808E+02 -0.41490225875E+02  0.18950966799E+03  0.19487006582E+03  0.47000000000E+01 0. -1.
         -5    1    5    5    0  503  0.52867295469E+01  0.87572742060E+02  0.28036125680E+03  0.29380513776E+03  0.47000000000E+01 0. -1.
<mgrwt>
<rscale>  0 0.27468127E+03</rscale>
<asrwt>0</asrwt>
<pdfrwt beam="1">  1        4 0.27083489E-02 0.27468127E+03</pdfrwt>
<pdfrwt beam="2">  1       -4 0.16484159E+00 0.27468127E+03</pdfrwt>
<totfact> 0.29248789E+02</totfact>
</mgrwt>
</event>
<event>
 9    1  0.7986988E-001  0.2759692E+03  0.7818608E-02  0.1097911E+00
          2   -1    0    0  501    0  0.00000000000E+00  0.00000000000E+00  0.66355127162E+03  0.66355127162E+03  0.00000000000E+00 0. -1.
         -2   -1    0    0    0  501 -0.00000000000E+00 -0.00000000000E+00 -0.28693710897E+02  0.28693710897E+02  0.00000000000E+00 0. -1.
         35    2    1    2    0    0  0.00000000000E+00  0.00000000000E+00  0.63485756073E+03  0.69224498252E+03  0.27596918925E+03 0.  0.
         25    2    3    3    0    0  0.20157665049E+02  0.10901357147E+02  0.44951360697E+03  0.46717359642E+03  0.12515396636E+03 0.  0.
         25    2    3    3    0    0 -0.20157665049E+02 -0.10901357147E+02  0.18534395376E+03  0.22507138610E+03  0.12561678470E+03 0.  0.
          5    1    4    4  502    0  0.54105846660E+02 -0.17852641193E+02  0.10315066805E+03  0.11793349719E+03  0.47000000000E+01 0.  1.
         -5    1    4    4    0  502 -0.33948181611E+02  0.28753998340E+02  0.34636293892E+03  0.34924009923E+03  0.47000000000E+01 0.  1.
          5    1    5    5  503    0  0.47898101849E+02 -0.19477565250E+02  0.11759129655E+03  0.12854340408E+03  0.47000000000E+01 0. -1.
         -5    1    5    5    0  503 -0.68055766898E+02  0.85762081024E+01  0.67752657208E+02  0.96527982017E+02  0.47000000000E+01 0. -1.
<mgrwt>
<rscale>  0 0.27596919E+03</rscale>
<asrwt>0</asrwt>
<pdfrwt beam="1">  1        2 0.10208480E+00 0.27596919E+03</pdfrwt>
<pdfrwt beam="2">  1       -2 0.44144176E-02 0.27596919E+03</pdfrwt>
<totfact> 0.10551739E+04</totfact>
</mgrwt>
</event>
<event>
 9    1  0.7986988E-001  0.2633309E+03  0.7818608E-02  0.1105158E+00
          1   -1    0    0  501    0  0.00000000000E+00  0.00000000000E+00  0.53555347418E+02  0.53555347418E+02  0.00000000000E+00 0.  1.
         -1   -1    0    0    0  501 -0.00000000000E+00 -0.00000000000E+00 -0.32369854597E+03  0.32369854597E+03  0.00000000000E+00 0.  1.
         35    2    1    2    0    0 -0.35527136788E-14  0.00000000000E+00 -0.27014319855E+03  0.37725389339E+03  0.26333087998E+03 0.  0.
         25    2    3    3    0    0  0.81134661142E+01 -0.32817896003E+02 -0.17041524049E+03  0.21379719706E+03  0.12459953712E+03 0.  0.
         25    2    3    3    0    0 -0.81134661142E+01  0.32817896003E+02 -0.99727958066E+02  0.16345669632E+03  0.12501833195E+03 0.  0.
          5    1    4    4  502    0  0.51160202597E+02 -0.74905714834E+01 -0.15155841923E+03  0.16020461738E+03  0.47000000000E+01 0. -1.
         -5    1    4    4    0  502 -0.43046736483E+02 -0.25327324520E+02 -0.18856821258E+02  0.53592579683E+02  0.47000000000E+01 0. -1.
          5    1    5    5  503    0 -0.23207752457E+02 -0.30922378035E+02 -0.88688871963E+02  0.96863818052E+02  0.47000000000E+01 0. -1.
         -5    1    5    5    0  503  0.15094286343E+02  0.63740274038E+02 -0.11039086103E+02  0.66592878273E+02  0.47000000000E+01 0. -1.
<mgrwt>
<rscale>  0 0.26333088E+03</rscale>
<asrwt>0</asrwt>
<pdfrwt beam="1">  1        1 0.82392843E-02 0.26333088E+03</pdfrwt>
<pdfrwt beam="2">  1       -1 0.49799776E-01 0.26333088E+03</pdfrwt>
<totfact> 0.34363505E+03</totfact>
</mgrwt>
</event>
<event>
 9    1  0.7986988E-001  0.2769113E+03  0.7818608E-02  0.1097388E+00
          2   -1    0    0  501    0  0.00000000000E+00  0.00000000000E+00  0.49338988530E+02  0.49338988530E+02  0.00000000000E+00 0.  1.
         -2   -1    0    0    0  501 -0.00000000000E+00 -0.00000000000E+00 -0.38853591774E+03  0.38853591774E+03  0.00000000000E+00 0.  1.
         35    2    1    2    0    0  0.00000000000E+00 -0.71054273576E-14 -0.33919692921E+03  0.43787490627E+03  0.27691131569E+03 0.  0.
         25    2    3    3    0    0  0.49879957117E+02 -0.34697402451E+01 -0.17622368525E+03  0.22167704049E+03  0.12484339718E+03 0.  0.
         25    2    3    3    0    0 -0.49879957117E+02  0.34697402451E+01 -0.16297324396E+03  0.21619786577E+03  0.13297063473E+03 0.  0.
          5    1    4    4  502    0 -0.28511767100E+02 -0.38780207950E+02 -0.61748159360E+02  0.78433096179E+02  0.47000000000E+01 0.  1.
         -5    1    4    4    0  502  0.78391724217E+02  0.35310467705E+02 -0.11447552589E+03  0.14324394431E+03  0.47000000000E+01 0.  1.
          5    1    5    5  503    0 -0.22089596877E+02 -0.57183339098E+02 -0.12496545879E+03  0.13927074513E+03  0.47000000000E+01 0.  1.
         -5    1    5    5    0  503 -0.27790360240E+02  0.60653079344E+02 -0.38007785173E+02  0.76927120639E+02  0.47000000000E+01 0.  1.
<mgrwt>
<rscale>  0 0.27691132E+03</rscale>
<asrwt>0</asrwt>
<pdfrwt beam="1">  1        2 0.75906137E-02 0.27691132E+03</pdfrwt>
<pdfrwt beam="2">  1       -2 0.59774756E-01 0.27691132E+03</pdfrwt>
<totfact> 0.24185914E+03</totfact>
</mgrwt>
</event>
<event>
 9    1  0.7986988E-001  0.2759817E+03  0.7818608E-02  0.1097904E+00
          3   -1    0    0  501    0  0.00000000000E+00  0.00000000000E+00  0.44375379429E+02  0.44375379429E+02  0.00000000000E+00 0. -1.
         -3   -1    0    0    0  501 -0.00000000000E+00 -0.00000000000E+00 -0.42909993434E+03  0.42909993434E+03  0.00000000000E+00 0. -1.
         35    2    1    2    0    0  0.00000000000E+00  0.00000000000E+00 -0.38472455491E+03  0.47347531377E+03  0.27598168344E+03 0.  0.
         25    2    3    3    0    0  0.27020699145E+02 -0.51407820483E+02 -0.20819310592E+03  0.24937581961E+03  0.12438266706E+03 0.  0.
         25    2    3    3    0    0 -0.27020699145E+02  0.51407820483E+02 -0.17653144899E+03  0.22409949415E+03  0.12523716944E+03 0.  0.
          5    1    4    4  502    0  0.47859137268E+02 -0.25735210841E+01 -0.18514200178E+03  0.19130282500E+03  0.47000000000E+01 0. -1.
         -5    1    4    4    0  502 -0.20838438122E+02 -0.48834299399E+02 -0.23051104145E+02  0.58072994614E+02  0.47000000000E+01 0. -1.
          5    1    5    5  503    0 -0.34456508805E+02  0.75171239384E+02 -0.53766208135E+02  0.98746449895E+02  0.47000000000E+01 0.  1.
         -5    1    5    5    0  503  0.74358096595E+01 -0.23763418901E+02 -0.12276524085E+03  0.12535304426E+03  0.47000000000E+01 0.  1.
<mgrwt>
<rscale>  0 0.27598168E+03</rscale>
<asrwt>0</asrwt>
<pdfrwt beam="1">  1        3 0.68269813E-02 0.27598168E+03</pdfrwt>
<pdfrwt beam="2">  1       -3 0.66015376E-01 0.27598168E+03</pdfrwt>
<totfact> 0.79135638E+02</totfact>
</mgrwt>
</event>
<event>
 9    1  0.7986988E-001  0.2775963E+03  0.7818608E-02  0.1097009E+00
         -2   -1    0    0    0  501 -0.00000000000E+00  0.00000000000E+00  0.15335293541E+03  0.15335293541E+03  0.00000000000E+00 0. -1.
          2   -1    0    0  501    0  0.00000000000E+00 -0.00000000000E+00 -0.12562474851E+03  0.12562474851E+03  0.00000000000E+00 0. -1.
         35    2    1    2    0    0  0.00000000000E+00  0.00000000000E+00  0.27728186906E+02  0.27897768392E+03  0.27759628200E+03 0.  0.
         25    2    3    3    0    0 -0.52696893037E+02 -0.11834077724E+02  0.38567531872E+02  0.14227284518E+03  0.12584554036E+03 0.  0.
         25    2    3    3    0    0  0.52696893037E+02  0.11834077724E+02 -0.10839344966E+02  0.13670483875E+03  0.12511480171E+03 0.  0.
          5    1    4    4  502    0 -0.69164612739E+02 -0.68218042667E+01 -0.26707113687E+02  0.74603221045E+02  0.47000000000E+01 0.  1.
         -5    1    4    4    0  502  0.16467719703E+02 -0.50122734578E+01  0.65274645558E+02  0.67669624132E+02  0.47000000000E+01 0.  1.
          5    1    5    5  503    0  0.71923957593E+02  0.54905390542E+01  0.39406569244E+02  0.82329638616E+02  0.47000000000E+01 0. -1.
         -5    1    5    5    0  503 -0.19227064556E+02  0.63435386703E+01 -0.50245914210E+02  0.54375200130E+02  0.47000000000E+01 0. -1.
<mgrwt>
<rscale>  0 0.27759628E+03</rscale>
<asrwt>0</asrwt>
<pdfrwt beam="1">  1        2 0.19326884E-01 0.27759628E+03</pdfrwt>
<pdfrwt beam="2">  1       -2 0.23592759E-01 0.27759628E+03</pdfrwt>
<totfact> 0.45249034E+03</totfact>
</mgrwt>
</event>
<event>
 9    1  0.7986988E-001  0.2765766E+03  0.7818608E-02  0.1097574E+00
          2   -1    0    0  501    0  0.00000000000E+00  0.00000000000E+00  0.12144410126E+03  0.12144410126E+03  0.00000000000E+00 0. -1.
         -2   -1    0    0    0  501 -0.00000000000E+00 -0.00000000000E+00 -0.15746873030E+03  0.15746873030E+03  0.00000000000E+00 0. -1.
         35    2    1    2    0    0 -0.35527136788E-14  0.00000000000E+00 -0.36024629039E+02  0.27891283157E+03  0.27657656032E+03 0.  0.
         25    2    3    3    0    0 -0.23482431916E+02  0.52450965429E+02 -0.23476030936E+02  0.13979461406E+03  0.12525526619E+03 0.  0.
         25    2    3    3    0    0  0.23482431916E+02 -0.52450965429E+02 -0.12548598104E+02  0.13911821751E+03  0.12607094331E+03 0.  0.
          5    1    4    4  502    0 -0.68391494345E+02  0.27361698553E-01 -0.13867989817E+02  0.69941464018E+02  0.47000000000E+01 0. -1.
         -5    1    4    4    0  502  0.44909062430E+02  0.52423603730E+02 -0.96080411185E+01  0.69853150040E+02  0.47000000000E+01 0. -1.
          5    1    5    5  503    0  0.37090137172E+02  0.33944329023E+02  0.89865333910E+00  0.50505379179E+02  0.47000000000E+01 0. -1.
         -5    1    5    5    0  503 -0.13607705256E+02 -0.86395294452E+02 -0.13447251443E+02  0.88612838331E+02  0.47000000000E+01 0. -1.
<mgrwt>
<rscale>  0 0.27657656E+03</rscale>
<asrwt>0</asrwt>
<pdfrwt beam="1">  1        2 0.18683708E-01 0.27657656E+03</pdfrwt>
<pdfrwt beam="2">  1       -2 0.24225958E-01 0.27657656E+03</pdfrwt>
<totfact> 0.44908159E+03</totfact>
</mgrwt>
</event>
<event>
 9    1  0.7986988E-001  0.2758612E+03  0.7818608E-02  0.1097971E+00
         -1   -1    0    0    0  501 -0.00000000000E+00  0.00000000000E+00  0.25911652889E+02  0.25911652889E+02  0.00000000000E+00 0.  1.
          1   -1    0    0  501    0  0.00000000000E+00 -0.00000000000E+00 -0.73421971230E+03  0.73421971230E+03  0.00000000000E+00 0.  1.
         35    2    1    2    0    0 -0.35527136788E-14 -0.71054273576E-14 -0.70830805941E+03  0.76013136519E+03  0.27586117037E+03 0.  0.
         25    2    3    3    0    0  0.17202427703E+02 -0.38274697445E+02 -0.46596522450E+03  0.48432113249E+03  0.12522976064E+03 0.  0.
         25    2    3    3    0    0 -0.17202427703E+02  0.38274697445E+02 -0.24234283492E+03  0.27581023270E+03  0.12482130766E+03 0.  0.
          5    1    4    4  502    0  0.29183518692E+02 -0.77573483989E+02 -0.37953498950E+03  0.38850768517E+03  0.47000000000E+01 0.  1.
         -5    1    4    4    0  502 -0.11981090990E+02  0.39298786544E+02 -0.86430234998E+02  0.95813447318E+02  0.47000000000E+01 0.  1.
          5    1    5    5  503    0 -0.63863425708E+02  0.52076910160E+02 -0.14367801538E+03  0.16569853294E+03  0.47000000000E+01 0.  1.
         -5    1    5    5    0  503  0.46660998005E+02 -0.13802212715E+02 -0.98664819535E+02  0.11011169976E+03  0.47000000000E+01 0.  1.
<mgrwt>
<rscale>  0 0.27586117E+03</rscale>
<asrwt>0</asrwt>
<pdfrwt beam="1">  1        1 0.11295686E+00 0.27586117E+03</pdfrwt>
<pdfrwt beam="2">  1       -1 0.39864088E-02 0.27586117E+03</pdfrwt>
<totfact> 0.64760886E+03</totfact>
</mgrwt>
</event>
<event>
 9    1  0.7986988E-001  0.2736309E+03  0.7818608E-02  0.1099219E+00
         -2   -1    0    0    0  501 -0.00000000000E+00  0.00000000000E+00  0.11729281401E+03  0.11729281401E+03  0.00000000000E+00 0. -1.
          2   -1    0    0  501    0  0.00000000000E+00 -0.00000000000E+00 -0.15958752080E+03  0.15958752080E+03  0.00000000000E+00 0. -1.
         35    2    1    2    0    0  0.00000000000E+00  0.35527136788E-14 -0.42294706783E+02  0.27688033481E+03  0.27363091489E+03 0.  0.
         25    2    3    3    0    0  0.12746393734E+02 -0.16186520494E+02 -0.73712360141E+02  0.14614033671E+03  0.12449502793E+03 0.  0.
         25    2    3    3    0    0 -0.12746393734E+02  0.16186520494E+02  0.31417653358E+02  0.13073999810E+03  0.12522541340E+03 0.  0.
          5    1    4    4  502    0 -0.74411370647E+01 -0.47801179615E+02 -0.92072424601E+02  0.10411409446E+03  0.47000000000E+01 0.  1.
         -5    1    4    4    0  502  0.20187530799E+02  0.31614659120E+02  0.18360064460E+02  0.42026242255E+02  0.47000000000E+01 0.  1.
          5    1    5    5  503    0 -0.87917353931E+01  0.70848045629E+02  0.12889911189E+02  0.72697867859E+02  0.47000000000E+01 0.  1.
         -5    1    5    5    0  503 -0.39546583411E+01 -0.54661525135E+02  0.18527742169E+02  0.58042130238E+02  0.47000000000E+01 0.  1.
<mgrwt>
<rscale>  0 0.27363091E+03</rscale>
<asrwt>0</asrwt>
<pdfrwt beam="1">  1        2 0.24551926E-01 0.27363091E+03</pdfrwt>
<pdfrwt beam="2">  1       -2 0.18045048E-01 0.27363091E+03</pdfrwt>
<totfact> 0.54642771E+03</totfact>
</mgrwt>
</event>
<event>
 9    1  0.7986988E-001  0.2823338E+03  0.7818608E-02  0.1094421E+00
         -1   -1    0    0    0  501 -0.00000000000E+00  0.00000000000E+00  0.55648042585E+02  0.55648042585E+02  0.00000000000E+00 0.  1.
          1   -1    0    0  501    0  0.00000000000E+00 -0.00000000000E+00 -0.35810962262E+03  0.35810962262E+03  0.00000000000E+00 0.  1.
         35    2    1    2    0    0  0.00000000000E+00  0.35527136788E-14 -0.30246158004E+03  0.41375766521E+03  0.28233384161E+03 0.  0.
         25    2    3    3    0    0 -0.73672750547E+01 -0.24055063846E+02 -0.24036787890E+03  0.27194508540E+03  0.12467754180E+03 0.  0.
         25    2    3    3    0    0  0.73672750547E+01  0.24055063846E+02 -0.62093701141E+02  0.14181257981E+03  0.12498902845E+03 0.  0.
          5    1    4    4  502    0  0.41701833110E+02 -0.89227594648E+01 -0.20494101480E+03  0.20938378177E+03  0.47000000000E+01 0. -1.
         -5    1    4    4    0  502 -0.49069108165E+02 -0.15132304381E+02 -0.35426864097E+02  0.62561303629E+02  0.47000000000E+01 0. -1.
          5    1    5    5  503    0  0.39621758466E+02  0.33355149542E+02 -0.85883224612E+02  0.10040153393E+03  0.47000000000E+01 0. -1.
         -5    1    5    5    0  503 -0.32254483411E+02 -0.93000856964E+01  0.23789523472E+02  0.41411045882E+02  0.47000000000E+01 0. -1.
<mgrwt>
<rscale>  0 0.28233384E+03</rscale>
<asrwt>0</asrwt>
<pdfrwt beam="1">  1        1 0.55093789E-01 0.28233384E+03</pdfrwt>
<pdfrwt beam="2">  1       -1 0.85612372E-02 0.28233384E+03</pdfrwt>
<totfact> 0.53941073E+03</totfact>
</mgrwt>
</event>
<event>
 9    1  0.7986988E-001  0.2748017E+03  0.7818608E-02  0.1098562E+00
         -1   -1    0    0    0  501 -0.00000000000E+00  0.00000000000E+00  0.39196904422E+02  0.39196904422E+02  0.00000000000E+00 0.  1.
          1   -1    0    0  501    0  0.00000000000E+00 -0.00000000000E+00 -0.48164505990E+03  0.48164505990E+03  0.00000000000E+00 0.  1.
         35    2    1    2    0    0  0.00000000000E+00 -0.35527136788E-14 -0.44244815548E+03  0.52084196433E+03  0.27480171308E+03 0.  0.
         25    2    3    3    0    0 -0.54033636899E+02 -0.51472296477E+01 -0.24321099527E+03  0.27949376239E+03  0.12656637431E+03 0.  0.
         25    2    3    3    0    0  0.54033636899E+02  0.51472296477E+01 -0.19923716021E+03  0.24134820193E+03  0.12492950284E+03 0.  0.
          5    1    4    4  502    0 -0.54489796647E+02 -0.30779748940E+02 -0.24543830358E+03  0.25333492012E+03  0.47000000000E+01 0.  1.
         -5    1    4    4    0  502  0.45615974748E+00  0.25632519293E+02  0.22273083119E+01  0.26158842278E+02  0.47000000000E+01 0.  1.
          5    1    5    5  503    0  0.75991604689E+01  0.60254814214E+02 -0.11697675222E+03  0.13188646797E+03  0.47000000000E+01 0. -1.
         -5    1    5    5    0  503  0.46434476430E+02 -0.55107584566E+02 -0.82260407993E+02  0.10946173396E+03  0.47000000000E+01 0. -1.
<mgrwt>
<rscale>  0 0.27480171E+03</rscale>
<asrwt>0</asrwt>
<pdfrwt beam="1">  1        1 0.74099243E-01 0.27480171E+03</pdfrwt>
<pdfrwt beam="2">  1       -1 0.60302927E-02 0.27480171E+03</pdfrwt>
<totfact> 0.62633299E+03</totfact>
</mgrwt>
</event>
<event>
 9    1  0.7986988E-001  0.2795012E+03  0.7818608E-02  0.1095962E+00
          2   -1    0    0  501    0  0.00000000000E+00  0.00000000000E+00  0.78997922885E+03  0.78997922885E+03  0.00000000000E+00 0.  1.
         -2   -1    0    0    0  501 -0.00000000000E+00 -0.00000000000E+00 -0.24722453209E+02  0.24722453209E+02  0.00000000000E+00 0.  1.
         35    2    1    2    0    0  0.71054273576E-14  0.00000000000E+00  0.76525677564E+03  0.81470168205E+03  0.27950115936E+03 0.  0.
         25    2    3    3    0    0  0.39841919584E+02 -0.11165304014E+02  0.49727324219E+03  0.51436568945E+03  0.12481723646E+03 0.  0.
         25    2    3    3    0    0 -0.39841919584E+02  0.11165304014E+02  0.26798353345E+03  0.30033599260E+03  0.12912974748E+03 0.  0.
          5    1    4    4  502    0 -0.35423787075E+02  0.16589392574E+02  0.27904938563E+03  0.28181678845E+03  0.47000000000E+01 0.  1.
         -5    1    4    4    0  502  0.75265706659E+02 -0.27754696588E+02  0.21822385657E+03  0.23254890100E+03  0.47000000000E+01 0.  1.
          5    1    5    5  503    0 -0.15653793640E+02  0.27785401489E+02  0.26867917158E+03  0.27060609201E+03  0.47000000000E+01 0. -1.
         -5    1    5    5    0  503 -0.24188125944E+02 -0.16620097476E+02 -0.69563813504E+00  0.29729900592E+02  0.47000000000E+01 0. -1.
<mgrwt>
<rscale>  0 0.27950116E+03</rscale>
<asrwt>0</asrwt>
<pdfrwt beam="1">  1        2 0.12153525E+00 0.27950116E+03</pdfrwt>
<pdfrwt beam="2">  1       -2 0.38034549E-02 0.27950116E+03</pdfrwt>
<totfact> 0.10663701E+04</totfact>
</mgrwt>
</event>
<event>
 9    1  0.7986988E-001  0.2745920E+03  0.7818608E-02  0.1098680E+00
         -1   -1    0    0    0  501 -0.00000000000E+00  0.00000000000E+00  0.14464447700E+02  0.14464447700E+02  0.00000000000E+00 0.  1.
          1   -1    0    0  501    0  0.00000000000E+00 -0.00000000000E+00 -0.13032080910E+04  0.13032080910E+04  0.00000000000E+00 0.  1.
         35    2    1    2    0    0 -0.35527136788E-14  0.71054273576E-14 -0.12887436433E+04  0.13176725387E+04  0.27459195381E+03 0.  0.
         25    2    3    3    0    0 -0.26941490275E+02  0.23733160176E+02 -0.86795921055E+03  0.87769575802E+03  0.12532974779E+03 0.  0.
         25    2    3    3    0    0  0.26941490275E+02 -0.23733160176E+02 -0.42078443271E+03  0.43997678064E+03  0.12341362120E+03 0.  0.
          5    1    4    4  502    0 -0.19071555427E+02  0.35822813089E+02 -0.85921236968E+03  0.86018311096E+03  0.47000000000E+01 0. -1.
         -5    1    4    4    0  502 -0.78699348473E+01 -0.12089652913E+02 -0.87468408708E+01  0.17512647067E+02  0.47000000000E+01 0. -1.
          5    1    5    5  503    0 -0.37911935190E+02 -0.24060194491E+01 -0.28861674626E+03  0.29114398497E+03  0.47000000000E+01 0. -1.
         -5    1    5    5    0  503  0.64853425465E+02 -0.21327140727E+02 -0.13216768645E+03  0.14883279567E+03  0.47000000000E+01 0. -1.
<mgrwt>
<rscale>  0 0.27459195E+03</rscale>
<asrwt>0</asrwt>
<pdfrwt beam="1">  1        1 0.20049362E+00 0.27459195E+03</pdfrwt>
<pdfrwt beam="2">  1       -1 0.22252989E-02 0.27459195E+03</pdfrwt>
<totfact> 0.56917206E+03</totfact>
</mgrwt>
</event>
<event>
 9    1  0.7986988E-001  0.2755177E+03  0.7818608E-02  0.1098163E+00
          1   -1    0    0  501    0  0.00000000000E+00  0.00000000000E+00  0.68260341947E+03  0.68260341947E+03  0.00000000000E+00 0. -1.
         -1   -1    0    0    0  501 -0.00000000000E+00 -0.00000000000E+00 -0.27801640366E+02  0.27801640366E+02  0.00000000000E+00 0. -1.
         35    2    1    2    0    0  0.35527136788E-14  0.00000000000E+00  0.65480177911E+03  0.71040505984E+03  0.27551765664E+03 0.  0.
         25    2    3    3    0    0 -0.30924496450E+02 -0.76659938678E+01  0.40819194478E+03  0.43169323211E+03  0.13683307686E+03 0.  0.
         25    2    3    3    0    0  0.30924496450E+02  0.76659938678E+01  0.24660983432E+03  0.27871182773E+03  0.12589194012E+03 0.  0.
          5    1    4    4  502    0 -0.29309222717E+01 -0.51472100167E+02  0.58459969434E+02  0.78087293635E+02  0.47000000000E+01 0.  1.
         -5    1    4    4    0  502 -0.27993574178E+02  0.43806106299E+02  0.34973197535E+03  0.35360593848E+03  0.47000000000E+01 0.  1.
          5    1    5    5  503    0 -0.44315810737E+02 -0.37831689368E+01  0.46273015779E+02  0.64354373882E+02  0.47000000000E+01 0.  1.
         -5    1    5    5    0  503  0.75240307187E+02  0.11449162805E+02  0.20033681854E+03  0.21435745385E+03  0.47000000000E+01 0.  1.
<mgrwt>
<rscale>  0 0.27551766E+03</rscale>
<asrwt>0</asrwt>
<pdfrwt beam="1">  1        1 0.10501590E+00 0.27551766E+03</pdfrwt>
<pdfrwt beam="2">  1       -1 0.42771760E-02 0.27551766E+03</pdfrwt>
<totfact> 0.64891069E+03</totfact>
</mgrwt>
</event>
<event>
 9    1  0.7986988E-001  0.2630102E+03  0.7818608E-02  0.1105348E+00
          2   -1    0    0  501    0  0.00000000000E+00  0.00000000000E+00  0.18555171757E+04  0.18555171757E+04  0.00000000000E+00 0.  1.
         -2   -1    0    0    0  501 -0.00000000000E+00 -0.00000000000E+00 -0.93200942000E+01  0.93200942000E+01  0.00000000000E+00 0.  1.
         35    2    1    2    0    0  0.17763568394E-14 -0.71054273576E-14  0.18461970815E+04  0.18648372699E+04  0.26301022693E+03 0.  0.
         25    2    3    3    0    0 -0.94211704414E+01 -0.27595061275E+02  0.11242194907E+04  0.11315009348E+04  0.12479846356E+03 0.  0.
         25    2    3    3    0    0  0.94211704414E+01  0.27595061275E+02  0.72197759082E+03  0.73333633504E+03  0.12522097581E+03 0.  0.
          5    1    4    4  502    0 -0.10665283071E+02  0.47042521285E+02  0.29941291510E+03  0.30330995830E+03  0.47000000000E+01 0. -1.
         -5    1    4    4    0  502  0.12441126295E+01 -0.74637582560E+02  0.82480657555E+03  0.82819097654E+03  0.47000000000E+01 0. -1.
          5    1    5    5  503    0 -0.28516755873E+02  0.66790132551E+02  0.36498211203E+03  0.37216684333E+03  0.47000000000E+01 0.  1.
         -5    1    5    5    0  503  0.37937926315E+02 -0.39195071276E+02  0.35699547879E+03  0.36116949171E+03  0.47000000000E+01 0.  1.
<mgrwt>
<rscale>  0 0.26301023E+03</rscale>
<asrwt>0</asrwt>
<pdfrwt beam="1">  1        2 0.28546389E+00 0.26301023E+03</pdfrwt>
<pdfrwt beam="2">  1       -2 0.14338621E-02 0.26301023E+03</pdfrwt>
<totfact> 0.11142680E+04</totfact>
</mgrwt>
</event>
<event>
 9    1  0.7986988E-001  0.2734222E+03  0.7818608E-02  0.1099337E+00
         -2   -1    0    0    0  501 -0.00000000000E+00  0.00000000000E+00  0.28238039973E+02  0.28238039973E+02  0.00000000000E+00 0. -1.
          2   -1    0    0  501    0  0.00000000000E+00 -0.00000000000E+00 -0.66187030100E+03  0.66187030100E+03  0.00000000000E+00 0. -1.
         35    2    1    2    0    0  0.00000000000E+00  0.00000000000E+00 -0.63363226103E+03  0.69010834098E+03  0.27342216455E+03 0.  0.
         25    2    3    3    0    0  0.36778854621E+02  0.32018418725E+02 -0.23983617963E+03  0.27467305271E+03  0.12468371803E+03 0.  0.
         25    2    3    3    0    0 -0.36778854621E+02 -0.32018418725E+02 -0.39379608140E+03  0.41543528827E+03  0.12301732287E+03 0.  0.
          5    1    4    4  502    0  0.21878011818E+02 -0.45581064815E+02 -0.62903555464E+02  0.80840758042E+02  0.47000000000E+01 0.  1.
         -5    1    4    4    0  502  0.14900842804E+02  0.77599483540E+02 -0.17693262416E+03  0.19383229467E+03  0.47000000000E+01 0.  1.
          5    1    5    5  503    0 -0.12251289628E+02  0.23654757080E+02 -0.13420539858E+02  0.30196730289E+02  0.47000000000E+01 0. -1.
         -5    1    5    5    0  503 -0.24527564993E+02 -0.55673175805E+02 -0.38037554154E+03  0.38523855798E+03  0.47000000000E+01 0. -1.
<mgrwt>
<rscale>  0 0.27342216E+03</rscale>
<asrwt>0</asrwt>
<pdfrwt beam="1">  1        2 0.10182619E+00 0.27342216E+03</pdfrwt>
<pdfrwt beam="2">  1       -2 0.43443143E-02 0.27342216E+03</pdfrwt>
<totfact> 0.10838990E+04</totfact>
</mgrwt>
</event>
<event>
 9    1  0.7986988E-001  0.2754406E+03  0.7818608E-02  0.1098206E+00
          1   -1    0    0  501    0  0.00000000000E+00  0.00000000000E+00  0.97185883673E+03  0.97185883673E+03  0.00000000000E+00 0. -1.
         -1   -1    0    0    0  501 -0.00000000000E+00 -0.00000000000E+00 -0.19516087109E+02  0.19516087109E+02  0.00000000000E+00 0. -1.
         35    2    1    2    0    0 -0.71054273576E-14  0.00000000000E+00  0.95234274962E+03  0.99137492384E+03  0.27544060496E+03 0.  0.
         25    2    3    3    0    0  0.90263767293E+01 -0.56733379119E+02  0.42976213527E+03  0.45100329539E+03  0.12413028540E+03 0.  0.
         25    2    3    3    0    0 -0.90263767293E+01  0.56733379119E+02  0.52258061435E+03  0.54037162845E+03  0.12494337341E+03 0.  0.
          5    1    4    4  502    0 -0.53119286230E+02 -0.22238232416E+02  0.12039307169E+03  0.13353942962E+03  0.47000000000E+01 0. -1.
         -5    1    4    4    0  502  0.62145662960E+02 -0.34495146703E+02  0.30936906358E+03  0.31746386577E+03  0.47000000000E+01 0. -1.
          5    1    5    5  503    0  0.45131870373E+02 -0.69855530871E+01  0.27998526177E+03  0.28372437414E+03  0.47000000000E+01 0. -1.
         -5    1    5    5    0  503 -0.54158247102E+02  0.63718932206E+02  0.24259535258E+03  0.25664725431E+03  0.47000000000E+01 0. -1.
<mgrwt>
<rscale>  0 0.27544060E+03</rscale>
<asrwt>0</asrwt>
<pdfrwt beam="1">  1        1 0.14951671E+00 0.27544060E+03</pdfrwt>
<pdfrwt beam="2">  1       -1 0.30024757E-02 0.27544060E+03</pdfrwt>
<totfact> 0.63227445E+03</totfact>
</mgrwt>
</event>
<event>
 9    1  0.7986988E-001  0.2739252E+03  0.7818608E-02  0.1099054E+00
          2   -1    0    0  501    0  0.00000000000E+00  0.00000000000E+00  0.16238664220E+04  0.16238664220E+04  0.00000000000E+00 0. -1.
         -2   -1    0    0    0  501 -0.00000000000E+00 -0.00000000000E+00 -0.11551905398E+02  0.11551905398E+02  0.00000000000E+00 0. -1.
         35    2    1    2    0    0 -0.35527136788E-14  0.00000000000E+00  0.16123145166E+04  0.16354183274E+04  0.27392518165E+03 0.  0.
         25    2    3    3    0    0 -0.30363788810E+02  0.44209629637E+02  0.79393265306E+03  0.80560656791E+03  0.12568386391E+03 0.  0.
         25    2    3    3    0    0  0.30363788810E+02 -0.44209629637E+02  0.81838186357E+03  0.82981175951E+03  0.12634172146E+03 0.  0.
          5    1    4    4  502    0 -0.39412398356E+02 -0.23913626432E+02  0.12816127437E+03  0.13628133006E+03  0.47000000000E+01 0. -1.
         -5    1    4    4    0  502  0.90486095460E+01  0.68123256069E+02  0.66577137868E+03  0.66932523785E+03  0.47000000000E+01 0. -1.
          5    1    5    5  503    0 -0.27367570344E+02  0.28925973868E+02  0.16496066126E+03  0.16976397036E+03  0.47000000000E+01 0. -1.
         -5    1    5    5    0  503  0.57731359154E+02 -0.73135603504E+02  0.65342120231E+03  0.66004778915E+03  0.47000000000E+01 0. -1.
<mgrwt>
<rscale>  0 0.27392518E+03</rscale>
<asrwt>0</asrwt>
<pdfrwt beam="1">  1        2 0.24982542E+00 0.27392518E+03</pdfrwt>
<pdfrwt beam="2">  1       -2 0.17772175E-02 0.27392518E+03</pdfrwt>
<totfact> 0.10780334E+04</totfact>
</mgrwt>
</event>
<event>
 9    1  0.7986988E-001  0.2796018E+03  0.7818608E-02  0.1095907E+00
         -1   -1    0    0    0  501 -0.00000000000E+00  0.00000000000E+00  0.82779889125E+02  0.82779889125E+02  0.00000000000E+00 0.  1.
          1   -1    0    0  501    0  0.00000000000E+00 -0.00000000000E+00 -0.23609944844E+03  0.23609944844E+03  0.00000000000E+00 0.  1.
         35    2    1    2    0    0 -0.71054273576E-14  0.00000000000E+00 -0.15331955931E+03  0.31887933756E+03  0.27960176083E+03 0.  0.
         25    2    3    3    0    0 -0.31445586089E+02 -0.15768186425E+02 -0.13244136936E+03  0.18510358866E+03  0.12443938938E+03 0.  0.
         25    2    3    3    0    0  0.31445586089E+02  0.15768186425E+02 -0.20878189959E+02  0.13377574891E+03  0.12736793785E+03 0.  0.
          5    1    4    4  502    0  0.42465965472E+02  0.74490487876E+01 -0.81330553256E+02  0.92171554420E+02  0.47000000000E+01 0. -1.
         -5    1    4    4    0  502 -0.73911551561E+02 -0.23217235213E+02 -0.51110816099E+02  0.92932034237E+02  0.47000000000E+01 0. -1.
          5    1    5    5  503    0 -0.38586620575E+02 -0.19003556169E+02  0.17346620569E+02  0.46616066754E+02  0.47000000000E+01 0.  1.
         -5    1    5    5    0  503  0.70032206664E+02  0.34771742594E+02 -0.38224810528E+02  0.87159682154E+02  0.47000000000E+01 0.  1.
<mgrwt>
<rscale>  0 0.27960176E+03</rscale>
<asrwt>0</asrwt>
<pdfrwt beam="1">  1        1 0.36322992E-01 0.27960176E+03</pdfrwt>
<pdfrwt beam="2">  1       -1 0.12735368E-01 0.27960176E+03</pdfrwt>
<totfact> 0.49234821E+03</totfact>
</mgrwt>
</event>
<event>
 9    1  0.7986988E-001  0.2752020E+03  0.7818608E-02  0.1098339E+00
         -2   -1    0    0    0  501 -0.00000000000E+00  0.00000000000E+00  0.82453793857E+03  0.82453793857E+03  0.00000000000E+00 0.  1.
          2   -1    0    0  501    0  0.00000000000E+00 -0.00000000000E+00 -0.22963212450E+02  0.22963212450E+02  0.00000000000E+00 0.  1.
         35    2    1    2    0    0  0.14210854715E-13  0.14210854715E-13  0.80157472612E+03  0.84750115102E+03  0.27520203383E+03 0.  0.
         25    2    3    3    0    0 -0.42533035711E+02 -0.37487893833E+02  0.39037697483E+03  0.41388616116E+03  0.12527238568E+03 0.  0.
         25    2    3    3    0    0  0.42533035711E+02  0.37487893833E+02  0.41119775129E+03  0.43361498986E+03  0.12539524493E+03 0.  0.
          5    1    4    4  502    0 -0.61437281298E+02 -0.41451629395E+02  0.38657948262E+03  0.39364776577E+03  0.47000000000E+01 0. -1.
         -5    1    4    4    0  502  0.18904245587E+02  0.39637355619E+01  0.37974922032E+01  0.20238395387E+02  0.47000000000E+01 0. -1.
          5    1    5    5  503    0 -0.40493392286E+02  0.31004283127E+02  0.11484839126E+03  0.12575063963E+03  0.47000000000E+01 0.  1.
         -5    1    5    5    0  503  0.83026427997E+02  0.64836107059E+01  0.29634936003E+03  0.30786435023E+03  0.47000000000E+01 0.  1.
<mgrwt>
<rscale>  0 0.27520203E+03</rscale>
<asrwt>0</asrwt>
<pdfrwt beam="1">  1        2 0.35328026E-02 0.27520203E+03</pdfrwt>
<pdfrwt beam="2">  1       -2 0.12685197E+00 0.27520203E+03</pdfrwt>
<totfact> 0.12148121E+03</totfact>
</mgrwt>
</event>
<event>
 9    1  0.7986988E-001  0.2745693E+03  0.7818608E-02  0.1098693E+00
         -2   -1    0    0    0  501 -0.00000000000E+00  0.00000000000E+00  0.59554697921E+02  0.59554697921E+02  0.00000000000E+00 0.  1.
          2   -1    0    0  501    0  0.00000000000E+00 -0.00000000000E+00 -0.31646654986E+03  0.31646654986E+03  0.00000000000E+00 0.  1.
         35    2    1    2    0    0  0.00000000000E+00  0.14210854715E-13 -0.25691185194E+03  0.37602124778E+03  0.27456926105E+03 0.  0.
         25    2    3    3    0    0 -0.37872435639E+02  0.41917024115E+02 -0.14255627756E+03  0.19740999115E+03  0.12432640123E+03 0.  0.
         25    2    3    3    0    0  0.37872435639E+02 -0.41917024115E+02 -0.11435557438E+03  0.17861125663E+03  0.12503369670E+03 0.  0.
          5    1    4    4  502    0 -0.34120879794E+02 -0.29225540510E+02 -0.91333951381E+01  0.46085524438E+02  0.47000000000E+01 0. -1.
         -5    1    4    4    0  502 -0.37515558448E+01  0.71142564625E+02 -0.13342288242E+03  0.15132446671E+03  0.47000000000E+01 0. -1.
          5    1    5    5  503    0  0.90792884412E+01 -0.72194742167E+02 -0.11545353950E+03  0.13655081127E+03  0.47000000000E+01 0.  1.
         -5    1    5    5    0  503  0.28793147198E+02  0.30277718052E+02  0.10979651268E+01  0.42060445355E+02  0.47000000000E+01 0.  1.
<mgrwt>
<rscale>  0 0.27456926E+03</rscale>
<asrwt>0</asrwt>
<pdfrwt beam="1">  1        2 0.48687162E-01 0.27456926E+03</pdfrwt>
<pdfrwt beam="2">  1       -2 0.91622612E-02 0.27456926E+03</pdfrwt>
<totfact> 0.78118502E+03</totfact>
</mgrwt>
</event>
<event>
 9    1  0.7986988E-001  0.2753970E+03  0.7818608E-02  0.1098230E+00
          1   -1    0    0  501    0  0.00000000000E+00  0.00000000000E+00  0.94709380718E+02  0.94709380718E+02  0.00000000000E+00 0.  1.
         -1   -1    0    0    0  501 -0.00000000000E+00 -0.00000000000E+00 -0.20020063847E+03  0.20020063847E+03  0.00000000000E+00 0.  1.
         35    2    1    2    0    0  0.71054273576E-14  0.88817841970E-15 -0.10549125776E+03  0.29491001919E+03  0.27539701152E+03 0.  0.
         25    2    3    3    0    0 -0.51101942584E+02  0.34870589410E+01 -0.23803777134E+02  0.13720102415E+03  0.12503572732E+03 0.  0.
         25    2    3    3    0    0  0.51101942584E+02 -0.34870589410E+01 -0.81687480621E+02  0.15770899504E+03  0.12480270234E+03 0.  0.
          5    1    4    4  502    0 -0.67767641489E+02 -0.22194751902E+02  0.28073338446E+02  0.76780613285E+02  0.47000000000E+01 0. -1.
         -5    1    4    4    0  502  0.16665698904E+02  0.25681810843E+02 -0.51877115580E+02  0.60420410865E+02  0.47000000000E+01 0. -1.
          5    1    5    5  503    0 -0.14603953758E+02 -0.75626067683E+01 -0.89616956213E+02  0.91234627896E+02  0.47000000000E+01 0. -1.
         -5    1    5    5    0  503  0.65705896342E+02  0.40755478273E+01  0.79294755918E+01  0.66474367145E+02  0.47000000000E+01 0. -1.
<mgrwt>
<rscale>  0 0.27539701E+03</rscale>
<asrwt>0</asrwt>
<pdfrwt beam="1">  1        1 0.14570674E-01 0.27539701E+03</pdfrwt>
<pdfrwt beam="2">  1       -1 0.30800098E-01 0.27539701E+03</pdfrwt>
<totfact> 0.37618017E+03</totfact>
</mgrwt>
</event>
<event>
 9    1  0.7986988E-001  0.2812457E+03  0.7818608E-02  0.1095010E+00
         -1   -1    0    0    0  501 -0.00000000000E+00  0.00000000000E+00  0.33148810437E+02  0.33148810437E+02  0.00000000000E+00 0.  1.
          1   -1    0    0  501    0  0.00000000000E+00 -0.00000000000E+00 -0.59654603705E+03  0.59654603705E+03  0.00000000000E+00 0.  1.
         35    2    1    2    0    0 -0.71054273576E-14 -0.35527136788E-14 -0.56339722662E+03  0.62969484749E+03  0.28124573952E+03 0.  0.
         25    2    3    3    0    0  0.54094538896E+02  0.23905866032E+02 -0.34332487626E+03  0.37018122508E+03  0.12515773718E+03 0.  0.
         25    2    3    3    0    0 -0.54094538896E+02 -0.23905866032E+02 -0.22007235036E+03  0.25951362241E+03  0.12416831824E+03 0.  0.
          5    1    4    4  502    0  0.12309423231E+02  0.34678852212E+02 -0.31752733935E+03  0.31968710628E+03  0.47000000000E+01 0.  1.
         -5    1    4    4    0  502  0.41785115665E+02 -0.10772986180E+02 -0.25797536910E+02  0.50494118796E+02  0.47000000000E+01 0.  1.
          5    1    5    5  503    0 -0.43568053902E+02  0.22918894105E+02 -0.20208079366E+03  0.20804371702E+03  0.47000000000E+01 0.  1.
         -5    1    5    5    0  503 -0.10526484993E+02 -0.46824760138E+02 -0.17991556705E+02  0.51469905391E+02  0.47000000000E+01 0.  1.
<mgrwt>
<rscale>  0 0.28124574E+03</rscale>
<asrwt>0</asrwt>
<pdfrwt beam="1">  1        1 0.91776310E-01 0.28124574E+03</pdfrwt>
<pdfrwt beam="2">  1       -1 0.50998172E-02 0.28124574E+03</pdfrwt>
<totfact> 0.60404425E+03</totfact>
</mgrwt>
</event>
<event>
 9    1  0.7986988E-001  0.2837743E+03  0.7818608E-02  0.1093645E+00
         -2   -1    0    0    0  501 -0.00000000000E+00  0.00000000000E+00  0.15942897503E+02  0.15942897503E+02  0.00000000000E+00 0. -1.
          2   -1    0    0  501    0  0.00000000000E+00 -0.00000000000E+00 -0.12627540290E+04  0.12627540290E+04  0.00000000000E+00 0. -1.
         35    2    1    2    0    0  0.00000000000E+00  0.00000000000E+00 -0.12468111315E+04  0.12786969265E+04  0.28377426279E+03 0.  0.
         25    2    3    3    0    0 -0.34383414950E+02  0.36158671399E+02 -0.42985048718E+03  0.45079331016E+03  0.12630715900E+03 0.  0.
         25    2    3    3    0    0  0.34383414950E+02 -0.36158671399E+02 -0.81696064427E+03  0.82790361630E+03  0.12453929038E+03 0.  0.
          5    1    4    4  502    0 -0.55652817355E+02  0.50405264979E+02 -0.13299915628E+03  0.15280311642E+03  0.47000000000E+01 0.  1.
         -5    1    4    4    0  502  0.21269402405E+02 -0.14246593580E+02 -0.29685133090E+03  0.29799019374E+03  0.47000000000E+01 0.  1.
          5    1    5    5  503    0  0.79508319007E+01 -0.13557871476E+02 -0.81245408022E+01  0.18306549924E+02  0.47000000000E+01 0.  1.
         -5    1    5    5    0  503  0.26432583049E+02 -0.22600799923E+02 -0.80883610347E+03  0.80959706637E+03  0.47000000000E+01 0.  1.
<mgrwt>
<rscale>  0 0.28377426E+03</rscale>
<asrwt>0</asrwt>
<pdfrwt beam="1">  1        2 0.19426995E+00 0.28377426E+03</pdfrwt>
<pdfrwt beam="2">  1       -2 0.24527523E-02 0.28377426E+03</pdfrwt>
<totfact> 0.10524539E+04</totfact>
</mgrwt>
</event>
<event>
 9    1  0.7986988E-001  0.2798202E+03  0.7818608E-02  0.1095787E+00
          2   -1    0    0  501    0  0.00000000000E+00  0.00000000000E+00  0.10703127808E+04  0.10703127808E+04  0.00000000000E+00 0.  1.
         -2   -1    0    0    0  501 -0.00000000000E+00 -0.00000000000E+00 -0.18288895683E+02  0.18288895683E+02  0.00000000000E+00 0.  1.
         35    2    1    2    0    0  0.14210854715E-13  0.35527136788E-14  0.10520238852E+04  0.10886016765E+04  0.27982021941E+03 0.  0.
         25    2    3    3    0    0 -0.43575904694E+02  0.11834359966E+02  0.35574657275E+03  0.37966813735E+03  0.12471310655E+03 0.  0.
         25    2    3    3    0    0  0.43575904694E+02 -0.11834359966E+02  0.69627731241E+03  0.70893353918E+03  0.12548209296E+03 0.  0.
          5    1    4    4  502    0 -0.51045643348E+02  0.20584497720E+02  0.52633589320E+02  0.76300484769E+02  0.47000000000E+01 0.  1.
         -5    1    4    4    0  502  0.74697386541E+01 -0.87501377536E+01  0.30311298343E+03  0.30336765258E+03  0.47000000000E+01 0.  1.
          5    1    5    5  503    0  0.55775415326E+02 -0.40622727869E+02  0.64496245107E+03  0.64865996968E+03  0.47000000000E+01 0.  1.
         -5    1    5    5    0  503 -0.12199510632E+02  0.28788367902E+02  0.51314861341E+02  0.60273569502E+02  0.47000000000E+01 0.  1.
<mgrwt>
<rscale>  0 0.27982022E+03</rscale>
<asrwt>0</asrwt>
<pdfrwt beam="1">  1        2 0.16466346E+00 0.27982022E+03</pdfrwt>
<pdfrwt beam="2">  1       -2 0.28136771E-02 0.27982022E+03</pdfrwt>
<totfact> 0.11075643E+04</totfact>
</mgrwt>
</event>
<event>
 9    1  0.7986988E-001  0.2723252E+03  0.7818608E-02  0.1099956E+00
         -2   -1    0    0    0  501 -0.00000000000E+00  0.00000000000E+00  0.13640935716E+02  0.13640935716E+02  0.00000000000E+00 0. -1.
          2   -1    0    0  501    0  0.00000000000E+00 -0.00000000000E+00 -0.13591633612E+04  0.13591633612E+04  0.00000000000E+00 0. -1.
         35    2    1    2    0    0 -0.53290705182E-14  0.35527136788E-14 -0.13455224255E+04  0.13728042969E+04  0.27232524699E+03 0.  0.
         25    2    3    3    0    0  0.14527838642E+02  0.90565938994E+01 -0.41635157534E+03  0.43505478885E+03  0.12502381782E+03 0.  0.
         25    2    3    3    0    0 -0.14527838642E+02 -0.90565938994E+01 -0.92917085011E+03  0.93774950804E+03  0.12538975691E+03 0.  0.
          5    1    4    4  502    0  0.24270310059E+02  0.43016017819E+02 -0.38313924256E+03  0.38633818725E+03  0.47000000000E+01 0. -1.
         -5    1    4    4    0  502 -0.97424714165E+01 -0.33959423920E+02 -0.33212332780E+02  0.48716601595E+02  0.47000000000E+01 0. -1.
          5    1    5    5  503    0 -0.40361095393E+02  0.27434649228E+02 -0.16185299046E+03  0.16911581393E+03  0.47000000000E+01 0.  1.
         -5    1    5    5    0  503  0.25833256751E+02 -0.36491243127E+02 -0.76731785965E+03  0.76863369411E+03  0.47000000000E+01 0.  1.
<mgrwt>
<rscale>  0 0.27232525E+03</rscale>
<asrwt>0</asrwt>
<pdfrwt beam="1">  1        2 0.20910204E+00 0.27232525E+03</pdfrwt>
<pdfrwt beam="2">  1       -2 0.20986057E-02 0.27232525E+03</pdfrwt>
<totfact> 0.11707423E+04</totfact>
</mgrwt>
</event>
<event>
 9    1  0.7986988E-001  0.2875038E+03  0.7818608E-02  0.1091660E+00
          2   -1    0    0  501    0  0.00000000000E+00  0.00000000000E+00  0.12416230998E+04  0.12416230998E+04  0.00000000000E+00 0. -1.
         -2   -1    0    0    0  501 -0.00000000000E+00 -0.00000000000E+00 -0.16643220061E+02  0.16643220061E+02  0.00000000000E+00 0. -1.
         35    2    1    2    0    0  0.00000000000E+00  0.71054273576E-14  0.12249798797E+04  0.12582663198E+04  0.28750378420E+03 0.  0.
         25    2    3    3    0    0 -0.31730984843E+00 -0.43865123326E+02  0.36390950690E+03  0.38731297214E+03  0.12512777246E+03 0.  0.
         25    2    3    3    0    0  0.31730984843E+00  0.43865123326E+02  0.86107037280E+03  0.87095334769E+03  0.12326109364E+03 0.  0.
          5    1    4    4  502    0  0.26104858771E+02 -0.29806146483E+02  0.25070190205E+02  0.47121910578E+02  0.47000000000E+01 0. -1.
         -5    1    4    4    0  502 -0.26422168619E+02 -0.14058976843E+02  0.33883931670E+03  0.34019106156E+03  0.47000000000E+01 0. -1.
          5    1    5    5  503    0  0.17735992570E+02  0.59802008197E+02  0.20246131797E+03  0.21190450890E+03  0.47000000000E+01 0.  1.
         -5    1    5    5    0  503 -0.17418682721E+02 -0.15936884871E+02  0.65860905483E+03  0.65904883879E+03  0.47000000000E+01 0.  1.
<mgrwt>
<rscale>  0 0.28750378E+03</rscale>
<asrwt>0</asrwt>
<pdfrwt beam="1">  1        2 0.19101887E+00 0.28750378E+03</pdfrwt>
<pdfrwt beam="2">  1       -2 0.25604964E-02 0.28750378E+03</pdfrwt>
<totfact> 0.10151455E+04</totfact>
</mgrwt>
</event>
<event>
 9    1  0.7986988E-001  0.2683778E+03  0.7818608E-02  0.1102212E+00
         -2   -1    0    0    0  501 -0.00000000000E+00  0.00000000000E+00  0.10621708337E+02  0.10621708337E+02  0.00000000000E+00 0. -1.
          2   -1    0    0  501    0  0.00000000000E+00 -0.00000000000E+00 -0.16952691289E+04  0.16952691289E+04  0.00000000000E+00 0. -1.
         35    2    1    2    0    0  0.00000000000E+00  0.00000000000E+00 -0.16846474206E+04  0.17058908373E+04  0.26837775050E+03 0.  0.
         25    2    3    3    0    0  0.46614397813E+02  0.18016679774E+01 -0.74887077734E+03  0.76072791467E+03  0.12539286625E+03 0.  0.
         25    2    3    3    0    0 -0.46614397813E+02 -0.18016679774E+01 -0.93577664326E+03  0.94516292261E+03  0.12441413148E+03 0.  0.
          5    1    4    4  502    0  0.78487956099E+02  0.36228100428E+02 -0.49605130937E+03  0.50354922902E+03  0.47000000000E+01 0.  1.
         -5    1    4    4    0  502 -0.31873558285E+02 -0.34426432450E+02 -0.25281946797E+03  0.25717868565E+03  0.47000000000E+01 0.  1.
          5    1    5    5  503    0 -0.39313164484E+02 -0.11742625950E+02 -0.92972625438E+03  0.93064301010E+03  0.47000000000E+01 0.  1.
         -5    1    5    5    0  503 -0.73012333289E+01  0.99409579730E+01 -0.60503888751E+01  0.14519912503E+02  0.47000000000E+01 0.  1.
<mgrwt>
<rscale>  0 0.26837775E+03</rscale>
<asrwt>0</asrwt>
<pdfrwt beam="1">  1        2 0.26081064E+00 0.26837775E+03</pdfrwt>
<pdfrwt beam="2">  1       -2 0.16341089E-02 0.26837775E+03</pdfrwt>
<totfact> 0.11174759E+04</totfact>
</mgrwt>
</event>
<event>
 9    1  0.7986988E-001  0.2758603E+03  0.7818608E-02  0.1097972E+00
         -2   -1    0    0    0  501 -0.00000000000E+00  0.00000000000E+00  0.86145800511E+01  0.86145800511E+01  0.00000000000E+00 0.  1.
          2   -1    0    0  501    0  0.00000000000E+00 -0.00000000000E+00 -0.22084335834E+04  0.22084335834E+04  0.00000000000E+00 0.  1.
         35    2    1    2    0    0 -0.71054273576E-14 -0.71054273576E-14 -0.21998190034E+04  0.22170481635E+04  0.27586031169E+03 0.  0.
         25    2    3    3    0    0  0.48079165052E+02  0.26755429111E+02 -0.89105676227E+03  0.90149274864E+03  0.12521806240E+03 0.  0.
         25    2    3    3    0    0 -0.48079165052E+02 -0.26755429111E+02 -0.13087622411E+04  0.13155554148E+04  0.12165519588E+03 0.  0.
          5    1    4    4  502    0  0.86472070227E+02  0.37577222129E+02 -0.54529922819E+03  0.55341015967E+03  0.47000000000E+01 0.  1.
         -5    1    4    4    0  502 -0.38392905175E+02 -0.10821793017E+02 -0.34575753408E+03  0.34808258897E+03  0.47000000000E+01 0.  1.
          5    1    5    5  503    0 -0.13730779097E+02 -0.72550716997E+02 -0.61909141523E+03  0.62349692160E+03  0.47000000000E+01 0. -1.
         -5    1    5    5    0  503 -0.34348385955E+02  0.45795287885E+02 -0.68967082587E+03  0.69205849324E+03  0.47000000000E+01 0. -1.
<mgrwt>
<rscale>  0 0.27586031E+03</rscale>
<asrwt>0</asrwt>
<pdfrwt beam="1">  1        2 0.33975926E+00 0.27586031E+03</pdfrwt>
<pdfrwt beam="2">  1       -2 0.13253191E-02 0.27586031E+03</pdfrwt>
<totfact> 0.81495173E+03</totfact>
</mgrwt>
</event>
<event>
 9    1  0.7986988E-001  0.2774871E+03  0.7818608E-02  0.1097069E+00
         -2   -1    0    0    0  501 -0.00000000000E+00  0.00000000000E+00  0.19400242879E+02  0.19400242879E+02  0.00000000000E+00 0. -1.
          2   -1    0    0  501    0  0.00000000000E+00 -0.00000000000E+00 -0.99224387152E+03  0.99224387152E+03  0.00000000000E+00 0. -1.
         35    2    1    2    0    0  0.71054273576E-14  0.35527136788E-14 -0.97284362864E+03  0.10116441144E+04  0.27748709593E+03 0.  0.
         25    2    3    3    0    0 -0.42541191021E+02 -0.28782281004E+02 -0.36498136125E+03  0.38932686892E+03  0.12540272793E+03 0.  0.
         25    2    3    3    0    0  0.42541191021E+02  0.28782281004E+02 -0.60786226739E+03  0.62231724548E+03  0.12306114441E+03 0.  0.
          5    1    4    4  502    0 -0.58009603920E+02 -0.23317342707E+01 -0.63159474647E+02  0.85917171562E+02  0.47000000000E+01 0.  1.
         -5    1    4    4    0  502  0.15468412898E+02 -0.26450546733E+02 -0.30182188660E+03  0.30340969736E+03  0.47000000000E+01 0.  1.
          5    1    5    5  503    0 -0.37476788217E+02  0.34062722984E+02 -0.18346701539E+03  0.19038648715E+03  0.47000000000E+01 0.  1.
         -5    1    5    5    0  503  0.80017979238E+02 -0.52804419800E+01 -0.42439525200E+03  0.43193075833E+03  0.47000000000E+01 0.  1.
<mgrwt>
<rscale>  0 0.27748710E+03</rscale>
<asrwt>0</asrwt>
<pdfrwt beam="1">  1        2 0.15265292E+00 0.27748710E+03</pdfrwt>
<pdfrwt beam="2">  1       -2 0.29846524E-02 0.27748710E+03</pdfrwt>
<totfact> 0.11307051E+04</totfact>
</mgrwt>
</event>
<event>
 9    1  0.7986988E-001  0.2749611E+03  0.7818608E-02  0.1098473E+00
          3   -1    0    0  501    0  0.00000000000E+00  0.00000000000E+00  0.57849068962E+03  0.57849068962E+03  0.00000000000E+00 0. -1.
         -3   -1    0    0    0  501 -0.00000000000E+00 -0.00000000000E+00 -0.32672783642E+02  0.32672783642E+02  0.00000000000E+00 0. -1.
         35    2    1    2    0    0 -0.17763568394E-14  0.71054273576E-14  0.54581790597E+03  0.61116347326E+03  0.27496109645E+03 0.  0.
         25    2    3    3    0    0  0.96340026402E+01 -0.55129628168E+02  0.30326842816E+03  0.33261143093E+03  0.12460551576E+03 0.  0.
         25    2    3    3    0    0 -0.96340026402E+01  0.55129628168E+02  0.24254947782E+03  0.27855204233E+03  0.12501560378E+03 0.  0.
          5    1    4    4  502    0 -0.31402043289E+01 -0.20859230699E+02 -0.49696258457E+01  0.22175562442E+02  0.47000000000E+01 0.  1.
         -5    1    4    4    0  502  0.12774206969E+02 -0.34270397469E+02  0.30823805400E+03  0.31043586848E+03  0.47000000000E+01 0.  1.
          5    1    5    5  503    0 -0.75292394632E+00  0.88407235245E+02  0.21992341725E+03  0.23707552719E+03  0.47000000000E+01 0. -1.
         -5    1    5    5    0  503 -0.88810786939E+01 -0.33277607076E+02  0.22626060570E+02  0.41476515143E+02  0.47000000000E+01 0. -1.
<mgrwt>
<rscale>  0 0.27496110E+03</rscale>
<asrwt>0</asrwt>
<pdfrwt beam="1">  1        3 0.88998560E-01 0.27496110E+03</pdfrwt>
<pdfrwt beam="2">  1       -3 0.50265825E-02 0.27496110E+03</pdfrwt>
<totfact> 0.67709262E+02</totfact>
</mgrwt>
</event>
<event>
 9    1  0.7986988E-001  0.2731866E+03  0.7818608E-02  0.1099470E+00
          2   -1    0    0  501    0  0.00000000000E+00  0.00000000000E+00  0.12063919261E+03  0.12063919261E+03  0.00000000000E+00 0.  1.
         -2   -1    0    0    0  501 -0.00000000000E+00 -0.00000000000E+00 -0.15465725904E+03  0.15465725904E+03  0.00000000000E+00 0.  1.
         35    2    1    2    0    0  0.00000000000E+00  0.00000000000E+00 -0.34018066435E+02  0.27529645165E+03  0.27318657992E+03 0.  0.
         25    2    3    3    0    0  0.35611291285E+02  0.27560618574E+02 -0.48294099318E+02  0.14172184702E+03  0.12539940244E+03 0.  0.
         25    2    3    3    0    0 -0.35611291285E+02 -0.27560618574E+02  0.14276032883E+02  0.13357460463E+03  0.12494245925E+03 0.  0.
          5    1    4    4  502    0  0.15417696299E+02  0.57617565272E+02  0.20989966884E+02  0.63404715099E+02  0.47000000000E+01 0. -1.
         -5    1    4    4    0  502  0.20193594986E+02 -0.30056946698E+02 -0.69284066202E+02  0.78317131924E+02  0.47000000000E+01 0. -1.
          5    1    5    5  503    0 -0.25424189874E+02 -0.25330240066E+02  0.68866257238E+02  0.77798855252E+02  0.47000000000E+01 0. -1.
         -5    1    5    5    0  503 -0.10187101411E+02 -0.22303785081E+01 -0.54590224355E+02  0.55775749377E+02  0.47000000000E+01 0. -1.
<mgrwt>
<rscale>  0 0.27318658E+03</rscale>
<asrwt>0</asrwt>
<pdfrwt beam="1">  1        2 0.18559876E-01 0.27318658E+03</pdfrwt>
<pdfrwt beam="2">  1       -2 0.23793425E-01 0.27318658E+03</pdfrwt>
<totfact> 0.46687834E+03</totfact>
</mgrwt>
</event>
<event>
 9    1  0.7986988E-001  0.2751866E+03  0.7818608E-02  0.1098347E+00
         -2   -1    0    0    0  501 -0.00000000000E+00  0.00000000000E+00  0.17279766935E+02  0.17279766935E+02  0.00000000000E+00 0.  1.
          2   -1    0    0  501    0  0.00000000000E+00 -0.00000000000E+00 -0.10956117224E+04  0.10956117224E+04  0.00000000000E+00 0.  1.
         35    2    1    2    0    0  0.00000000000E+00  0.00000000000E+00 -0.10783319555E+04  0.11128914893E+04  0.27518659280E+03 0.  0.
         25    2    3    3    0    0  0.20628451314E+02  0.21221914799E+02 -0.73820556837E+03  0.74925703840E+03  0.12475073450E+03 0.  0.
         25    2    3    3    0    0 -0.20628451314E+02 -0.21221914799E+02 -0.34012638710E+03  0.36363445094E+03  0.12517248912E+03 0.  0.
          5    1    4    4  502    0  0.60088944298E+02  0.20133582500E+02 -0.64233767230E+03  0.64547332837E+03  0.47000000000E+01 0. -1.
         -5    1    4    4    0  502 -0.39460492984E+02  0.10883322987E+01 -0.95867896064E+02  0.10378371004E+03  0.47000000000E+01 0. -1.
          5    1    5    5  503    0 -0.18232367710E+01 -0.72748459653E+02 -0.17550963334E+03  0.19005626527E+03  0.47000000000E+01 0. -1.
         -5    1    5    5    0  503 -0.18805214543E+02  0.51526544854E+02 -0.16461675376E+03  0.17357818566E+03  0.47000000000E+01 0. -1.
<mgrwt>
<rscale>  0 0.27518659E+03</rscale>
<asrwt>0</asrwt>
<pdfrwt beam="1">  1        2 0.16855564E+00 0.27518659E+03</pdfrwt>
<pdfrwt beam="2">  1       -2 0.26584258E-02 0.27518659E+03</pdfrwt>
<totfact> 0.11635283E+04</totfact>
</mgrwt>
</event>
<event>
 9    1  0.7986988E-001  0.2716620E+03  0.7818608E-02  0.1100332E+00
         -2   -1    0    0    0  501 -0.00000000000E+00  0.00000000000E+00  0.32794225946E+02  0.32794225946E+02  0.00000000000E+00 0.  1.
          2   -1    0    0  501    0  0.00000000000E+00 -0.00000000000E+00 -0.56260098888E+03  0.56260098888E+03  0.00000000000E+00 0.  1.
         35    2    1    2    0    0 -0.71054273576E-14  0.17763568394E-14 -0.52980676294E+03  0.59539521483E+03  0.27166202493E+03 0.  0.
         25    2    3    3    0    0 -0.28353871885E+02 -0.49263138059E+01 -0.36340463722E+03  0.38522863431E+03  0.12453898874E+03 0.  0.
         25    2    3    3    0    0  0.28353871885E+02  0.49263138059E+01 -0.16640212572E+03  0.21016658052E+03  0.12510840702E+03 0.  0.
          5    1    4    4  502    0 -0.56342817708E+02 -0.79204488694E+01 -0.34828385786E+03  0.35293197966E+03  0.47000000000E+01 0. -1.
         -5    1    4    4    0  502  0.27988945823E+02  0.29941350634E+01 -0.15120779358E+02  0.32296654648E+02  0.47000000000E+01 0. -1.
          5    1    5    5  503    0  0.20405679892E+02 -0.44692212688E+02 -0.14870828483E+03  0.15668449069E+03  0.47000000000E+01 0. -1.
         -5    1    5    5    0  503  0.79481919928E+01  0.49618526494E+02 -0.17693840891E+02  0.53482089832E+02  0.47000000000E+01 0. -1.
<mgrwt>
<rscale>  0 0.27166202E+03</rscale>
<asrwt>0</asrwt>
<pdfrwt beam="1">  1        2 0.86553991E-01 0.27166202E+03</pdfrwt>
<pdfrwt beam="2">  1       -2 0.50452660E-02 0.27166202E+03</pdfrwt>
<totfact> 0.10443112E+04</totfact>
</mgrwt>
</event>
<event>
 9    1  0.7986988E-001  0.2746813E+03  0.7818608E-02  0.1098630E+00
          2   -1    0    0  501    0  0.00000000000E+00  0.00000000000E+00  0.10573403060E+04  0.10573403060E+04  0.00000000000E+00 0. -1.
         -2   -1    0    0    0  501 -0.00000000000E+00 -0.00000000000E+00 -0.17839535039E+02  0.17839535039E+02  0.00000000000E+00 0. -1.
         35    2    1    2    0    0  0.00000000000E+00  0.00000000000E+00  0.10395007710E+04  0.10751798411E+04  0.27468133855E+03 0.  0.
         25    2    3    3    0    0  0.87536277457E+01 -0.48112451090E+02  0.62670830637E+03  0.64102045722E+03  0.12550892938E+03 0.  0.
         25    2    3    3    0    0 -0.87536277457E+01  0.48112451090E+02  0.41279246463E+03  0.43415938386E+03  0.12532085934E+03 0.  0.
          5    1    4    4  502    0  0.45011475837E+02 -0.75927441125E+02  0.38935484623E+03  0.39926218898E+03  0.47000000000E+01 0.  1.
         -5    1    4    4    0  502 -0.36257848092E+02  0.27814990035E+02  0.23735346014E+03  0.24175826823E+03  0.47000000000E+01 0.  1.
          5    1    5    5  503    0 -0.15456341628E+02 -0.38060161740E+02  0.77106986541E+02  0.87493152770E+02  0.47000000000E+01 0. -1.
         -5    1    5    5    0  503  0.67027138819E+01  0.86172612830E+02  0.33568547809E+03  0.34666623109E+03  0.47000000000E+01 0. -1.
<mgrwt>
<rscale>  0 0.27468134E+03</rscale>
<asrwt>0</asrwt>
<pdfrwt beam="1">  1        2 0.16266769E+00 0.27468134E+03</pdfrwt>
<pdfrwt beam="2">  1       -2 0.27445447E-02 0.27468134E+03</pdfrwt>
<totfact> 0.11692340E+04</totfact>
</mgrwt>
</event>
<event>
 9    1  0.7986988E-001  0.2731229E+03  0.7818608E-02  0.1099505E+00
         -2   -1    0    0    0  501 -0.00000000000E+00  0.00000000000E+00  0.90534084862E+02  0.90534084862E+02  0.00000000000E+00 0.  1.
          2   -1    0    0  501    0  0.00000000000E+00 -0.00000000000E+00 -0.20598907420E+03  0.20598907420E+03  0.00000000000E+00 0.  1.
         35    2    1    2    0    0  0.71054273576E-14  0.00000000000E+00 -0.11545498934E+03  0.29652315906E+03  0.27312291976E+03 0.  0.
         25    2    3    3    0    0  0.55260894905E+02 -0.11749440909E+02 -0.76754158297E+02  0.15480210706E+03  0.12198637493E+03 0.  0.
         25    2    3    3    0    0 -0.55260894905E+02  0.11749440909E+02 -0.38700831040E+02  0.14172105200E+03  0.12407774333E+03 0.  0.
          5    1    4    4  502    0  0.67071763823E+01 -0.63011312050E+02 -0.32917916930E+02  0.71561797884E+02  0.47000000000E+01 0. -1.
         -5    1    4    4    0  502  0.48553718523E+02  0.51261871142E+02 -0.43836241368E+02  0.83240309181E+02  0.47000000000E+01 0. -1.
          5    1    5    5  503    0 -0.93012093005E+02 -0.49362852522E+00 -0.40854387266E+02  0.10169888924E+03  0.47000000000E+01 0. -1.
         -5    1    5    5    0  503  0.37751198100E+02  0.12243069434E+02  0.21535562256E+01  0.40022162755E+02  0.47000000000E+01 0. -1.
<mgrwt>
<rscale>  0 0.27312292E+03</rscale>
<asrwt>0</asrwt>
<pdfrwt beam="1">  1        2 0.31690626E-01 0.27312292E+03</pdfrwt>
<pdfrwt beam="2">  1       -2 0.13928321E-01 0.27312292E+03</pdfrwt>
<totfact> 0.63380227E+03</totfact>
</mgrwt>
</event>
<event>
 9    1  0.7986988E-001  0.2742530E+03  0.7818608E-02  0.1098870E+00
          1   -1    0    0  501    0  0.00000000000E+00  0.00000000000E+00  0.29011697855E+04  0.29011697855E+04  0.00000000000E+00 0. -1.
         -1   -1    0    0    0  501 -0.00000000000E+00 -0.00000000000E+00 -0.64814123564E+01  0.64814123564E+01  0.00000000000E+00 0. -1.
         35    2    1    2    0    0  0.00000000000E+00  0.71054273576E-14  0.28946883732E+04  0.29076511979E+04  0.27425300506E+03 0.  0.
         25    2    3    3    0    0 -0.30285345123E+02 -0.37042845936E+02  0.13879997095E+04  0.13949822053E+04  0.13093045867E+03 0.  0.
         25    2    3    3    0    0  0.30285345123E+02  0.37042845936E+02  0.15066886637E+04  0.15126689926E+04  0.12556821764E+03 0.  0.
          5    1    4    4  502    0 -0.57085837129E+02  0.27799726766E+02  0.46995512215E+03  0.47424837843E+03  0.47000000000E+01 0.  1.
         -5    1    4    4    0  502  0.26800492005E+02 -0.64842572703E+02  0.91804458730E+03  0.92073382683E+03  0.47000000000E+01 0.  1.
          5    1    5    5  503    0  0.11192622747E+02  0.94323585687E+01  0.14122121955E+04  0.14122958682E+04  0.47000000000E+01 0.  1.
         -5    1    5    5    0  503  0.19092722377E+02  0.27610487368E+02  0.94476468276E+02  0.10037312448E+03  0.47000000000E+01 0.  1.
<mgrwt>
<rscale>  0 0.27425301E+03</rscale>
<asrwt>0</asrwt>
<pdfrwt beam="1">  1        1 0.44633278E+00 0.27425301E+03</pdfrwt>
<pdfrwt beam="2">  1       -1 0.99714268E-03 0.27425301E+03</pdfrwt>
<totfact> 0.16018130E+03</totfact>
</mgrwt>
</event>
<event>
 9    1  0.7986988E-001  0.2784702E+03  0.7818608E-02  0.1096527E+00
         -4   -1    0    0    0  501 -0.00000000000E+00  0.00000000000E+00  0.46620275501E+02  0.46620275501E+02  0.00000000000E+00 0. -1.
          4   -1    0    0  501    0  0.00000000000E+00 -0.00000000000E+00 -0.41583644581E+03  0.41583644581E+03  0.00000000000E+00 0. -1.
         35    2    1    2    0    0 -0.71054273576E-14 -0.71054273576E-14 -0.36921617031E+03  0.46245672131E+03  0.27847017554E+03 0.  0.
         25    2    3    3    0    0 -0.30164697730E+02  0.40884222636E+02 -0.13066677405E+03  0.18845749183E+03  0.12594042932E+03 0.  0.
         25    2    3    3    0    0  0.30164697730E+02 -0.40884222636E+02 -0.23854939626E+03  0.27399922948E+03  0.12485325246E+03 0.  0.
          5    1    4    4  502    0 -0.76763084731E+02  0.40012274724E+02 -0.10057588785E+03  0.13278235019E+03  0.47000000000E+01 0.  1.
         -5    1    4    4    0  502  0.46598387001E+02  0.87194791155E+00 -0.30090886204E+02  0.55675141642E+02  0.47000000000E+01 0.  1.
          5    1    5    5  503    0  0.57462327362E+01  0.10016400440E+02 -0.21034910937E+03  0.21071826044E+03  0.47000000000E+01 0. -1.
         -5    1    5    5    0  503  0.24418464994E+02 -0.50900623076E+02 -0.28200286886E+02  0.63280969040E+02  0.47000000000E+01 0. -1.
<mgrwt>
<rscale>  0 0.27847018E+03</rscale>
<asrwt>0</asrwt>
<pdfrwt beam="1">  1        4 0.63974836E-01 0.27847018E+03</pdfrwt>
<pdfrwt beam="2">  1       -4 0.71723503E-02 0.27847018E+03</pdfrwt>
<totfact> 0.57502660E+02</totfact>
</mgrwt>
</event>
<event>
 9    1  0.7986988E-001  0.2754866E+03  0.7818608E-02  0.1098180E+00
         -2   -1    0    0    0  501 -0.00000000000E+00  0.00000000000E+00  0.17781807644E+02  0.17781807644E+02  0.00000000000E+00 0. -1.
          2   -1    0    0  501    0  0.00000000000E+00 -0.00000000000E+00 -0.10670018749E+04  0.10670018749E+04  0.00000000000E+00 0. -1.
         35    2    1    2    0    0  0.35527136788E-14 -0.71054273576E-14 -0.10492200672E+04  0.10847836825E+04  0.27548663920E+03 0.  0.
         25    2    3    3    0    0  0.19470706994E+02  0.51143429763E+02 -0.46487806551E+03  0.48439726163E+03  0.12463680213E+03 0.  0.
         25    2    3    3    0    0 -0.19470706994E+02 -0.51143429763E+02 -0.58434200172E+03  0.60038642088E+03  0.12654453987E+03 0.  0.
          5    1    4    4  502    0  0.61369228795E+02  0.42615608948E+02 -0.16177165622E+03  0.17825383902E+03  0.47000000000E+01 0. -1.
         -5    1    4    4    0  502 -0.41898521801E+02  0.85278208147E+01 -0.30310640929E+03  0.30614342261E+03  0.47000000000E+01 0. -1.
          5    1    5    5  503    0  0.22884988774E+02 -0.51571223468E+02 -0.52084597028E+03  0.52391404692E+03  0.47000000000E+01 0.  1.
         -5    1    5    5    0  503 -0.42355695769E+02  0.42779370498E+00 -0.63496031438E+02  0.76472373965E+02  0.47000000000E+01 0.  1.
<mgrwt>
<rscale>  0 0.27548664E+03</rscale>
<asrwt>0</asrwt>
<pdfrwt beam="1">  1        2 0.16415418E+00 0.27548664E+03</pdfrwt>
<pdfrwt beam="2">  1       -2 0.27356620E-02 0.27548664E+03</pdfrwt>
<totfact> 0.11594966E+04</totfact>
</mgrwt>
</event>
<event>
 9    1  0.7986988E-001  0.2728324E+03  0.7818608E-02  0.1099669E+00
         -1   -1    0    0    0  501 -0.00000000000E+00  0.00000000000E+00  0.86618183414E+03  0.86618183414E+03  0.00000000000E+00 0. -1.
          1   -1    0    0  501    0  0.00000000000E+00 -0.00000000000E+00 -0.21484386374E+02  0.21484386374E+02  0.00000000000E+00 0. -1.
         35    2    1    2    0    0  0.71054273576E-14 -0.71054273576E-14  0.84469744776E+03  0.88766622051E+03  0.27283244085E+03 0.  0.
         25    2    3    3    0    0  0.33328926467E+02 -0.36311152117E+02  0.50562186230E+03  0.52314122317E+03  0.12487575681E+03 0.  0.
         25    2    3    3    0    0 -0.33328926467E+02  0.36311152117E+02  0.33907558547E+03  0.36452499734E+03  0.12440620531E+03 0.  0.
          5    1    4    4  502    0 -0.40103759440E+02 -0.84543036034E+01  0.76971084860E+02  0.87329403268E+02  0.47000000000E+01 0.  1.
         -5    1    4    4    0  502  0.73432685907E+02 -0.27856848514E+02  0.42865077744E+03  0.43581181990E+03  0.47000000000E+01 0.  1.
          5    1    5    5  503    0 -0.31573643811E+02  0.58767371820E+02  0.79314142382E+02  0.10374643202E+03  0.47000000000E+01 0. -1.
         -5    1    5    5    0  503 -0.17552826560E+01 -0.22456219703E+02  0.25976144309E+03  0.26077856533E+03  0.47000000000E+01 0. -1.
<mgrwt>
<rscale>  0 0.27283244E+03</rscale>
<asrwt>0</asrwt>
<pdfrwt beam="1">  1        1 0.33052909E-02 0.27283244E+03</pdfrwt>
<pdfrwt beam="2">  1       -1 0.13325872E+00 0.27283244E+03</pdfrwt>
<totfact> 0.15211408E+03</totfact>
</mgrwt>
</event>
<event>
 9    1  0.7986988E-001  0.2771324E+03  0.7818608E-02  0.1097266E+00
         -2   -1    0    0    0  501 -0.00000000000E+00  0.00000000000E+00  0.65656563787E+02  0.65656563787E+02  0.00000000000E+00 0.  1.
          2   -1    0    0  501    0  0.00000000000E+00 -0.00000000000E+00 -0.29243969473E+03  0.29243969473E+03  0.00000000000E+00 0.  1.
         35    2    1    2    0    0  0.35527136788E-14  0.35527136788E-14 -0.22678313094E+03  0.35809625852E+03  0.27713235445E+03 0.  0.
         25    2    3    3    0    0 -0.80929684554E+01  0.26815253883E+02 -0.18013875981E+03  0.22120490843E+03  0.12528800721E+03 0.  0.
         25    2    3    3    0    0  0.80929684554E+01 -0.26815253883E+02 -0.46644371135E+02  0.13689135008E+03  0.12561445136E+03 0.  0.
          5    1    4    4  502    0 -0.34523973095E+02  0.37187388700E+02 -0.14356908897E+02  0.52943530574E+02  0.47000000000E+01 0.  1.
         -5    1    4    4    0  502  0.26431004639E+02 -0.10372134817E+02 -0.16578185091E+03  0.16826137786E+03  0.47000000000E+01 0.  1.
          5    1    5    5  503    0  0.61385961203E+02 -0.40213170281E+02 -0.25717001636E+02  0.77902435585E+02  0.47000000000E+01 0. -1.
         -5    1    5    5    0  503 -0.53292992748E+02  0.13397916398E+02 -0.20927369499E+02  0.58988914500E+02  0.47000000000E+01 0. -1.
<mgrwt>
<rscale>  0 0.27713235E+03</rscale>
<asrwt>0</asrwt>
<pdfrwt beam="1">  1        2 0.44990723E-01 0.27713235E+03</pdfrwt>
<pdfrwt beam="2">  1       -2 0.10101010E-01 0.27713235E+03</pdfrwt>
<totfact> 0.72889612E+03</totfact>
</mgrwt>
</event>
<event>
 9    1  0.7986988E-001  0.2747778E+03  0.7818608E-02  0.1098576E+00
         -3   -1    0    0    0  501 -0.00000000000E+00  0.00000000000E+00  0.18158857717E+03  0.18158857717E+03  0.00000000000E+00 0. -1.
          3   -1    0    0  501    0  0.00000000000E+00 -0.00000000000E+00 -0.10394766951E+03  0.10394766951E+03  0.00000000000E+00 0. -1.
         35    2    1    2    0    0  0.14210854715E-13  0.00000000000E+00  0.77640907654E+02  0.28553624668E+03  0.27477779682E+03 0.  0.
         25    2    3    3    0    0  0.48173050295E+02  0.29395818023E+02  0.35335803555E+02  0.14193807110E+03  0.12535166582E+03 0.  0.
         25    2    3    3    0    0 -0.48173050295E+02 -0.29395818023E+02  0.42305104099E+02  0.14359817558E+03  0.12508380113E+03 0.  0.
          5    1    4    4  502    0  0.76620430607E+02  0.57597140117E+02  0.16317739579E+02  0.97347211367E+02  0.47000000000E+01 0. -1.
         -5    1    4    4    0  502 -0.28447380311E+02 -0.28201322094E+02  0.19018063975E+02  0.44590859733E+02  0.47000000000E+01 0. -1.
          5    1    5    5  503    0 -0.32997739034E+02 -0.78673076073E+02  0.27089958810E+02  0.89634031196E+02  0.47000000000E+01 0.  1.
         -5    1    5    5    0  503 -0.15175311261E+02  0.49277258049E+02  0.15215145289E+02  0.53964144382E+02  0.47000000000E+01 0.  1.
<mgrwt>
<rscale>  0 0.27477780E+03</rscale>
<asrwt>0</asrwt>
<pdfrwt beam="1">  1        3 0.15991949E-01 0.27477780E+03</pdfrwt>
<pdfrwt beam="2">  1       -3 0.27936704E-01 0.27477780E+03</pdfrwt>
<totfact> 0.10354480E+03</totfact>
</mgrwt>
</event>
<event>
 9    1  0.7986988E-001  0.2762552E+03  0.7818608E-02  0.1097752E+00
          2   -1    0    0  501    0  0.00000000000E+00  0.00000000000E+00  0.49176425493E+03  0.49176425493E+03  0.00000000000E+00 0.  1.
         -2   -1    0    0    0  501 -0.00000000000E+00 -0.00000000000E+00 -0.38797507040E+02  0.38797507040E+02  0.00000000000E+00 0.  1.
         35    2    1    2    0    0  0.71054273576E-14 -0.14210854715E-13  0.45296674789E+03  0.53056176197E+03  0.27625515121E+03 0.  0.
         25    2    3    3    0    0  0.34952892503E+02 -0.45685551110E+02  0.21211950298E+03  0.25288034480E+03  0.12507961853E+03 0.  0.
         25    2    3    3    0    0 -0.34952892503E+02  0.45685551110E+02  0.24084724491E+03  0.27768141717E+03  0.12566105118E+03 0.  0.
          5    1    4    4  502    0 -0.17731568958E+02  0.15892159053E+02 -0.15404111221E+01  0.24319377531E+02  0.47000000000E+01 0.  1.
         -5    1    4    4    0  502  0.52684461461E+02 -0.61577710162E+02  0.21365991410E+03  0.22856096727E+03  0.47000000000E+01 0.  1.
          5    1    5    5  503    0 -0.51873426760E+02  0.19373523000E+01  0.27000459132E+02  0.58700260060E+02  0.47000000000E+01 0.  1.
         -5    1    5    5    0  503  0.16920534257E+02  0.43748198810E+02  0.21384678578E+03  0.21898115711E+03  0.47000000000E+01 0.  1.
<mgrwt>
<rscale>  0 0.27625515E+03</rscale>
<asrwt>0</asrwt>
<pdfrwt beam="1">  1        2 0.75656034E-01 0.27625515E+03</pdfrwt>
<pdfrwt beam="2">  1       -2 0.59688476E-02 0.27625515E+03</pdfrwt>
<totfact> 0.94111210E+03</totfact>
</mgrwt>
</event>
<event>
 9    1  0.7986988E-001  0.2749307E+03  0.7818608E-02  0.1098490E+00
         -2   -1    0    0    0  501 -0.00000000000E+00  0.00000000000E+00  0.32510165660E+02  0.32510165660E+02  0.00000000000E+00 0. -1.
          2   -1    0    0  501    0  0.00000000000E+00 -0.00000000000E+00 -0.58125567464E+03  0.58125567464E+03  0.00000000000E+00 0. -1.
         35    2    1    2    0    0 -0.71054273576E-14  0.17763568394E-14 -0.54874550898E+03  0.61376584030E+03  0.27493066961E+03 0.  0.
         25    2    3    3    0    0 -0.42483184719E+02  0.13407319055E+02 -0.25593002626E+03  0.29234151811E+03  0.13408507628E+03 0.  0.
         25    2    3    3    0    0  0.42483184719E+02 -0.13407319055E+02 -0.29281548271E+03  0.32142432218E+03  0.12485235595E+03 0.  0.
          5    1    4    4  502    0  0.69778139826E-01  0.19933741449E+02  0.10081946185E+02  0.22827495615E+02  0.47000000000E+01 0. -1.
         -5    1    4    4    0  502 -0.42552962859E+02 -0.65264223944E+01 -0.26601197245E+03  0.26951402250E+03  0.47000000000E+01 0. -1.
          5    1    5    5  503    0  0.26121614495E+02 -0.59205766706E+02 -0.24352761085E+03  0.25202271485E+03  0.47000000000E+01 0. -1.
         -5    1    5    5    0  503  0.16361570225E+02  0.45798447651E+02 -0.49287871865E+02  0.69401607333E+02  0.47000000000E+01 0. -1.
<mgrwt>
<rscale>  0 0.27493067E+03</rscale>
<asrwt>0</asrwt>
<pdfrwt beam="1">  1        2 0.89423955E-01 0.27493067E+03</pdfrwt>
<pdfrwt beam="2">  1       -2 0.50015637E-02 0.27493067E+03</pdfrwt>
<totfact> 0.10197824E+04</totfact>
</mgrwt>
</event>
<event>
 9    1  0.7986988E-001  0.2665664E+03  0.7818608E-02  0.1103261E+00
         -4   -1    0    0    0  501 -0.00000000000E+00  0.00000000000E+00  0.28283554782E+02  0.28283554782E+02  0.00000000000E+00 0. -1.
          4   -1    0    0  501    0  0.00000000000E+00 -0.00000000000E+00 -0.62808257384E+03  0.62808257384E+03  0.00000000000E+00 0. -1.
         35    2    1    2    0    0  0.00000000000E+00 -0.71054273576E-14 -0.59979901906E+03  0.65636612863E+03  0.26656637361E+03 0.  0.
         25    2    3    3    0    0  0.16275506506E+02 -0.36343451190E+02 -0.23456676429E+03  0.26823846639E+03  0.12387319882E+03 0.  0.
         25    2    3    3    0    0 -0.16275506506E+02  0.36343451190E+02 -0.36523225477E+03  0.38812766224E+03  0.12515088378E+03 0.  0.
          5    1    4    4  502    0  0.23085565311E+02 -0.32026619374E+02 -0.68665694123E+01  0.40347087252E+02  0.47000000000E+01 0. -1.
         -5    1    4    4    0  502 -0.68100588053E+01 -0.43168318163E+01 -0.22770019488E+03  0.22789137914E+03  0.47000000000E+01 0. -1.
          5    1    5    5  503    0  0.13119462028E+02 -0.28308834745E+02 -0.25479294683E+03  0.25673925715E+03  0.47000000000E+01 0. -1.
         -5    1    5    5    0  503 -0.29394968534E+02  0.64652285935E+02 -0.11043930794E+03  0.13138840508E+03  0.47000000000E+01 0. -1.
<mgrwt>
<rscale>  0 0.26656637E+03</rscale>
<asrwt>0</asrwt>
<pdfrwt beam="1">  1        4 0.96628091E-01 0.26656637E+03</pdfrwt>
<pdfrwt beam="2">  1       -4 0.43513160E-02 0.26656637E+03</pdfrwt>
<totfact> 0.51546875E+02</totfact>
</mgrwt>
</event>
<event>
 9    1  0.7986988E-001  0.2714432E+03  0.7818608E-02  0.1100456E+00
         -2   -1    0    0    0  501 -0.00000000000E+00  0.00000000000E+00  0.15398842517E+02  0.15398842517E+02  0.00000000000E+00 0.  1.
          2   -1    0    0  501    0  0.00000000000E+00 -0.00000000000E+00 -0.11962166323E+04  0.11962166323E+04  0.00000000000E+00 0.  1.
         35    2    1    2    0    0  0.00000000000E+00  0.00000000000E+00 -0.11808177898E+04  0.12116154748E+04  0.27144319138E+03 0.  0.
         25    2    3    3    0    0 -0.46385523039E+02 -0.88156224555E+00 -0.73191760568E+03  0.74384833259E+03  0.12431639668E+03 0.  0.
         25    2    3    3    0    0  0.46385523039E+02  0.88156224555E+00 -0.44890018408E+03  0.46776714221E+03  0.12305417573E+03 0.  0.
          5    1    4    4  502    0 -0.31194501880E+02  0.58857978204E+02 -0.28762193174E+03  0.29527245750E+03  0.47000000000E+01 0. -1.
         -5    1    4    4    0  502 -0.15191021159E+02 -0.59739540450E+02 -0.44429567395E+03  0.44857587508E+03  0.47000000000E+01 0. -1.
          5    1    5    5  503    0  0.76308536841E+02 -0.26252340224E+02 -0.37300738453E+03  0.38166579239E+03  0.47000000000E+01 0. -1.
         -5    1    5    5    0  503 -0.29923013802E+02  0.27133902470E+02 -0.75892799544E+02  0.86101349820E+02  0.47000000000E+01 0. -1.
<mgrwt>
<rscale>  0 0.27144319E+03</rscale>
<asrwt>0</asrwt>
<pdfrwt beam="1">  1        2 0.18403336E+00 0.27144319E+03</pdfrwt>
<pdfrwt beam="2">  1       -2 0.23690523E-02 0.27144319E+03</pdfrwt>
<totfact> 0.12064721E+04</totfact>
</mgrwt>
</event>
<event>
 9    1  0.7986988E-001  0.2762924E+03  0.7818608E-02  0.1097731E+00
          2   -1    0    0  501    0  0.00000000000E+00  0.00000000000E+00  0.18849711743E+04  0.18849711743E+04  0.00000000000E+00 0. -1.
         -2   -1    0    0    0  501 -0.00000000000E+00 -0.00000000000E+00 -0.10124488989E+02  0.10124488989E+02  0.00000000000E+00 0. -1.
         35    2    1    2    0    0  0.00000000000E+00  0.00000000000E+00  0.18748466853E+04  0.18950956633E+04  0.27629238063E+03 0.  0.
         25    2    3    3    0    0 -0.27625822080E+02 -0.44499669777E+02  0.11253080713E+04  0.11334114850E+04  0.12473945830E+03 0.  0.
         25    2    3    3    0    0  0.27625822080E+02  0.44499669777E+02  0.74953861406E+03  0.76168417829E+03  0.12494497520E+03 0.  0.
          5    1    4    4  502    0 -0.63580362865E-01  0.25912875485E+02  0.61403779823E+02  0.66813137443E+02  0.47000000000E+01 0. -1.
         -5    1    4    4    0  502 -0.27562241717E+02 -0.70412545263E+02  0.10639042914E+04  0.10665983476E+04  0.47000000000E+01 0. -1.
          5    1    5    5  503    0 -0.36367767648E+02  0.57453228583E+02  0.31924460670E+03  0.32643942303E+03  0.47000000000E+01 0.  1.
         -5    1    5    5    0  503  0.63993589728E+02 -0.12953558806E+02  0.43029400736E+03  0.43524475526E+03  0.47000000000E+01 0.  1.
<mgrwt>
<rscale>  0 0.27629238E+03</rscale>
<asrwt>0</asrwt>
<pdfrwt beam="1">  1        2 0.28999529E+00 0.27629238E+03</pdfrwt>
<pdfrwt beam="2">  1       -2 0.15576152E-02 0.27629238E+03</pdfrwt>
<totfact> 0.95343222E+03</totfact>
</mgrwt>
</event>
<event>
 9    1  0.7986988E-001  0.2765451E+03  0.7818608E-02  0.1097591E+00
          1   -1    0    0  501    0  0.00000000000E+00  0.00000000000E+00  0.27723400691E+03  0.27723400691E+03  0.00000000000E+00 0.  1.
         -1   -1    0    0    0  501 -0.00000000000E+00 -0.00000000000E+00 -0.68964461444E+02  0.68964461444E+02  0.00000000000E+00 0.  1.
         35    2    1    2    0    0  0.00000000000E+00  0.00000000000E+00  0.20826954546E+03  0.34619846835E+03  0.27654507032E+03 0.  0.
         25    2    3    3    0    0 -0.57533914407E+02  0.13133624625E+02  0.94723832345E+02  0.16753202231E+03  0.12494691146E+03 0.  0.
         25    2    3    3    0    0  0.57533914407E+02 -0.13133624625E+02  0.11354571312E+03  0.17866644604E+03  0.12468531016E+03 0.  0.
          5    1    4    4  502    0 -0.31866851570E+02  0.13593033250E+02 -0.26285073823E+02  0.43740849189E+02  0.47000000000E+01 0.  1.
         -5    1    4    4    0  502 -0.25667062837E+02 -0.45940862438E+00  0.12100890617E+03  0.12379117312E+03  0.47000000000E+01 0.  1.
          5    1    5    5  503    0 -0.28522047302E+02 -0.16790216816E+01 -0.72373227028E+01  0.29846191315E+02  0.47000000000E+01 0. -1.
         -5    1    5    5    0  503  0.86055961709E+02 -0.11454602944E+02  0.12078303582E+03  0.14882025472E+03  0.47000000000E+01 0. -1.
<mgrwt>
<rscale>  0 0.27654507E+03</rscale>
<asrwt>0</asrwt>
<pdfrwt beam="1">  1        1 0.42651385E-01 0.27654507E+03</pdfrwt>
<pdfrwt beam="2">  1       -1 0.10609917E-01 0.27654507E+03</pdfrwt>
<totfact> 0.53483445E+03</totfact>
</mgrwt>
</event>
<event>
 9    1  0.7986988E-001  0.2686577E+03  0.7818608E-02  0.1102050E+00
          2   -1    0    0  501    0  0.00000000000E+00  0.00000000000E+00  0.40825837823E+03  0.40825837823E+03  0.00000000000E+00 0.  1.
         -2   -1    0    0    0  501 -0.00000000000E+00 -0.00000000000E+00 -0.44198081229E+02  0.44198081229E+02  0.00000000000E+00 0.  1.
         35    2    1    2    0    0 -0.35527136788E-14  0.71054273576E-14  0.36406029700E+03  0.45245645946E+03  0.26865767782E+03 0.  0.
         25    2    3    3    0    0 -0.30392696299E+02  0.16878228015E+02  0.24819030855E+03  0.27790260056E+03  0.12009511052E+03 0.  0.
         25    2    3    3    0    0  0.30392696299E+02 -0.16878228015E+02  0.11586998845E+03  0.17455385890E+03  0.12583562637E+03 0.  0.
          5    1    4    4  502    0  0.22540781513E+02 -0.32458861132E+02  0.35997363584E+02  0.53661575473E+02  0.47000000000E+01 0.  1.
         -5    1    4    4    0  502 -0.52933477812E+02  0.49337089147E+02  0.21219294497E+03  0.22424102509E+03  0.47000000000E+01 0.  1.
          5    1    5    5  503    0  0.14452215215E+02 -0.46500969158E+02 -0.48361680192E+01  0.49159792293E+02  0.47000000000E+01 0.  1.
         -5    1    5    5    0  503  0.15940481085E+02  0.29622741143E+02  0.12070615647E+03  0.12539406660E+03  0.47000000000E+01 0.  1.
<mgrwt>
<rscale>  0 0.26865768E+03</rscale>
<asrwt>0</asrwt>
<pdfrwt beam="1">  1        2 0.62808979E-01 0.26865768E+03</pdfrwt>
<pdfrwt beam="2">  1       -2 0.67997051E-02 0.26865768E+03</pdfrwt>
<totfact> 0.94406767E+03</totfact>
</mgrwt>
</event>
<event>
 9    1  0.7986988E-001  0.2720191E+03  0.7818608E-02  0.1100130E+00
         -2   -1    0    0    0  501 -0.00000000000E+00  0.00000000000E+00  0.13559440925E+02  0.13559440925E+02  0.00000000000E+00 0.  1.
          2   -1    0    0  501    0  0.00000000000E+00 -0.00000000000E+00 -0.13642598631E+04  0.13642598631E+04  0.00000000000E+00 0.  1.
         35    2    1    2    0    0 -0.14210854715E-13  0.00000000000E+00 -0.13507004222E+04  0.13778193040E+04  0.27201912447E+03 0.  0.
         25    2    3    3    0    0 -0.42635824330E+02 -0.15687110681E+02 -0.82249730383E+03  0.83329089595E+03  0.12572988311E+03 0.  0.
         25    2    3    3    0    0  0.42635824330E+02  0.15687110681E+02 -0.52820311832E+03  0.54452840805E+03  0.12429301675E+03 0.  0.
          5    1    4    4  502    0 -0.77019773535E+02  0.20454945921E+02 -0.59567698602E+03  0.60100217304E+03  0.47000000000E+01 0. -1.
         -5    1    4    4    0  502  0.34383949205E+02 -0.36142056601E+02 -0.22682031782E+03  0.23228872291E+03  0.47000000000E+01 0. -1.
          5    1    5    5  503    0 -0.34740199357E+02 -0.26610550401E+02 -0.17180192914E+03  0.17734992444E+03  0.47000000000E+01 0. -1.
         -5    1    5    5    0  503  0.77376023686E+02  0.42297661082E+02 -0.35640118918E+03  0.36717848360E+03  0.47000000000E+01 0. -1.
<mgrwt>
<rscale>  0 0.27201912E+03</rscale>
<asrwt>0</asrwt>
<pdfrwt beam="1">  1        2 0.20988619E+00 0.27201912E+03</pdfrwt>
<pdfrwt beam="2">  1       -2 0.20860672E-02 0.27201912E+03</pdfrwt>
<totfact> 0.11735339E+04</totfact>
</mgrwt>
</event>
<event>
 9    1  0.7986988E-001  0.2790328E+03  0.7818608E-02  0.1096218E+00
          1   -1    0    0  501    0  0.00000000000E+00  0.00000000000E+00  0.19207550321E+04  0.19207550321E+04  0.00000000000E+00 0.  1.
         -1   -1    0    0    0  501 -0.00000000000E+00 -0.00000000000E+00 -0.10133947439E+02  0.10133947439E+02  0.00000000000E+00 0.  1.
         35    2    1    2    0    0  0.00000000000E+00  0.00000000000E+00  0.19106210847E+04  0.19308889795E+04  0.27903283347E+03 0.  0.
         25    2    3    3    0    0  0.44218011682E+02  0.37179984210E+02  0.82268465192E+03  0.83410493490E+03  0.12483357773E+03 0.  0.
         25    2    3    3    0    0 -0.44218011682E+02 -0.37179984210E+02  0.10879364327E+04  0.10967840446E+04  0.12645938129E+03 0.  0.
          5    1    4    4  502    0 -0.22653154862E+02  0.51540370258E+02  0.20549613357E+03  0.21312044975E+03  0.47000000000E+01 0. -1.
         -5    1    4    4    0  502  0.66871166544E+02 -0.14360386049E+02  0.61718851835E+03  0.62098448514E+03  0.47000000000E+01 0. -1.
          5    1    5    5  503    0 -0.34517502600E+02  0.41972099348E+02  0.58570931435E+03  0.58824366212E+03  0.47000000000E+01 0. -1.
         -5    1    5    5    0  503 -0.97005090819E+01 -0.79152083558E+02  0.50222711839E+03  0.50854038252E+03  0.47000000000E+01 0. -1.
<mgrwt>
<rscale>  0 0.27903283E+03</rscale>
<asrwt>0</asrwt>
<pdfrwt beam="1">  1        1 0.29550048E+00 0.27903283E+03</pdfrwt>
<pdfrwt beam="2">  1       -1 0.15590704E-02 0.27903283E+03</pdfrwt>
<totfact> 0.37472904E+03</totfact>
</mgrwt>
</event>
<event>
 9    1  0.7986988E-001  0.2683267E+03  0.7818608E-02  0.1102241E+00
          1   -1    0    0  501    0  0.00000000000E+00  0.00000000000E+00  0.15672810058E+03  0.15672810058E+03  0.00000000000E+00 0. -1.
         -1   -1    0    0    0  501 -0.00000000000E+00 -0.00000000000E+00 -0.11484729201E+03  0.11484729201E+03  0.00000000000E+00 0. -1.
         35    2    1    2    0    0  0.71054273576E-14 -0.71054273576E-14  0.41880808568E+02  0.27157539259E+03  0.26832665118E+03 0.  0.
         25    2    3    3    0    0  0.33799013343E+01  0.26384920259E+02 -0.19448362634E+02  0.12943676173E+03  0.12517207647E+03 0.  0.
         25    2    3    3    0    0 -0.33799013343E+01 -0.26384920259E+02  0.61329171202E+02  0.14213863086E+03  0.12543737638E+03 0.  0.
          5    1    4    4  502    0 -0.36304419196E+02  0.63056528935E+02 -0.39107388287E+01  0.73017262155E+02  0.47000000000E+01 0.  1.
         -5    1    4    4    0  502  0.39684320530E+02 -0.36671608676E+02 -0.15537623806E+02  0.56419499575E+02  0.47000000000E+01 0.  1.
          5    1    5    5  503    0 -0.59074573618E+02  0.75432919813E+01  0.44872665771E+02  0.74715143280E+02  0.47000000000E+01 0.  1.
         -5    1    5    5    0  503  0.55694672283E+02 -0.33928212240E+02  0.16456505431E+02  0.67423487581E+02  0.47000000000E+01 0.  1.
<mgrwt>
<rscale>  0 0.26832665E+03</rscale>
<asrwt>0</asrwt>
<pdfrwt beam="1">  1        1 0.24112015E-01 0.26832665E+03</pdfrwt>
<pdfrwt beam="2">  1       -1 0.17668814E-01 0.26832665E+03</pdfrwt>
<totfact> 0.49076120E+03</totfact>
</mgrwt>
</event>
<event>
 9    1  0.7986988E-001  0.3021063E+03  0.7818608E-02  0.1084192E+00
          1   -1    0    0  501    0  0.00000000000E+00  0.00000000000E+00  0.36149117716E+03  0.36149117716E+03  0.00000000000E+00 0. -1.
         -1   -1    0    0    0  501 -0.00000000000E+00 -0.00000000000E+00 -0.63119263732E+02  0.63119263732E+02  0.00000000000E+00 0. -1.
         35    2    1    2    0    0  0.00000000000E+00  0.71054273576E-14  0.29837191343E+03  0.42461044089E+03  0.30210631869E+03 0.  0.
         25    2    3    3    0    0 -0.34501729764E+02 -0.45528279119E+02  0.71362587816E+02  0.15903761649E+03  0.13014280988E+03 0.  0.
         25    2    3    3    0    0  0.34501729764E+02  0.45528279119E+02  0.22700932561E+03  0.26557282440E+03  0.12542925332E+03 0.  0.
          5    1    4    4  502    0 -0.76927138500E+02 -0.21558313173E+02  0.75351892395E+02  0.10992062223E+03  0.47000000000E+01 0. -1.
         -5    1    4    4    0  502  0.42425408737E+02 -0.23969965946E+02 -0.39893045787E+01  0.49116994258E+02  0.47000000000E+01 0. -1.
          5    1    5    5  503    0  0.68415167396E+01  0.62303575577E+02  0.37343660571E+02  0.73110743847E+02  0.47000000000E+01 0.  1.
         -5    1    5    5    0  503  0.27660213024E+02 -0.16775296458E+02  0.18966566504E+03  0.19246208055E+03  0.47000000000E+01 0.  1.
<mgrwt>
<rscale>  0 0.30210632E+03</rscale>
<asrwt>0</asrwt>
<pdfrwt beam="1">  1        1 0.55614026E-01 0.30210632E+03</pdfrwt>
<pdfrwt beam="2">  1       -1 0.97106562E-02 0.30210632E+03</pdfrwt>
<totfact> 0.43976813E+03</totfact>
</mgrwt>
</event>
<event>
 9    1  0.7986988E-001  0.2754325E+03  0.7818608E-02  0.1098210E+00
         -1   -1    0    0    0  501 -0.00000000000E+00  0.00000000000E+00  0.84784725170E+01  0.84784725170E+01  0.00000000000E+00 0. -1.
          1   -1    0    0  501    0  0.00000000000E+00 -0.00000000000E+00 -0.22369317010E+04  0.22369317010E+04  0.00000000000E+00 0. -1.
         35    2    1    2    0    0 -0.71054273576E-14  0.00000000000E+00 -0.22284532285E+04  0.22454101735E+04  0.27543248864E+03 0.  0.
         25    2    3    3    0    0  0.34880214887E+02  0.35225843258E+02 -0.13558594722E+04  0.13625488848E+04  0.12540759867E+03 0.  0.
         25    2    3    3    0    0 -0.34880214887E+02 -0.35225843258E+02 -0.87259375630E+03  0.88286128869E+03  0.12476659054E+03 0.  0.
          5    1    4    4  502    0  0.24319098138E+02  0.41694328134E+02 -0.17446048922E+03  0.18107564119E+03  0.47000000000E+01 0. -1.
         -5    1    4    4    0  502  0.10561116749E+02 -0.64684848760E+01 -0.11813989829E+04  0.11814732436E+04  0.47000000000E+01 0. -1.
          5    1    5    5  503    0  0.19930075542E+01  0.42572447522E+02 -0.41549741207E+03  0.41770393199E+03  0.47000000000E+01 0.  1.
         -5    1    5    5    0  503 -0.36873222441E+02 -0.77798290779E+02 -0.45709634423E+03  0.46515735670E+03  0.47000000000E+01 0.  1.
<mgrwt>
<rscale>  0 0.27543249E+03</rscale>
<asrwt>0</asrwt>
<pdfrwt beam="1">  1        1 0.34414317E+00 0.27543249E+03</pdfrwt>
<pdfrwt beam="2">  1       -1 0.13043810E-02 0.27543249E+03</pdfrwt>
<totfact> 0.30243818E+03</totfact>
</mgrwt>
</event>
<event>
 9    1  0.7986988E-001  0.2729677E+03  0.7818608E-02  0.1099593E+00
          3   -1    0    0  501    0  0.00000000000E+00  0.00000000000E+00  0.86506017736E+02  0.86506017736E+02  0.00000000000E+00 0. -1.
         -3   -1    0    0    0  501 -0.00000000000E+00 -0.00000000000E+00 -0.21533573497E+03  0.21533573497E+03  0.00000000000E+00 0. -1.
         35    2    1    2    0    0  0.00000000000E+00 -0.71054273576E-14 -0.12882971723E+03  0.30184175270E+03  0.27296766774E+03 0.  0.
         25    2    3    3    0    0 -0.71280370656E+01  0.17708376984E+02 -0.72375621450E+01  0.12677493553E+03  0.12512036783E+03 0.  0.
         25    2    3    3    0    0  0.71280370656E+01 -0.17708376984E+02 -0.12159215508E+03  0.17506681717E+03  0.12449635644E+03 0.  0.
          5    1    4    4  502    0  0.47208306661E+02  0.23894661581E+02 -0.36617551644E+02  0.64517549227E+02  0.47000000000E+01 0. -1.
         -5    1    4    4    0  502 -0.54336343727E+02 -0.61862845969E+01  0.29379989499E+02  0.62257386306E+02  0.47000000000E+01 0. -1.
          5    1    5    5  503    0 -0.15654219439E+02 -0.65407158935E+02 -0.42085392472E+02  0.79475916388E+02  0.47000000000E+01 0. -1.
         -5    1    5    5    0  503  0.22782256505E+02  0.47698781951E+02 -0.79506762612E+02  0.95590900781E+02  0.47000000000E+01 0. -1.
<mgrwt>
<rscale>  0 0.27296767E+03</rscale>
<asrwt>0</asrwt>
<pdfrwt beam="1">  1        3 0.13308618E-01 0.27296767E+03</pdfrwt>
<pdfrwt beam="2">  1       -3 0.33128574E-01 0.27296767E+03</pdfrwt>
<totfact> 0.10320236E+03</totfact>
</mgrwt>
</event>
<event>
 9    1  0.7986988E-001  0.2744944E+03  0.7818608E-02  0.1098735E+00
          2   -1    0    0  501    0  0.00000000000E+00  0.00000000000E+00  0.17296403547E+04  0.17296403547E+04  0.00000000000E+00 0.  1.
         -2   -1    0    0    0  501 -0.00000000000E+00 -0.00000000000E+00 -0.10890581886E+02  0.10890581886E+02  0.00000000000E+00 0.  1.
         35    2    1    2    0    0  0.00000000000E+00  0.35527136788E-14  0.17187497729E+04  0.17405309366E+04  0.27449437092E+03 0.  0.
         25    2    3    3    0    0  0.40281313522E+02  0.84588858705E+01  0.61986650146E+03  0.63376086617E+03  0.12539624748E+03 0.  0.
         25    2    3    3    0    0 -0.40281313522E+02 -0.84588858705E+01  0.10988832714E+04  0.11067700705E+04  0.12530525825E+03 0.  0.
          5    1    4    4  502    0 -0.28230978353E+02 -0.19779929497E+02  0.63015293915E+02  0.71980907307E+02  0.47000000000E+01 0. -1.
         -5    1    4    4    0  502  0.68512291875E+02  0.28238815368E+02  0.55685120755E+03  0.56177995886E+03  0.47000000000E+01 0. -1.
          5    1    5    5  503    0  0.30741190424E+02 -0.30986125105E+02  0.19848507227E+03  0.20328200770E+03  0.47000000000E+01 0.  1.
         -5    1    5    5    0  503 -0.71022503946E+02  0.22527239234E+02  0.90039819912E+03  0.90348806276E+03  0.47000000000E+01 0.  1.
<mgrwt>
<rscale>  0 0.27449437E+03</rscale>
<asrwt>0</asrwt>
<pdfrwt beam="1">  1        2 0.26609830E+00 0.27449437E+03</pdfrwt>
<pdfrwt beam="2">  1       -2 0.16754755E-02 0.27449437E+03</pdfrwt>
<totfact> 0.10337639E+04</totfact>
</mgrwt>
</event>
<event>
 9    1  0.7986988E-001  0.2755445E+03  0.7818608E-02  0.1098148E+00
         -1   -1    0    0    0  501 -0.00000000000E+00  0.00000000000E+00  0.23994875324E+02  0.23994875324E+02  0.00000000000E+00 0. -1.
          1   -1    0    0  501    0  0.00000000000E+00 -0.00000000000E+00 -0.79105167476E+03  0.79105167476E+03  0.00000000000E+00 0. -1.
         35    2    1    2    0    0 -0.71054273576E-14  0.71054273576E-14 -0.76705679944E+03  0.81504655009E+03  0.27554445239E+03 0.  0.
         25    2    3    3    0    0  0.30359950927E+02  0.37726056846E+02 -0.31436712777E+03  0.34273532844E+03  0.12765513055E+03 0.  0.
         25    2    3    3    0    0 -0.30359950927E+02 -0.37726056846E+02 -0.45268967167E+03  0.47231122164E+03  0.12571781604E+03 0.  0.
          5    1    4    4  502    0  0.37059059255E+02 -0.36383093408E+02 -0.70268083985E+02  0.87503125576E+02  0.47000000000E+01 0.  1.
         -5    1    4    4    0  502 -0.66991083285E+01  0.74109150254E+02 -0.24409904378E+03  0.25523220287E+03  0.47000000000E+01 0.  1.
          5    1    5    5  503    0  0.46000515610E+02 -0.55211553166E+01 -0.22970144732E+03  0.23437443439E+03  0.47000000000E+01 0.  1.
         -5    1    5    5    0  503 -0.76360466537E+02 -0.32204901530E+02 -0.22298822435E+03  0.23793678726E+03  0.47000000000E+01 0.  1.
<mgrwt>
<rscale>  0 0.27554445E+03</rscale>
<asrwt>0</asrwt>
<pdfrwt beam="1">  1        1 0.12170023E+00 0.27554445E+03</pdfrwt>
<pdfrwt beam="2">  1       -1 0.36915200E-02 0.27554445E+03</pdfrwt>
<totfact> 0.64869120E+03</totfact>
</mgrwt>
</event>
<event>
 9    1  0.7986988E-001  0.2760766E+03  0.7818608E-02  0.1097851E+00
          1   -1    0    0  501    0  0.00000000000E+00  0.00000000000E+00  0.14478708917E+03  0.14478708917E+03  0.00000000000E+00 0. -1.
         -1   -1    0    0    0  501 -0.00000000000E+00 -0.00000000000E+00 -0.13160411477E+03  0.13160411477E+03  0.00000000000E+00 0. -1.
         35    2    1    2    0    0  0.71054273576E-14  0.35527136788E-14  0.13182974402E+02  0.27639120394E+03  0.27607663212E+03 0.  0.
         25    2    3    3    0    0  0.59721265977E+02  0.15018852698E+01  0.40165958766E+01  0.13732950031E+03  0.12358953573E+03 0.  0.
         25    2    3    3    0    0 -0.59721265977E+02 -0.15018852698E+01  0.91663785255E+01  0.13906170364E+03  0.12524076674E+03 0.  0.
          5    1    4    4  502    0  0.85870090859E+02  0.30166770710E+02 -0.17370674139E+02  0.92776812186E+02  0.47000000000E+01 0.  1.
         -5    1    4    4    0  502 -0.26148824882E+02 -0.28664885440E+02  0.21387270016E+02  0.44552688120E+02  0.47000000000E+01 0.  1.
          5    1    5    5  503    0 -0.80831019624E+02 -0.42224147566E+02 -0.30330561718E+01  0.91366415059E+02  0.47000000000E+01 0. -1.
         -5    1    5    5    0  503  0.21109753646E+02  0.40722262296E+02  0.12199434697E+02  0.47695288577E+02  0.47000000000E+01 0. -1.
<mgrwt>
<rscale>  0 0.27607663E+03</rscale>
<asrwt>0</asrwt>
<pdfrwt beam="1">  1        1 0.22274937E-01 0.27607663E+03</pdfrwt>
<pdfrwt beam="2">  1       -1 0.20246787E-01 0.27607663E+03</pdfrwt>
<totfact> 0.43610180E+03</totfact>
</mgrwt>
</event>
<event>
 9    1  0.7986988E-001  0.2765042E+03  0.7818608E-02  0.1097614E+00
          1   -1    0    0  501    0  0.00000000000E+00  0.00000000000E+00  0.36045406090E+03  0.36045406090E+03  0.00000000000E+00 0.  1.
         -1   -1    0    0    0  501 -0.00000000000E+00 -0.00000000000E+00 -0.53026558428E+02  0.53026558428E+02  0.00000000000E+00 0.  1.
         35    2    1    2    0    0  0.71054273576E-14  0.00000000000E+00  0.30742750247E+03  0.41348061933E+03  0.27650416504E+03 0.  0.
         25    2    3    3    0    0 -0.31672303284E+02  0.29842458579E+02  0.93981291031E+02  0.16250639382E+03  0.12522834280E+03 0.  0.
         25    2    3    3    0    0  0.31672303284E+02 -0.29842458579E+02  0.21344621144E+03  0.25097422550E+03  0.12463975915E+03 0.  0.
          5    1    4    4  502    0 -0.53395190425E+02 -0.25575150687E+02  0.82581010714E+02  0.10171945745E+03  0.47000000000E+01 0. -1.
         -5    1    4    4    0  502  0.21722887141E+02  0.55417609266E+02  0.11400280317E+02  0.60786936374E+02  0.47000000000E+01 0. -1.
          5    1    5    5  503    0 -0.21736237818E+02  0.32002139390E+02  0.12283624329E+03  0.12886983210E+03  0.47000000000E+01 0. -1.
         -5    1    5    5    0  503  0.53408541102E+02 -0.61844597969E+02  0.90609968153E+02  0.12210439341E+03  0.47000000000E+01 0. -1.
<mgrwt>
<rscale>  0 0.27650417E+03</rscale>
<asrwt>0</asrwt>
<pdfrwt beam="1">  1        1 0.55454469E-01 0.27650417E+03</pdfrwt>
<pdfrwt beam="2">  1       -1 0.81579323E-02 0.27650417E+03</pdfrwt>
<totfact> 0.57560987E+03</totfact>
</mgrwt>
</event>
<event>
 9    1  0.7986988E-001  0.2735790E+03  0.7818608E-02  0.1099249E+00
          1   -1    0    0  501    0  0.00000000000E+00  0.00000000000E+00  0.23872432304E+04  0.23872432304E+04  0.00000000000E+00 0. -1.
         -1   -1    0    0    0  501 -0.00000000000E+00 -0.00000000000E+00 -0.78380620843E+01  0.78380620843E+01  0.00000000000E+00 0. -1.
         35    2    1    2    0    0  0.00000000000E+00  0.00000000000E+00  0.23794051683E+04  0.23950812925E+04  0.27357895131E+03 0.  0.
         25    2    3    3    0    0  0.43743694124E+02  0.19887043190E+02  0.93807922621E+03  0.94758201033E+03  0.12494009125E+03 0.  0.
         25    2    3    3    0    0 -0.43743694124E+02 -0.19887043190E+02  0.14413259421E+04  0.14474992821E+04  0.12459813471E+03 0.  0.
          5    1    4    4  502    0  0.32440125804E+02  0.30064703596E+02  0.10110203379E+03  0.11045342639E+03  0.47000000000E+01 0. -1.
         -5    1    4    4    0  502  0.11303568320E+02 -0.10177660406E+02  0.83697719242E+03  0.83712858395E+03  0.47000000000E+01 0. -1.
          5    1    5    5  503    0 -0.85712790475E+02 -0.28174779811E+02  0.10086685467E+04  0.10127066839E+04  0.47000000000E+01 0.  1.
         -5    1    5    5    0  503  0.41969096351E+02  0.82877366213E+01  0.43265739542E+03  0.43479259819E+03  0.47000000000E+01 0.  1.
<mgrwt>
<rscale>  0 0.27357895E+03</rscale>
<asrwt>0</asrwt>
<pdfrwt beam="1">  1        1 0.36726761E+00 0.27357895E+03</pdfrwt>
<pdfrwt beam="2">  1       -1 0.12058576E-02 0.27357895E+03</pdfrwt>
<totfact> 0.27006212E+03</totfact>
</mgrwt>
</event>
<event>
 9    1  0.7986988E-001  0.2816496E+03  0.7818608E-02  0.1094791E+00
          2   -1    0    0  501    0  0.00000000000E+00  0.00000000000E+00  0.34795608609E+03  0.34795608609E+03  0.00000000000E+00 0.  1.
         -2   -1    0    0    0  501 -0.00000000000E+00 -0.00000000000E+00 -0.56994603259E+02  0.56994603259E+02  0.00000000000E+00 0.  1.
         35    2    1    2    0    0  0.71054273576E-14 -0.71054273576E-14  0.29096148283E+03  0.40495068935E+03  0.28164956295E+03 0.  0.
         25    2    3    3    0    0  0.14763222898E+02 -0.55854448858E+02  0.79624379891E+02  0.15247307991E+03  0.11649174227E+03 0.  0.
         25    2    3    3    0    0 -0.14763222898E+02  0.55854448858E+02  0.21133710294E+03  0.25247760943E+03  0.12547469857E+03 0.  0.
          5    1    4    4  502    0  0.57775794746E+02 -0.22932685626E+02  0.75554632821E+02  0.97951738470E+02  0.47000000000E+01 0.  1.
         -5    1    4    4    0  502 -0.43012571848E+02 -0.32921763232E+02  0.40697470707E+01  0.54521341441E+02  0.47000000000E+01 0.  1.
          5    1    5    5  503    0 -0.57406569536E+02  0.23061905281E+01  0.14904751287E+03  0.15980639485E+03  0.47000000000E+01 0. -1.
         -5    1    5    5    0  503  0.42643346638E+02  0.53548258330E+02  0.62289590062E+02  0.92671214585E+02  0.47000000000E+01 0. -1.
<mgrwt>
<rscale>  0 0.28164956E+03</rscale>
<asrwt>0</asrwt>
<pdfrwt beam="1">  1        2 0.53531705E-01 0.28164956E+03</pdfrwt>
<pdfrwt beam="2">  1       -2 0.87684007E-02 0.28164956E+03</pdfrwt>
<totfact> 0.75656113E+03</totfact>
</mgrwt>
</event>
<event>
 9    1  0.7986988E-001  0.2730800E+03  0.7818608E-02  0.1099530E+00
         -2   -1    0    0    0  501 -0.00000000000E+00  0.00000000000E+00  0.14177829245E+02  0.14177829245E+02  0.00000000000E+00 0.  1.
          2   -1    0    0  501    0  0.00000000000E+00 -0.00000000000E+00 -0.13149528614E+04  0.13149528614E+04  0.00000000000E+00 0.  1.
         35    2    1    2    0    0  0.00000000000E+00 -0.14210854715E-13 -0.13007750322E+04  0.13291306907E+04  0.27308004054E+03 0.  0.
         25    2    3    3    0    0 -0.10428514874E+02  0.52965770163E+02 -0.57707964836E+03  0.59272849159E+03  0.12406456969E+03 0.  0.
         25    2    3    3    0    0  0.10428514874E+02 -0.52965770163E+02 -0.72369538383E+03  0.73640219910E+03  0.12505624146E+03 0.  0.
          5    1    4    4  502    0  0.16674030728E+02  0.44621561744E+02 -0.55345522689E+03  0.55552127344E+03  0.47000000000E+01 0. -1.
         -5    1    4    4    0  502 -0.27102545602E+02  0.83442084198E+01 -0.23624421475E+02  0.37207218148E+02  0.47000000000E+01 0. -1.
          5    1    5    5  503    0 -0.15450455783E+02  0.24003304891E+01 -0.81715548763E+01  0.18257669059E+02  0.47000000000E+01 0.  1.
         -5    1    5    5    0  503  0.25878970658E+02 -0.55366100652E+02 -0.71552382895E+03  0.71814453004E+03  0.47000000000E+01 0.  1.
<mgrwt>
<rscale>  0 0.27308004E+03</rscale>
<asrwt>0</asrwt>
<pdfrwt beam="1">  1        2 0.20230041E+00 0.27308004E+03</pdfrwt>
<pdfrwt beam="2">  1       -2 0.21812048E-02 0.27308004E+03</pdfrwt>
<totfact> 0.11696956E+04</totfact>
</mgrwt>
</event>
<event>
 9    1  0.7986988E-001  0.2750280E+03  0.7818608E-02  0.1098436E+00
         -1   -1    0    0    0  501 -0.00000000000E+00  0.00000000000E+00  0.75075501662E+01  0.75075501662E+01  0.00000000000E+00 0. -1.
          1   -1    0    0  501    0  0.00000000000E+00 -0.00000000000E+00 -0.25188105158E+04  0.25188105158E+04  0.00000000000E+00 0. -1.
         35    2    1    2    0    0  0.00000000000E+00 -0.35527136788E-14 -0.25113029656E+04  0.25263180660E+04  0.27502797172E+03 0.  0.
         25    2    3    3    0    0 -0.32645821422E+02  0.10497045056E+02 -0.16724532409E+04  0.16775311251E+04  0.12583677935E+03 0.  0.
         25    2    3    3    0    0  0.32645821422E+02 -0.10497045056E+02 -0.83884972475E+03  0.84878694089E+03  0.12487783112E+03 0.  0.
          5    1    4    4  502    0 -0.33601757682E+02 -0.43409189015E+02 -0.12999527813E+04  0.13011198098E+04  0.47000000000E+01 0.  1.
         -5    1    4    4    0  502  0.95593626050E+00  0.53906234071E+02 -0.37250045960E+03  0.37641131530E+03  0.47000000000E+01 0.  1.
          5    1    5    5  503    0 -0.31109977802E+02 -0.14220686053E+02 -0.78653601079E+02  0.85898414382E+02  0.47000000000E+01 0.  1.
         -5    1    5    5    0  503  0.63755799224E+02  0.37236409977E+01 -0.76019612367E+03  0.76288852651E+03  0.47000000000E+01 0.  1.
<mgrwt>
<rscale>  0 0.27502797E+03</rscale>
<asrwt>0</asrwt>
<pdfrwt beam="1">  1        1 0.38751018E+00 0.27502797E+03</pdfrwt>
<pdfrwt beam="2">  1       -1 0.11550051E-02 0.27502797E+03</pdfrwt>
<totfact> 0.23515705E+03</totfact>
</mgrwt>
</event>
<event>
 9    1  0.7986988E-001  0.2875484E+03  0.7818608E-02  0.1091636E+00
         -2   -1    0    0    0  501 -0.00000000000E+00  0.00000000000E+00  0.11848301476E+03  0.11848301476E+03  0.00000000000E+00 0.  1.
          2   -1    0    0  501    0  0.00000000000E+00 -0.00000000000E+00 -0.17446400056E+03  0.17446400056E+03  0.00000000000E+00 0.  1.
         35    2    1    2    0    0  0.00000000000E+00  0.71054273576E-14 -0.55980985801E+02  0.29294701533E+03  0.28754840118E+03 0.  0.
         25    2    3    3    0    0 -0.44420511947E+02  0.45284732052E+02 -0.76724513040E+02  0.15949421707E+03  0.12461085643E+03 0.  0.
         25    2    3    3    0    0  0.44420511947E+02 -0.45284732052E+02  0.20743527239E+02  0.13345279825E+03  0.11556585396E+03 0.  0.
          5    1    4    4  502    0 -0.44786902475E+02  0.26035267600E+02  0.23679191851E+02  0.57153266915E+02  0.47000000000E+01 0.  1.
         -5    1    4    4    0  502  0.36639052740E+00  0.19249464452E+02 -0.10040370489E+03  0.10234095016E+03  0.47000000000E+01 0.  1.
          5    1    5    5  503    0  0.76904931637E+02 -0.58076915088E+02  0.17688920110E+02  0.98093243758E+02  0.47000000000E+01 0.  1.
         -5    1    5    5    0  503 -0.32484419690E+02  0.12792183036E+02  0.30546071291E+01  0.35359554496E+02  0.47000000000E+01 0.  1.
<mgrwt>
<rscale>  0 0.28754840E+03</rscale>
<asrwt>0</asrwt>
<pdfrwt beam="1">  1        2 0.26840616E-01 0.28754840E+03</pdfrwt>
<pdfrwt beam="2">  1       -2 0.18228156E-01 0.28754840E+03</pdfrwt>
<totfact> 0.48715895E+03</totfact>
</mgrwt>
</event>
<event>
 9    1  0.7986988E-001  0.2746894E+03  0.7818608E-02  0.1098625E+00
         -1   -1    0    0    0  501 -0.00000000000E+00  0.00000000000E+00  0.11533370699E+04  0.11533370699E+04  0.00000000000E+00 0. -1.
          1   -1    0    0  501    0  0.00000000000E+00 -0.00000000000E+00 -0.16355634664E+02  0.16355634664E+02  0.00000000000E+00 0. -1.
         35    2    1    2    0    0  0.14210854715E-13 -0.71054273576E-14  0.11369814352E+04  0.11696927045E+04  0.27468935006E+03 0.  0.
         25    2    3    3    0    0  0.55979398294E+02 -0.66098497909E+01  0.57201946379E+03  0.58821086376E+03  0.12493346285E+03 0.  0.
         25    2    3    3    0    0 -0.55979398294E+02  0.66098497909E+01  0.56496197141E+03  0.58148184078E+03  0.12554568435E+03 0.  0.
          5    1    4    4  502    0  0.20645825756E+02  0.38279932042E+02  0.46280664089E+03  0.46486953027E+03  0.47000000000E+01 0. -1.
         -5    1    4    4    0  502  0.35333572539E+02 -0.44889781833E+02  0.10921282290E+03  0.12334133349E+03  0.47000000000E+01 0. -1.
          5    1    5    5  503    0 -0.38245678499E+02 -0.53927326456E+02  0.19016767063E+03  0.20138699415E+03  0.47000000000E+01 0. -1.
         -5    1    5    5    0  503 -0.17733719795E+02  0.60537176247E+02  0.37479430079E+03  0.38009484662E+03  0.47000000000E+01 0. -1.
<mgrwt>
<rscale>  0 0.27468935E+03</rscale>
<asrwt>0</asrwt>
<pdfrwt beam="1">  1        1 0.25162524E-02 0.27468935E+03</pdfrwt>
<pdfrwt beam="2">  1       -1 0.17743641E+00 0.27468935E+03</pdfrwt>
<totfact> 0.10413522E+03</totfact>
</mgrwt>
</event>
<event>
 9    1  0.7986988E-001  0.2719621E+03  0.7818608E-02  0.1100162E+00
         -1   -1    0    0    0  501 -0.00000000000E+00  0.00000000000E+00  0.33079345851E+02  0.33079345851E+02  0.00000000000E+00 0.  1.
          1   -1    0    0  501    0  0.00000000000E+00 -0.00000000000E+00 -0.55898443586E+03  0.55898443586E+03  0.00000000000E+00 0.  1.
         35    2    1    2    0    0  0.00000000000E+00 -0.35527136788E-14 -0.52590509001E+03  0.59206378171E+03  0.27196205234E+03 0.  0.
         25    2    3    3    0    0 -0.55287274316E+00 -0.34480851975E+01 -0.37841733358E+03  0.39869008360E+03  0.12546676633E+03 0.  0.
         25    2    3    3    0    0  0.55287274316E+00  0.34480851975E+01 -0.14748775643E+03  0.19337369810E+03  0.12501421464E+03 0.  0.
          5    1    4    4  502    0 -0.58287233502E+02  0.19639959018E+02 -0.21864765290E+03  0.22718278037E+03  0.47000000000E+01 0. -1.
         -5    1    4    4    0  502  0.57734360759E+02 -0.23088044216E+02 -0.15976968068E+03  0.17150730323E+03  0.47000000000E+01 0. -1.
          5    1    5    5  503    0  0.29797074419E+02 -0.53009858136E+02 -0.78977620525E+02  0.99787099604E+02  0.47000000000E+01 0.  1.
         -5    1    5    5    0  503 -0.29244201676E+02  0.56457943333E+02 -0.68510135905E+02  0.93586598500E+02  0.47000000000E+01 0.  1.
<mgrwt>
<rscale>  0 0.27196205E+03</rscale>
<asrwt>0</asrwt>
<pdfrwt beam="1">  1        1 0.85997602E-01 0.27196205E+03</pdfrwt>
<pdfrwt beam="2">  1       -1 0.50891303E-02 0.27196205E+03</pdfrwt>
<totfact> 0.66197467E+03</totfact>
</mgrwt>
</event>
<event>
 9    1  0.7986988E-001  0.2774327E+03  0.7818608E-02  0.1097099E+00
         -3   -1    0    0    0  501 -0.00000000000E+00  0.00000000000E+00  0.12881862758E+04  0.12881862758E+04  0.00000000000E+00 0.  1.
          3   -1    0    0  501    0  0.00000000000E+00 -0.00000000000E+00 -0.14937454162E+02  0.14937454162E+02  0.00000000000E+00 0.  1.
         35    2    1    2    0    0 -0.17763568394E-14  0.71054273576E-14  0.12732488216E+04  0.13031237299E+04  0.27743268334E+03 0.  0.
         25    2    3    3    0    0  0.14807608326E+02 -0.29041345440E+02  0.88350793630E+03  0.89294938441E+03  0.12533820088E+03 0.  0.
         25    2    3    3    0    0 -0.14807608326E+02  0.29041345440E+02  0.38974088529E+03  0.41017434551E+03  0.12362188736E+03 0.  0.
          5    1    4    4  502    0 -0.82016326050E+01 -0.34660272650E+02  0.85428772849E+03  0.85504281432E+03  0.47000000000E+01 0.  1.
         -5    1    4    4    0  502  0.23009240931E+02  0.56189272096E+01  0.29220207813E+02  0.37906570088E+02  0.47000000000E+01 0.  1.
          5    1    5    5  503    0 -0.34267356952E+01 -0.43879152748E+02  0.22898600698E+03  0.23322479276E+03  0.47000000000E+01 0.  1.
         -5    1    5    5    0  503 -0.11380872630E+02  0.72920498188E+02  0.16075487831E+03  0.17694955275E+03  0.47000000000E+01 0.  1.
<mgrwt>
<rscale>  0 0.27743268E+03</rscale>
<asrwt>0</asrwt>
<pdfrwt beam="1">  1        3 0.22980709E-02 0.27743268E+03</pdfrwt>
<pdfrwt beam="2">  1       -3 0.19818242E+00 0.27743268E+03</pdfrwt>
<totfact> 0.31898563E+02</totfact>
</mgrwt>
</event>
<event>
 9    1  0.7986988E-001  0.2721949E+03  0.7818608E-02  0.1100030E+00
          1   -1    0    0  501    0  0.00000000000E+00  0.00000000000E+00  0.39593050600E+03  0.39593050600E+03  0.00000000000E+00 0. -1.
         -1   -1    0    0    0  501 -0.00000000000E+00 -0.00000000000E+00 -0.46782234225E+02  0.46782234225E+02  0.00000000000E+00 0. -1.
         35    2    1    2    0    0  0.35527136788E-14  0.00000000000E+00  0.34914827177E+03  0.44271274022E+03  0.27219488363E+03 0.  0.
         25    2    3    3    0    0  0.27998312448E+02 -0.38338337432E+02  0.20387614370E+03  0.24533066708E+03  0.12793717451E+03 0.  0.
         25    2    3    3    0    0 -0.27998312448E+02  0.38338337432E+02  0.14527212807E+03  0.19738207314E+03  0.12490779794E+03 0.  0.
          5    1    4    4  502    0  0.47359367502E+02  0.35686270468E+02  0.80850138094E+02  0.10037556685E+03  0.47000000000E+01 0.  1.
         -5    1    4    4    0  502 -0.19361055054E+02 -0.74024607900E+02  0.12302600561E+03  0.14495510023E+03  0.47000000000E+01 0.  1.
          5    1    5    5  503    0 -0.25097611131E+02  0.32980351147E+02 -0.92051906006E+01  0.42713220205E+02  0.47000000000E+01 0.  1.
         -5    1    5    5    0  503 -0.29007013175E+01  0.53579862847E+01  0.15447731867E+03  0.15466885294E+03  0.47000000000E+01 0.  1.
<mgrwt>
<rscale>  0 0.27219488E+03</rscale>
<asrwt>0</asrwt>
<pdfrwt beam="1">  1        1 0.60912383E-01 0.27219488E+03</pdfrwt>
<pdfrwt beam="2">  1       -1 0.71972671E-02 0.27219488E+03</pdfrwt>
<totfact> 0.61779368E+03</totfact>
</mgrwt>
</event>
<event>
 9    1  0.7986988E-001  0.2749282E+03  0.7818608E-02  0.1098492E+00
         -2   -1    0    0    0  501 -0.00000000000E+00  0.00000000000E+00  0.41203975261E+02  0.41203975261E+02  0.00000000000E+00 0. -1.
          2   -1    0    0  501    0  0.00000000000E+00 -0.00000000000E+00 -0.45860559107E+03  0.45860559107E+03  0.00000000000E+00 0. -1.
         35    2    1    2    0    0  0.00000000000E+00  0.00000000000E+00 -0.41740161581E+03  0.49980956633E+03  0.27492816101E+03 0.  0.
         25    2    3    3    0    0  0.31113373860E+02  0.14582107379E+02 -0.12967572664E+03  0.18347060089E+03  0.12515984748E+03 0.  0.
         25    2    3    3    0    0 -0.31113373860E+02 -0.14582107379E+02 -0.28772588917E+03  0.31633896545E+03  0.12689946365E+03 0.  0.
          5    1    4    4  502    0  0.15910295547E+01  0.64812230198E+02 -0.96226240473E+02  0.11612379564E+03  0.47000000000E+01 0.  1.
         -5    1    4    4    0  502  0.29522344305E+02 -0.50230122819E+02 -0.33449486171E+02  0.67346805246E+02  0.47000000000E+01 0.  1.
          5    1    5    5  503    0  0.41548868353E+02  0.10795784051E+02 -0.48243859441E+02  0.64748879438E+02  0.47000000000E+01 0. -1.
         -5    1    5    5    0  503 -0.72662242213E+02 -0.25377891430E+02 -0.23948202973E+03  0.25159008601E+03  0.47000000000E+01 0. -1.
<mgrwt>
<rscale>  0 0.27492816E+03</rscale>
<asrwt>0</asrwt>
<pdfrwt beam="1">  1        2 0.70554702E-01 0.27492816E+03</pdfrwt>
<pdfrwt beam="2">  1       -2 0.63390735E-02 0.27492816E+03</pdfrwt>
<totfact> 0.92692908E+03</totfact>
</mgrwt>
</event>
<event>
 9    1  0.7986988E-001  0.2770346E+03  0.7818608E-02  0.1097320E+00
         -1   -1    0    0    0  501 -0.00000000000E+00  0.00000000000E+00  0.21283022746E+02  0.21283022746E+02  0.00000000000E+00 0.  1.
          1   -1    0    0  501    0  0.00000000000E+00 -0.00000000000E+00 -0.90151856842E+03  0.90151856842E+03  0.00000000000E+00 0.  1.
         35    2    1    2    0    0  0.71054273576E-14 -0.17763568394E-14 -0.88023554567E+03  0.92280159116E+03  0.27703458411E+03 0.  0.
         25    2    3    3    0    0 -0.58113465205E+02  0.82413470778E+01 -0.49899369776E+03  0.51771466501E+03  0.12485459272E+03 0.  0.
         25    2    3    3    0    0  0.58113465205E+02 -0.82413470778E+01 -0.38124184791E+03  0.40508692615E+03  0.12371328345E+03 0.  0.
          5    1    4    4  502    0 -0.20279696506E+02 -0.56300076967E+02 -0.16990089657E+03  0.18019258978E+03  0.47000000000E+01 0.  1.
         -5    1    4    4    0  502 -0.37833768699E+02  0.64541424045E+02 -0.32909280119E+03  0.33752207523E+03  0.47000000000E+01 0.  1.
          5    1    5    5  503    0  0.49866876718E+02  0.35102533568E+01 -0.41865632618E+02  0.65374677565E+02  0.47000000000E+01 0.  1.
         -5    1    5    5    0  503  0.82465884871E+01 -0.11751600435E+02 -0.33937621529E+03  0.33971224859E+03  0.47000000000E+01 0.  1.
<mgrwt>
<rscale>  0 0.27703458E+03</rscale>
<asrwt>0</asrwt>
<pdfrwt beam="1">  1        1 0.13869517E+00 0.27703458E+03</pdfrwt>
<pdfrwt beam="2">  1       -1 0.32743110E-02 0.27703458E+03</pdfrwt>
<totfact> 0.63037026E+03</totfact>
</mgrwt>
</event>
<event>
 9    1  0.7986988E-001  0.2760128E+03  0.7818608E-02  0.1097887E+00
         -1   -1    0    0    0  501 -0.00000000000E+00  0.00000000000E+00  0.15229217148E+03  0.15229217148E+03  0.00000000000E+00 0. -1.
          1   -1    0    0  501    0  0.00000000000E+00 -0.00000000000E+00 -0.12506069349E+03  0.12506069349E+03  0.00000000000E+00 0. -1.
         35    2    1    2    0    0  0.71054273576E-14  0.00000000000E+00  0.27231477992E+02  0.27735286497E+03  0.27601278651E+03 0.  0.
         25    2    3    3    0    0  0.28600415730E+02 -0.50565733058E+02  0.16407407796E+02  0.13872947861E+03  0.12490711775E+03 0.  0.
         25    2    3    3    0    0 -0.28600415730E+02  0.50565733058E+02  0.10824070196E+02  0.13862338636E+03  0.12539699204E+03 0.  0.
          5    1    4    4  502    0  0.75191070378E+02 -0.38967829502E+02  0.27617686340E+02  0.89202104232E+02  0.47000000000E+01 0.  1.
         -5    1    4    4    0  502 -0.46590654648E+02 -0.11597903556E+02 -0.11210278544E+02  0.49527374375E+02  0.47000000000E+01 0.  1.
          5    1    5    5  503    0 -0.16798871101E+02  0.82486917960E+02  0.40214972985E+02  0.93411068707E+02  0.47000000000E+01 0.  1.
         -5    1    5    5    0  503 -0.11801544629E+02 -0.31921184902E+02 -0.29390902789E+02  0.45212317657E+02  0.47000000000E+01 0.  1.
<mgrwt>
<rscale>  0 0.27601279E+03</rscale>
<asrwt>0</asrwt>
<pdfrwt beam="1">  1        1 0.19240107E-01 0.27601279E+03</pdfrwt>
<pdfrwt beam="2">  1       -1 0.23429565E-01 0.27601279E+03</pdfrwt>
<totfact> 0.41441428E+03</totfact>
</mgrwt>
</event>
<event>
 9    1  0.7986988E-001  0.2738151E+03  0.7818608E-02  0.1099116E+00
         -1   -1    0    0    0  501 -0.00000000000E+00  0.00000000000E+00  0.51271258275E+02  0.51271258275E+02  0.00000000000E+00 0. -1.
          1   -1    0    0  501    0  0.00000000000E+00 -0.00000000000E+00 -0.36557877480E+03  0.36557877480E+03  0.00000000000E+00 0. -1.
         35    2    1    2    0    0 -0.71054273576E-14  0.00000000000E+00 -0.31430751653E+03  0.41685003308E+03  0.27381514774E+03 0.  0.
         25    2    3    3    0    0 -0.49331546274E+02 -0.24054272587E+01 -0.12228136591E+03  0.18209072239E+03  0.12555839755E+03 0.  0.
         25    2    3    3    0    0  0.49331546274E+02  0.24054272587E+01 -0.19202615062E+03  0.23475931068E+03  0.12569209956E+03 0.  0.
          5    1    4    4  502    0 -0.26493387147E+01  0.16364561462E+02 -0.12985467204E+03  0.13099291476E+03  0.47000000000E+01 0.  1.
         -5    1    4    4    0  502 -0.46682207559E+02 -0.18769988720E+02  0.75733061323E+01  0.51097807634E+02  0.47000000000E+01 0.  1.
          5    1    5    5  503    0 -0.17661184945E+02  0.22782268786E+02  0.11503972001E+01  0.29229482350E+02  0.47000000000E+01 0.  1.
         -5    1    5    5    0  503  0.66992731219E+02 -0.20376841528E+02 -0.19317654782E+03  0.20552982833E+03  0.47000000000E+01 0.  1.
<mgrwt>
<rscale>  0 0.27381515E+03</rscale>
<asrwt>0</asrwt>
<pdfrwt beam="1">  1        1 0.56242889E-01 0.27381515E+03</pdfrwt>
<pdfrwt beam="2">  1       -1 0.78878858E-02 0.27381515E+03</pdfrwt>
<totfact> 0.59501408E+03</totfact>
</mgrwt>
</event>
<event>
 9    1  0.7986988E-001  0.2927773E+03  0.7818608E-02  0.1088908E+00
          1   -1    0    0  501    0  0.00000000000E+00  0.00000000000E+00  0.95587768697E+03  0.95587768697E+03  0.00000000000E+00 0. -1.
         -1   -1    0    0    0  501 -0.00000000000E+00 -0.00000000000E+00 -0.22418812666E+02  0.22418812666E+02  0.00000000000E+00 0. -1.
         35    2    1    2    0    0 -0.10658141036E-13  0.00000000000E+00  0.93345887430E+03  0.97829649963E+03  0.29277734062E+03 0.  0.
         25    2    3    3    0    0 -0.29786076618E+02 -0.56982278504E+02  0.61441456268E+03  0.63027587715E+03  0.12493292627E+03 0.  0.
         25    2    3    3    0    0  0.29786076618E+02  0.56982278504E+02  0.31904431162E+03  0.34802062248E+03  0.12326755643E+03 0.  0.
          5    1    4    4  502    0 -0.75485419988E+02 -0.42425454924E+02  0.47277789636E+03  0.48066516115E+03  0.47000000000E+01 0. -1.
         -5    1    4    4    0  502  0.45699343371E+02 -0.14556823580E+02  0.14163666632E+03  0.14961071600E+03  0.47000000000E+01 0. -1.
          5    1    5    5  503    0  0.52208366621E+02 -0.15026666337E+02  0.76276144653E+02  0.93763822925E+02  0.47000000000E+01 0. -1.
         -5    1    5    5    0  503 -0.22422290004E+02  0.72008944841E+02  0.24276816697E+03  0.25425679956E+03  0.47000000000E+01 0. -1.
<mgrwt>
<rscale>  0 0.29277734E+03</rscale>
<asrwt>0</asrwt>
<pdfrwt beam="1">  1        1 0.14705807E+00 0.29277734E+03</pdfrwt>
<pdfrwt beam="2">  1       -1 0.34490488E-02 0.29277734E+03</pdfrwt>
<totfact> 0.53024437E+03</totfact>
</mgrwt>
</event>
<event>
 9    1  0.7986988E-001  0.2685425E+03  0.7818608E-02  0.1102117E+00
         -1   -1    0    0    0  501 -0.00000000000E+00  0.00000000000E+00  0.62869108460E+02  0.62869108460E+02  0.00000000000E+00 0.  1.
          1   -1    0    0  501    0  0.00000000000E+00 -0.00000000000E+00 -0.28676664392E+03  0.28676664392E+03  0.00000000000E+00 0.  1.
         35    2    1    2    0    0 -0.71054273576E-14  0.00000000000E+00 -0.22389753546E+03  0.34963575238E+03  0.26854246025E+03 0.  0.
         25    2    3    3    0    0  0.31854312473E+02  0.33676251357E+02 -0.10647455918E+03  0.17171989203E+03  0.12649941675E+03 0.  0.
         25    2    3    3    0    0 -0.31854312473E+02 -0.33676251357E+02 -0.11742297628E+03  0.17791586035E+03  0.12536790210E+03 0.  0.
          5    1    4    4  502    0  0.55717758199E+02  0.44874044207E+02 -0.12145567056E+03  0.14103800316E+03  0.47000000000E+01 0. -1.
         -5    1    4    4    0  502 -0.23863445726E+02 -0.11197792850E+02  0.14981111384E+02  0.30681888875E+02  0.47000000000E+01 0. -1.
          5    1    5    5  503    0  0.42873343205E+02 -0.40459542360E+01 -0.75712575444E+02  0.87229452501E+02  0.47000000000E+01 0.  1.
         -5    1    5    5    0  503 -0.74727655678E+02 -0.29630297121E+02 -0.41710400837E+02  0.90686407849E+02  0.47000000000E+01 0.  1.
<mgrwt>
<rscale>  0 0.26854246E+03</rscale>
<asrwt>0</asrwt>
<pdfrwt beam="1">  1        1 0.44117946E-01 0.26854246E+03</pdfrwt>
<pdfrwt beam="2">  1       -1 0.96721703E-02 0.26854246E+03</pdfrwt>
<totfact> 0.59088927E+03</totfact>
</mgrwt>
</event>
<event>
 9    1  0.7986988E-001  0.2937761E+03  0.7818608E-02  0.1088394E+00
         -2   -1    0    0    0  501 -0.00000000000E+00  0.00000000000E+00  0.33655984757E+02  0.33655984757E+02  0.00000000000E+00 0. -1.
          2   -1    0    0  501    0  0.00000000000E+00 -0.00000000000E+00 -0.64107748196E+03  0.64107748196E+03  0.00000000000E+00 0. -1.
         35    2    1    2    0    0  0.00000000000E+00  0.35527136788E-14 -0.60742149720E+03  0.67473346672E+03  0.29377606411E+03 0.  0.
         25    2    3    3    0    0  0.74099123891E+02  0.90009874332E+01 -0.34611100353E+03  0.37544198019E+03  0.12486855403E+03 0.  0.
         25    2    3    3    0    0 -0.74099123891E+02 -0.90009874332E+01 -0.26131049367E+03  0.29929148653E+03  0.12538150529E+03 0.  0.
          5    1    4    4  502    0  0.81748626978E+02 -0.23758147263E+02 -0.32371793605E+03  0.33475764322E+03  0.47000000000E+01 0. -1.
         -5    1    4    4    0  502 -0.76495030871E+01  0.32759134696E+02 -0.22393067487E+02  0.40684336974E+02  0.47000000000E+01 0. -1.
          5    1    5    5  503    0 -0.53413982566E+02 -0.65864067917E+02 -0.14290424619E+03  0.16623730796E+03  0.47000000000E+01 0.  1.
         -5    1    5    5    0  503 -0.20685141325E+02  0.56863080484E+02 -0.11840624748E+03  0.13305417857E+03  0.47000000000E+01 0.  1.
<mgrwt>
<rscale>  0 0.29377606E+03</rscale>
<asrwt>0</asrwt>
<pdfrwt beam="1">  1        2 0.98627304E-01 0.29377606E+03</pdfrwt>
<pdfrwt beam="2">  1       -2 0.51778438E-02 0.29377606E+03</pdfrwt>
<totfact> 0.86473056E+03</totfact>
</mgrwt>
</event>
<event>
 9    1  0.7986988E-001  0.2750722E+03  0.7818608E-02  0.1098411E+00
         -1   -1    0    0    0  501 -0.00000000000E+00  0.00000000000E+00  0.12491972602E+03  0.12491972602E+03  0.00000000000E+00 0. -1.
          1   -1    0    0  501    0  0.00000000000E+00 -0.00000000000E+00 -0.15142664429E+03  0.15142664429E+03  0.00000000000E+00 0. -1.
         35    2    1    2    0    0  0.35527136788E-14  0.71054273576E-14 -0.26506918266E+02  0.27634637031E+03  0.27507217175E+03 0.  0.
         25    2    3    3    0    0 -0.15278937768E+02  0.48101067780E+02  0.16431412403E+02  0.13464615512E+03  0.12374343261E+03 0.  0.
         25    2    3    3    0    0  0.15278937768E+02 -0.48101067780E+02 -0.42938330669E+02  0.14170021520E+03  0.12525211410E+03 0.  0.
          5    1    4    4  502    0 -0.38715132594E+02  0.76878054795E+02 -0.12827619633E+02  0.87153511841E+02  0.47000000000E+01 0. -1.
         -5    1    4    4    0  502  0.23436194827E+02 -0.28776987015E+02  0.29259032036E+02  0.47492643275E+02  0.47000000000E+01 0. -1.
          5    1    5    5  503    0  0.59412698525E+02  0.68158444152E+01 -0.37801197794E+02  0.70903773071E+02  0.47000000000E+01 0.  1.
         -5    1    5    5    0  503 -0.44133760757E+02 -0.54916912195E+02 -0.51371328746E+01  0.70796442127E+02  0.47000000000E+01 0.  1.
<mgrwt>
<rscale>  0 0.27507217E+03</rscale>
<asrwt>0</asrwt>
<pdfrwt beam="1">  1        1 0.23296407E-01 0.27507217E+03</pdfrwt>
<pdfrwt beam="2">  1       -1 0.19218419E-01 0.27507217E+03</pdfrwt>
<totfact> 0.44811804E+03</totfact>
</mgrwt>
</event>
<event>
 9    1  0.7986988E-001  0.2712711E+03  0.7818608E-02  0.1100554E+00
          3   -1    0    0  501    0  0.00000000000E+00  0.00000000000E+00  0.68161650501E+02  0.68161650501E+02  0.00000000000E+00 0.  1.
         -3   -1    0    0    0  501 -0.00000000000E+00 -0.00000000000E+00 -0.26990246104E+03  0.26990246104E+03  0.00000000000E+00 0.  1.
         35    2    1    2    0    0  0.00000000000E+00  0.00000000000E+00 -0.20174081054E+03  0.33806411154E+03  0.27127106162E+03 0.  0.
         25    2    3    3    0    0 -0.48192757467E+02 -0.22680646472E+02 -0.10901428766E+03  0.17370636930E+03  0.12430942934E+03 0.  0.
         25    2    3    3    0    0  0.48192757467E+02  0.22680646472E+02 -0.92726522877E+02  0.16435774224E+03  0.12481308342E+03 0.  0.
          5    1    4    4  502    0 -0.15383495658E+02 -0.53402434484E+02 -0.11529821049E+03  0.12807903533E+03  0.47000000000E+01 0.  1.
         -5    1    4    4    0  502 -0.32809261810E+02  0.30721788012E+02  0.62839228329E+01  0.45627333971E+02  0.47000000000E+01 0.  1.
          5    1    5    5  503    0  0.89956961986E+02  0.66424930832E+01 -0.55906373307E+02  0.10622612814E+03  0.47000000000E+01 0.  1.
         -5    1    5    5    0  503 -0.41764204518E+02  0.16038153389E+02 -0.36820149570E+02  0.58131614097E+02  0.47000000000E+01 0.  1.
<mgrwt>
<rscale>  0 0.27127106E+03</rscale>
<asrwt>0</asrwt>
<pdfrwt beam="1">  1        3 0.10486408E-01 0.27127106E+03</pdfrwt>
<pdfrwt beam="2">  1       -3 0.41523456E-01 0.27127106E+03</pdfrwt>
<totfact> 0.99922798E+02</totfact>
</mgrwt>
</event>
<event>
 9    1  0.7986988E-001  0.2777688E+03  0.7818608E-02  0.1096914E+00
         -1   -1    0    0    0  501 -0.00000000000E+00  0.00000000000E+00  0.37300471482E+03  0.37300471482E+03  0.00000000000E+00 0. -1.
          1   -1    0    0  501    0  0.00000000000E+00 -0.00000000000E+00 -0.51712141907E+02  0.51712141907E+02  0.00000000000E+00 0. -1.
         35    2    1    2    0    0  0.00000000000E+00  0.00000000000E+00  0.32129257292E+03  0.42471685673E+03  0.27776877251E+03 0.  0.
         25    2    3    3    0    0  0.39395368096E+02  0.40161120122E+02  0.19548098723E+03  0.23853966390E+03  0.12459311494E+03 0.  0.
         25    2    3    3    0    0 -0.39395368096E+02 -0.40161120122E+02  0.12581158568E+03  0.18617719282E+03  0.12517380492E+03 0.  0.
          5    1    4    4  502    0 -0.20758645004E+02  0.12332996956E+02  0.16251438643E+03  0.16436556802E+03  0.47000000000E+01 0.  1.
         -5    1    4    4    0  502  0.60154013100E+02  0.27828123166E+02  0.32966600807E+02  0.74174095881E+02  0.47000000000E+01 0.  1.
          5    1    5    5  503    0 -0.47196609539E+02 -0.31854373516E+02  0.14918562778E+03  0.15975187824E+03  0.47000000000E+01 0. -1.
         -5    1    5    5    0  503  0.78012414434E+01 -0.83067466063E+01 -0.23374042096E+02  0.26425314589E+02  0.47000000000E+01 0. -1.
<mgrwt>
<rscale>  0 0.27776877E+03</rscale>
<asrwt>0</asrwt>
<pdfrwt beam="1">  1        1 0.79557144E-02 0.27776877E+03</pdfrwt>
<pdfrwt beam="2">  1       -1 0.57385339E-01 0.27776877E+03</pdfrwt>
<totfact> 0.27669325E+03</totfact>
</mgrwt>
</event>
<event>
 9    1  0.7986988E-001  0.2844931E+03  0.7818608E-02  0.1093260E+00
         -2   -1    0    0    0  501 -0.00000000000E+00  0.00000000000E+00  0.26031839464E+02  0.26031839464E+02  0.00000000000E+00 0.  1.
          2   -1    0    0  501    0  0.00000000000E+00 -0.00000000000E+00 -0.77728181577E+03  0.77728181577E+03  0.00000000000E+00 0.  1.
         35    2    1    2    0    0  0.71054273576E-14  0.00000000000E+00 -0.75124997631E+03  0.80331365524E+03  0.28449306105E+03 0.  0.
         25    2    3    3    0    0 -0.45525231779E+02  0.52629247477E+01 -0.23786371332E+03  0.27301581758E+03  0.12592952564E+03 0.  0.
         25    2    3    3    0    0  0.45525231779E+02 -0.52629247477E+01 -0.51338626299E+03  0.53029783766E+03  0.12470002604E+03 0.  0.
          5    1    4    4  502    0 -0.38770125323E+02  0.14404543467E+02 -0.25134384286E+03  0.25476740536E+03  0.47000000000E+01 0.  1.
         -5    1    4    4    0  502 -0.67551064563E+01 -0.91416187192E+01  0.13480129541E+02  0.18248412218E+02  0.47000000000E+01 0.  1.
          5    1    5    5  503    0  0.29995192814E+02  0.10564391387E+01 -0.19488468360E+02  0.36093185709E+02  0.47000000000E+01 0.  1.
         -5    1    5    5    0  503  0.15530038965E+02 -0.63193638865E+01 -0.49389779463E+03  0.49420465195E+03  0.47000000000E+01 0.  1.
<mgrwt>
<rscale>  0 0.28449306E+03</rscale>
<asrwt>0</asrwt>
<pdfrwt beam="1">  1        2 0.11958181E+00 0.28449306E+03</pdfrwt>
<pdfrwt beam="2">  1       -2 0.40048985E-02 0.28449306E+03</pdfrwt>
<totfact> 0.10077432E+04</totfact>
</mgrwt>
</event>
<event>
 9    1  0.7986988E-001  0.2757652E+03  0.7818608E-02  0.1098025E+00
         -1   -1    0    0    0  501 -0.00000000000E+00  0.00000000000E+00  0.47872675671E+02  0.47872675671E+02  0.00000000000E+00 0.  1.
          1   -1    0    0  501    0  0.00000000000E+00 -0.00000000000E+00 -0.39712867101E+03  0.39712867101E+03  0.00000000000E+00 0.  1.
         35    2    1    2    0    0 -0.35527136788E-14 -0.71054273576E-14 -0.34925599534E+03  0.44500134668E+03  0.27576520496E+03 0.  0.
         25    2    3    3    0    0 -0.19704638293E+02 -0.44943507760E+02 -0.23083893105E+03  0.26693004525E+03  0.12472708329E+03 0.  0.
         25    2    3    3    0    0  0.19704638293E+02  0.44943507760E+02 -0.11841706429E+03  0.17807130143E+03  0.12360661641E+03 0.  0.
          5    1    4    4  502    0 -0.41593689560E+02 -0.80721801973E+02 -0.17147079156E+03  0.19408855371E+03  0.47000000000E+01 0. -1.
         -5    1    4    4    0  502  0.21889051267E+02  0.35778294213E+02 -0.59368139494E+02  0.72841491536E+02  0.47000000000E+01 0. -1.
          5    1    5    5  503    0  0.50530918726E+02  0.66647687908E+02 -0.44248140462E+02  0.94737933190E+02  0.47000000000E+01 0. -1.
         -5    1    5    5    0  503 -0.30826280433E+02 -0.21704180148E+02 -0.74168923828E+02  0.83333368245E+02  0.47000000000E+01 0. -1.
<mgrwt>
<rscale>  0 0.27576520E+03</rscale>
<asrwt>0</asrwt>
<pdfrwt beam="1">  1        1 0.61096722E-01 0.27576520E+03</pdfrwt>
<pdfrwt beam="2">  1       -1 0.73650266E-02 0.27576520E+03</pdfrwt>
<totfact> 0.59446589E+03</totfact>
</mgrwt>
</event>
<event>
 9    1  0.7986988E-001  0.2753510E+03  0.7818608E-02  0.1098256E+00
          1   -1    0    0  501    0  0.00000000000E+00  0.00000000000E+00  0.16117644796E+03  0.16117644796E+03  0.00000000000E+00 0. -1.
         -1   -1    0    0    0  501 -0.00000000000E+00 -0.00000000000E+00 -0.11760117355E+03  0.11760117355E+03  0.00000000000E+00 0. -1.
         35    2    1    2    0    0  0.00000000000E+00  0.00000000000E+00  0.43575274413E+02  0.27877762151E+03  0.27535097188E+03 0.  0.
         25    2    3    3    0    0 -0.91668754598E+01 -0.55412075697E+02  0.16147001534E+02  0.13801898924E+03  0.12503593880E+03 0.  0.
         25    2    3    3    0    0  0.91668754598E+01  0.55412075697E+02  0.27428272878E+02  0.14075863227E+03  0.12611959668E+03 0.  0.
          5    1    4    4  502    0  0.52332337776E+02 -0.37534991076E+02  0.31716449852E+02  0.71941450662E+02  0.47000000000E+01 0. -1.
         -5    1    4    4    0  502 -0.61499213236E+02 -0.17877084621E+02 -0.15569448317E+02  0.66077538574E+02  0.47000000000E+01 0. -1.
          5    1    5    5  503    0 -0.48949517207E+01  0.62397620503E+02 -0.37957219664E+02  0.73350283717E+02  0.47000000000E+01 0. -1.
         -5    1    5    5    0  503  0.14061827181E+02 -0.69855448065E+01  0.65385492542E+02  0.67408348554E+02  0.47000000000E+01 0. -1.
<mgrwt>
<rscale>  0 0.27535097E+03</rscale>
<asrwt>0</asrwt>
<pdfrwt beam="1">  1        1 0.24796377E-01 0.27535097E+03</pdfrwt>
<pdfrwt beam="2">  1       -1 0.18092488E-01 0.27535097E+03</pdfrwt>
<totfact> 0.45624051E+03</totfact>
</mgrwt>
</event>
<event>
 9    1  0.7986988E-001  0.2670874E+03  0.7818608E-02  0.1102958E+00
         -1   -1    0    0    0  501 -0.00000000000E+00  0.00000000000E+00  0.46143474696E+02  0.46143474696E+02  0.00000000000E+00 0. -1.
          1   -1    0    0  501    0  0.00000000000E+00 -0.00000000000E+00 -0.38648855559E+03  0.38648855559E+03  0.00000000000E+00 0. -1.
         35    2    1    2    0    0  0.00000000000E+00 -0.71054273576E-14 -0.34034508090E+03  0.43263203029E+03  0.26708743801E+03 0.  0.
         25    2    3    3    0    0  0.17526747437E+01 -0.42787777223E+02 -0.13843784522E+03  0.19130820205E+03  0.12489966147E+03 0.  0.
         25    2    3    3    0    0 -0.17526747437E+01  0.42787777223E+02 -0.20190723568E+03  0.24132382824E+03  0.12504716113E+03 0.  0.
          5    1    4    4  502    0  0.28986625515E+02  0.36354360659E+02 -0.63675166054E+02  0.78984053896E+02  0.47000000000E+01 0. -1.
         -5    1    4    4    0  502 -0.27233950772E+02 -0.79142137883E+02 -0.74762679161E+02  0.11232414815E+03  0.47000000000E+01 0. -1.
          5    1    5    5  503    0  0.29019735862E+02  0.55534239822E+02 -0.36786499475E+02  0.72811629605E+02  0.47000000000E+01 0.  1.
         -5    1    5    5    0  503 -0.30772410605E+02 -0.12746462599E+02 -0.16512073621E+03  0.16851219863E+03  0.47000000000E+01 0.  1.
<mgrwt>
<rscale>  0 0.26708744E+03</rscale>
<asrwt>0</asrwt>
<pdfrwt beam="1">  1        1 0.59459776E-01 0.26708744E+03</pdfrwt>
<pdfrwt beam="2">  1       -1 0.70989963E-02 0.26708744E+03</pdfrwt>
<totfact> 0.65019445E+03</totfact>
</mgrwt>
</event>
<event>
 9    1  0.7986988E-001  0.2725287E+03  0.7818608E-02  0.1099841E+00
         -1   -1    0    0    0  501 -0.00000000000E+00  0.00000000000E+00  0.95115667609E+01  0.95115667609E+01  0.00000000000E+00 0.  1.
          1   -1    0    0  501    0  0.00000000000E+00 -0.00000000000E+00 -0.19521460395E+04  0.19521460395E+04  0.00000000000E+00 0.  1.
         35    2    1    2    0    0  0.00000000000E+00 -0.71054273576E-14 -0.19426344727E+04  0.19616576062E+04  0.27252865817E+03 0.  0.
         25    2    3    3    0    0 -0.28974656914E+02 -0.38194965176E+02 -0.11733846488E+04  0.11810232618E+04  0.12524386170E+03 0.  0.
         25    2    3    3    0    0  0.28974656914E+02  0.38194965176E+02 -0.76924982392E+03  0.78063434439E+03  0.12388019183E+03 0.  0.
          5    1    4    4  502    0 -0.14782603274E+02  0.75972684872E+01 -0.10222849197E+04  0.10224308245E+04  0.47000000000E+01 0.  1.
         -5    1    4    4    0  502 -0.14192053640E+02 -0.45792233663E+02 -0.15109972906E+03  0.15859243732E+03  0.47000000000E+01 0.  1.
          5    1    5    5  503    0  0.75358902711E+02  0.18787114772E+02 -0.36214174924E+03  0.37040606966E+03  0.47000000000E+01 0.  1.
         -5    1    5    5    0  503 -0.46384245796E+02  0.19407850403E+02 -0.40710807468E+03  0.41022827473E+03  0.47000000000E+01 0.  1.
<mgrwt>
<rscale>  0 0.27252866E+03</rscale>
<asrwt>0</asrwt>
<pdfrwt beam="1">  1        1 0.30033035E+00 0.27252866E+03</pdfrwt>
<pdfrwt beam="2">  1       -1 0.14633170E-02 0.27252866E+03</pdfrwt>
<totfact> 0.39213920E+03</totfact>
</mgrwt>
</event>
<event>
 9    1  0.7986988E-001  0.2747303E+03  0.7818608E-02  0.1098602E+00
         -1   -1    0    0    0  501 -0.00000000000E+00  0.00000000000E+00  0.14785131385E+02  0.14785131385E+02  0.00000000000E+00 0.  1.
          1   -1    0    0  501    0  0.00000000000E+00 -0.00000000000E+00 -0.12762271451E+04  0.12762271451E+04  0.00000000000E+00 0.  1.
         35    2    1    2    0    0  0.00000000000E+00  0.00000000000E+00 -0.12614420137E+04  0.12910122764E+04  0.27473031152E+03 0.  0.
         25    2    3    3    0    0 -0.47387145815E+02 -0.49664156502E+02 -0.64604166123E+03  0.66164552007E+03  0.12527129020E+03 0.  0.
         25    2    3    3    0    0  0.47387145815E+02  0.49664156502E+02 -0.61540035244E+03  0.62936675638E+03  0.11257375456E+03 0.  0.
          5    1    4    4  502    0  0.12617759476E-01 -0.37194226999E+02 -0.56887200343E+03  0.57010600502E+03  0.47000000000E+01 0. -1.
         -5    1    4    4    0  502 -0.47399763574E+02 -0.12469929503E+02 -0.77169657801E+02  0.91539515041E+02  0.47000000000E+01 0. -1.
          5    1    5    5  503    0  0.82661432751E+02  0.47387414927E+02 -0.47705087360E+03  0.48649574053E+03  0.47000000000E+01 0.  1.
         -5    1    5    5    0  503 -0.35274286936E+02  0.22767415746E+01 -0.13834947885E+03  0.14287101584E+03  0.47000000000E+01 0.  1.
<mgrwt>
<rscale>  0 0.27473031E+03</rscale>
<asrwt>0</asrwt>
<pdfrwt beam="1">  1        1 0.19634275E+00 0.27473031E+03</pdfrwt>
<pdfrwt beam="2">  1       -1 0.22746343E-02 0.27473031E+03</pdfrwt>
<totfact> 0.57514058E+03</totfact>
</mgrwt>
</event>
<event>
 9    1  0.7986988E-001  0.2631006E+03  0.7818608E-02  0.1105295E+00
          2   -1    0    0  501    0  0.00000000000E+00  0.00000000000E+00  0.14434421879E+04  0.14434421879E+04  0.00000000000E+00 0. -1.
         -2   -1    0    0    0  501 -0.00000000000E+00 -0.00000000000E+00 -0.11989035452E+02  0.11989035452E+02  0.00000000000E+00 0. -1.
         35    2    1    2    0    0 -0.71054273576E-14 -0.71054273576E-14  0.14314531524E+04  0.14554312233E+04  0.26310058581E+03 0.  0.
         25    2    3    3    0    0 -0.40133339490E+01 -0.36865699036E+02  0.61526927520E+03  0.62893520410E+03  0.12501209277E+03 0.  0.
         25    2    3    3    0    0  0.40133339490E+01  0.36865699036E+02  0.81618387720E+03  0.82649601920E+03  0.12475721118E+03 0.  0.
          5    1    4    4  502    0 -0.48997654333E+02 -0.61553444359E+02  0.36314768751E+03  0.37160184282E+03  0.47000000000E+01 0.  1.
         -5    1    4    4    0  502  0.44984320384E+02  0.24687745323E+02  0.25212158769E+03  0.25733336128E+03  0.47000000000E+01 0.  1.
          5    1    5    5  503    0  0.15062368895E+01  0.60743765083E+02  0.78247511757E+03  0.78484487217E+03  0.47000000000E+01 0.  1.
         -5    1    5    5    0  503  0.25070970595E+01 -0.23878066047E+02  0.33708759626E+02  0.41651147035E+02  0.47000000000E+01 0.  1.
<mgrwt>
<rscale>  0 0.26310059E+03</rscale>
<asrwt>0</asrwt>
<pdfrwt beam="1">  1        2 0.22206789E+00 0.26310059E+03</pdfrwt>
<pdfrwt beam="2">  1       -2 0.18444681E-02 0.26310059E+03</pdfrwt>
<totfact> 0.12727814E+04</totfact>
</mgrwt>
</event>
<event>
 9    1  0.7986988E-001  0.2766396E+03  0.7818608E-02  0.1097539E+00
          1   -1    0    0  501    0  0.00000000000E+00  0.00000000000E+00  0.17587249182E+03  0.17587249182E+03  0.00000000000E+00 0. -1.
         -1   -1    0    0    0  501 -0.00000000000E+00 -0.00000000000E+00 -0.10878546158E+03  0.10878546158E+03  0.00000000000E+00 0. -1.
         35    2    1    2    0    0  0.00000000000E+00  0.17763568394E-14  0.67087030244E+02  0.28465795340E+03  0.27663962262E+03 0.  0.
         25    2    3    3    0    0  0.42012092243E+02  0.15673164409E+02 -0.63099970554E+01  0.13384087471E+03  0.12594800397E+03 0.  0.
         25    2    3    3    0    0 -0.42012092243E+02 -0.15673164409E+02  0.73397027299E+02  0.15081707869E+03  0.12388705998E+03 0.  0.
          5    1    4    4  502    0  0.31808323903E+02  0.44096542961E+02 -0.54273509115E+02  0.76967385055E+02  0.47000000000E+01 0. -1.
         -5    1    4    4    0  502  0.10203768340E+02 -0.28423378552E+02  0.47963512059E+02  0.56873489657E+02  0.47000000000E+01 0. -1.
          5    1    5    5  503    0 -0.84388821966E+02  0.20210113442E+01  0.56377278472E+02  0.10161715056E+03  0.47000000000E+01 0. -1.
         -5    1    5    5    0  503  0.42376729723E+02 -0.17694175753E+02  0.17019748827E+02  0.49199928127E+02  0.47000000000E+01 0. -1.
<mgrwt>
<rscale>  0 0.27663962E+03</rscale>
<asrwt>0</asrwt>
<pdfrwt beam="1">  1        1 0.27057306E-01 0.27663962E+03</pdfrwt>
<pdfrwt beam="2">  1       -1 0.16736225E-01 0.27663962E+03</pdfrwt>
<totfact> 0.46284337E+03</totfact>
</mgrwt>
</event>
<event>
 9    1  0.7986988E-001  0.2743275E+03  0.7818608E-02  0.1098828E+00
          2   -1    0    0  501    0  0.00000000000E+00  0.00000000000E+00  0.18129665551E+02  0.18129665551E+02  0.00000000000E+00 0. -1.
         -2   -1    0    0    0  501 -0.00000000000E+00 -0.00000000000E+00 -0.10377411812E+04  0.10377411812E+04  0.00000000000E+00 0. -1.
         35    2    1    2    0    0  0.14210854715E-13  0.00000000000E+00 -0.10196115156E+04  0.10558708467E+04  0.27432754542E+03 0.  0.
         25    2    3    3    0    0  0.36818352852E+02  0.61125910998E+01 -0.67515330936E+03  0.68757730163E+03  0.12464990858E+03 0.  0.
         25    2    3    3    0    0 -0.36818352852E+02 -0.61125910998E+01 -0.34445820629E+03  0.36829354511E+03  0.12488284356E+03 0.  0.
          5    1    4    4  502    0 -0.27115958906E+02  0.46242652695E+02 -0.31571159206E+03  0.32026482404E+03  0.47000000000E+01 0. -1.
         -5    1    4    4    0  502  0.63934311758E+02 -0.40130061596E+02 -0.35944171730E+03  0.36731247760E+03  0.47000000000E+01 0. -1.
          5    1    5    5  503    0 -0.51575989085E+02 -0.57021422482E+02 -0.19665747099E+03  0.21120553063E+03  0.47000000000E+01 0. -1.
         -5    1    5    5    0  503  0.14757636234E+02  0.50908831382E+02 -0.14780073530E+03  0.15708801448E+03  0.47000000000E+01 0. -1.
<mgrwt>
<rscale>  0 0.27432755E+03</rscale>
<asrwt>0</asrwt>
<pdfrwt beam="1">  1        2 0.27891792E-02 0.27432755E+03</pdfrwt>
<pdfrwt beam="2">  1       -2 0.15965250E+00 0.27432755E+03</pdfrwt>
<totfact> 0.93240776E+02</totfact>
</mgrwt>
</event>
<event>
 9    1  0.7986988E-001  0.2783898E+03  0.7818608E-02  0.1096572E+00
          2   -1    0    0  501    0  0.00000000000E+00  0.00000000000E+00  0.97014311228E+03  0.97014311228E+03  0.00000000000E+00 0.  1.
         -2   -1    0    0    0  501 -0.00000000000E+00 -0.00000000000E+00 -0.19971500193E+02  0.19971500193E+02  0.00000000000E+00 0.  1.
         35    2    1    2    0    0  0.00000000000E+00 -0.71054273576E-14  0.95017161209E+03  0.99011461247E+03  0.27838975092E+03 0.  0.
         25    2    3    3    0    0  0.59295873104E+01 -0.58264632799E+02  0.40837355947E+03  0.43091582391E+03  0.12445704391E+03 0.  0.
         25    2    3    3    0    0 -0.59295873104E+01  0.58264632799E+02  0.54179805262E+03  0.55919878856E+03  0.12541223174E+03 0.  0.
          5    1    4    4  502    0  0.19824967356E+02  0.30141896180E+02  0.21149037737E+03  0.21459690808E+03  0.47000000000E+01 0. -1.
         -5    1    4    4    0  502 -0.13895380045E+02 -0.88406528980E+02  0.19688318210E+03  0.21631891583E+03  0.47000000000E+01 0. -1.
          5    1    5    5  503    0 -0.95603466370E+01  0.20150063881E+02  0.50618678834E+03  0.50669969409E+03  0.47000000000E+01 0.  1.
         -5    1    5    5    0  503  0.36307593266E+01  0.38114568919E+02  0.35611264281E+02  0.52499094477E+02  0.47000000000E+01 0.  1.
<mgrwt>
<rscale>  0 0.27838975E+03</rscale>
<asrwt>0</asrwt>
<pdfrwt beam="1">  1        2 0.14925275E+00 0.27838975E+03</pdfrwt>
<pdfrwt beam="2">  1       -2 0.30725393E-02 0.27838975E+03</pdfrwt>
<totfact> 0.11176131E+04</totfact>
</mgrwt>
</event>
<event>
 9    1  0.7986988E-001  0.2774009E+03  0.7818608E-02  0.1097117E+00
         -1   -1    0    0    0  501 -0.00000000000E+00  0.00000000000E+00  0.39466343312E+02  0.39466343312E+02  0.00000000000E+00 0. -1.
          1   -1    0    0  501    0  0.00000000000E+00 -0.00000000000E+00 -0.48744859958E+03  0.48744859958E+03  0.00000000000E+00 0. -1.
         35    2    1    2    0    0  0.14210854715E-13  0.71054273576E-14 -0.44798225627E+03  0.52691494289E+03  0.27740089241E+03 0.  0.
         25    2    3    3    0    0  0.42475396494E+02  0.15862843412E+02 -0.14590511694E+03  0.19704835864E+03  0.12443457472E+03 0.  0.
         25    2    3    3    0    0 -0.42475396494E+02 -0.15862843412E+02 -0.30207713933E+03  0.32986658425E+03  0.12452138849E+03 0.  0.
          5    1    4    4  502    0  0.37608849053E+01  0.58159532754E+02 -0.12094151112E+03  0.13433396673E+03  0.47000000000E+01 0. -1.
         -5    1    4    4    0  502  0.38714511589E+02 -0.42296689342E+02 -0.24963605813E+02  0.62714391905E+02  0.47000000000E+01 0. -1.
          5    1    5    5  503    0  0.15684520648E+02  0.29160798256E+02 -0.21468972653E+02  0.39741201915E+02  0.47000000000E+01 0. -1.
         -5    1    5    5    0  503 -0.58159917142E+02 -0.45023641667E+02 -0.28060816668E+03  0.29012538234E+03  0.47000000000E+01 0. -1.
<mgrwt>
<rscale>  0 0.27740089E+03</rscale>
<asrwt>0</asrwt>
<pdfrwt beam="1">  1        1 0.74992095E-01 0.27740089E+03</pdfrwt>
<pdfrwt beam="2">  1       -1 0.60717449E-02 0.27740089E+03</pdfrwt>
<totfact> 0.61033914E+03</totfact>
</mgrwt>
</event>
<event>
 9    1  0.7986988E-001  0.2806697E+03  0.7818608E-02  0.1095324E+00
          1   -1    0    0  501    0  0.00000000000E+00  0.00000000000E+00  0.47592266585E+02  0.47592266585E+02  0.00000000000E+00 0.  1.
         -1   -1    0    0    0  501 -0.00000000000E+00 -0.00000000000E+00 -0.41380402008E+03  0.41380402008E+03  0.00000000000E+00 0.  1.
         35    2    1    2    0    0  0.71054273576E-14  0.71054273576E-14 -0.36621175349E+03  0.46139628666E+03  0.28066970793E+03 0.  0.
         25    2    3    3    0    0 -0.25097843708E+02  0.33371795465E+02 -0.99986893823E+02  0.16539611103E+03  0.12495965795E+03 0.  0.
         25    2    3    3    0    0  0.25097843708E+02 -0.33371795465E+02 -0.26622485967E+03  0.29600017563E+03  0.12246162492E+03 0.  0.
          5    1    4    4  502    0 -0.72814451366E+02  0.20654159476E+02 -0.34682231989E+02  0.83387564104E+02  0.47000000000E+01 0.  1.
         -5    1    4    4    0  502  0.47716607659E+02  0.12717635989E+02 -0.65304661834E+02  0.82008546926E+02  0.47000000000E+01 0.  1.
          5    1    5    5  503    0  0.65753702566E+02 -0.15697750555E+02 -0.81597701991E+02  0.10606716619E+03  0.47000000000E+01 0.  1.
         -5    1    5    5    0  503 -0.40655858859E+02 -0.17674044910E+02 -0.18462715768E+03  0.18993300944E+03  0.47000000000E+01 0.  1.
<mgrwt>
<rscale>  0 0.28066971E+03</rscale>
<asrwt>0</asrwt>
<pdfrwt beam="1">  1        1 0.73218875E-02 0.28066971E+03</pdfrwt>
<pdfrwt beam="2">  1       -1 0.63662154E-01 0.28066971E+03</pdfrwt>
<totfact> 0.25369800E+03</totfact>
</mgrwt>
</event>
<event>
 9    1  0.7986988E-001  0.2733491E+03  0.7818608E-02  0.1099378E+00
         -2   -1    0    0    0  501 -0.00000000000E+00  0.00000000000E+00  0.17406483093E+02  0.17406483093E+02  0.00000000000E+00 0.  1.
          2   -1    0    0  501    0  0.00000000000E+00 -0.00000000000E+00 -0.10731591134E+04  0.10731591134E+04  0.00000000000E+00 0.  1.
         35    2    1    2    0    0  0.35527136788E-14 -0.71054273576E-14 -0.10557526303E+04  0.10905655965E+04  0.27334905131E+03 0.  0.
         25    2    3    3    0    0  0.22317609227E+02 -0.45807251664E+02 -0.56876541757E+03  0.58471953048E+03  0.12572370148E+03 0.  0.
         25    2    3    3    0    0 -0.22317609227E+02  0.45807251664E+02 -0.48698721277E+03  0.50584606605E+03  0.12699337442E+03 0.  0.
          5    1    4    4  502    0  0.52669442449E+02  0.64055834871E+01 -0.11275446293E+03  0.12470268874E+03  0.47000000000E+01 0. -1.
         -5    1    4    4    0  502 -0.30351833222E+02 -0.52212835151E+02 -0.45601095464E+03  0.46001684174E+03  0.47000000000E+01 0. -1.
          5    1    5    5  503    0 -0.36536696576E+02  0.77561749904E+02 -0.43310791501E+03  0.44153744041E+03  0.47000000000E+01 0.  1.
         -5    1    5    5    0  503  0.14219087348E+02 -0.31754498240E+02 -0.53879297769E+02  0.64308625638E+02  0.47000000000E+01 0.  1.
<mgrwt>
<rscale>  0 0.27334905E+03</rscale>
<asrwt>0</asrwt>
<pdfrwt beam="1">  1        2 0.16510142E+00 0.27334905E+03</pdfrwt>
<pdfrwt beam="2">  1       -2 0.26779202E-02 0.27334905E+03</pdfrwt>
<totfact> 0.11864520E+04</totfact>
</mgrwt>
</event>
<event>
 9    1  0.7986988E-001  0.2780328E+03  0.7818608E-02  0.1096768E+00
         -1   -1    0    0    0  501 -0.00000000000E+00  0.00000000000E+00  0.20322531849E+03  0.20322531849E+03  0.00000000000E+00 0. -1.
          1   -1    0    0  501    0  0.00000000000E+00 -0.00000000000E+00 -0.95094257368E+02  0.95094257368E+02  0.00000000000E+00 0. -1.
         35    2    1    2    0    0  0.00000000000E+00  0.26645352591E-14  0.10813106112E+03  0.29831957586E+03  0.27803280914E+03 0.  0.
         25    2    3    3    0    0 -0.82530517735E+01 -0.78772445603E+01 -0.10203444503E+02  0.12565642975E+03  0.12472074491E+03 0.  0.
         25    2    3    3    0    0  0.82530517735E+01  0.78772445603E+01  0.11833450562E+03  0.17266314611E+03  0.12521718316E+03 0.  0.
          5    1    4    4  502    0  0.15719409026E+01  0.48929148777E+02 -0.37356888986E+02  0.61758884001E+02  0.47000000000E+01 0.  1.
         -5    1    4    4    0  502 -0.98249926761E+01 -0.56806393338E+02  0.27153444483E+02  0.63897545746E+02  0.47000000000E+01 0.  1.
          5    1    5    5  503    0 -0.55164297826E+02  0.22847944863E+01  0.28095123143E+02  0.62126853975E+02  0.47000000000E+01 0.  1.
         -5    1    5    5    0  503  0.63417349600E+02  0.55924500740E+01  0.90239382481E+02  0.11053629213E+03  0.47000000000E+01 0.  1.
<mgrwt>
<rscale>  0 0.27803281E+03</rscale>
<asrwt>0</asrwt>
<pdfrwt beam="1">  1        1 0.14629886E-01 0.27803281E+03</pdfrwt>
<pdfrwt beam="2">  1       -1 0.31265434E-01 0.27803281E+03</pdfrwt>
<totfact> 0.36481244E+03</totfact>
</mgrwt>
</event>
<event>
 9    1  0.7986988E-001  0.2727319E+03  0.7818608E-02  0.1099726E+00
         -1   -1    0    0    0  501 -0.00000000000E+00  0.00000000000E+00  0.33327209123E+03  0.33327209123E+03  0.00000000000E+00 0.  1.
          1   -1    0    0  501    0  0.00000000000E+00 -0.00000000000E+00 -0.55797275120E+02  0.55797275120E+02  0.00000000000E+00 0.  1.
         35    2    1    2    0    0 -0.35527136788E-14  0.00000000000E+00  0.27747481611E+03  0.38906936635E+03  0.27273191646E+03 0.  0.
         25    2    3    3    0    0 -0.53859999054E+01 -0.27923333116E+02  0.20392471213E+03  0.24091936391E+03  0.12509248643E+03 0.  0.
         25    2    3    3    0    0  0.53859999054E+01  0.27923333116E+02  0.73550103973E+02  0.14815000243E+03  0.12541963124E+03 0.  0.
          5    1    4    4  502    0 -0.56364821479E+02 -0.19858276752E+02  0.48583536983E+02  0.77160834118E+02  0.47000000000E+01 0.  1.
         -5    1    4    4    0  502  0.50978821574E+02 -0.80650563634E+01  0.15534117515E+03  0.16375852979E+03  0.47000000000E+01 0.  1.
          5    1    5    5  503    0 -0.16953442725E+02  0.71522999641E+02  0.64925661347E+02  0.98185488740E+02  0.47000000000E+01 0. -1.
         -5    1    5    5    0  503  0.22339442630E+02 -0.43599666525E+02  0.86244426260E+01  0.49964513695E+02  0.47000000000E+01 0. -1.
<mgrwt>
<rscale>  0 0.27273192E+03</rscale>
<asrwt>0</asrwt>
<pdfrwt beam="1">  1        1 0.85841964E-02 0.27273192E+03</pdfrwt>
<pdfrwt beam="2">  1       -1 0.51272628E-01 0.27273192E+03</pdfrwt>
<totfact> 0.30828121E+03</totfact>
</mgrwt>
</event>
<event>
 9    1  0.7986988E-001  0.2761037E+03  0.7818608E-02  0.1097836E+00
         -1   -1    0    0    0  501 -0.00000000000E+00  0.00000000000E+00  0.42288619976E+03  0.42288619976E+03  0.00000000000E+00 0.  1.
          1   -1    0    0  501    0  0.00000000000E+00 -0.00000000000E+00 -0.45067229467E+02  0.45067229467E+02  0.00000000000E+00 0.  1.
         35    2    1    2    0    0  0.00000000000E+00  0.35527136788E-14  0.37781897029E+03  0.46795342922E+03  0.27610367185E+03 0.  0.
         25    2    3    3    0    0  0.36561300416E+02 -0.11832899365E+02  0.26442579528E+03  0.29495823627E+03  0.12491042285E+03 0.  0.
         25    2    3    3    0    0 -0.36561300416E+02  0.11832899365E+02  0.11339317501E+03  0.17299519295E+03  0.12487024646E+03 0.  0.
          5    1    4    4  502    0  0.38266144932E+02  0.21092916245E+02  0.25713874581E+03  0.26086708026E+03  0.47000000000E+01 0.  1.
         -5    1    4    4    0  502 -0.17048445160E+01 -0.32925815610E+02  0.72870494706E+01  0.34091156014E+02  0.47000000000E+01 0.  1.
          5    1    5    5  503    0 -0.18331626604E+02 -0.52663083088E+02  0.23322187079E+02  0.60625599085E+02  0.47000000000E+01 0.  1.
         -5    1    5    5    0  503 -0.18229673812E+02  0.64495982452E+02  0.90070987927E+02  0.11236959387E+03  0.47000000000E+01 0.  1.
<mgrwt>
<rscale>  0 0.27610367E+03</rscale>
<asrwt>0</asrwt>
<pdfrwt beam="1">  1        1 0.69334202E-02 0.27610367E+03</pdfrwt>
<pdfrwt beam="2">  1       -1 0.65059413E-01 0.27610367E+03</pdfrwt>
<totfact> 0.26185873E+03</totfact>
</mgrwt>
</event>
<event>
 9    1  0.7986988E-001  0.2862529E+03  0.7818608E-02  0.1092322E+00
          2   -1    0    0  501    0  0.00000000000E+00  0.00000000000E+00  0.11252847431E+04  0.11252847431E+04  0.00000000000E+00 0. -1.
         -2   -1    0    0    0  501 -0.00000000000E+00 -0.00000000000E+00 -0.18204445261E+02  0.18204445261E+02  0.00000000000E+00 0. -1.
         35    2    1    2    0    0  0.00000000000E+00  0.00000000000E+00  0.11070802978E+04  0.11434891884E+04  0.28625292669E+03 0.  0.
         25    2    3    3    0    0  0.60285120210E+02 -0.21628005047E+02  0.44060257193E+03  0.46218192884E+03  0.12401388083E+03 0.  0.
         25    2    3    3    0    0 -0.60285120210E+02  0.21628005047E+02  0.66647772592E+03  0.68130725952E+03  0.12603553632E+03 0.  0.
          5    1    4    4  502    0  0.49269323498E+02 -0.48355063256E+02  0.10781915026E+03  0.12811220685E+03  0.47000000000E+01 0.  1.
         -5    1    4    4    0  502  0.11015796713E+02  0.26727058209E+02  0.33278342167E+03  0.33406972200E+03  0.47000000000E+01 0.  1.
          5    1    5    5  503    0  0.19970992400E+02  0.16738270715E+02  0.31099771668E+02  0.40844779859E+02  0.47000000000E+01 0. -1.
         -5    1    5    5    0  503 -0.80256112610E+02  0.48897343324E+01  0.63537795425E+03  0.64046247967E+03  0.47000000000E+01 0. -1.
<mgrwt>
<rscale>  0 0.28625293E+03</rscale>
<asrwt>0</asrwt>
<pdfrwt beam="1">  1        2 0.17312068E+00 0.28625293E+03</pdfrwt>
<pdfrwt beam="2">  1       -2 0.28006848E-02 0.28625293E+03</pdfrwt>
<totfact> 0.10357618E+04</totfact>
</mgrwt>
</event>
<event>
 9    1  0.7986988E-001  0.2736197E+03  0.7818608E-02  0.1099226E+00
          2   -1    0    0  501    0  0.00000000000E+00  0.00000000000E+00  0.12725408758E+04  0.12725408758E+04  0.00000000000E+00 0. -1.
         -2   -1    0    0    0  501 -0.00000000000E+00 -0.00000000000E+00 -0.14708313303E+02  0.14708313303E+02  0.00000000000E+00 0. -1.
         35    2    1    2    0    0  0.00000000000E+00  0.00000000000E+00  0.12578325625E+04  0.12872491891E+04  0.27361966225E+03 0.  0.
         25    2    3    3    0    0  0.21929594510E+02  0.39009219309E+02  0.78835349965E+03  0.79949713102E+03  0.12526689820E+03 0.  0.
         25    2    3    3    0    0 -0.21929594510E+02 -0.39009219309E+02  0.46947906286E+03  0.48775205810E+03  0.12445422215E+03 0.  0.
          5    1    4    4  502    0  0.48392721763E+02  0.58943946863E+02  0.28602014426E+03  0.29605043036E+03  0.47000000000E+01 0.  1.
         -5    1    4    4    0  502 -0.26463127254E+02 -0.19934727554E+02  0.50233335539E+03  0.50344670066E+03  0.47000000000E+01 0.  1.
          5    1    5    5  503    0 -0.70799896799E+02 -0.38052237919E+01  0.27996279096E+03  0.28883967774E+03  0.47000000000E+01 0.  1.
         -5    1    5    5    0  503  0.48870302290E+02 -0.35203995517E+02  0.18951627190E+03  0.19891238036E+03  0.47000000000E+01 0.  1.
<mgrwt>
<rscale>  0 0.27361966E+03</rscale>
<asrwt>0</asrwt>
<pdfrwt beam="1">  1        2 0.19577543E+00 0.27361966E+03</pdfrwt>
<pdfrwt beam="2">  1       -2 0.22628184E-02 0.27361966E+03</pdfrwt>
<totfact> 0.11697196E+04</totfact>
</mgrwt>
</event>
<event>
 9    1  0.7986988E-001  0.2769292E+03  0.7818608E-02  0.1097378E+00
          1   -1    0    0  501    0  0.00000000000E+00  0.00000000000E+00  0.16846328494E+03  0.16846328494E+03  0.00000000000E+00 0.  1.
         -1   -1    0    0    0  501 -0.00000000000E+00 -0.00000000000E+00 -0.11380787311E+03  0.11380787311E+03  0.00000000000E+00 0.  1.
         35    2    1    2    0    0 -0.71054273576E-14  0.71054273576E-14  0.54655411826E+02  0.28227115805E+03  0.27692921952E+03 0.  0.
         25    2    3    3    0    0 -0.24469096448E+02  0.15136572411E+02  0.81358847441E+02  0.15128533251E+03  0.12425834890E+03 0.  0.
         25    2    3    3    0    0  0.24469096448E+02 -0.15136572411E+02 -0.26703435615E+02  0.13098582553E+03  0.12496543727E+03 0.  0.
          5    1    4    4  502    0 -0.28720378924E+02 -0.44190089708E+02  0.32719897245E+01  0.53013395578E+02  0.47000000000E+01 0.  1.
         -5    1    4    4    0  502  0.42512824754E+01  0.59326662118E+02  0.78086857717E+02  0.98271936935E+02  0.47000000000E+01 0.  1.
          5    1    5    5  503    0  0.34507105176E+02 -0.36166264283E+02 -0.67285811952E+02  0.83953614990E+02  0.47000000000E+01 0.  1.
         -5    1    5    5    0  503 -0.10038008728E+02  0.21029691873E+02  0.40582376336E+02  0.47032210543E+02  0.47000000000E+01 0.  1.
<mgrwt>
<rscale>  0 0.27692922E+03</rscale>
<asrwt>0</asrwt>
<pdfrwt beam="1">  1        1 0.25917428E-01 0.27692922E+03</pdfrwt>
<pdfrwt beam="2">  1       -1 0.17508904E-01 0.27692922E+03</pdfrwt>
<totfact> 0.45472447E+03</totfact>
</mgrwt>
</event>
<event>
 9    1  0.7986988E-001  0.2752411E+03  0.7818608E-02  0.1098317E+00
         -2   -1    0    0    0  501 -0.00000000000E+00  0.00000000000E+00  0.20242855760E+02  0.20242855760E+02  0.00000000000E+00 0. -1.
          2   -1    0    0  501    0  0.00000000000E+00 -0.00000000000E+00 -0.93561018755E+03  0.93561018755E+03  0.00000000000E+00 0. -1.
         35    2    1    2    0    0  0.00000000000E+00  0.00000000000E+00 -0.91536733179E+03  0.95585304331E+03  0.27524114572E+03 0.  0.
         25    2    3    3    0    0 -0.28336560975E+02 -0.31272425960E+02 -0.31872133034E+03  0.34491436315E+03  0.12490678995E+03 0.  0.
         25    2    3    3    0    0  0.28336560975E+02  0.31272425960E+02 -0.59664600144E+03  0.61093868016E+03  0.12441340186E+03 0.  0.
          5    1    4    4  502    0 -0.21640728023E+02  0.47088205799E+02 -0.10630118271E+03  0.11835392550E+03  0.47000000000E+01 0.  1.
         -5    1    4    4    0  502 -0.66958329523E+01 -0.78360631759E+02 -0.21242014763E+03  0.22656043765E+03  0.47000000000E+01 0.  1.
          5    1    5    5  503    0  0.73478294001E+02  0.12614983737E+02 -0.45360008112E+03  0.45971004024E+03  0.47000000000E+01 0.  1.
         -5    1    5    5    0  503 -0.45141733026E+02  0.18657442223E+02 -0.14304592032E+03  0.15122863992E+03  0.47000000000E+01 0.  1.
<mgrwt>
<rscale>  0 0.27524115E+03</rscale>
<asrwt>0</asrwt>
<pdfrwt beam="1">  1        2 0.14394004E+00 0.27524115E+03</pdfrwt>
<pdfrwt beam="2">  1       -2 0.31142853E-02 0.27524115E+03</pdfrwt>
<totfact> 0.11509705E+04</totfact>
</mgrwt>
</event>
<event>
 9    1  0.7986988E-001  0.2728675E+03  0.7818608E-02  0.1099650E+00
         -1   -1    0    0    0  501 -0.00000000000E+00  0.00000000000E+00  0.49051756551E+02  0.49051756551E+02  0.00000000000E+00 0.  1.
          1   -1    0    0  501    0  0.00000000000E+00 -0.00000000000E+00 -0.37948020007E+03  0.37948020007E+03  0.00000000000E+00 0.  1.
         35    2    1    2    0    0 -0.35527136788E-14  0.71054273576E-14 -0.33042844352E+03  0.42853195663E+03  0.27286751650E+03 0.  0.
         25    2    3    3    0    0  0.15986431353E+02  0.52626820301E+02 -0.15959384550E+03  0.20998161096E+03  0.12488768240E+03 0.  0.
         25    2    3    3    0    0 -0.15986431353E+02 -0.52626820301E+02 -0.17083459802E+03  0.21855034567E+03  0.12471826454E+03 0.  0.
          5    1    4    4  502    0 -0.16798582151E+02 -0.20312473278E+02  0.47138235093E+01  0.27186376460E+02  0.47000000000E+01 0.  1.
         -5    1    4    4    0  502  0.32785013504E+02  0.72939293578E+02 -0.16430766901E+03  0.18279523450E+03  0.47000000000E+01 0.  1.
          5    1    5    5  503    0  0.38675929304E+02  0.64149364343E+01 -0.11201899463E+03  0.11877425679E+03  0.47000000000E+01 0. -1.
         -5    1    5    5    0  503 -0.54662360656E+02 -0.59041756735E+02 -0.58815603389E+02  0.99776088883E+02  0.47000000000E+01 0. -1.
<mgrwt>
<rscale>  0 0.27286752E+03</rscale>
<asrwt>0</asrwt>
<pdfrwt beam="1">  1        1 0.58381568E-01 0.27286752E+03</pdfrwt>
<pdfrwt beam="2">  1       -1 0.75464242E-02 0.27286752E+03</pdfrwt>
<totfact> 0.60692411E+03</totfact>
</mgrwt>
</event>
<event>
 9    1  0.7986988E-001  0.2734388E+03  0.7818608E-02  0.1099327E+00
         -1   -1    0    0    0  501 -0.00000000000E+00  0.00000000000E+00  0.52214879941E+03  0.52214879941E+03  0.00000000000E+00 0. -1.
          1   -1    0    0  501    0  0.00000000000E+00 -0.00000000000E+00 -0.35798595601E+02  0.35798595601E+02  0.00000000000E+00 0. -1.
         35    2    1    2    0    0  0.00000000000E+00  0.71054273576E-14  0.48635020381E+03  0.55794739502E+03  0.27343879545E+03 0.  0.
         25    2    3    3    0    0  0.18256957180E+02  0.42553545609E+02  0.31170596706E+03  0.33761045839E+03  0.12114491729E+03 0.  0.
         25    2    3    3    0    0 -0.18256957180E+02 -0.42553545609E+02  0.17464423675E+03  0.22033693662E+03  0.12610961692E+03 0.  0.
          5    1    4    4  502    0  0.55148469556E+02  0.25772528608E+02  0.27818389743E+03  0.28480510479E+03  0.47000000000E+01 0. -1.
         -5    1    4    4    0  502 -0.36891512376E+02  0.16781017001E+02  0.33522069635E+02  0.52805353607E+02  0.47000000000E+01 0. -1.
          5    1    5    5  503    0 -0.66844049140E+02  0.29228002159E+01  0.97549595938E+02  0.11838362781E+03  0.47000000000E+01 0.  1.
         -5    1    5    5    0  503  0.48587091960E+02 -0.45476345824E+02  0.77094640814E+02  0.10195330881E+03  0.47000000000E+01 0.  1.
<mgrwt>
<rscale>  0 0.27343880E+03</rscale>
<asrwt>0</asrwt>
<pdfrwt beam="1">  1        1 0.55074766E-02 0.27343880E+03</pdfrwt>
<pdfrwt beam="2">  1       -1 0.80330579E-01 0.27343880E+03</pdfrwt>
<totfact> 0.23485237E+03</totfact>
</mgrwt>
</event>
<event>
 9    1  0.7986988E-001  0.2667216E+03  0.7818608E-02  0.1103171E+00
         -1   -1    0    0    0  501 -0.00000000000E+00  0.00000000000E+00  0.22337747083E+03  0.22337747083E+03  0.00000000000E+00 0. -1.
          1   -1    0    0  501    0  0.00000000000E+00 -0.00000000000E+00 -0.79619064978E+02  0.79619064978E+02  0.00000000000E+00 0. -1.
         35    2    1    2    0    0 -0.35527136788E-14  0.00000000000E+00  0.14375840585E+03  0.30299653581E+03  0.26672161791E+03 0.  0.
         25    2    3    3    0    0  0.26002260003E+02 -0.11664527952E+02  0.26921001969E+02  0.13085045539E+03  0.12483958743E+03 0.  0.
         25    2    3    3    0    0 -0.26002260003E+02  0.11664527952E+02  0.11683740388E+03  0.17214608042E+03  0.12317108151E+03 0.  0.
          5    1    4    4  502    0  0.19311138545E+02 -0.15509800157E+02  0.76452320204E+02  0.80501684687E+02  0.47000000000E+01 0.  1.
         -5    1    4    4    0  502  0.66911214576E+01  0.38452722053E+01 -0.49531318236E+02  0.50348770699E+02  0.47000000000E+01 0.  1.
          5    1    5    5  503    0 -0.63136255372E+02  0.30901474381E+02  0.10831064993E+03  0.12920671325E+03  0.47000000000E+01 0.  1.
         -5    1    5    5    0  503  0.37133995369E+02 -0.19236946429E+02  0.85267539526E+01  0.42939367170E+02  0.47000000000E+01 0.  1.
<mgrwt>
<rscale>  0 0.26672162E+03</rscale>
<asrwt>0</asrwt>
<pdfrwt beam="1">  1        1 0.12249087E-01 0.26672162E+03</pdfrwt>
<pdfrwt beam="2">  1       -1 0.34365764E-01 0.26672162E+03</pdfrwt>
<totfact> 0.39152582E+03</totfact>
</mgrwt>
</event>
<event>
 9    1  0.7986988E-001  0.2733367E+03  0.7818608E-02  0.1099385E+00
          2   -1    0    0  501    0  0.00000000000E+00  0.00000000000E+00  0.17415306401E+04  0.17415306401E+04  0.00000000000E+00 0.  1.
         -2   -1    0    0    0  501 -0.00000000000E+00 -0.00000000000E+00 -0.10725185856E+02  0.10725185856E+02  0.00000000000E+00 0.  1.
         35    2    1    2    0    0  0.71054273576E-14  0.35527136788E-14  0.17308054543E+04  0.17522558260E+04  0.27333671389E+03 0.  0.
         25    2    3    3    0    0  0.26910392102E+02  0.14771783343E+02  0.53443228672E+03  0.54983220546E+03  0.12551976056E+03 0.  0.
         25    2    3    3    0    0 -0.26910392102E+02 -0.14771783343E+02  0.11963731676E+04  0.12024236205E+04  0.11649649076E+03 0.  0.
          5    1    4    4  502    0  0.58256775370E+01 -0.12636809379E+02  0.43291259175E+00  0.14693702167E+02  0.47000000000E+01 0. -1.
         -5    1    4    4    0  502  0.21084714565E+02  0.27408592722E+02  0.53399937413E+03  0.53513850330E+03  0.47000000000E+01 0. -1.
          5    1    5    5  503    0 -0.44901105654E+02  0.71528397020E+01  0.18230570120E+03  0.18794874592E+03  0.47000000000E+01 0. -1.
         -5    1    5    5    0  503  0.17990713552E+02 -0.21924623045E+02  0.10140674664E+04  0.10144748746E+04  0.47000000000E+01 0. -1.
<mgrwt>
<rscale>  0 0.27333671E+03</rscale>
<asrwt>0</asrwt>
<pdfrwt beam="1">  1        2 0.26792757E+00 0.27333671E+03</pdfrwt>
<pdfrwt beam="2">  1       -2 0.16500300E-02 0.27333671E+03</pdfrwt>
<totfact> 0.10420286E+04</totfact>
</mgrwt>
</event>
<event>
 9    1  0.7986988E-001  0.2779745E+03  0.7818608E-02  0.1096800E+00
         -1   -1    0    0    0  501 -0.00000000000E+00  0.00000000000E+00  0.68674152603E+01  0.68674152603E+01  0.00000000000E+00 0. -1.
          1   -1    0    0  501    0  0.00000000000E+00 -0.00000000000E+00 -0.28129146603E+04  0.28129146603E+04  0.00000000000E+00 0. -1.
         35    2    1    2    0    0  0.71054273576E-14  0.00000000000E+00 -0.28060472451E+04  0.28197820756E+04  0.27797448131E+03 0.  0.
         25    2    3    3    0    0 -0.16718331091E+02 -0.34523147012E+02 -0.90414706087E+03  0.91346194493E+03  0.12433610451E+03 0.  0.
         25    2    3    3    0    0  0.16718331091E+02  0.34523147012E+02 -0.19019001842E+04  0.19063201307E+04  0.12393861230E+03 0.  0.
          5    1    4    4  502    0 -0.47629262962E+02  0.24069476000E+02 -0.58678191554E+03  0.58922236276E+03  0.47000000000E+01 0.  1.
         -5    1    4    4    0  502  0.30910931870E+02 -0.58592623011E+02 -0.31736514533E+03  0.32423958217E+03  0.47000000000E+01 0.  1.
          5    1    5    5  503    0  0.30620066173E+02  0.30867807817E+02 -0.18746076887E+04  0.18751177260E+04  0.47000000000E+01 0.  1.
         -5    1    5    5    0  503 -0.13901735082E+02  0.36553391946E+01 -0.27292495520E+02  0.31202404629E+02  0.47000000000E+01 0.  1.
<mgrwt>
<rscale>  0 0.27797448E+03</rscale>
<asrwt>0</asrwt>
<pdfrwt beam="1">  1        1 0.43275647E+00 0.27797448E+03</pdfrwt>
<pdfrwt beam="2">  1       -1 0.10565245E-02 0.27797448E+03</pdfrwt>
<totfact> 0.16936038E+03</totfact>
</mgrwt>
</event>
<event>
 9    1  0.7986988E-001  0.2728858E+03  0.7818608E-02  0.1099639E+00
          2   -1    0    0  501    0  0.00000000000E+00  0.00000000000E+00  0.15300397518E+03  0.15300397518E+03  0.00000000000E+00 0. -1.
         -2   -1    0    0    0  501 -0.00000000000E+00 -0.00000000000E+00 -0.12167437191E+03  0.12167437191E+03  0.00000000000E+00 0. -1.
         35    2    1    2    0    0  0.71054273576E-14  0.71054273576E-14  0.31329603271E+02  0.27467834709E+03  0.27288578255E+03 0.  0.
         25    2    3    3    0    0  0.49490303759E+02 -0.70690947036E+01 -0.51911966222E-01  0.13612677254E+03  0.12661450644E+03 0.  0.
         25    2    3    3    0    0 -0.49490303759E+02  0.70690947036E+01  0.31381515237E+02  0.13855157455E+03  0.12534941980E+03 0.  0.
          5    1    4    4  502    0  0.14066869121E+02  0.46116222005E+02  0.38032163808E+02  0.61588296151E+02  0.47000000000E+01 0.  1.
         -5    1    4    4    0  502  0.35423434638E+02 -0.53185316708E+02 -0.38084075774E+02  0.74538476389E+02  0.47000000000E+01 0.  1.
          5    1    5    5  503    0 -0.39824547421E+02 -0.41745731879E+02 -0.25130869451E+02  0.63105873789E+02  0.47000000000E+01 0.  1.
         -5    1    5    5    0  503 -0.96657563381E+01  0.48814826583E+02  0.56512384688E+02  0.75445700759E+02  0.47000000000E+01 0.  1.
<mgrwt>
<rscale>  0 0.27288578E+03</rscale>
<asrwt>0</asrwt>
<pdfrwt beam="1">  1        2 0.23539073E-01 0.27288578E+03</pdfrwt>
<pdfrwt beam="2">  1       -2 0.18719134E-01 0.27288578E+03</pdfrwt>
<totfact> 0.53836794E+03</totfact>
</mgrwt>
</event>
<event>
 9    1  0.7986988E-001  0.2729426E+03  0.7818608E-02  0.1099607E+00
         -1   -1    0    0    0  501 -0.00000000000E+00  0.00000000000E+00  0.84524008076E+02  0.84524008076E+02  0.00000000000E+00 0.  1.
          1   -1    0    0  501    0  0.00000000000E+00 -0.00000000000E+00 -0.22034475238E+03  0.22034475238E+03  0.00000000000E+00 0.  1.
         35    2    1    2    0    0 -0.17763568394E-14  0.00000000000E+00 -0.13582074431E+03  0.30486876046E+03  0.27294264328E+03 0.  0.
         25    2    3    3    0    0  0.15828981647E+02 -0.17865134589E+02 -0.12271056715E+03  0.17689765493E+03  0.12516060616E+03 0.  0.
         25    2    3    3    0    0 -0.15828981647E+02  0.17865134589E+02 -0.13110177155E+02  0.12797110553E+03  0.12504002324E+03 0.  0.
          5    1    4    4  502    0  0.25751944754E+02 -0.57508062371E+02 -0.12006635264E+03  0.13567740759E+03  0.47000000000E+01 0.  1.
         -5    1    4    4    0  502 -0.99229631069E+01  0.39642927783E+02 -0.26442145162E+01  0.41220247336E+02  0.47000000000E+01 0.  1.
          5    1    5    5  503    0 -0.26344639575E+02 -0.41419435174E+02 -0.38396574290E+02  0.62497972461E+02  0.47000000000E+01 0.  1.
         -5    1    5    5    0  503  0.10515657928E+02  0.59284569763E+02  0.25286397135E+02  0.65473133068E+02  0.47000000000E+01 0.  1.
<mgrwt>
<rscale>  0 0.27294264E+03</rscale>
<asrwt>0</asrwt>
<pdfrwt beam="1">  1        1 0.33899192E-01 0.27294264E+03</pdfrwt>
<pdfrwt beam="2">  1       -1 0.13003694E-01 0.27294264E+03</pdfrwt>
<totfact> 0.51930222E+03</totfact>
</mgrwt>
</event>
<event>
 9    1  0.7986988E-001  0.2692483E+03  0.7818608E-02  0.1101711E+00
         -1   -1    0    0    0  501 -0.00000000000E+00  0.00000000000E+00  0.57460947992E+02  0.57460947992E+02  0.00000000000E+00 0.  1.
          1   -1    0    0  501    0  0.00000000000E+00 -0.00000000000E+00 -0.31540844613E+03  0.31540844613E+03  0.00000000000E+00 0.  1.
         35    2    1    2    0    0 -0.53290705182E-14  0.35527136788E-14 -0.25794749814E+03  0.37286939412E+03  0.26924834870E+03 0.  0.
         25    2    3    3    0    0  0.79805624553E-01 -0.18259165019E+02 -0.19715799828E+03  0.23422026993E+03  0.12511776487E+03 0.  0.
         25    2    3    3    0    0 -0.79805624553E-01  0.18259165019E+02 -0.60789499859E+02  0.13864912419E+03  0.12326724167E+03 0.  0.
          5    1    4    4  502    0  0.47219686709E+02 -0.50013742085E+02 -0.11785563796E+03  0.13653979130E+03  0.47000000000E+01 0.  1.
         -5    1    4    4    0  502 -0.47139881084E+02  0.31754577067E+02 -0.79302360316E+02  0.97680478628E+02  0.47000000000E+01 0.  1.
          5    1    5    5  503    0  0.91386228935E+01  0.46194241632E+02 -0.86955886304E+02  0.98999184599E+02  0.47000000000E+01 0. -1.
         -5    1    5    5    0  503 -0.92184285181E+01 -0.27935076614E+02  0.26166386446E+02  0.39649939589E+02  0.47000000000E+01 0. -1.
<mgrwt>
<rscale>  0 0.26924835E+03</rscale>
<asrwt>0</asrwt>
<pdfrwt beam="1">  1        1 0.48524376E-01 0.26924835E+03</pdfrwt>
<pdfrwt beam="2">  1       -1 0.88401459E-02 0.26924835E+03</pdfrwt>
<totfact> 0.60208431E+03</totfact>
</mgrwt>
</event>
<event>
 9    1  0.7986988E-001  0.2756833E+03  0.7818608E-02  0.1098070E+00
         -2   -1    0    0    0  501 -0.00000000000E+00  0.00000000000E+00  0.81535063138E+01  0.81535063138E+01  0.00000000000E+00 0.  1.
          2   -1    0    0  501    0  0.00000000000E+00 -0.00000000000E+00 -0.23303252042E+04  0.23303252042E+04  0.00000000000E+00 0.  1.
         35    2    1    2    0    0  0.71054273576E-14  0.14210854715E-13 -0.23221716978E+04  0.23384787105E+04  0.27568330573E+03 0.  0.
         25    2    3    3    0    0  0.31139299818E+02  0.41634299043E+02 -0.92685333396E+03  0.93654800076E+03  0.12394347182E+03 0.  0.
         25    2    3    3    0    0 -0.31139299818E+02 -0.41634299043E+02 -0.13953183639E+04  0.14019307097E+04  0.12567142630E+03 0.  0.
          5    1    4    4  502    0  0.65707558389E+02  0.48165085527E+02 -0.38602937836E+03  0.39456067930E+03  0.47000000000E+01 0.  1.
         -5    1    4    4    0  502 -0.34568258571E+02 -0.65307864841E+01 -0.54082395560E+03  0.54198732146E+03  0.47000000000E+01 0.  1.
          5    1    5    5  503    0 -0.44902497714E+02 -0.13306629433E+01 -0.17105567910E+03  0.17691845669E+03  0.47000000000E+01 0.  1.
         -5    1    5    5    0  503  0.13763197896E+02 -0.40303636099E+02 -0.12242626848E+04  0.12250122530E+04  0.47000000000E+01 0.  1.
<mgrwt>
<rscale>  0 0.27568331E+03</rscale>
<asrwt>0</asrwt>
<pdfrwt beam="1">  1        2 0.35851185E+00 0.27568331E+03</pdfrwt>
<pdfrwt beam="2">  1       -2 0.12543846E-02 0.27568331E+03</pdfrwt>
<totfact> 0.75991565E+03</totfact>
</mgrwt>
</event>
<event>
 9    1  0.7986988E-001  0.2750019E+03  0.7818608E-02  0.1098451E+00
         -3   -1    0    0    0  501 -0.00000000000E+00  0.00000000000E+00  0.19763338325E+02  0.19763338325E+02  0.00000000000E+00 0. -1.
          3   -1    0    0  501    0  0.00000000000E+00 -0.00000000000E+00 -0.95664552986E+03  0.95664552986E+03  0.00000000000E+00 0. -1.
         35    2    1    2    0    0  0.00000000000E+00  0.00000000000E+00 -0.93688219153E+03  0.97640886818E+03  0.27500188555E+03 0.  0.
         25    2    3    3    0    0  0.42054430815E+02 -0.57897598618E+01 -0.43743786788E+03  0.45694556955E+03  0.12508104897E+03 0.  0.
         25    2    3    3    0    0 -0.42054430815E+02  0.57897598618E+01 -0.49944432365E+03  0.51946329863E+03  0.13636491381E+03 0.  0.
          5    1    4    4  502    0  0.44188836081E+02 -0.29360029976E+02 -0.42757378157E+03  0.43087828128E+03  0.47000000000E+01 0.  1.
         -5    1    4    4    0  502 -0.21344052661E+01  0.23570270114E+02 -0.98640863034E+01  0.26067288269E+02  0.47000000000E+01 0.  1.
          5    1    5    5  503    0 -0.80964261907E+02 -0.32606417259E+02 -0.32844907185E+03  0.33988126302E+03  0.47000000000E+01 0. -1.
         -5    1    5    5    0  503  0.38909831093E+02  0.38396177120E+02 -0.17099525181E+03  0.17958203561E+03  0.47000000000E+01 0. -1.
<mgrwt>
<rscale>  0 0.27500189E+03</rscale>
<asrwt>0</asrwt>
<pdfrwt beam="1">  1        3 0.14717620E+00 0.27500189E+03</pdfrwt>
<pdfrwt beam="2">  1       -3 0.30405144E-02 0.27500189E+03</pdfrwt>
<totfact> 0.45555349E+02</totfact>
</mgrwt>
</event>
<event>
 9    1  0.7986988E-001  0.2683451E+03  0.7818608E-02  0.1102230E+00
         -2   -1    0    0    0  501 -0.00000000000E+00  0.00000000000E+00  0.12772629153E+03  0.12772629153E+03  0.00000000000E+00 0. -1.
          2   -1    0    0  501    0  0.00000000000E+00 -0.00000000000E+00 -0.14094417476E+03  0.14094417476E+03  0.00000000000E+00 0. -1.
         35    2    1    2    0    0  0.00000000000E+00  0.35527136788E-14 -0.13217883231E+02  0.26867046629E+03  0.26834512669E+03 0.  0.
         25    2    3    3    0    0 -0.15992367710E+01  0.27490220542E+02  0.32986502880E+02  0.13266739202E+03  0.12551596612E+03 0.  0.
         25    2    3    3    0    0  0.15992367710E+01 -0.27490220542E+02 -0.46204386111E+02  0.13600307427E+03  0.12491485552E+03 0.  0.
          5    1    4    4  502    0 -0.77576033828E+01  0.68323849221E+01 -0.47692676556E+02  0.49025945081E+02  0.47000000000E+01 0. -1.
         -5    1    4    4    0  502  0.61583666118E+01  0.20657835620E+02  0.80679179437E+02  0.83641446941E+02  0.47000000000E+01 0. -1.
          5    1    5    5  503    0 -0.26236636442E+01 -0.72337326047E+02 -0.53495293301E+02  0.90129954820E+02  0.47000000000E+01 0.  1.
         -5    1    5    5    0  503  0.42229004152E+01  0.44847105505E+02  0.72909071897E+01  0.45873119446E+02  0.47000000000E+01 0.  1.
<mgrwt>
<rscale>  0 0.26834513E+03</rscale>
<asrwt>0</asrwt>
<pdfrwt beam="1">  1        2 0.21683719E-01 0.26834513E+03</pdfrwt>
<pdfrwt beam="2">  1       -2 0.19650199E-01 0.26834513E+03</pdfrwt>
<totfact> 0.54352148E+03</totfact>
</mgrwt>
</event>
<event>
 9    1  0.7986988E-001  0.2687993E+03  0.7818608E-02  0.1101969E+00
         -1   -1    0    0    0  501 -0.00000000000E+00  0.00000000000E+00  0.34750117670E+03  0.34750117670E+03  0.00000000000E+00 0.  1.
          1   -1    0    0  501    0  0.00000000000E+00 -0.00000000000E+00 -0.51980462863E+02  0.51980462863E+02  0.00000000000E+00 0.  1.
         35    2    1    2    0    0 -0.71054273576E-14 -0.71054273576E-14  0.29552071384E+03  0.39948163957E+03  0.26879934532E+03 0.  0.
         25    2    3    3    0    0 -0.38749226311E+02 -0.19167713709E+02  0.11405678783E+03  0.17474440330E+03  0.12513093880E+03 0.  0.
         25    2    3    3    0    0  0.38749226311E+02  0.19167713709E+02  0.18146392601E+03  0.22473723626E+03  0.12533461267E+03 0.  0.
          5    1    4    4  502    0 -0.66266984472E+02 -0.24817850434E+02  0.12541795436E+03  0.14407981193E+03  0.47000000000E+01 0. -1.
         -5    1    4    4    0  502  0.27517758161E+02  0.56501367244E+01 -0.11361166522E+02  0.30664591371E+02  0.47000000000E+01 0. -1.
          5    1    5    5  503    0  0.74088278029E+02  0.36486228908E+02  0.15887163631E+03  0.17911617645E+03  0.47000000000E+01 0. -1.
         -5    1    5    5    0  503 -0.35339051718E+02 -0.17318515199E+02  0.22592289695E+02  0.45621059816E+02  0.47000000000E+01 0. -1.
<mgrwt>
<rscale>  0 0.26879935E+03</rscale>
<asrwt>0</asrwt>
<pdfrwt beam="1">  1        1 0.79969945E-02 0.26879935E+03</pdfrwt>
<pdfrwt beam="2">  1       -1 0.53461718E-01 0.26879935E+03</pdfrwt>
<totfact> 0.31379950E+03</totfact>
</mgrwt>
</event>
<event>
 9    1  0.7986988E-001  0.2807452E+03  0.7818608E-02  0.1095283E+00
         -2   -1    0    0    0  501 -0.00000000000E+00  0.00000000000E+00  0.93650303079E+01  0.93650303079E+01  0.00000000000E+00 0.  1.
          2   -1    0    0  501    0  0.00000000000E+00 -0.00000000000E+00 -0.21040467603E+04  0.21040467603E+04  0.00000000000E+00 0.  1.
         35    2    1    2    0    0  0.00000000000E+00  0.00000000000E+00 -0.20946817300E+04  0.21134117906E+04  0.28074516330E+03 0.  0.
         25    2    3    3    0    0 -0.26413260310E+02  0.22617621558E+02 -0.14596475776E+04  0.14653767055E+04  0.12469411053E+03 0.  0.
         25    2    3    3    0    0  0.26413260310E+02 -0.22617621558E+02 -0.63503415237E+03  0.64803508505E+03  0.12438601070E+03 0.  0.
          5    1    4    4  502    0  0.17448350880E+01  0.99890596255E+01 -0.88839218528E+01  0.14277248656E+02  0.47000000000E+01 0.  1.
         -5    1    4    4    0  502 -0.28158095398E+02  0.12628561933E+02 -0.14507636557E+04  0.14510994569E+04  0.47000000000E+01 0.  1.
          5    1    5    5  503    0 -0.17336076698E+00 -0.70548225811E+02 -0.42879160742E+03  0.43458188505E+03  0.47000000000E+01 0. -1.
         -5    1    5    5    0  503  0.26586621077E+02  0.47930604253E+02 -0.20624254494E+03  0.21345320000E+03  0.47000000000E+01 0. -1.
<mgrwt>
<rscale>  0 0.28074516E+03</rscale>
<asrwt>0</asrwt>
<pdfrwt beam="1">  1        2 0.32370014E+00 0.28074516E+03</pdfrwt>
<pdfrwt beam="2">  1       -2 0.14407711E-02 0.28074516E+03</pdfrwt>
<totfact> 0.81949957E+03</totfact>
</mgrwt>
</event>
<event>
 9    1  0.7986988E-001  0.2711794E+03  0.7818608E-02  0.1100607E+00
         -2   -1    0    0    0  501 -0.00000000000E+00  0.00000000000E+00  0.15113792210E+02  0.15113792210E+02  0.00000000000E+00 0. -1.
          2   -1    0    0  501    0  0.00000000000E+00 -0.00000000000E+00 -0.12164098909E+04  0.12164098909E+04  0.00000000000E+00 0. -1.
         35    2    1    2    0    0 -0.35527136788E-14  0.71054273576E-14 -0.12012960987E+04  0.12315236831E+04  0.27117939696E+03 0.  0.
         25    2    3    3    0    0  0.11749232707E+01 -0.49638956566E+02 -0.54888456771E+03  0.56528828685E+03  0.12574248338E+03 0.  0.
         25    2    3    3    0    0 -0.11749232707E+01  0.49638956566E+02 -0.65241153098E+03  0.66623539626E+03  0.12555234374E+03 0.  0.
          5    1    4    4  502    0  0.51283648784E+02 -0.27900790605E+02 -0.12698653079E+03  0.13984325422E+03  0.47000000000E+01 0.  1.
         -5    1    4    4    0  502 -0.50108725514E+02 -0.21738165961E+02 -0.42189803693E+03  0.42544503264E+03  0.47000000000E+01 0.  1.
          5    1    5    5  503    0  0.91913932102E+01 -0.35519033500E+02 -0.34711516018E+03  0.34908037452E+03  0.47000000000E+01 0. -1.
         -5    1    5    5    0  503 -0.10366316481E+02  0.85157990066E+02 -0.30529637080E+03  0.31715502174E+03  0.47000000000E+01 0. -1.
<mgrwt>
<rscale>  0 0.27117940E+03</rscale>
<asrwt>0</asrwt>
<pdfrwt beam="1">  1        2 0.18713996E+00 0.27117940E+03</pdfrwt>
<pdfrwt beam="2">  1       -2 0.23251990E-02 0.27117940E+03</pdfrwt>
<totfact> 0.12079275E+04</totfact>
</mgrwt>
</event>
<event>
 9    1  0.7986988E-001  0.2896985E+03  0.7818608E-02  0.1090507E+00
         -2   -1    0    0    0  501 -0.00000000000E+00  0.00000000000E+00  0.52478376738E+02  0.52478376738E+02  0.00000000000E+00 0. -1.
          2   -1    0    0  501    0  0.00000000000E+00 -0.00000000000E+00 -0.39980861790E+03  0.39980861790E+03  0.00000000000E+00 0. -1.
         35    2    1    2    0    0  0.00000000000E+00 -0.71054273576E-14 -0.34733024116E+03  0.45228699464E+03  0.28969851414E+03 0.  0.
         25    2    3    3    0    0  0.13737579645E+02 -0.31114506411E+02 -0.27493825170E+03  0.30397338448E+03  0.12510772406E+03 0.  0.
         25    2    3    3    0    0 -0.13737579645E+02  0.31114506411E+02 -0.72391989466E+02  0.14831361016E+03  0.12489793120E+03 0.  0.
          5    1    4    4  502    0  0.56902068813E+02  0.40007203815E+01 -0.64414767576E+02  0.86169620404E+02  0.47000000000E+01 0. -1.
         -5    1    4    4    0  502 -0.43164489168E+02 -0.35115226793E+02 -0.21052348412E+03  0.21780376407E+03  0.47000000000E+01 0. -1.
          5    1    5    5  503    0 -0.35033584921E+02  0.48967637176E+02  0.10017541615E+02  0.61217829944E+02  0.47000000000E+01 0. -1.
         -5    1    5    5    0  503  0.21296005276E+02 -0.17853130765E+02 -0.82409531082E+02  0.87095780219E+02  0.47000000000E+01 0. -1.
<mgrwt>
<rscale>  0 0.28969851E+03</rscale>
<asrwt>0</asrwt>
<pdfrwt beam="1">  1        2 0.61509017E-01 0.28969851E+03</pdfrwt>
<pdfrwt beam="2">  1       -2 0.80735965E-02 0.28969851E+03</pdfrwt>
<totfact> 0.74153692E+03</totfact>
</mgrwt>
</event>
<event>
 9    1  0.7986988E-001  0.2647640E+03  0.7818608E-02  0.1104314E+00
         -2   -1    0    0    0  501 -0.00000000000E+00  0.00000000000E+00  0.66438909247E+01  0.66438909247E+01  0.00000000000E+00 0. -1.
          2   -1    0    0  501    0  0.00000000000E+00 -0.00000000000E+00 -0.26377608695E+04  0.26377608695E+04  0.00000000000E+00 0. -1.
         35    2    1    2    0    0  0.35527136788E-14  0.00000000000E+00 -0.26311169786E+04  0.26444047604E+04  0.26476401192E+03 0.  0.
         25    2    3    3    0    0  0.23716204184E+02 -0.28127058781E+02 -0.13331287820E+04  0.13398620218E+04  0.12901278328E+03 0.  0.
         25    2    3    3    0    0 -0.23716204184E+02  0.28127058781E+02 -0.12979881965E+04  0.13045427386E+04  0.12531882824E+03 0.  0.
          5    1    4    4  502    0 -0.87836201550E+01 -0.28992671875E+01 -0.57980503753E+01  0.11885500469E+02  0.47000000000E+01 0. -1.
         -5    1    4    4    0  502  0.32499824339E+02 -0.25227791593E+02 -0.13273307317E+04  0.13279765214E+04  0.47000000000E+01 0. -1.
          5    1    5    5  503    0 -0.53786276802E+02 -0.22552037837E+02 -0.92977427827E+03  0.93161357682E+03  0.47000000000E+01 0. -1.
         -5    1    5    5    0  503  0.30070072618E+02  0.50679096618E+02 -0.36821391825E+03  0.37292916176E+03  0.47000000000E+01 0. -1.
<mgrwt>
<rscale>  0 0.26476401E+03</rscale>
<asrwt>0</asrwt>
<pdfrwt beam="1">  1        2 0.40580994E+00 0.26476401E+03</pdfrwt>
<pdfrwt beam="2">  1       -2 0.10221356E-02 0.26476401E+03</pdfrwt>
<totfact> 0.69507177E+03</totfact>
</mgrwt>
</event>
<event>
 9    1  0.7986988E-001  0.2706089E+03  0.7818608E-02  0.1100932E+00
          2   -1    0    0  501    0  0.00000000000E+00  0.00000000000E+00  0.48774488162E+03  0.48774488162E+03  0.00000000000E+00 0. -1.
         -2   -1    0    0    0  501 -0.00000000000E+00 -0.00000000000E+00 -0.37534563852E+02  0.37534563852E+02  0.00000000000E+00 0. -1.
         35    2    1    2    0    0  0.71054273576E-14  0.35527136788E-14  0.45021031777E+03  0.52527944547E+03  0.27060887940E+03 0.  0.
         25    2    3    3    0    0 -0.61681815993E+02 -0.49688612449E+01  0.25749949484E+03  0.29221272442E+03  0.12350283585E+03 0.  0.
         25    2    3    3    0    0  0.61681815993E+02  0.49688612449E+01  0.19271082293E+03  0.23306672106E+03  0.11555647616E+03 0.  0.
          5    1    4    4  502    0 -0.87220216893E+02  0.27842338144E+02  0.20858405332E+03  0.22784196130E+03  0.47000000000E+01 0.  1.
         -5    1    4    4    0  502  0.25538400900E+02 -0.32811199389E+02  0.48915441513E+02  0.64370763117E+02  0.47000000000E+01 0.  1.
          5    1    5    5  503    0  0.13855149622E+02 -0.50052435140E+02  0.11575201986E+03  0.12695602206E+03  0.47000000000E+01 0.  1.
         -5    1    5    5    0  503  0.47826666371E+02  0.55021296385E+02  0.76958803073E+02  0.10611069900E+03  0.47000000000E+01 0.  1.
<mgrwt>
<rscale>  0 0.27060888E+03</rscale>
<asrwt>0</asrwt>
<pdfrwt beam="1">  1        2 0.75037670E-01 0.27060888E+03</pdfrwt>
<pdfrwt beam="2">  1       -2 0.57745486E-02 0.27060888E+03</pdfrwt>
<totfact> 0.99835322E+03</totfact>
</mgrwt>
</event>
<event>
 9    1  0.7986988E-001  0.2750961E+03  0.7818608E-02  0.1098398E+00
          2   -1    0    0  501    0  0.00000000000E+00  0.00000000000E+00  0.67812635423E+03  0.67812635423E+03  0.00000000000E+00 0. -1.
         -2   -1    0    0    0  501 -0.00000000000E+00 -0.00000000000E+00 -0.27899625409E+02  0.27899625409E+02  0.00000000000E+00 0. -1.
         35    2    1    2    0    0  0.00000000000E+00  0.71054273576E-14  0.65022672882E+03  0.70602597964E+03  0.27509613784E+03 0.  0.
         25    2    3    3    0    0 -0.25853679539E+02  0.35618822156E+02  0.42671883548E+03  0.44698856553E+03  0.12558941008E+03 0.  0.
         25    2    3    3    0    0  0.25853679539E+02 -0.35618822156E+02  0.22350789334E+03  0.25903741411E+03  0.12331865343E+03 0.  0.
          5    1    4    4  502    0  0.35782813945E+02 -0.22043146010E+01  0.29004984155E+03  0.29229483293E+03  0.47000000000E+01 0.  1.
         -5    1    4    4    0  502 -0.61636493483E+02  0.37823136757E+02  0.13666899394E+03  0.15469373260E+03  0.47000000000E+01 0.  1.
          5    1    5    5  503    0  0.86847377544E+01 -0.78039378713E+02  0.17664492853E+03  0.19336775862E+03  0.47000000000E+01 0. -1.
         -5    1    5    5    0  503  0.17168941784E+02  0.42420556557E+02  0.46862964810E+02  0.65669655484E+02  0.47000000000E+01 0. -1.
<mgrwt>
<rscale>  0 0.27509614E+03</rscale>
<asrwt>0</asrwt>
<pdfrwt beam="1">  1        2 0.10432712E+00 0.27509614E+03</pdfrwt>
<pdfrwt beam="2">  1       -2 0.42922506E-02 0.27509614E+03</pdfrwt>
<totfact> 0.10724467E+04</totfact>
</mgrwt>
</event>
<event>
 9    1  0.7986988E-001  0.2716852E+03  0.7818608E-02  0.1100319E+00
          1   -1    0    0  501    0  0.00000000000E+00  0.00000000000E+00  0.86130008717E+03  0.86130008717E+03  0.00000000000E+00 0.  1.
         -1   -1    0    0    0  501 -0.00000000000E+00 -0.00000000000E+00 -0.21424833983E+02  0.21424833983E+02  0.00000000000E+00 0.  1.
         35    2    1    2    0    0  0.00000000000E+00  0.00000000000E+00  0.83987525318E+03  0.88272492115E+03  0.27168519560E+03 0.  0.
         25    2    3    3    0    0  0.33793994071E+02 -0.40153414890E+02  0.43448886282E+03  0.45497069221E+03  0.12435203292E+03 0.  0.
         25    2    3    3    0    0 -0.33793994071E+02  0.40153414890E+02  0.40538639036E+03  0.42775422894E+03  0.12602072894E+03 0.  0.
          5    1    4    4  502    0 -0.10499622326E+02 -0.58592412590E+02  0.95920012641E+02  0.11298695370E+03  0.47000000000E+01 0.  1.
         -5    1    4    4    0  502  0.44293616397E+02  0.18438997700E+02  0.33856885018E+03  0.34198373851E+03  0.47000000000E+01 0.  1.
          5    1    5    5  503    0 -0.48131892385E+02  0.85602466468E+01  0.48055690919E+02  0.68712417487E+02  0.47000000000E+01 0.  1.
         -5    1    5    5    0  503  0.14337898315E+02  0.31593168243E+02  0.35733069944E+03  0.35904181145E+03  0.47000000000E+01 0.  1.
<mgrwt>
<rscale>  0 0.27168520E+03</rscale>
<asrwt>0</asrwt>
<pdfrwt beam="1">  1        1 0.13250768E+00 0.27168520E+03</pdfrwt>
<pdfrwt beam="2">  1       -1 0.32961290E-02 0.27168520E+03</pdfrwt>
<totfact> 0.67151580E+03</totfact>
</mgrwt>
</event>
<event>
 9    1  0.7986988E-001  0.2742837E+03  0.7818608E-02  0.1098853E+00
         -2   -1    0    0    0  501 -0.00000000000E+00  0.00000000000E+00  0.10139750958E+02  0.10139750958E+02  0.00000000000E+00 0.  1.
          2   -1    0    0  501    0  0.00000000000E+00 -0.00000000000E+00 -0.18548662196E+04  0.18548662196E+04  0.00000000000E+00 0.  1.
         35    2    1    2    0    0  0.71054273576E-14 -0.14210854715E-13 -0.18447264686E+04  0.18650059706E+04  0.27428365994E+03 0.  0.
         25    2    3    3    0    0  0.47524360530E+02 -0.38059698856E+02 -0.94039521742E+03  0.95008240800E+03  0.12085657412E+03 0.  0.
         25    2    3    3    0    0 -0.47524360530E+02  0.38059698856E+02 -0.90433125121E+03  0.91492356256E+03  0.12475178509E+03 0.  0.
          5    1    4    4  502    0  0.50787969732E+02 -0.78944669275E+02 -0.66577701489E+03  0.67237846652E+03  0.47000000000E+01 0. -1.
         -5    1    4    4    0  502 -0.32636092018E+01  0.40884970418E+02 -0.27461820253E+03  0.27770394148E+03  0.47000000000E+01 0. -1.
          5    1    5    5  503    0 -0.36008275215E+02  0.17558213399E+02 -0.74272622112E+02  0.84518631894E+02  0.47000000000E+01 0. -1.
         -5    1    5    5    0  503 -0.11516085315E+02  0.20501485457E+02 -0.83005862910E+03  0.83040493067E+03  0.47000000000E+01 0. -1.
<mgrwt>
<rscale>  0 0.27428366E+03</rscale>
<asrwt>0</asrwt>
<pdfrwt beam="1">  1        2 0.28536366E+00 0.27428366E+03</pdfrwt>
<pdfrwt beam="2">  1       -2 0.15599637E-02 0.27428366E+03</pdfrwt>
<totfact> 0.98649115E+03</totfact>
</mgrwt>
</event>
<event>
 9    1  0.7986988E-001  0.2758210E+03  0.7818608E-02  0.1097994E+00
         -2   -1    0    0    0  501 -0.00000000000E+00  0.00000000000E+00  0.28673039465E+02  0.28673039465E+02  0.00000000000E+00 0.  1.
          2   -1    0    0  501    0  0.00000000000E+00 -0.00000000000E+00 -0.66331647232E+03  0.66331647232E+03  0.00000000000E+00 0.  1.
         35    2    1    2    0    0  0.35527136788E-14 -0.71054273576E-14 -0.63464343286E+03  0.69198951179E+03  0.27582095199E+03 0.  0.
         25    2    3    3    0    0  0.13082292553E+02 -0.19211167093E+02 -0.18117941686E+03  0.22134399482E+03  0.12500787027E+03 0.  0.
         25    2    3    3    0    0 -0.13082292553E+02  0.19211167093E+02 -0.45346401599E+03  0.47064551697E+03  0.12384415012E+03 0.  0.
          5    1    4    4  502    0  0.39646436922E+02 -0.88715240307E+01 -0.31866059923E+01  0.41021803434E+02  0.47000000000E+01 0. -1.
         -5    1    4    4    0  502 -0.26564144369E+02 -0.10339643063E+02 -0.17799281087E+03  0.18032219139E+03  0.47000000000E+01 0. -1.
          5    1    5    5  503    0 -0.11400045387E+02 -0.49001643022E+02 -0.27338485268E+03  0.27801526887E+03  0.47000000000E+01 0.  1.
         -5    1    5    5    0  503 -0.16822471651E+01  0.68212810115E+02 -0.18007916332E+03  0.19263024809E+03  0.47000000000E+01 0.  1.
<mgrwt>
<rscale>  0 0.27582095E+03</rscale>
<asrwt>0</asrwt>
<pdfrwt beam="1">  1        2 0.10204867E+00 0.27582095E+03</pdfrwt>
<pdfrwt beam="2">  1       -2 0.44112376E-02 0.27582095E+03</pdfrwt>
<totfact> 0.10567490E+04</totfact>
</mgrwt>
</event>
<event>
 9    1  0.7986988E-001  0.2768013E+03  0.7818608E-02  0.1097449E+00
          2   -1    0    0  501    0  0.00000000000E+00  0.00000000000E+00  0.17182629938E+04  0.17182629938E+04  0.00000000000E+00 0.  1.
         -2   -1    0    0    0  501 -0.00000000000E+00 -0.00000000000E+00 -0.11147737471E+02  0.11147737471E+02  0.00000000000E+00 0.  1.
         35    2    1    2    0    0  0.71054273576E-14  0.71054273576E-14  0.17071152563E+04  0.17294107312E+04  0.27680133497E+03 0.  0.
         25    2    3    3    0    0 -0.37717458234E+02 -0.25298034135E+02  0.62924435039E+03  0.64322292357E+03  0.12539808500E+03 0.  0.
         25    2    3    3    0    0  0.37717458234E+02  0.25298034135E+02  0.10778709059E+04  0.10861878077E+04  0.12623654993E+03 0.  0.
          5    1    4    4  502    0 -0.74436605716E+02 -0.41441583998E+02  0.51568162780E+03  0.52269287770E+03  0.47000000000E+01 0.  1.
         -5    1    4    4    0  502  0.36719147482E+02  0.16143549862E+02  0.11356272259E+03  0.12053004586E+03  0.47000000000E+01 0.  1.
          5    1    5    5  503    0 -0.85451764375E+01 -0.44347530119E+02  0.24981378359E+03  0.25390695134E+03  0.47000000000E+01 0. -1.
         -5    1    5    5    0  503  0.46262634671E+02  0.69645564254E+02  0.82805712233E+03  0.83228085633E+03  0.47000000000E+01 0. -1.
<mgrwt>
<rscale>  0 0.27680133E+03</rscale>
<asrwt>0</asrwt>
<pdfrwt beam="1">  1        2 0.26434794E+00 0.27680133E+03</pdfrwt>
<pdfrwt beam="2">  1       -2 0.17150379E-02 0.27680133E+03</pdfrwt>
<totfact> 0.10129873E+04</totfact>
</mgrwt>
</event>
<event>
 9    1  0.7986988E-001  0.2752863E+03  0.7818608E-02  0.1098292E+00
          2   -1    0    0  501    0  0.00000000000E+00  0.00000000000E+00  0.65763357238E+03  0.65763357238E+03  0.00000000000E+00 0. -1.
         -2   -1    0    0    0  501 -0.00000000000E+00 -0.00000000000E+00 -0.28808806437E+02  0.28808806437E+02  0.00000000000E+00 0. -1.
         35    2    1    2    0    0  0.71054273576E-14 -0.35527136788E-14  0.62882476595E+03  0.68644237882E+03  0.27528631127E+03 0.  0.
         25    2    3    3    0    0  0.42913726768E+02 -0.18068216076E+02  0.39792038080E+03  0.41962987214E+03  0.12482208041E+03 0.  0.
         25    2    3    3    0    0 -0.42913726768E+02  0.18068216076E+02  0.23090438515E+03  0.26681250668E+03  0.12531572234E+03 0.  0.
          5    1    4    4  502    0  0.86821843768E+02 -0.55680355019E+01  0.27144708676E+03  0.28508708579E+03  0.47000000000E+01 0. -1.
         -5    1    4    4    0  502 -0.43908117000E+02 -0.12500180575E+02  0.12647329404E+03  0.13454278635E+03  0.47000000000E+01 0. -1.
          5    1    5    5  503    0  0.34230268158E+02 -0.18885338227E+02  0.33788209058E+02  0.51885453929E+02  0.47000000000E+01 0.  1.
         -5    1    5    5    0  503 -0.77143994926E+02  0.36953554304E+02  0.19711617609E+03  0.21492705275E+03  0.47000000000E+01 0.  1.
<mgrwt>
<rscale>  0 0.27528631E+03</rscale>
<asrwt>0</asrwt>
<pdfrwt beam="1">  1        2 0.10117439E+00 0.27528631E+03</pdfrwt>
<pdfrwt beam="2">  1       -2 0.44321245E-02 0.27528631E+03</pdfrwt>
<totfact> 0.10599759E+04</totfact>
</mgrwt>
</event>
<event>
 9    1  0.7986988E-001  0.2760502E+03  0.7818608E-02  0.1097866E+00
         -1   -1    0    0    0  501 -0.00000000000E+00  0.00000000000E+00  0.28558204020E+03  0.28558204020E+03  0.00000000000E+00 0.  1.
          1   -1    0    0  501    0  0.00000000000E+00 -0.00000000000E+00 -0.66709135066E+02  0.66709135066E+02  0.00000000000E+00 0.  1.
         35    2    1    2    0    0  0.00000000000E+00  0.00000000000E+00  0.21887290513E+03  0.35229117526E+03  0.27605021929E+03 0.  0.
         25    2    3    3    0    0 -0.27016212033E+02  0.49905957441E+02  0.71920199884E+02  0.15211935903E+03  0.12143847800E+03 0.  0.
         25    2    3    3    0    0  0.27016212033E+02 -0.49905957441E+02  0.14695270525E+03  0.20017181623E+03  0.12350375757E+03 0.  0.
          5    1    4    4  502    0 -0.43285755094E+02  0.72466008807E+02  0.11345267756E+02  0.85298207056E+02  0.47000000000E+01 0.  1.
         -5    1    4    4    0  502  0.16269543062E+02 -0.22560051366E+02  0.60574932128E+02  0.66821151976E+02  0.47000000000E+01 0.  1.
          5    1    5    5  503    0  0.48022073755E+01 -0.72849101084E+02  0.15085421233E+03  0.16765779463E+03  0.47000000000E+01 0.  1.
         -5    1    5    5    0  503  0.22214004657E+02  0.22943143642E+02 -0.39015070779E+01  0.32514021600E+02  0.47000000000E+01 0.  1.
<mgrwt>
<rscale>  0 0.27605022E+03</rscale>
<asrwt>0</asrwt>
<pdfrwt beam="1">  1        1 0.10262944E-01 0.27605022E+03</pdfrwt>
<pdfrwt beam="2">  1       -1 0.43935698E-01 0.27605022E+03</pdfrwt>
<totfact> 0.32155552E+03</totfact>
</mgrwt>
</event>
<event>
 9    1  0.7986988E-001  0.2688019E+03  0.7818608E-02  0.1101967E+00
         -1   -1    0    0    0  501 -0.00000000000E+00  0.00000000000E+00  0.34454369777E+02  0.34454369777E+02  0.00000000000E+00 0.  1.
          1   -1    0    0  501    0  0.00000000000E+00 -0.00000000000E+00 -0.52427654884E+03  0.52427654884E+03  0.00000000000E+00 0.  1.
         35    2    1    2    0    0  0.00000000000E+00 -0.35527136788E-14 -0.48982217907E+03  0.55873091862E+03  0.26880192022E+03 0.  0.
         25    2    3    3    0    0  0.51205968741E+02 -0.12476067796E+01 -0.24742988235E+03  0.28134704020E+03  0.12373763611E+03 0.  0.
         25    2    3    3    0    0 -0.51205968741E+02  0.12476067796E+01 -0.24239229672E+03  0.27738387842E+03  0.12475649380E+03 0.  0.
          5    1    4    4  502    0 -0.35381256755E+02 -0.23823148420E+02 -0.10006444705E+03  0.10887772635E+03  0.47000000000E+01 0.  1.
         -5    1    4    4    0  502  0.86587225496E+02  0.22575541640E+02 -0.14736543530E+03  0.17246931385E+03  0.47000000000E+01 0.  1.
          5    1    5    5  503    0 -0.33139844277E+02  0.37395253035E+02 -0.22917730927E+03  0.23460814843E+03  0.47000000000E+01 0. -1.
         -5    1    5    5    0  503 -0.18066124465E+02 -0.36147646255E+02 -0.13214987447E+02  0.42775729990E+02  0.47000000000E+01 0. -1.
<mgrwt>
<rscale>  0 0.26880192E+03</rscale>
<asrwt>0</asrwt>
<pdfrwt beam="1">  1        1 0.80657924E-01 0.26880192E+03</pdfrwt>
<pdfrwt beam="2">  1       -1 0.53006727E-02 0.26880192E+03</pdfrwt>
<totfact> 0.67886914E+03</totfact>
</mgrwt>
</event>
<event>
 9    1  0.7986988E-001  0.2783278E+03  0.7818608E-02  0.1096606E+00
          1   -1    0    0  501    0  0.00000000000E+00  0.00000000000E+00  0.21553627946E+03  0.21553627946E+03  0.00000000000E+00 0.  1.
         -1   -1    0    0    0  501 -0.00000000000E+00 -0.00000000000E+00 -0.89853050615E+02  0.89853050615E+02  0.00000000000E+00 0.  1.
         35    2    1    2    0    0  0.71054273576E-14  0.71054273576E-14  0.12568322885E+03  0.30538933008E+03  0.27832780837E+03 0.  0.
         25    2    3    3    0    0  0.49787821123E+02  0.34502572174E+02  0.72987690781E+02  0.15729239855E+03  0.12547685451E+03 0.  0.
         25    2    3    3    0    0 -0.49787821123E+02 -0.34502572174E+02  0.52695538065E+02  0.14809693152E+03  0.12444527623E+03 0.  0.
          5    1    4    4  502    0 -0.12471461788E+02  0.41927531511E+02 -0.17295146589E+02  0.47272268332E+02  0.47000000000E+01 0. -1.
         -5    1    4    4    0  502  0.62259282911E+02 -0.74249593368E+01  0.90282837370E+02  0.11002013022E+03  0.47000000000E+01 0. -1.
          5    1    5    5  503    0 -0.60382103877E+02 -0.21887310865E+02  0.87888130915E+02  0.10895625912E+03  0.47000000000E+01 0.  1.
         -5    1    5    5    0  503  0.10594282754E+02 -0.12615261309E+02 -0.35192592849E+02  0.39140672406E+02  0.47000000000E+01 0.  1.
<mgrwt>
<rscale>  0 0.27832781E+03</rscale>
<asrwt>0</asrwt>
<pdfrwt beam="1">  1        1 0.33159427E-01 0.27832781E+03</pdfrwt>
<pdfrwt beam="2">  1       -1 0.13823546E-01 0.27832781E+03</pdfrwt>
<totfact> 0.48523253E+03</totfact>
</mgrwt>
</event>
<event>
 9    1  0.7986988E-001  0.2766932E+03  0.7818608E-02  0.1097509E+00
          1   -1    0    0  501    0  0.00000000000E+00  0.00000000000E+00  0.35682449606E+03  0.35682449606E+03  0.00000000000E+00 0. -1.
         -1   -1    0    0    0  501 -0.00000000000E+00 -0.00000000000E+00 -0.53639202895E+02  0.53639202895E+02  0.00000000000E+00 0. -1.
         35    2    1    2    0    0  0.00000000000E+00 -0.71054273576E-14  0.30318529317E+03  0.41046369896E+03  0.27669319863E+03 0.  0.
         25    2    3    3    0    0 -0.39037491211E+02 -0.20581757473E+02  0.88485161283E+02  0.15886698541E+03  0.12434452470E+03 0.  0.
         25    2    3    3    0    0  0.39037491211E+02  0.20581757473E+02  0.21470013189E+03  0.25159671355E+03  0.12352014078E+03 0.  0.
          5    1    4    4  502    0 -0.21677114903E+02  0.49818681619E+02  0.17464320255E+02  0.57261599966E+02  0.47000000000E+01 0. -1.
         -5    1    4    4    0  502 -0.17360376308E+02 -0.70400439092E+02  0.71020841028E+02  0.10160538544E+03  0.47000000000E+01 0. -1.
          5    1    5    5  503    0  0.55086225007E+02 -0.39158606824E+02  0.13016382063E+03  0.14673990212E+03  0.47000000000E+01 0. -1.
         -5    1    5    5    0  503 -0.16048733796E+02  0.59740364297E+02  0.84536311260E+02  0.10485681143E+03  0.47000000000E+01 0. -1.
<mgrwt>
<rscale>  0 0.27669320E+03</rscale>
<asrwt>0</asrwt>
<pdfrwt beam="1">  1        1 0.54896075E-01 0.27669320E+03</pdfrwt>
<pdfrwt beam="2">  1       -1 0.82521853E-02 0.27669320E+03</pdfrwt>
<totfact> 0.57291820E+03</totfact>
</mgrwt>
</event>
<event>
 9    1  0.7986988E-001  0.2758011E+03  0.7818608E-02  0.1098005E+00
         -2   -1    0    0    0  501 -0.00000000000E+00  0.00000000000E+00  0.62491829395E+01  0.62491829395E+01  0.00000000000E+00 0.  1.
          2   -1    0    0  501    0  0.00000000000E+00 -0.00000000000E+00 -0.30430467211E+04  0.30430467211E+04  0.00000000000E+00 0.  1.
         35    2    1    2    0    0 -0.17763568394E-14 -0.71054273576E-14 -0.30367975381E+04  0.30492959040E+04  0.27580105622E+03 0.  0.
         25    2    3    3    0    0  0.30314774860E+01  0.45503634390E+02 -0.19813981816E+04  0.19858580497E+04  0.12495466702E+03 0.  0.
         25    2    3    3    0    0 -0.30314774860E+01 -0.45503634390E+02 -0.10553993565E+04  0.10634378543E+04  0.12228040591E+03 0.  0.
          5    1    4    4  502    0  0.57714975480E+02  0.32031608959E+02 -0.67447948576E+03  0.67771801590E+03  0.47000000000E+01 0. -1.
         -5    1    4    4    0  502 -0.54683497994E+02  0.13472025431E+02 -0.13069186959E+04  0.13081400338E+04  0.47000000000E+01 0. -1.
          5    1    5    5  503    0  0.79842965189E+01 -0.69137515938E+02 -0.99549241479E+03  0.99793335600E+03  0.47000000000E+01 0.  1.
         -5    1    5    5    0  503 -0.11015774005E+02  0.23633881548E+02 -0.59906941716E+02  0.65504498317E+02  0.47000000000E+01 0.  1.
<mgrwt>
<rscale>  0 0.27580106E+03</rscale>
<asrwt>0</asrwt>
<pdfrwt beam="1">  1        2 0.46816285E+00 0.27580106E+03</pdfrwt>
<pdfrwt beam="2">  1       -2 0.96140903E-03 0.27580106E+03</pdfrwt>
<totfact> 0.44339669E+03</totfact>
</mgrwt>
</event>
<event>
 9    1  0.7986988E-001  0.2747454E+03  0.7818608E-02  0.1098594E+00
          2   -1    0    0  501    0  0.00000000000E+00  0.00000000000E+00  0.53313857096E+03  0.53313857096E+03  0.00000000000E+00 0. -1.
         -2   -1    0    0    0  501 -0.00000000000E+00 -0.00000000000E+00 -0.35396544017E+02  0.35396544017E+02  0.00000000000E+00 0. -1.
         35    2    1    2    0    0  0.00000000000E+00  0.00000000000E+00  0.49774202695E+03  0.56853511498E+03  0.27474543049E+03 0.  0.
         25    2    3    3    0    0 -0.25182399583E+02  0.33821891981E+02  0.17414533868E+03  0.21862929764E+03  0.12527608382E+03 0.  0.
         25    2    3    3    0    0  0.25182399583E+02 -0.33821891981E+02  0.32359668827E+03  0.34990581734E+03  0.12625842832E+03 0.  0.
          5    1    4    4  502    0 -0.56880241488E+01 -0.40497257811E+02  0.18791523990E+02  0.45250335720E+02  0.47000000000E+01 0. -1.
         -5    1    4    4    0  502 -0.19494375434E+02  0.74319149792E+02  0.15535381469E+03  0.17337896192E+03  0.47000000000E+01 0. -1.
          5    1    5    5  503    0  0.37856004268E+02 -0.77798640434E+02  0.19720316698E+03  0.21539936068E+03  0.47000000000E+01 0. -1.
         -5    1    5    5    0  503 -0.12673604685E+02  0.43976748453E+02  0.12639352129E+03  0.13450645666E+03  0.47000000000E+01 0. -1.
<mgrwt>
<rscale>  0 0.27474543E+03</rscale>
<asrwt>0</asrwt>
<pdfrwt beam="1">  1        2 0.82021313E-01 0.27474543E+03</pdfrwt>
<pdfrwt beam="2">  1       -2 0.54456225E-02 0.27474543E+03</pdfrwt>
<totfact> 0.98874628E+03</totfact>
</mgrwt>
</event>
<event>
 9    1  0.7986988E-001  0.2671423E+03  0.7818608E-02  0.1102926E+00
          1   -1    0    0  501    0  0.00000000000E+00  0.00000000000E+00  0.82599047943E+03  0.82599047943E+03  0.00000000000E+00 0. -1.
         -1   -1    0    0    0  501 -0.00000000000E+00 -0.00000000000E+00 -0.21599821335E+02  0.21599821335E+02  0.00000000000E+00 0. -1.
         35    2    1    2    0    0  0.00000000000E+00  0.00000000000E+00  0.80439065810E+03  0.84759030077E+03  0.26714226008E+03 0.  0.
         25    2    3    3    0    0 -0.29178668526E+02 -0.41596574551E+02  0.42057799313E+03  0.44148048969E+03  0.12424775554E+03 0.  0.
         25    2    3    3    0    0  0.29178668526E+02  0.41596574551E+02  0.38381266497E+03  0.40610981108E+03  0.12260239457E+03 0.  0.
          5    1    4    4  502    0 -0.12649675229E+02 -0.49981361346E+01 -0.40361036686E+01  0.14945761307E+02  0.47000000000E+01 0. -1.
         -5    1    4    4    0  502 -0.16528993296E+02 -0.36598438417E+02  0.42461409680E+03  0.42653472838E+03  0.47000000000E+01 0. -1.
          5    1    5    5  503    0  0.54461854077E+02 -0.14665226834E+02  0.27659681590E+03  0.28232791395E+03  0.47000000000E+01 0. -1.
         -5    1    5    5    0  503 -0.25283185552E+02  0.56261801386E+02  0.10721584907E+03  0.12378189713E+03  0.47000000000E+01 0. -1.
<mgrwt>
<rscale>  0 0.26714226E+03</rscale>
<asrwt>0</asrwt>
<pdfrwt beam="1">  1        1 0.12707543E+00 0.26714226E+03</pdfrwt>
<pdfrwt beam="2">  1       -1 0.33230501E-02 0.26714226E+03</pdfrwt>
<totfact> 0.70842952E+03</totfact>
</mgrwt>
</event>
<event>
 9    1  0.7986988E-001  0.2771004E+03  0.7818608E-02  0.1097283E+00
          2   -1    0    0  501    0  0.00000000000E+00  0.00000000000E+00  0.58981838091E+02  0.58981838091E+02  0.00000000000E+00 0.  1.
         -2   -1    0    0    0  501 -0.00000000000E+00 -0.00000000000E+00 -0.32545888112E+03  0.32545888112E+03  0.00000000000E+00 0.  1.
         35    2    1    2    0    0  0.14210854715E-13 -0.88817841970E-15 -0.26647704303E+03  0.38444071922E+03  0.27710043689E+03 0.  0.
         25    2    3    3    0    0  0.52109610930E+02 -0.11083302005E+00 -0.17148534184E+03  0.21869871102E+03  0.12532549581E+03 0.  0.
         25    2    3    3    0    0 -0.52109610930E+02  0.11083302005E+00 -0.94991701196E+02  0.16574200820E+03  0.12542554026E+03 0.  0.
          5    1    4    4  502    0 -0.33695014998E+02 -0.44418858382E+01 -0.10350059899E+03  0.10903920569E+03  0.47000000000E+01 0.  1.
         -5    1    4    4    0  502  0.85804625927E+02  0.43310528181E+01 -0.67984742842E+02  0.10965950533E+03  0.47000000000E+01 0.  1.
          5    1    5    5  503    0  0.39193320645E+02  0.88803752992E+01 -0.47333081795E+02  0.62269479529E+02  0.47000000000E+01 0. -1.
         -5    1    5    5    0  503 -0.91302931575E+02 -0.87695422792E+01 -0.47658619402E+02  0.10347252867E+03  0.47000000000E+01 0. -1.
<mgrwt>
<rscale>  0 0.27710044E+03</rscale>
<asrwt>0</asrwt>
<pdfrwt beam="1">  1        2 0.90741290E-02 0.27710044E+03</pdfrwt>
<pdfrwt beam="2">  1       -2 0.50070597E-01 0.27710044E+03</pdfrwt>
<totfact> 0.27652203E+03</totfact>
</mgrwt>
</event>
<event>
 9    1  0.7986988E-001  0.2754387E+03  0.7818608E-02  0.1098207E+00
         -2   -1    0    0    0  501 -0.00000000000E+00  0.00000000000E+00  0.65283376295E+02  0.65283376295E+02  0.00000000000E+00 0. -1.
          2   -1    0    0  501    0  0.00000000000E+00 -0.00000000000E+00 -0.29052763156E+03  0.29052763156E+03  0.00000000000E+00 0. -1.
         35    2    1    2    0    0 -0.35527136788E-14  0.71054273576E-14 -0.22524425527E+03  0.35581100786E+03  0.27543873871E+03 0.  0.
         25    2    3    3    0    0  0.14737757466E+02  0.55052688996E+02 -0.13275309146E+03  0.19018987278E+03  0.12369642014E+03 0.  0.
         25    2    3    3    0    0 -0.14737757466E+02 -0.55052688996E+02 -0.92491163811E+02  0.16562113508E+03  0.12501097928E+03 0.  0.
          5    1    4    4  502    0 -0.26334226597E+02 -0.26730943296E+02 -0.14306007142E+02  0.40432495103E+02  0.47000000000E+01 0.  1.
         -5    1    4    4    0  502  0.41071984063E+02  0.81783632291E+02 -0.11844708431E+03  0.14975737768E+03  0.47000000000E+01 0.  1.
          5    1    5    5  503    0 -0.51941169246E+02 -0.73980919917E+02 -0.82435934553E+02  0.12242889724E+03  0.47000000000E+01 0.  1.
         -5    1    5    5    0  503  0.37203411780E+02  0.18928230921E+02 -0.10055229259E+02  0.43192237836E+02  0.47000000000E+01 0.  1.
<mgrwt>
<rscale>  0 0.27543874E+03</rscale>
<asrwt>0</asrwt>
<pdfrwt beam="1">  1        2 0.44696558E-01 0.27543874E+03</pdfrwt>
<pdfrwt beam="2">  1       -2 0.10043597E-01 0.27543874E+03</pdfrwt>
<totfact> 0.74057001E+03</totfact>
</mgrwt>
</event>
<event>
 9    1  0.7986988E-001  0.2743054E+03  0.7818608E-02  0.1098840E+00
         -1   -1    0    0    0  501 -0.00000000000E+00  0.00000000000E+00  0.85700641380E+02  0.85700641380E+02  0.00000000000E+00 0.  1.
          1   -1    0    0  501    0  0.00000000000E+00 -0.00000000000E+00 -0.21949500219E+03  0.21949500219E+03  0.00000000000E+00 0.  1.
         35    2    1    2    0    0  0.00000000000E+00  0.00000000000E+00 -0.13379436081E+03  0.30519564357E+03  0.27430539526E+03 0.  0.
         25    2    3    3    0    0  0.45484647609E+02  0.53594394072E+01 -0.96426845281E+02  0.16539195792E+03  0.12632809068E+03 0.  0.
         25    2    3    3    0    0 -0.45484647609E+02 -0.53594394072E+01 -0.37367515529E+02  0.13980368565E+03  0.12669318271E+03 0.  0.
          5    1    4    4  502    0  0.65835444491E+02  0.47406213557E+02 -0.83895150281E+02  0.11679957652E+03  0.47000000000E+01 0. -1.
         -5    1    4    4    0  502 -0.20350796882E+02 -0.42046774150E+02 -0.12531695000E+02  0.48592381396E+02  0.47000000000E+01 0. -1.
          5    1    5    5  503    0 -0.53044331734E+02 -0.58168258262E+02 -0.94994720839E+01  0.79432848169E+02  0.47000000000E+01 0.  1.
         -5    1    5    5    0  503  0.75596841246E+01  0.52808818855E+02 -0.27868043445E+02  0.60370837483E+02  0.47000000000E+01 0.  1.
<mgrwt>
<rscale>  0 0.27430540E+03</rscale>
<asrwt>0</asrwt>
<pdfrwt beam="1">  1        1 0.33768461E-01 0.27430540E+03</pdfrwt>
<pdfrwt beam="2">  1       -1 0.13184714E-01 0.27430540E+03</pdfrwt>
<totfact> 0.51070134E+03</totfact>
</mgrwt>
</event>
<event>
 9    1  0.7986988E-001  0.2736884E+03  0.7818608E-02  0.1099187E+00
         -1   -1    0    0    0  501 -0.00000000000E+00  0.00000000000E+00  0.79412553573E+03  0.79412553573E+03  0.00000000000E+00 0. -1.
          1   -1    0    0  501    0  0.00000000000E+00 -0.00000000000E+00 -0.23581070230E+02  0.23581070230E+02  0.00000000000E+00 0. -1.
         35    2    1    2    0    0  0.00000000000E+00  0.00000000000E+00  0.77054446550E+03  0.81770660596E+03  0.27368836314E+03 0.  0.
         25    2    3    3    0    0  0.21976651993E+02  0.46536598221E+02  0.32224096433E+03  0.34952322158E+03  0.12521427682E+03 0.  0.
         25    2    3    3    0    0 -0.21976651993E+02 -0.46536598221E+02  0.44830350117E+03  0.46818338438E+03  0.12478390941E+03 0.  0.
          5    1    4    4  502    0 -0.50614771530E+02  0.34420509071E+02  0.13602469388E+03  0.14923616816E+03  0.47000000000E+01 0.  1.
         -5    1    4    4    0  502  0.72591423523E+02  0.12116089150E+02  0.18621627045E+03  0.20028705341E+03  0.47000000000E+01 0.  1.
          5    1    5    5  503    0 -0.70596127853E+02 -0.52411443769E+01  0.22816175796E+03  0.23893756644E+03  0.47000000000E+01 0. -1.
         -5    1    5    5    0  503  0.48619475860E+02 -0.41295453844E+02  0.22014174321E+03  0.22924581794E+03  0.47000000000E+01 0. -1.
<mgrwt>
<rscale>  0 0.27368836E+03</rscale>
<asrwt>0</asrwt>
<pdfrwt beam="1">  1        1 0.36278576E-02 0.27368836E+03</pdfrwt>
<pdfrwt beam="2">  1       -1 0.12217314E+00 0.27368836E+03</pdfrwt>
<totfact> 0.16507693E+03</totfact>
</mgrwt>
</event>
<event>
 9    1  0.7986988E-001  0.2760585E+03  0.7818608E-02  0.1097861E+00
          1   -1    0    0  501    0  0.00000000000E+00  0.00000000000E+00  0.85680120466E+03  0.85680120466E+03  0.00000000000E+00 0.  1.
         -1   -1    0    0    0  501 -0.00000000000E+00 -0.00000000000E+00 -0.22236286099E+02  0.22236286099E+02  0.00000000000E+00 0.  1.
         35    2    1    2    0    0  0.00000000000E+00 -0.71054273576E-14  0.83456491856E+03  0.87903749076E+03  0.27605852073E+03 0.  0.
         25    2    3    3    0    0  0.29978353877E+02  0.41496971436E+02  0.32993758022E+03  0.35636259541E+03  0.12455838884E+03 0.  0.
         25    2    3    3    0    0 -0.29978353877E+02 -0.41496971436E+02  0.50462733835E+03  0.52267489535E+03  0.12617287855E+03 0.  0.
          5    1    4    4  502    0 -0.10027455506E+02  0.73121856068E+02  0.25565745322E+03  0.26613939785E+03  0.47000000000E+01 0. -1.
         -5    1    4    4    0  502  0.40005809383E+02 -0.31624884632E+02  0.74280126997E+02  0.90223197566E+02  0.47000000000E+01 0. -1.
          5    1    5    5  503    0  0.70266837930E+01 -0.19910648281E+02  0.63592026726E+01  0.22546344687E+02  0.47000000000E+01 0.  1.
         -5    1    5    5    0  503 -0.37005037670E+02 -0.21586323155E+02  0.49826813567E+03  0.50012855066E+03  0.47000000000E+01 0.  1.
<mgrwt>
<rscale>  0 0.27605852E+03</rscale>
<asrwt>0</asrwt>
<pdfrwt beam="1">  1        1 0.13181554E+00 0.27605852E+03</pdfrwt>
<pdfrwt beam="2">  1       -1 0.34209677E-02 0.27605852E+03</pdfrwt>
<totfact> 0.64114034E+03</totfact>
</mgrwt>
</event>
<event>
 9    1  0.7986988E-001  0.2735256E+03  0.7818608E-02  0.1099279E+00
          2   -1    0    0  501    0  0.00000000000E+00  0.00000000000E+00  0.64313798722E+03  0.64313798722E+03  0.00000000000E+00 0. -1.
         -2   -1    0    0    0  501 -0.00000000000E+00 -0.00000000000E+00 -0.29082512766E+02  0.29082512766E+02  0.00000000000E+00 0. -1.
         35    2    1    2    0    0  0.00000000000E+00  0.00000000000E+00  0.61405547445E+03  0.67222049998E+03  0.27352563846E+03 0.  0.
         25    2    3    3    0    0  0.47022658873E+01 -0.41083140214E+02  0.23438758366E+03  0.26913874079E+03  0.12565105134E+03 0.  0.
         25    2    3    3    0    0 -0.47022658873E+01  0.41083140214E+02  0.37966789079E+03  0.40308175919E+03  0.12890795781E+03 0.  0.
          5    1    4    4  502    0 -0.22076848276E+02  0.39218529504E+02  0.59179098875E+02  0.74496550456E+02  0.47000000000E+01 0.  1.
         -5    1    4    4    0  502  0.26779114164E+02 -0.80301669718E+02  0.17520848479E+03  0.19464219033E+03  0.47000000000E+01 0.  1.
          5    1    5    5  503    0  0.39113746728E+02  0.44561232301E+02  0.77476551815E+02  0.97674432112E+02  0.47000000000E+01 0. -1.
         -5    1    5    5    0  503 -0.43816012615E+02 -0.34780920875E+01  0.30219133897E+03  0.30540732708E+03  0.47000000000E+01 0. -1.
<mgrwt>
<rscale>  0 0.27352564E+03</rscale>
<asrwt>0</asrwt>
<pdfrwt beam="1">  1        2 0.98944295E-01 0.27352564E+03</pdfrwt>
<pdfrwt beam="2">  1       -2 0.44742332E-02 0.27352564E+03</pdfrwt>
<totfact> 0.10726864E+04</totfact>
</mgrwt>
</event>
<event>
 9    1  0.7986988E-001  0.2765054E+03  0.7818608E-02  0.1097613E+00
          2   -1    0    0  501    0  0.00000000000E+00  0.00000000000E+00  0.61760925683E+02  0.61760925683E+02  0.00000000000E+00 0.  1.
         -2   -1    0    0    0  501 -0.00000000000E+00 -0.00000000000E+00 -0.30948060525E+03  0.30948060525E+03  0.00000000000E+00 0.  1.
         35    2    1    2    0    0  0.00000000000E+00  0.00000000000E+00 -0.24771967956E+03  0.37124153093E+03  0.27650539713E+03 0.  0.
         25    2    3    3    0    0 -0.36055417809E+02 -0.28429580842E+02 -0.74865512070E+02  0.15303529280E+03  0.12532646059E+03 0.  0.
         25    2    3    3    0    0  0.36055417809E+02  0.28429580842E+02 -0.17285416749E+03  0.21820623813E+03  0.12500865937E+03 0.  0.
          5    1    4    4  502    0  0.13319110670E+02 -0.12223954016E+02  0.30324084601E+02  0.35615500385E+02  0.47000000000E+01 0. -1.
         -5    1    4    4    0  502 -0.49374528480E+02 -0.16205626827E+02 -0.10518959667E+03  0.11741979242E+03  0.47000000000E+01 0. -1.
          5    1    5    5  503    0  0.69545061306E+02  0.28607592918E+02 -0.49142435978E+02  0.89955427510E+02  0.47000000000E+01 0. -1.
         -5    1    5    5    0  503 -0.33489643496E+02 -0.17801207578E+00 -0.12371173152E+03  0.12825081062E+03  0.47000000000E+01 0. -1.
<mgrwt>
<rscale>  0 0.27650540E+03</rscale>
<asrwt>0</asrwt>
<pdfrwt beam="1">  1        2 0.95016806E-02 0.27650540E+03</pdfrwt>
<pdfrwt beam="2">  1       -2 0.47612402E-01 0.27650540E+03</pdfrwt>
<totfact> 0.28845228E+03</totfact>
</mgrwt>
</event>
<event>
 9    1  0.7986988E-001  0.2677471E+03  0.7818608E-02  0.1102576E+00
         -2   -1    0    0    0  501 -0.00000000000E+00  0.00000000000E+00  0.46115612641E+01  0.46115612641E+01  0.00000000000E+00 0.  1.
          2   -1    0    0  501    0  0.00000000000E+00 -0.00000000000E+00 -0.38863469024E+04  0.38863469024E+04  0.00000000000E+00 0.  1.
         35    2    1    2    0    0  0.71054273576E-14 -0.22204460493E-15 -0.38817353412E+04  0.38909584637E+04  0.26774709585E+03 0.  0.
         25    2    3    3    0    0  0.41236887746E+02  0.78847526694E+00 -0.23892656481E+04  0.23927045054E+04  0.12142244519E+03 0.  0.
         25    2    3    3    0    0 -0.41236887746E+02 -0.78847526694E+00 -0.14924696930E+04  0.14982539583E+04  0.12489209873E+03 0.  0.
          5    1    4    4  502    0 -0.16716686125E+02  0.37361758596E+01 -0.56801988954E+02  0.59514389472E+02  0.47000000000E+01 0.  1.
         -5    1    4    4    0  502  0.57953573871E+02 -0.29477005927E+01 -0.23324636592E+04  0.23331901159E+04  0.47000000000E+01 0.  1.
          5    1    5    5  503    0  0.28367323767E+02 -0.91604866129E+00 -0.10435067273E+04  0.10439032159E+04  0.47000000000E+01 0.  1.
         -5    1    5    5    0  503 -0.69604211513E+02  0.12757339435E+00 -0.44896296572E+03  0.45435074240E+03  0.47000000000E+01 0.  1.
<mgrwt>
<rscale>  0 0.26774710E+03</rscale>
<asrwt>0</asrwt>
<pdfrwt beam="1">  1        2 0.59789746E+00 0.26774710E+03</pdfrwt>
<pdfrwt beam="2">  1       -2 0.70947341E-03 0.26774710E+03</pdfrwt>
<totfact> 0.19125865E+03</totfact>
</mgrwt>
</event>
<event>
 9    1  0.7986988E-001  0.2704179E+03  0.7818608E-02  0.1101041E+00
          2   -1    0    0  501    0  0.00000000000E+00  0.00000000000E+00  0.16741040409E+04  0.16741040409E+04  0.00000000000E+00 0. -1.
         -2   -1    0    0    0  501 -0.00000000000E+00 -0.00000000000E+00 -0.10920149472E+02  0.10920149472E+02  0.00000000000E+00 0. -1.
         35    2    1    2    0    0 -0.71054273576E-14  0.71054273576E-14  0.16631838914E+04  0.16850241904E+04  0.27041794584E+03 0.  0.
         25    2    3    3    0    0 -0.18303542773E+02 -0.42960240591E+02  0.68035627940E+03  0.69322284325E+03  0.12446944019E+03 0.  0.
         25    2    3    3    0    0  0.18303542773E+02  0.42960240591E+02  0.98282761204E+03  0.99180134713E+03  0.12465630843E+03 0.  0.
          5    1    4    4  502    0  0.35823446531E+02  0.26371628369E+02  0.21508751320E+03  0.21968957745E+03  0.47000000000E+01 0. -1.
         -5    1    4    4    0  502 -0.54126989304E+02 -0.69331868961E+02  0.46526876619E+03  0.47353326580E+03  0.47000000000E+01 0. -1.
          5    1    5    5  503    0  0.64717830491E+02 -0.63857406746E+01  0.48639948810E+03  0.49075016790E+03  0.47000000000E+01 0. -1.
         -5    1    5    5    0  503 -0.46414287718E+02  0.49345981266E+02  0.49642812393E+03  0.50105117923E+03  0.47000000000E+01 0. -1.
<mgrwt>
<rscale>  0 0.27041795E+03</rscale>
<asrwt>0</asrwt>
<pdfrwt beam="1">  1        2 0.25755426E+00 0.27041795E+03</pdfrwt>
<pdfrwt beam="2">  1       -2 0.16800243E-02 0.27041795E+03</pdfrwt>
<totfact> 0.11010838E+04</totfact>
</mgrwt>
</event>
<event>
 9    1  0.7986988E-001  0.2851688E+03  0.7818608E-02  0.1092899E+00
         -1   -1    0    0    0  501 -0.00000000000E+00  0.00000000000E+00  0.22050633187E+02  0.22050633187E+02  0.00000000000E+00 0. -1.
          1   -1    0    0  501    0  0.00000000000E+00 -0.00000000000E+00 -0.92198337355E+03  0.92198337355E+03  0.00000000000E+00 0. -1.
         35    2    1    2    0    0  0.00000000000E+00  0.14210854715E-13 -0.89993274037E+03  0.94403400674E+03  0.28516884244E+03 0.  0.
         25    2    3    3    0    0  0.51439134595E+02  0.44721138340E+02 -0.48674441130E+03  0.50703190459E+03  0.12456028887E+03 0.  0.
         25    2    3    3    0    0 -0.51439134595E+02 -0.44721138340E+02 -0.41318832907E+03  0.43700210215E+03  0.12490106973E+03 0.  0.
          5    1    4    4  502    0  0.74674758839E+02  0.24876037548E+01 -0.40625018994E+03  0.41309056466E+03  0.47000000000E+01 0. -1.
         -5    1    4    4    0  502 -0.23235624244E+02  0.42233534586E+02 -0.80494221353E+02  0.93941339935E+02  0.47000000000E+01 0. -1.
          5    1    5    5  503    0 -0.78767882163E+02 -0.48104012659E+02 -0.18186812366E+03  0.20400117573E+03  0.47000000000E+01 0. -1.
         -5    1    5    5    0  503  0.27328747568E+02  0.33828743189E+01 -0.23132020541E+03  0.23300092642E+03  0.47000000000E+01 0. -1.
<mgrwt>
<rscale>  0 0.28516884E+03</rscale>
<asrwt>0</asrwt>
<pdfrwt beam="1">  1        1 0.14184358E+00 0.28516884E+03</pdfrwt>
<pdfrwt beam="2">  1       -1 0.33924055E-02 0.28516884E+03</pdfrwt>
<totfact> 0.57687635E+03</totfact>
</mgrwt>
</event>
<event>
 9    1  0.7986988E-001  0.2726454E+03  0.7818608E-02  0.1099775E+00
         -2   -1    0    0    0  501 -0.00000000000E+00  0.00000000000E+00  0.42106991267E+02  0.42106991267E+02  0.00000000000E+00 0. -1.
          2   -1    0    0  501    0  0.00000000000E+00 -0.00000000000E+00 -0.44134892109E+03  0.44134892109E+03  0.00000000000E+00 0. -1.
         35    2    1    2    0    0  0.71054273576E-14  0.26645352591E-14 -0.39924192982E+03  0.48345591236E+03  0.27264537528E+03 0.  0.
         25    2    3    3    0    0  0.20342392166E+02 -0.20382299040E+01 -0.28959913416E+03  0.31596746083E+03  0.12469887928E+03 0.  0.
         25    2    3    3    0    0 -0.20342392166E+02  0.20382299040E+01 -0.10964279566E+03  0.16748845153E+03  0.12495147640E+03 0.  0.
          5    1    4    4  502    0 -0.47173762049E+02 -0.11621493815E+01 -0.59309041094E+02  0.75936597057E+02  0.47000000000E+01 0. -1.
         -5    1    4    4    0  502  0.67516154216E+02 -0.87608052255E+00 -0.23029009307E+03  0.24003086377E+03  0.47000000000E+01 0. -1.
          5    1    5    5  503    0 -0.68727321348E+02  0.21080272493E+02 -0.47343784797E+02  0.86205258233E+02  0.47000000000E+01 0.  1.
         -5    1    5    5    0  503  0.48384929182E+02 -0.19042042589E+02 -0.62299010864E+02  0.81283193297E+02  0.47000000000E+01 0.  1.
<mgrwt>
<rscale>  0 0.27264538E+03</rscale>
<asrwt>0</asrwt>
<pdfrwt beam="1">  1        2 0.67899835E-01 0.27264538E+03</pdfrwt>
<pdfrwt beam="2">  1       -2 0.64779986E-02 0.27264538E+03</pdfrwt>
<totfact> 0.93485389E+03</totfact>
</mgrwt>
</event>
<event>
 9    1  0.7986988E-001  0.2751003E+03  0.7818608E-02  0.1098396E+00
          1   -1    0    0  501    0  0.00000000000E+00  0.00000000000E+00  0.19678840524E+04  0.19678840524E+04  0.00000000000E+00 0. -1.
         -1   -1    0    0    0  501 -0.00000000000E+00 -0.00000000000E+00 -0.96144105558E+01  0.96144105558E+01  0.00000000000E+00 0. -1.
         35    2    1    2    0    0  0.71054273576E-14  0.00000000000E+00  0.19582696419E+04  0.19774984630E+04  0.27510031048E+03 0.  0.
         25    2    3    3    0    0 -0.21968409964E+02  0.48368088024E+02  0.89409204125E+03  0.90453643114E+03  0.12634672160E+03 0.  0.
         25    2    3    3    0    0  0.21968409964E+02 -0.48368088024E+02  0.10641776006E+04  0.10729620319E+04  0.12629914146E+03 0.  0.
          5    1    4    4  502    0 -0.66750933704E+02  0.47131020307E+02  0.72284176680E+03  0.72746087871E+03  0.47000000000E+01 0.  1.
         -5    1    4    4    0  502  0.44782523740E+02  0.12370677164E+01  0.17125027445E+03  0.17707555243E+03  0.47000000000E+01 0.  1.
          5    1    5    5  503    0 -0.45218111627E+02 -0.52540752780E+02  0.55545695913E+03  0.55978543369E+03  0.47000000000E+01 0. -1.
         -5    1    5    5    0  503  0.67186521591E+02  0.41726647566E+01  0.50872064151E+03  0.51317659818E+03  0.47000000000E+01 0. -1.
<mgrwt>
<rscale>  0 0.27510031E+03</rscale>
<asrwt>0</asrwt>
<pdfrwt beam="1">  1        1 0.30275107E+00 0.27510031E+03</pdfrwt>
<pdfrwt beam="2">  1       -1 0.14791417E-02 0.27510031E+03</pdfrwt>
<totfact> 0.37706883E+03</totfact>
</mgrwt>
</event>
<event>
 9    1  0.7986988E-001  0.2548576E+03  0.7818608E-02  0.1110273E+00
          2   -1    0    0  501    0  0.00000000000E+00  0.00000000000E+00  0.11945930797E+04  0.11945930797E+04  0.00000000000E+00 0. -1.
         -2   -1    0    0    0  501 -0.00000000000E+00 -0.00000000000E+00 -0.13592993159E+02  0.13592993159E+02  0.00000000000E+00 0. -1.
         35    2    1    2    0    0  0.00000000000E+00  0.71054273576E-14  0.11810000865E+04  0.12081860728E+04  0.25485757245E+03 0.  0.
         25    2    3    3    0    0 -0.84407048564E+01  0.20605221518E+02  0.56191517208E+03  0.57628061810E+03  0.12591612101E+03 0.  0.
         25    2    3    3    0    0  0.84407048564E+01 -0.20605221518E+02  0.61908491442E+03  0.63190545472E+03  0.12466977094E+03 0.  0.
          5    1    4    4  502    0  0.10271400266E+02 -0.10006562473E+01 -0.20910440235E+01  0.11531064195E+02  0.47000000000E+01 0. -1.
         -5    1    4    4    0  502 -0.18712105123E+02  0.21605877765E+02  0.56400621611E+03  0.56474955391E+03  0.47000000000E+01 0. -1.
          5    1    5    5  503    0  0.46475185220E+02  0.20175197090E+02  0.46855380336E+03  0.47130853807E+03  0.47000000000E+01 0.  1.
         -5    1    5    5    0  503 -0.38034480363E+02 -0.40780418608E+02  0.15053111106E+03  0.16059691664E+03  0.47000000000E+01 0.  1.
<mgrwt>
<rscale>  0 0.25485757E+03</rscale>
<asrwt>0</asrwt>
<pdfrwt beam="1">  1        2 0.18378347E+00 0.25485757E+03</pdfrwt>
<pdfrwt beam="2">  1       -2 0.20912307E-02 0.25485757E+03</pdfrwt>
<totfact> 0.14501469E+04</totfact>
</mgrwt>
</event>
<event>
 9    1  0.7986988E-001  0.2751956E+03  0.7818608E-02  0.1098342E+00
          2   -1    0    0  501    0  0.00000000000E+00  0.00000000000E+00  0.28319259130E+03  0.28319259130E+03  0.00000000000E+00 0. -1.
         -2   -1    0    0    0  501 -0.00000000000E+00 -0.00000000000E+00 -0.66856100552E+02  0.66856100552E+02  0.00000000000E+00 0. -1.
         35    2    1    2    0    0  0.00000000000E+00 -0.71054273576E-14  0.21633649075E+03  0.35004869185E+03  0.27519558397E+03 0.  0.
         25    2    3    3    0    0 -0.10108807025E+02  0.44535126412E+02  0.15327285699E+03  0.20263581716E+03  0.12443126714E+03 0.  0.
         25    2    3    3    0    0  0.10108807025E+02 -0.44535126412E+02  0.63063633762E+02  0.14741287469E+03  0.12517175503E+03 0.  0.
          5    1    4    4  502    0  0.33905447679E+02  0.72153369237E+02  0.10128447706E+03  0.12898187225E+03  0.47000000000E+01 0. -1.
         -5    1    4    4    0  502 -0.44014254704E+02 -0.27618242825E+02  0.51988379922E+02  0.73653944910E+02  0.47000000000E+01 0. -1.
          5    1    5    5  503    0  0.61884073867E+02 -0.50222380749E+02  0.47269935263E+02  0.92781802668E+02  0.47000000000E+01 0.  1.
         -5    1    5    5    0  503 -0.51775266843E+02  0.56872543368E+01  0.15793698500E+02  0.54631072027E+02  0.47000000000E+01 0.  1.
<mgrwt>
<rscale>  0 0.27519558E+03</rscale>
<asrwt>0</asrwt>
<pdfrwt beam="1">  1        2 0.43568090E-01 0.27519558E+03</pdfrwt>
<pdfrwt beam="2">  1       -2 0.10285554E-01 0.27519558E+03</pdfrwt>
<totfact> 0.73289429E+03</totfact>
</mgrwt>
</event>
<event>
 9    1  0.7986988E-001  0.2751553E+03  0.7818608E-02  0.1098365E+00
         -2   -1    0    0    0  501 -0.00000000000E+00  0.00000000000E+00  0.13409831174E+02  0.13409831174E+02  0.00000000000E+00 0.  1.
          2   -1    0    0  501    0  0.00000000000E+00 -0.00000000000E+00 -0.14114727482E+04  0.14114727482E+04  0.00000000000E+00 0.  1.
         35    2    1    2    0    0  0.00000000000E+00  0.00000000000E+00 -0.13980629170E+04  0.14248825794E+04  0.27515531076E+03 0.  0.
         25    2    3    3    0    0  0.15342938979E+02 -0.56074439285E+02 -0.72464621943E+03  0.73757115627E+03  0.12457655761E+03 0.  0.
         25    2    3    3    0    0 -0.15342938979E+02  0.56074439285E+02 -0.67341669759E+03  0.68731142310E+03  0.12460816673E+03 0.  0.
          5    1    4    4  502    0  0.32822733105E+02 -0.61414680685E+02 -0.18709982120E+03  0.19969358504E+03  0.47000000000E+01 0. -1.
         -5    1    4    4    0  502 -0.17479794126E+02  0.53402414000E+01 -0.53754639823E+03  0.53787757123E+03  0.47000000000E+01 0. -1.
          5    1    5    5  503    0  0.32447685510E+02 -0.25305033444E+02 -0.25639362086E+03  0.25971710731E+03  0.47000000000E+01 0. -1.
         -5    1    5    5    0  503 -0.47790624490E+02  0.81379472729E+02 -0.41702307673E+03  0.42759431579E+03  0.47000000000E+01 0. -1.
<mgrwt>
<rscale>  0 0.27515531E+03</rscale>
<asrwt>0</asrwt>
<pdfrwt beam="1">  1        2 0.21714953E+00 0.27515531E+03</pdfrwt>
<pdfrwt beam="2">  1       -2 0.20630522E-02 0.27515531E+03</pdfrwt>
<totfact> 0.11246600E+04</totfact>
</mgrwt>
</event>
<event>
 9    1  0.7986988E-001  0.2779743E+03  0.7818608E-02  0.1096800E+00
         -2   -1    0    0    0  501 -0.00000000000E+00  0.00000000000E+00  0.15947854671E+03  0.15947854671E+03  0.00000000000E+00 0.  1.
          2   -1    0    0  501    0  0.00000000000E+00 -0.00000000000E+00 -0.12112873253E+03  0.12112873253E+03  0.00000000000E+00 0.  1.
         35    2    1    2    0    0 -0.35527136788E-14  0.71054273576E-14  0.38349814179E+02  0.28060727924E+03  0.27797434579E+03 0.  0.
         25    2    3    3    0    0 -0.29968893097E+02 -0.52911254400E+02  0.19288567894E+02  0.14016283103E+03  0.12480318488E+03 0.  0.
         25    2    3    3    0    0  0.29968893097E+02  0.52911254400E+02  0.19061246284E+02  0.14044444821E+03  0.12515421099E+03 0.  0.
          5    1    4    4  502    0 -0.71262260341E+02 -0.55862759717E+02 -0.69312931425E+01  0.90934539625E+02  0.47000000000E+01 0.  1.
         -5    1    4    4    0  502  0.41293367244E+02  0.29515053170E+01  0.26219861037E+02  0.49228291406E+02  0.47000000000E+01 0.  1.
          5    1    5    5  503    0  0.38592078266E+02 -0.32839803827E+02  0.18445476337E+02  0.54130645827E+02  0.47000000000E+01 0. -1.
         -5    1    5    5    0  503 -0.86231851695E+01  0.85751058227E+02  0.61576994755E+00  0.86313802385E+02  0.47000000000E+01 0. -1.
<mgrwt>
<rscale>  0 0.27797435E+03</rscale>
<asrwt>0</asrwt>
<pdfrwt beam="1">  1        2 0.18635190E-01 0.27797435E+03</pdfrwt>
<pdfrwt beam="2">  1       -2 0.24535161E-01 0.27797435E+03</pdfrwt>
<totfact> 0.44057374E+03</totfact>
</mgrwt>
</event>
<event>
 9    1  0.7986988E-001  0.2745149E+03  0.7818608E-02  0.1098723E+00
          1   -1    0    0  501    0  0.00000000000E+00  0.00000000000E+00  0.62372433472E+02  0.62372433472E+02  0.00000000000E+00 0. -1.
         -1   -1    0    0    0  501 -0.00000000000E+00 -0.00000000000E+00 -0.30205015159E+03  0.30205015159E+03  0.00000000000E+00 0. -1.
         35    2    1    2    0    0  0.35527136788E-14  0.00000000000E+00 -0.23967771812E+03  0.36442258506E+03  0.27451486652E+03 0.  0.
         25    2    3    3    0    0  0.18123350627E+02  0.53138432962E+02 -0.99019551255E+02  0.16797673364E+03  0.12352798313E+03 0.  0.
         25    2    3    3    0    0 -0.18123350627E+02 -0.53138432962E+02 -0.14065816686E+03  0.19644585143E+03  0.12511636081E+03 0.  0.
          5    1    4    4  502    0 -0.34176939130E+02  0.71402051121E+02 -0.67031787345E+02  0.10383480432E+03  0.47000000000E+01 0.  1.
         -5    1    4    4    0  502  0.52300289757E+02 -0.18263618160E+02 -0.31987763910E+02  0.64141929321E+02  0.47000000000E+01 0.  1.
          5    1    5    5  503    0 -0.32176469177E+02 -0.70491868414E+02 -0.29623761594E+02  0.83090829410E+02  0.47000000000E+01 0.  1.
         -5    1    5    5    0  503  0.14053118550E+02  0.17353435452E+02 -0.11103440527E+03  0.11335502202E+03  0.47000000000E+01 0.  1.
<mgrwt>
<rscale>  0 0.27451487E+03</rscale>
<asrwt>0</asrwt>
<pdfrwt beam="1">  1        1 0.95957587E-02 0.27451487E+03</pdfrwt>
<pdfrwt beam="2">  1       -1 0.46469255E-01 0.27451487E+03</pdfrwt>
<totfact> 0.31789387E+03</totfact>
</mgrwt>
</event>
<event>
 9    1  0.7986988E-001  0.2558724E+03  0.7818608E-02  0.1109649E+00
         -1   -1    0    0    0  501 -0.00000000000E+00  0.00000000000E+00  0.23185628547E+03  0.23185628547E+03  0.00000000000E+00 0. -1.
          1   -1    0    0  501    0  0.00000000000E+00 -0.00000000000E+00 -0.70594051132E+02  0.70594051132E+02  0.00000000000E+00 0. -1.
         35    2    1    2    0    0  0.00000000000E+00 -0.35527136788E-14  0.16126223434E+03  0.30245033661E+03  0.25587242502E+03 0.  0.
         25    2    3    3    0    0 -0.79429210533E+01  0.19457715855E+02  0.10263334735E+03  0.16311285288E+03  0.12502202240E+03 0.  0.
         25    2    3    3    0    0  0.79429210533E+01 -0.19457715855E+02  0.58628886993E+02  0.13933748373E+03  0.12464307153E+03 0.  0.
          5    1    4    4  502    0  0.23224559030E+02  0.41611091599E+02  0.11341249426E+03  0.12310705480E+03  0.47000000000E+01 0.  1.
         -5    1    4    4    0  502 -0.31167480083E+02 -0.22153375745E+02 -0.10779146914E+02  0.40005798077E+02  0.47000000000E+01 0.  1.
          5    1    5    5  503    0  0.90201763896E+01 -0.19152189941E+01  0.96642206114E+02  0.97194843734E+02  0.47000000000E+01 0.  1.
         -5    1    5    5    0  503 -0.10772553363E+01 -0.17542496861E+02 -0.38013319121E+02  0.42142639995E+02  0.47000000000E+01 0.  1.
<mgrwt>
<rscale>  0 0.25587243E+03</rscale>
<asrwt>0</asrwt>
<pdfrwt beam="1">  1        1 0.10860623E-01 0.25587243E+03</pdfrwt>
<pdfrwt beam="2">  1       -1 0.35670197E-01 0.25587243E+03</pdfrwt>
<totfact> 0.43019657E+03</totfact>
</mgrwt>
</event>
<event>
 9    1  0.7986988E-001  0.2593394E+03  0.7818608E-02  0.1107541E+00
          1   -1    0    0  501    0  0.00000000000E+00  0.00000000000E+00  0.23394444824E+03  0.23394444824E+03  0.00000000000E+00 0.  1.
         -1   -1    0    0    0  501 -0.00000000000E+00 -0.00000000000E+00 -0.71872751748E+02  0.71872751748E+02  0.00000000000E+00 0.  1.
         35    2    1    2    0    0  0.00000000000E+00  0.35527136788E-14  0.16207169649E+03  0.30581719999E+03  0.25933940118E+03 0.  0.
         25    2    3    3    0    0 -0.24575977153E+02  0.16069284371E+01  0.49932707768E+02  0.13687503647E+03  0.12503975141E+03 0.  0.
         25    2    3    3    0    0  0.24575977153E+02 -0.16069284371E+01  0.11213898873E+03  0.16894216352E+03  0.12393442197E+03 0.  0.
          5    1    4    4  502    0 -0.93562282201E+00 -0.28207464418E+02  0.82028429952E+02  0.86875138902E+02  0.47000000000E+01 0. -1.
         -5    1    4    4    0  502 -0.23640354331E+02  0.29814392855E+02 -0.32095722184E+02  0.49999897567E+02  0.47000000000E+01 0. -1.
          5    1    5    5  503    0  0.47621050223E+02 -0.40493641995E+02  0.19322430922E+02  0.65596842935E+02  0.47000000000E+01 0.  1.
         -5    1    5    5    0  503 -0.23045073070E+02  0.38886713558E+02  0.92816557804E+02  0.10334532058E+03  0.47000000000E+01 0.  1.
<mgrwt>
<rscale>  0 0.25933940E+03</rscale>
<asrwt>0</asrwt>
<pdfrwt beam="1">  1        1 0.35991453E-01 0.25933940E+03</pdfrwt>
<pdfrwt beam="2">  1       -1 0.11057346E-01 0.25933940E+03</pdfrwt>
<totfact> 0.61930717E+03</totfact>
</mgrwt>
</event>
<event>
 9    1  0.7986988E-001  0.2771350E+03  0.7818608E-02  0.1097264E+00
          2   -1    0    0  501    0  0.00000000000E+00  0.00000000000E+00  0.24970023011E+03  0.24970023011E+03  0.00000000000E+00 0.  1.
         -2   -1    0    0    0  501 -0.00000000000E+00 -0.00000000000E+00 -0.76896014918E+02  0.76896014918E+02  0.00000000000E+00 0.  1.
         35    2    1    2    0    0 -0.35527136788E-14  0.00000000000E+00  0.17280421519E+03  0.32659624502E+03  0.27713500406E+03 0.  0.
         25    2    3    3    0    0  0.15469372533E+02  0.11769802213E+02  0.20916288656E+02  0.12897604487E+03  0.12577559099E+03 0.  0.
         25    2    3    3    0    0 -0.15469372533E+02 -0.11769802213E+02  0.15188792653E+03  0.19762020015E+03  0.12492386302E+03 0.  0.
          5    1    4    4  502    0  0.23920599324E+02  0.23035766837E+02 -0.47956329587E+02  0.58521288205E+02  0.47000000000E+01 0. -1.
         -5    1    4    4    0  502 -0.84512267913E+01 -0.11265964624E+02  0.68872618243E+02  0.70454756666E+02  0.47000000000E+01 0. -1.
          5    1    5    5  503    0 -0.51137062725E+02  0.13828778055E+02  0.17222774299E+02  0.55901236491E+02  0.47000000000E+01 0.  1.
         -5    1    5    5    0  503  0.35667690193E+02 -0.25598580268E+02  0.13466515223E+03  0.14171896366E+03  0.47000000000E+01 0.  1.
<mgrwt>
<rscale>  0 0.27713500E+03</rscale>
<asrwt>0</asrwt>
<pdfrwt beam="1">  1        2 0.38415420E-01 0.27713500E+03</pdfrwt>
<pdfrwt beam="2">  1       -2 0.11830156E-01 0.27713500E+03</pdfrwt>
<totfact> 0.67091252E+03</totfact>
</mgrwt>
</event>
<event>
 9    1  0.7986988E-001  0.2728145E+03  0.7818608E-02  0.1099679E+00
         -2   -1    0    0    0  501 -0.00000000000E+00  0.00000000000E+00  0.12486301274E+02  0.12486301274E+02  0.00000000000E+00 0. -1.
          2   -1    0    0  501    0  0.00000000000E+00 -0.00000000000E+00 -0.14901885444E+04  0.14901885444E+04  0.00000000000E+00 0. -1.
         35    2    1    2    0    0  0.00000000000E+00 -0.71054273576E-14 -0.14777022431E+04  0.15026748457E+04  0.27281453862E+03 0.  0.
         25    2    3    3    0    0  0.54907578255E+02  0.80691097463E+01 -0.81095517432E+03  0.82235963650E+03  0.12468810812E+03 0.  0.
         25    2    3    3    0    0 -0.54907578255E+02 -0.80691097463E+01 -0.66674706883E+03  0.68031520919E+03  0.12327683233E+03 0.  0.
          5    1    4    4  502    0  0.25754565305E+02  0.45735865276E+02 -0.13824179692E+03  0.14794577190E+03  0.47000000000E+01 0. -1.
         -5    1    4    4    0  502  0.29153012949E+02 -0.37666755530E+02 -0.67271337740E+03  0.67441386460E+03  0.47000000000E+01 0. -1.
          5    1    5    5  503    0 -0.10879258408E+02  0.47065354583E+02 -0.12704147553E+03  0.13599681015E+03  0.47000000000E+01 0. -1.
         -5    1    5    5    0  503 -0.44028319847E+02 -0.55134464329E+02 -0.53970559329E+03  0.54431839904E+03  0.47000000000E+01 0. -1.
<mgrwt>
<rscale>  0 0.27281454E+03</rscale>
<asrwt>0</asrwt>
<pdfrwt beam="1">  1        2 0.22925978E+00 0.27281454E+03</pdfrwt>
<pdfrwt beam="2">  1       -2 0.19209694E-02 0.27281454E+03</pdfrwt>
<totfact> 0.11326942E+04</totfact>
</mgrwt>
</event>
<event>
 9    1  0.7986988E-001  0.2751197E+03  0.7818608E-02  0.1098385E+00
         -2   -1    0    0    0  501 -0.00000000000E+00  0.00000000000E+00  0.14185586027E+02  0.14185586027E+02  0.00000000000E+00 0. -1.
          2   -1    0    0  501    0  0.00000000000E+00 -0.00000000000E+00 -0.13339393064E+04  0.13339393064E+04  0.00000000000E+00 0. -1.
         35    2    1    2    0    0  0.00000000000E+00  0.00000000000E+00 -0.13197537204E+04  0.13481248925E+04  0.27511968876E+03 0.  0.
         25    2    3    3    0    0 -0.33503858825E+02  0.40136613806E+02 -0.79314767078E+03  0.80431971012E+03  0.12293702493E+03 0.  0.
         25    2    3    3    0    0  0.33503858825E+02 -0.40136613806E+02 -0.52660604963E+03  0.54380518234E+03  0.12520658335E+03 0.  0.
          5    1    4    4  502    0 -0.77566373781E+02  0.73577253941E+01 -0.43314149127E+03  0.44011852941E+03  0.47000000000E+01 0. -1.
         -5    1    4    4    0  502  0.44062514956E+02  0.32778888412E+02 -0.36000617951E+03  0.36420118072E+03  0.47000000000E+01 0. -1.
          5    1    5    5  503    0  0.64286087849E+02 -0.55340609219E+02 -0.46858382049E+03  0.47622281649E+03  0.47000000000E+01 0.  1.
         -5    1    5    5    0  503 -0.30782229024E+02  0.15203995413E+02 -0.58022229139E+02  0.67582365854E+02  0.47000000000E+01 0.  1.
<mgrwt>
<rscale>  0 0.27511969E+03</rscale>
<asrwt>0</asrwt>
<pdfrwt beam="1">  1        2 0.20522154E+00 0.27511969E+03</pdfrwt>
<pdfrwt beam="2">  1       -2 0.21823967E-02 0.27511969E+03</pdfrwt>
<totfact> 0.11411576E+04</totfact>
</mgrwt>
</event>
<event>
 9    1  0.7986988E-001  0.2762168E+03  0.7818608E-02  0.1097773E+00
          2   -1    0    0  501    0  0.00000000000E+00  0.00000000000E+00  0.23221106533E+03  0.23221106533E+03  0.00000000000E+00 0. -1.
         -2   -1    0    0    0  501 -0.00000000000E+00 -0.00000000000E+00 -0.82140463113E+02  0.82140463113E+02  0.00000000000E+00 0. -1.
         35    2    1    2    0    0 -0.14210854715E-13  0.00000000000E+00  0.15007060221E+03  0.31435152844E+03  0.27621675869E+03 0.  0.
         25    2    3    3    0    0 -0.33895928631E+02 -0.39879029802E+02  0.40442002723E+02  0.14081032164E+03  0.12430897031E+03 0.  0.
         25    2    3    3    0    0  0.33895928631E+02  0.39879029802E+02  0.10962859949E+03  0.17354120680E+03  0.12393082601E+03 0.  0.
          5    1    4    4  502    0 -0.54740963412E+02 -0.53948385372E+02 -0.16174984294E+02  0.78681137996E+02  0.47000000000E+01 0. -1.
         -5    1    4    4    0  502  0.20845034781E+02  0.14069355570E+02  0.56616987016E+02  0.62129183642E+02  0.47000000000E+01 0. -1.
          5    1    5    5  503    0 -0.74901558185E+01 -0.40268283518E+01  0.11253325174E+03  0.11295193901E+03  0.47000000000E+01 0.  1.
         -5    1    5    5    0  503  0.41386084450E+02  0.43905858154E+02 -0.29046522450E+01  0.60589267787E+02  0.47000000000E+01 0.  1.
<mgrwt>
<rscale>  0 0.27621676E+03</rscale>
<asrwt>0</asrwt>
<pdfrwt beam="1">  1        2 0.35724779E-01 0.27621676E+03</pdfrwt>
<pdfrwt beam="2">  1       -2 0.12636994E-01 0.27621676E+03</pdfrwt>
<totfact> 0.65224007E+03</totfact>
</mgrwt>
</event>
<event>
 9    1  0.7986988E-001  0.2702156E+03  0.7818608E-02  0.1101156E+00
          1   -1    0    0  501    0  0.00000000000E+00  0.00000000000E+00  0.29867512990E+03  0.29867512990E+03  0.00000000000E+00 0.  1.
         -1   -1    0    0    0  501 -0.00000000000E+00 -0.00000000000E+00 -0.61116981156E+02  0.61116981156E+02  0.00000000000E+00 0.  1.
         35    2    1    2    0    0  0.17763568394E-14 -0.35527136788E-14  0.23755814875E+03  0.35979211106E+03  0.27021563453E+03 0.  0.
         25    2    3    3    0    0 -0.19773546310E+01 -0.11281761348E+01  0.18956088802E+03  0.22600661095E+03  0.12304663836E+03 0.  0.
         25    2    3    3    0    0  0.19773546310E+01  0.11281761348E+01  0.47997260722E+02  0.13378550011E+03  0.12485848105E+03 0.  0.
          5    1    4    4  502    0  0.37257715246E+02 -0.21601580161E+02  0.14975354224E+02  0.45837941108E+02  0.47000000000E+01 0.  1.
         -5    1    4    4    0  502 -0.39235069877E+02  0.20473404026E+02  0.17458553380E+03  0.18016866984E+03  0.47000000000E+01 0.  1.
          5    1    5    5  503    0  0.15453059416E+02  0.39877010938E+02 -0.25114970280E+02  0.49817916243E+02  0.47000000000E+01 0. -1.
         -5    1    5    5    0  503 -0.13475704785E+02 -0.38748834803E+02  0.73112231001E+02  0.83967583864E+02  0.47000000000E+01 0. -1.
<mgrwt>
<rscale>  0 0.27021563E+03</rscale>
<asrwt>0</asrwt>
<pdfrwt beam="1">  1        1 0.45950019E-01 0.27021563E+03</pdfrwt>
<pdfrwt beam="2">  1       -1 0.94026126E-02 0.27021563E+03</pdfrwt>
<totfact> 0.58656771E+03</totfact>
</mgrwt>
</event>
<event>
 9    1  0.7986988E-001  0.2759814E+03  0.7818608E-02  0.1097904E+00
          1   -1    0    0  501    0  0.00000000000E+00  0.00000000000E+00  0.69387649431E+03  0.69387649431E+03  0.00000000000E+00 0.  1.
         -1   -1    0    0    0  501 -0.00000000000E+00 -0.00000000000E+00 -0.27442110384E+02  0.27442110384E+02  0.00000000000E+00 0.  1.
         35    2    1    2    0    0  0.00000000000E+00  0.00000000000E+00  0.66643438392E+03  0.72131860469E+03  0.27598141495E+03 0.  0.
         25    2    3    3    0    0 -0.47543113820E+02 -0.19688831346E+02  0.39986329984E+03  0.42204697500E+03  0.12483986864E+03 0.  0.
         25    2    3    3    0    0  0.47543113820E+02  0.19688831346E+02  0.26657108409E+03  0.29927162969E+03  0.12591809923E+03 0.  0.
          5    1    4    4  502    0 -0.20429139375E+02 -0.27442185225E+02  0.39041090785E+03  0.39193518627E+03  0.47000000000E+01 0.  1.
         -5    1    4    4    0  502 -0.27113974446E+02  0.77533538788E+01  0.94523919856E+01  0.30111788736E+02  0.47000000000E+01 0.  1.
          5    1    5    5  503    0  0.16143033326E+02 -0.26491475023E+02  0.50097366510E+01  0.31773939561E+02  0.47000000000E+01 0.  1.
         -5    1    5    5    0  503  0.31400080494E+02  0.46180306369E+02  0.26156134744E+03  0.26749769013E+03  0.47000000000E+01 0.  1.
<mgrwt>
<rscale>  0 0.27598141E+03</rscale>
<asrwt>0</asrwt>
<pdfrwt beam="1">  1        1 0.10675022E+00 0.27598141E+03</pdfrwt>
<pdfrwt beam="2">  1       -1 0.42218636E-02 0.27598141E+03</pdfrwt>
<totfact> 0.64611025E+03</totfact>
</mgrwt>
</event>
<event>
 9    1  0.7986988E-001  0.2730917E+03  0.7818608E-02  0.1099523E+00
          1   -1    0    0  501    0  0.00000000000E+00  0.00000000000E+00  0.43441932049E+03  0.43441932049E+03  0.00000000000E+00 0. -1.
         -1   -1    0    0    0  501 -0.00000000000E+00 -0.00000000000E+00 -0.42918828471E+02  0.42918828471E+02  0.00000000000E+00 0. -1.
         35    2    1    2    0    0  0.00000000000E+00  0.00000000000E+00  0.39150049202E+03  0.47733814896E+03  0.27309169376E+03 0.  0.
         25    2    3    3    0    0 -0.11838553127E+02 -0.49034265821E+02  0.21910860212E+03  0.25798594339E+03  0.12650556073E+03 0.  0.
         25    2    3    3    0    0  0.11838553127E+02  0.49034265821E+02  0.17239188989E+03  0.21935220557E+03  0.12590439160E+03 0.  0.
          5    1    4    4  502    0 -0.18249310556E+02  0.33597516141E+02  0.22598075379E+02  0.44660871436E+02  0.47000000000E+01 0. -1.
         -5    1    4    4    0  502  0.64107574285E+01 -0.82631781961E+02  0.19651052674E+03  0.21332507195E+03  0.47000000000E+01 0. -1.
          5    1    5    5  503    0  0.28595301480E+02  0.78135548756E+02  0.61999489174E+02  0.10386954272E+03  0.47000000000E+01 0.  1.
         -5    1    5    5    0  503 -0.16756748353E+02 -0.29101282936E+02  0.11039240072E+03  0.11548266286E+03  0.47000000000E+01 0.  1.
<mgrwt>
<rscale>  0 0.27309169E+03</rscale>
<asrwt>0</asrwt>
<pdfrwt beam="1">  1        1 0.66833739E-01 0.27309169E+03</pdfrwt>
<pdfrwt beam="2">  1       -1 0.66028970E-02 0.27309169E+03</pdfrwt>
<totfact> 0.62483330E+03</totfact>
</mgrwt>
</event>
<event>
 9    1  0.7986988E-001  0.2769153E+03  0.7818608E-02  0.1097386E+00
          2   -1    0    0  501    0  0.00000000000E+00  0.00000000000E+00  0.31641482485E+04  0.31641482485E+04  0.00000000000E+00 0. -1.
         -2   -1    0    0    0  501 -0.00000000000E+00 -0.00000000000E+00 -0.60586668566E+01  0.60586668566E+01  0.00000000000E+00 0. -1.
         35    2    1    2    0    0  0.71054273576E-14  0.00000000000E+00  0.31580895817E+04  0.31702069154E+04  0.27691529479E+03 0.  0.
         25    2    3    3    0    0  0.51486671518E+02 -0.34591252540E+02  0.15114447894E+04  0.15175726823E+04  0.12130153547E+03 0.  0.
         25    2    3    3    0    0 -0.51486671518E+02  0.34591252540E+02  0.16466447923E+04  0.16526342331E+04  0.12614834288E+03 0.  0.
          5    1    4    4  502    0 -0.18693518044E+02  0.26742215603E+02  0.70060703184E+03  0.70138213320E+03  0.47000000000E+01 0.  1.
         -5    1    4    4    0  502  0.70180189563E+02 -0.61333468143E+02  0.81083775757E+03  0.81619054909E+03  0.47000000000E+01 0.  1.
          5    1    5    5  503    0 -0.92431166652E+02  0.25137708836E+02  0.99190573972E+03  0.99653123958E+03  0.47000000000E+01 0.  1.
         -5    1    5    5    0  503  0.40944495134E+02  0.94535437047E+01  0.65473905254E+03  0.65610299351E+03  0.47000000000E+01 0.  1.
<mgrwt>
<rscale>  0 0.27691529E+03</rscale>
<asrwt>0</asrwt>
<pdfrwt beam="1">  1        2 0.48679072E+00 0.27691529E+03</pdfrwt>
<pdfrwt beam="2">  1       -2 0.93210512E-03 0.27691529E+03</pdfrwt>
<totfact> 0.39172719E+03</totfact>
</mgrwt>
</event>
<event>
 9    1  0.7986988E-001  0.2727811E+03  0.7818608E-02  0.1099698E+00
          2   -1    0    0  501    0  0.00000000000E+00  0.00000000000E+00  0.55465480537E+02  0.55465480537E+02  0.00000000000E+00 0.  1.
         -2   -1    0    0    0  501 -0.00000000000E+00 -0.00000000000E+00 -0.33538675886E+03  0.33538675886E+03  0.00000000000E+00 0.  1.
         35    2    1    2    0    0 -0.71054273576E-14  0.00000000000E+00 -0.27992127832E+03  0.39085223939E+03  0.27278114118E+03 0.  0.
         25    2    3    3    0    0 -0.47620125108E+02 -0.23960437110E+02 -0.15684257202E+03  0.20762557601E+03  0.12516792142E+03 0.  0.
         25    2    3    3    0    0  0.47620125108E+02  0.23960437110E+02 -0.12307870630E+03  0.18322666339E+03  0.12482733423E+03 0.  0.
          5    1    4    4  502    0 -0.86197132096E+02 -0.38423187005E+02 -0.11245585322E+03  0.14688327272E+03  0.47000000000E+01 0. -1.
         -5    1    4    4    0  502  0.38577006988E+02  0.14462749896E+02 -0.44386718797E+02  0.60742303284E+02  0.47000000000E+01 0. -1.
          5    1    5    5  503    0  0.12378981616E+02 -0.46449908994E+02 -0.79739073595E+02  0.93226836743E+02  0.47000000000E+01 0.  1.
         -5    1    5    5    0  503  0.35241143492E+02  0.70410346103E+02 -0.43339632704E+02  0.89999826644E+02  0.47000000000E+01 0.  1.
<mgrwt>
<rscale>  0 0.27278114E+03</rscale>
<asrwt>0</asrwt>
<pdfrwt beam="1">  1        2 0.85331510E-02 0.27278114E+03</pdfrwt>
<pdfrwt beam="2">  1       -2 0.51597962E-01 0.27278114E+03</pdfrwt>
<totfact> 0.28120303E+03</totfact>
</mgrwt>
</event>
<event>
 9    1  0.7986988E-001  0.2684133E+03  0.7818608E-02  0.1102191E+00
          2   -1    0    0  501    0  0.00000000000E+00  0.00000000000E+00  0.26446509389E+03  0.26446509389E+03  0.00000000000E+00 0. -1.
         -2   -1    0    0    0  501 -0.00000000000E+00 -0.00000000000E+00 -0.68105130206E+02  0.68105130206E+02  0.00000000000E+00 0. -1.
         35    2    1    2    0    0 -0.71054273576E-14  0.71054273576E-14  0.19635996369E+03  0.33257022410E+03  0.26841333540E+03 0.  0.
         25    2    3    3    0    0 -0.42347455103E+02  0.12615159860E+02  0.70921010512E+02  0.15031737663E+03  0.12495228998E+03 0.  0.
         25    2    3    3    0    0  0.42347455103E+02 -0.12615159860E+02  0.12543895318E+03  0.18225284748E+03  0.12461428580E+03 0.  0.
          5    1    4    4  502    0  0.22342097379E+02  0.33684388691E+02 -0.12499292615E+02  0.42569116419E+02  0.47000000000E+01 0. -1.
         -5    1    4    4    0  502 -0.64689552482E+02 -0.21069228832E+02  0.83420303127E+02  0.10774826021E+03  0.47000000000E+01 0. -1.
          5    1    5    5  503    0  0.15573679378E+02 -0.52179641021E+02  0.78170787492E+01  0.55212780645E+02  0.47000000000E+01 0. -1.
         -5    1    5    5    0  503  0.26773775724E+02  0.39564481161E+02  0.11762187443E+03  0.12704006683E+03  0.47000000000E+01 0. -1.
<mgrwt>
<rscale>  0 0.26841334E+03</rscale>
<asrwt>0</asrwt>
<pdfrwt beam="1">  1        2 0.40686937E-01 0.26841334E+03</pdfrwt>
<pdfrwt beam="2">  1       -2 0.10477713E-01 0.26841334E+03</pdfrwt>
<totfact> 0.76519967E+03</totfact>
</mgrwt>
</event>
<event>
 9    1  0.7986988E-001  0.2869150E+03  0.7818608E-02  0.1091971E+00
          2   -1    0    0  501    0  0.00000000000E+00  0.00000000000E+00  0.20710717345E+03  0.20710717345E+03  0.00000000000E+00 0. -1.
         -2   -1    0    0    0  501 -0.00000000000E+00 -0.00000000000E+00 -0.99369137410E+02  0.99369137410E+02  0.00000000000E+00 0. -1.
         35    2    1    2    0    0  0.00000000000E+00  0.00000000000E+00  0.10773803604E+03  0.30647631086E+03  0.28691504790E+03 0.  0.
         25    2    3    3    0    0  0.37922413393E+02  0.21536139668E+02  0.96547220467E+02  0.16415359051E+03  0.12539186875E+03 0.  0.
         25    2    3    3    0    0 -0.37922413393E+02 -0.21536139668E+02  0.11190815575E+02  0.14232272035E+03  0.13501336091E+03 0.  0.
          5    1    4    4  502    0  0.60604973315E+02  0.36385955249E+02  0.11205269248E+03  0.13256996802E+03  0.47000000000E+01 0. -1.
         -5    1    4    4    0  502 -0.22682559921E+02 -0.14849815581E+02 -0.15505472012E+02  0.31583622492E+02  0.47000000000E+01 0. -1.
          5    1    5    5  503    0 -0.59032473744E+02  0.41892024359E+02 -0.70226872384E+01  0.72877862189E+02  0.47000000000E+01 0.  1.
         -5    1    5    5    0  503  0.21110060350E+02 -0.63428164027E+02  0.18213502814E+02  0.69444858158E+02  0.47000000000E+01 0.  1.
<mgrwt>
<rscale>  0 0.28691505E+03</rscale>
<asrwt>0</asrwt>
<pdfrwt beam="1">  1        2 0.31862642E-01 0.28691505E+03</pdfrwt>
<pdfrwt beam="2">  1       -2 0.15287560E-01 0.28691505E+03</pdfrwt>
<totfact> 0.54134629E+03</totfact>
</mgrwt>
</event>
<event>
 9    1  0.7986988E-001  0.2769644E+03  0.7818608E-02  0.1097359E+00
          2   -1    0    0  501    0  0.00000000000E+00  0.00000000000E+00  0.13412452889E+04  0.13412452889E+04  0.00000000000E+00 0. -1.
         -2   -1    0    0    0  501 -0.00000000000E+00 -0.00000000000E+00 -0.14298145584E+02  0.14298145584E+02  0.00000000000E+00 0. -1.
         35    2    1    2    0    0  0.00000000000E+00  0.71054273576E-14  0.13269471433E+04  0.13555434345E+04  0.27696440496E+03 0.  0.
         25    2    3    3    0    0  0.47274032661E+01  0.42000219088E+02  0.79103519724E+03  0.80307585426E+03  0.13193853749E+03 0.  0.
         25    2    3    3    0    0 -0.47274032661E+01 -0.42000219088E+02  0.53591194606E+03  0.55246758021E+03  0.12740661878E+03 0.  0.
          5    1    4    4  502    0  0.59277588728E+01  0.84492903607E+02  0.65514410479E+03  0.66061340973E+03  0.47000000000E+01 0.  1.
         -5    1    4    4    0  502 -0.12003556067E+01 -0.42492684519E+02  0.13589109245E+03  0.14246244452E+03  0.47000000000E+01 0.  1.
          5    1    5    5  503    0  0.19739997709E+01 -0.74314635064E+01 -0.50568027285E+01  0.10333662409E+02  0.47000000000E+01 0. -1.
         -5    1    5    5    0  503 -0.67014030370E+01 -0.34568755582E+02  0.54096874878E+03  0.54213391780E+03  0.47000000000E+01 0. -1.
<mgrwt>
<rscale>  0 0.27696440E+03</rscale>
<asrwt>0</asrwt>
<pdfrwt beam="1">  1        2 0.20634533E+00 0.27696440E+03</pdfrwt>
<pdfrwt beam="2">  1       -2 0.21997158E-02 0.27696440E+03</pdfrwt>
<totfact> 0.11177361E+04</totfact>
</mgrwt>
</event>
<event>
 9    1  0.7986988E-001  0.2755352E+03  0.7818608E-02  0.1098153E+00
         -1   -1    0    0    0  501 -0.00000000000E+00  0.00000000000E+00  0.81906289276E+01  0.81906289276E+01  0.00000000000E+00 0. -1.
          1   -1    0    0  501    0  0.00000000000E+00 -0.00000000000E+00 -0.23172715301E+04  0.23172715301E+04  0.00000000000E+00 0. -1.
         35    2    1    2    0    0  0.00000000000E+00  0.35527136788E-14 -0.23090809012E+04  0.23254621590E+04  0.27553519722E+03 0.  0.
         25    2    3    3    0    0  0.45091778703E+02  0.16523091855E+02 -0.15031295005E+04  0.15086132375E+04  0.11920286855E+03 0.  0.
         25    2    3    3    0    0 -0.45091778703E+02 -0.16523091855E+02 -0.80595140062E+03  0.81684892153E+03  0.12400894871E+03 0.  0.
          5    1    4    4  502    0  0.17691269765E+02  0.66279817134E+02 -0.66418177384E+03  0.66773161816E+03  0.47000000000E+01 0.  1.
         -5    1    4    4    0  502  0.27400508938E+02 -0.49756725279E+02 -0.83894772670E+03  0.84088161934E+03  0.47000000000E+01 0.  1.
          5    1    5    5  503    0 -0.67834894282E+02  0.23128024043E+00 -0.22163864719E+03  0.23183486860E+03  0.47000000000E+01 0. -1.
         -5    1    5    5    0  503  0.22743115580E+02 -0.16754372096E+02 -0.58431275344E+03  0.58501405292E+03  0.47000000000E+01 0. -1.
<mgrwt>
<rscale>  0 0.27553520E+03</rscale>
<asrwt>0</asrwt>
<pdfrwt beam="1">  1        1 0.35650322E+00 0.27553520E+03</pdfrwt>
<pdfrwt beam="2">  1       -1 0.12600971E-02 0.27553520E+03</pdfrwt>
<totfact> 0.28167701E+03</totfact>
</mgrwt>
</event>
<event>
 9    1  0.7986988E-001  0.2778286E+03  0.7818608E-02  0.1096881E+00
         -2   -1    0    0    0  501 -0.00000000000E+00  0.00000000000E+00  0.88943405792E+01  0.88943405792E+01  0.00000000000E+00 0. -1.
          2   -1    0    0  501    0  0.00000000000E+00 -0.00000000000E+00 -0.21696031155E+04  0.21696031155E+04  0.00000000000E+00 0. -1.
         35    2    1    2    0    0 -0.48849813084E-14  0.00000000000E+00 -0.21607087749E+04  0.21784974560E+04  0.27782864525E+03 0.  0.
         25    2    3    3    0    0 -0.76635931010E+00 -0.70182555717E+01 -0.62365237521E+03  0.63634356667E+03  0.12625769881E+03 0.  0.
         25    2    3    3    0    0  0.76635931010E+00  0.70182555717E+01 -0.15370563997E+04  0.15421538894E+04  0.12508556884E+03 0.  0.
          5    1    4    4  502    0 -0.60568003636E+02  0.43978132139E+01 -0.22749208690E+03  0.23550491168E+03  0.47000000000E+01 0.  1.
         -5    1    4    4    0  502  0.59801644326E+02 -0.11416068786E+02 -0.39616028831E+03  0.40083865498E+03  0.47000000000E+01 0.  1.
          5    1    5    5  503    0  0.27700921839E+01  0.54521731768E+01 -0.33017725987E+01  0.83899526429E+01  0.47000000000E+01 0.  1.
         -5    1    5    5    0  503 -0.20037328738E+01  0.15660823949E+01 -0.15337546271E+04  0.15337639367E+04  0.47000000000E+01 0.  1.
<mgrwt>
<rscale>  0 0.27782865E+03</rscale>
<asrwt>0</asrwt>
<pdfrwt beam="1">  1        2 0.33378522E+00 0.27782865E+03</pdfrwt>
<pdfrwt beam="2">  1       -2 0.13683596E-02 0.27782865E+03</pdfrwt>
<totfact> 0.81568477E+03</totfact>
</mgrwt>
</event>
<event>
 9    1  0.7986988E-001  0.2774181E+03  0.7818608E-02  0.1097108E+00
         -1   -1    0    0    0  501 -0.00000000000E+00  0.00000000000E+00  0.69923363197E+01  0.69923363197E+01  0.00000000000E+00 0.  1.
          1   -1    0    0  501    0  0.00000000000E+00 -0.00000000000E+00 -0.27516135288E+04  0.27516135288E+04  0.00000000000E+00 0.  1.
         35    2    1    2    0    0  0.10658141036E-13 -0.88817841970E-15 -0.27446211925E+04  0.27586058651E+04  0.27741814804E+03 0.  0.
         25    2    3    3    0    0 -0.58082593737E+01 -0.69279572443E+01 -0.19610968852E+04  0.19650834286E+04  0.12478043059E+03 0.  0.
         25    2    3    3    0    0  0.58082593737E+01  0.69279572443E+01 -0.78352430729E+03  0.79352243650E+03  0.12524290258E+03 0.  0.
          5    1    4    4  502    0 -0.64844760959E+02 -0.86813125009E+01 -0.10941522209E+04  0.10961164996E+04  0.47000000000E+01 0.  1.
         -5    1    4    4    0  502  0.59036501585E+02  0.17533552566E+01 -0.86694466432E+03  0.86896692904E+03  0.47000000000E+01 0.  1.
          5    1    5    5  503    0  0.30245248426E+01  0.56752129768E+02 -0.61670054380E+03  0.61933157736E+03  0.47000000000E+01 0. -1.
         -5    1    5    5    0  503  0.27837345311E+01 -0.49824172524E+02 -0.16682376349E+03  0.17419085915E+03  0.47000000000E+01 0. -1.
<mgrwt>
<rscale>  0 0.27741815E+03</rscale>
<asrwt>0</asrwt>
<pdfrwt beam="1">  1        1 0.42332512E+00 0.27741815E+03</pdfrwt>
<pdfrwt beam="2">  1       -1 0.10757441E-02 0.27741815E+03</pdfrwt>
<totfact> 0.18169776E+03</totfact>
</mgrwt>
</event>
<event>
 9    1  0.7986988E-001  0.2763747E+03  0.7818608E-02  0.1097686E+00
          3   -1    0    0  501    0  0.00000000000E+00  0.00000000000E+00  0.56225735049E+03  0.56225735049E+03  0.00000000000E+00 0. -1.
         -3   -1    0    0    0  501 -0.00000000000E+00 -0.00000000000E+00 -0.33962642974E+02  0.33962642974E+02  0.00000000000E+00 0. -1.
         35    2    1    2    0    0 -0.17763568394E-14  0.00000000000E+00  0.52829470752E+03  0.59621999347E+03  0.27637471414E+03 0.  0.
         25    2    3    3    0    0 -0.93583494124E+01 -0.43513437635E+01  0.17500528956E+03  0.21766547746E+03  0.12901509914E+03 0.  0.
         25    2    3    3    0    0  0.93583494124E+01  0.43513437635E+01  0.35328941795E+03  0.37855451601E+03  0.13558611970E+03 0.  0.
          5    1    4    4  502    0 -0.22522191983E+02  0.54487905061E+02  0.45121984813E+02  0.74392637022E+02  0.47000000000E+01 0.  1.
         -5    1    4    4    0  502  0.13163842570E+02 -0.58839248825E+02  0.12988330475E+03  0.14327284044E+03  0.47000000000E+01 0.  1.
          5    1    5    5  503    0  0.61590437045E+02  0.27853189301E+02  0.11540334195E+03  0.13382527199E+03  0.47000000000E+01 0.  1.
         -5    1    5    5    0  503 -0.52232087633E+02 -0.23501845537E+02  0.23788607600E+03  0.24472924402E+03  0.47000000000E+01 0.  1.
<mgrwt>
<rscale>  0 0.27637471E+03</rscale>
<asrwt>0</asrwt>
<pdfrwt beam="1">  1        3 0.86501124E-01 0.27637471E+03</pdfrwt>
<pdfrwt beam="2">  1       -3 0.52250224E-02 0.27637471E+03</pdfrwt>
<totfact> 0.67851450E+02</totfact>
</mgrwt>
</event>
<event>
 9    1  0.7986988E-001  0.2773297E+03  0.7818608E-02  0.1097156E+00
          4   -1    0    0  501    0  0.00000000000E+00  0.00000000000E+00  0.78268278285E+03  0.78268278285E+03  0.00000000000E+00 0. -1.
         -4   -1    0    0    0  501 -0.00000000000E+00 -0.00000000000E+00 -0.24566707327E+02  0.24566707327E+02  0.00000000000E+00 0. -1.
         35    2    1    2    0    0  0.00000000000E+00  0.71054273576E-14  0.75811607552E+03  0.80724949017E+03  0.27732968724E+03 0.  0.
         25    2    3    3    0    0 -0.38176638911E+02  0.19486222122E+02  0.30537811122E+03  0.33277407770E+03  0.12508248225E+03 0.  0.
         25    2    3    3    0    0  0.38176638911E+02 -0.19486222122E+02  0.45273796430E+03  0.47447541248E+03  0.13534431688E+03 0.  0.
          5    1    4    4  502    0 -0.18632949336E+02 -0.76988704344E+00 -0.59573238563E+01  0.20133535073E+02  0.47000000000E+01 0. -1.
         -5    1    4    4    0  502 -0.19543689575E+02  0.20256109165E+02  0.31133543507E+03  0.31264054263E+03  0.47000000000E+01 0. -1.
          5    1    5    5  503    0 -0.22915995746E+02 -0.16568173207E+02  0.14797998453E+02  0.32260160921E+02  0.47000000000E+01 0.  1.
         -5    1    5    5    0  503  0.61092634657E+02 -0.29180489152E+01  0.43793996585E+03  0.44221525155E+03  0.47000000000E+01 0.  1.
<mgrwt>
<rscale>  0 0.27732969E+03</rscale>
<asrwt>0</asrwt>
<pdfrwt beam="1">  1        4 0.12041272E+00 0.27732969E+03</pdfrwt>
<pdfrwt beam="2">  1       -4 0.37794940E-02 0.27732969E+03</pdfrwt>
<totfact> 0.38466846E+02</totfact>
</mgrwt>
</event>
<event>
 9    1  0.7986988E-001  0.2741094E+03  0.7818608E-02  0.1098950E+00
         -1   -1    0    0    0  501 -0.00000000000E+00  0.00000000000E+00  0.39916706453E+03  0.39916706453E+03  0.00000000000E+00 0. -1.
          1   -1    0    0  501    0  0.00000000000E+00 -0.00000000000E+00 -0.47057963319E+02  0.47057963319E+02  0.00000000000E+00 0. -1.
         35    2    1    2    0    0 -0.22204460493E-14 -0.71054273576E-14  0.35210910121E+03  0.44622502785E+03  0.27410938752E+03 0.  0.
         25    2    3    3    0    0 -0.13687420465E+01  0.35734203805E+02  0.10620555316E+03  0.16773427942E+03  0.12480529714E+03 0.  0.
         25    2    3    3    0    0  0.13687420465E+01 -0.35734203805E+02  0.24590354806E+03  0.27849074844E+03  0.12573676964E+03 0.  0.
          5    1    4    4  502    0 -0.32136954773E+01 -0.31646117013E+02 -0.96877160519E+01  0.33581935664E+02  0.47000000000E+01 0. -1.
         -5    1    4    4    0  502  0.18449534309E+01  0.67380320817E+02  0.11589326921E+03  0.13415234375E+03  0.47000000000E+01 0. -1.
          5    1    5    5  503    0  0.25871890930E+02 -0.33589071370E+02  0.24956337824E+03  0.25318283949E+03  0.47000000000E+01 0. -1.
         -5    1    5    5    0  503 -0.24503148884E+02 -0.21451324348E+01 -0.36598301763E+01  0.25307908948E+02  0.47000000000E+01 0. -1.
<mgrwt>
<rscale>  0 0.27410939E+03</rscale>
<asrwt>0</asrwt>
<pdfrwt beam="1">  1        1 0.72396869E-02 0.27410939E+03</pdfrwt>
<pdfrwt beam="2">  1       -1 0.61410316E-01 0.27410939E+03</pdfrwt>
<totfact> 0.27616211E+03</totfact>
</mgrwt>
</event>
<event>
 9    1  0.7986988E-001  0.2714947E+03  0.7818608E-02  0.1100427E+00
         -1   -1    0    0    0  501 -0.00000000000E+00  0.00000000000E+00  0.77320910763E+02  0.77320910763E+02  0.00000000000E+00 0.  1.
          1   -1    0    0  501    0  0.00000000000E+00 -0.00000000000E+00 -0.23832286373E+03  0.23832286373E+03  0.00000000000E+00 0.  1.
         35    2    1    2    0    0  0.00000000000E+00 -0.71054273576E-14 -0.16100195297E+03  0.31564377449E+03  0.27149468414E+03 0.  0.
         25    2    3    3    0    0  0.27360037549E+01  0.30114757011E+02 -0.28953935472E+02  0.13169516803E+03  0.12486353590E+03 0.  0.
         25    2    3    3    0    0 -0.27360037549E+01 -0.30114757011E+02 -0.13204801749E+03  0.18394860646E+03  0.12444286475E+03 0.  0.
          5    1    4    4  502    0 -0.28751860126E+02  0.33906430962E+02 -0.67872029294E+02  0.81271261106E+02  0.47000000000E+01 0. -1.
         -5    1    4    4    0  502  0.31487863881E+02 -0.37916739513E+01  0.38918093822E+02  0.50423906928E+02  0.47000000000E+01 0. -1.
          5    1    5    5  503    0 -0.14927692880E+02 -0.12844566377E+02 -0.15269256124E+03  0.15402898155E+03  0.47000000000E+01 0. -1.
         -5    1    5    5    0  503  0.12191689126E+02 -0.17270190634E+02  0.20644543743E+02  0.29919624908E+02  0.47000000000E+01 0. -1.
<mgrwt>
<rscale>  0 0.27149468E+03</rscale>
<asrwt>0</asrwt>
<pdfrwt beam="1">  1        1 0.36665055E-01 0.27149468E+03</pdfrwt>
<pdfrwt beam="2">  1       -1 0.11895525E-01 0.27149468E+03</pdfrwt>
<totfact> 0.54088690E+03</totfact>
</mgrwt>
</event>
<event>
 9    1  0.7986988E-001  0.2782720E+03  0.7818608E-02  0.1096637E+00
          2   -1    0    0  501    0  0.00000000000E+00  0.00000000000E+00  0.86734105626E+03  0.86734105626E+03  0.00000000000E+00 0.  1.
         -2   -1    0    0    0  501 -0.00000000000E+00 -0.00000000000E+00 -0.22319735747E+02  0.22319735747E+02  0.00000000000E+00 0.  1.
         35    2    1    2    0    0 -0.71054273576E-14  0.71054273576E-14  0.84502132051E+03  0.88966079200E+03  0.27827197615E+03 0.  0.
         25    2    3    3    0    0 -0.51810102818E+02  0.45093007457E+02  0.42424652874E+03  0.44750984595E+03  0.12474886370E+03 0.  0.
         25    2    3    3    0    0  0.51810102818E+02 -0.45093007457E+02  0.42077479177E+03  0.44215094606E+03  0.11716811698E+03 0.  0.
          5    1    4    4  502    0 -0.18905154759E+02 -0.43193918600E+02  0.16325198463E+03  0.16998947016E+03  0.47000000000E+01 0.  1.
         -5    1    4    4    0  502 -0.32904948058E+02  0.88286926056E+02  0.26099454411E+03  0.27752037578E+03  0.47000000000E+01 0.  1.
          5    1    5    5  503    0  0.76293197561E+02 -0.67740647414E+02  0.31633673695E+03  0.33241610738E+03  0.47000000000E+01 0. -1.
         -5    1    5    5    0  503 -0.24483094743E+02  0.22647639957E+02  0.10443805482E+03  0.10973483867E+03  0.47000000000E+01 0. -1.
<mgrwt>
<rscale>  0 0.27827198E+03</rscale>
<asrwt>0</asrwt>
<pdfrwt beam="1">  1        2 0.13343706E+00 0.27827198E+03</pdfrwt>
<pdfrwt beam="2">  1       -2 0.34338062E-02 0.27827198E+03</pdfrwt>
<totfact> 0.11014951E+04</totfact>
</mgrwt>
</event>
<event>
 9    1  0.7986988E-001  0.2772185E+03  0.7818608E-02  0.1097218E+00
          2   -1    0    0  501    0  0.00000000000E+00  0.00000000000E+00  0.40839114440E+03  0.40839114440E+03  0.00000000000E+00 0. -1.
         -2   -1    0    0    0  501 -0.00000000000E+00 -0.00000000000E+00 -0.47044415946E+02  0.47044415946E+02  0.00000000000E+00 0. -1.
         35    2    1    2    0    0 -0.35527136788E-14 -0.17763568394E-14  0.36134672845E+03  0.45543556034E+03  0.27721849048E+03 0.  0.
         25    2    3    3    0    0  0.23406647344E+02  0.41245951441E+01  0.27084819712E+03  0.29928150541E+03  0.12508313305E+03 0.  0.
         25    2    3    3    0    0 -0.23406647344E+02 -0.41245951441E+01  0.90498531331E+02  0.15615405493E+03  0.12501688395E+03 0.  0.
          5    1    4    4  502    0 -0.10834628087E+02  0.44968284450E+01 -0.10123273151E+02  0.16192013190E+02  0.47000000000E+01 0. -1.
         -5    1    4    4    0  502  0.34241275431E+02 -0.37223330092E+00  0.28097147027E+03  0.28308949222E+03  0.47000000000E+01 0. -1.
          5    1    5    5  503    0 -0.28472683485E+02  0.23926957369E+02  0.11330589559E+03  0.11934617283E+03  0.47000000000E+01 0.  1.
         -5    1    5    5    0  503  0.50660361407E+01 -0.28051552513E+02 -0.22807364257E+02  0.36807882103E+02  0.47000000000E+01 0.  1.
<mgrwt>
<rscale>  0 0.27721849E+03</rscale>
<asrwt>0</asrwt>
<pdfrwt beam="1">  1        2 0.62829404E-01 0.27721849E+03</pdfrwt>
<pdfrwt beam="2">  1       -2 0.72376027E-02 0.27721849E+03</pdfrwt>
<totfact> 0.85784953E+03</totfact>
</mgrwt>
</event>
<event>
 9    1  0.7986988E-001  0.2745900E+03  0.7818608E-02  0.1098681E+00
         -2   -1    0    0    0  501 -0.00000000000E+00  0.00000000000E+00  0.14300455156E+02  0.14300455156E+02  0.00000000000E+00 0. -1.
          2   -1    0    0  501    0  0.00000000000E+00 -0.00000000000E+00 -0.13181342787E+04  0.13181342787E+04  0.00000000000E+00 0. -1.
         35    2    1    2    0    0 -0.35527136788E-14  0.53290705182E-14 -0.13038338236E+04  0.13324347339E+04  0.27459002270E+03 0.  0.
         25    2    3    3    0    0 -0.25439688611E+02  0.15846332993E+02 -0.41380999235E+03  0.43325421362E+03  0.12478870072E+03 0.  0.
         25    2    3    3    0    0  0.25439688611E+02 -0.15846332993E+02 -0.89002383121E+03  0.89918052025E+03  0.12443835361E+03 0.  0.
          5    1    4    4  502    0  0.11704209239E+01  0.68394537539E+02 -0.19984867015E+03  0.21128360942E+03  0.47000000000E+01 0.  1.
         -5    1    4    4    0  502 -0.26610109535E+02 -0.52548204546E+02 -0.21396132220E+03  0.22197060420E+03  0.47000000000E+01 0.  1.
          5    1    5    5  503    0 -0.10212755400E+02  0.73091864962E+00 -0.80820233773E+03  0.80828085671E+03  0.47000000000E+01 0.  1.
         -5    1    5    5    0  503  0.35652444012E+02 -0.16577251642E+02 -0.81821493479E+02  0.90899663537E+02  0.47000000000E+01 0.  1.
<mgrwt>
<rscale>  0 0.27459002E+03</rscale>
<asrwt>0</asrwt>
<pdfrwt beam="1">  1        2 0.20278993E+00 0.27459002E+03</pdfrwt>
<pdfrwt beam="2">  1       -2 0.22000695E-02 0.27459002E+03</pdfrwt>
<totfact> 0.11504388E+04</totfact>
</mgrwt>
</event>
<event>
 9    1  0.7986988E-001  0.2757034E+03  0.7818608E-02  0.1098059E+00
          2   -1    0    0  501    0  0.00000000000E+00  0.00000000000E+00  0.26443821796E+02  0.26443821796E+02  0.00000000000E+00 0.  1.
         -2   -1    0    0    0  501 -0.00000000000E+00 -0.00000000000E+00 -0.71862131222E+03  0.71862131222E+03  0.00000000000E+00 0.  1.
         35    2    1    2    0    0  0.35527136788E-14  0.00000000000E+00 -0.69217749043E+03  0.74506513402E+03  0.27570341978E+03 0.  0.
         25    2    3    3    0    0 -0.30120451319E+02  0.37574157947E+02 -0.27130338838E+03  0.30307614682E+03  0.12621633529E+03 0.  0.
         25    2    3    3    0    0  0.30120451319E+02 -0.37574157947E+02 -0.42087410205E+03  0.44198898720E+03  0.12609597969E+03 0.  0.
          5    1    4    4  502    0 -0.41219277326E+02  0.51317725165E+02 -0.27634409380E+03  0.28411386084E+03  0.47000000000E+01 0. -1.
         -5    1    4    4    0  502  0.11098826006E+02 -0.13743567217E+02  0.50407054268E+01  0.18962285985E+02  0.47000000000E+01 0. -1.
          5    1    5    5  503    0  0.45865357187E+02 -0.72655957122E+02 -0.35751826395E+03  0.36772804917E+03  0.47000000000E+01 0.  1.
         -5    1    5    5    0  503 -0.15744905868E+02  0.35081799175E+02 -0.63355838105E+02  0.74260938023E+02  0.47000000000E+01 0.  1.
<mgrwt>
<rscale>  0 0.27570342E+03</rscale>
<asrwt>0</asrwt>
<pdfrwt beam="1">  1        2 0.40682808E-02 0.27570342E+03</pdfrwt>
<pdfrwt beam="2">  1       -2 0.11055711E+00 0.27570342E+03</pdfrwt>
<totfact> 0.14010605E+03</totfact>
</mgrwt>
</event>
<event>
 9    1  0.7986988E-001  0.2860932E+03  0.7818608E-02  0.1092407E+00
         -1   -1    0    0    0  501 -0.00000000000E+00  0.00000000000E+00  0.21940088898E+02  0.21940088898E+02  0.00000000000E+00 0. -1.
          1   -1    0    0  501    0  0.00000000000E+00 -0.00000000000E+00 -0.93264542005E+03  0.93264542005E+03  0.00000000000E+00 0. -1.
         35    2    1    2    0    0  0.71054273576E-14  0.35527136788E-14 -0.91070533115E+03  0.95458550894E+03  0.28609315564E+03 0.  0.
         25    2    3    3    0    0  0.41041253592E+02  0.17904666652E+02 -0.30336791273E+03  0.33289055163E+03  0.12953403918E+03 0.  0.
         25    2    3    3    0    0 -0.41041253592E+02 -0.17904666652E+02 -0.60733741842E+03  0.62169495731E+03  0.12506365800E+03 0.  0.
          5    1    4    4  502    0 -0.26402436072E+02 -0.33031697930E+02 -0.16743386846E+03  0.17275523727E+03  0.47000000000E+01 0.  1.
         -5    1    4    4    0  502  0.67443689664E+02  0.50936364582E+02 -0.13593404427E+03  0.16013531436E+03  0.47000000000E+01 0.  1.
          5    1    5    5  503    0  0.27668823321E+02  0.81911505511E+01 -0.41034626868E+03  0.41138644721E+03  0.47000000000E+01 0.  1.
         -5    1    5    5    0  503 -0.68710076913E+02 -0.26095817203E+02 -0.19699114974E+03  0.21030851010E+03  0.47000000000E+01 0.  1.
<mgrwt>
<rscale>  0 0.28609316E+03</rscale>
<asrwt>0</asrwt>
<pdfrwt beam="1">  1        1 0.14348388E+00 0.28609316E+03</pdfrwt>
<pdfrwt beam="2">  1       -1 0.33753990E-02 0.28609316E+03</pdfrwt>
<totfact> 0.57026113E+03</totfact>
</mgrwt>
</event>
<event>
 9    1  0.7986988E-001  0.2725309E+03  0.7818608E-02  0.1099840E+00
         -2   -1    0    0    0  501 -0.00000000000E+00  0.00000000000E+00  0.11551904091E+04  0.11551904091E+04  0.00000000000E+00 0.  1.
          2   -1    0    0  501    0  0.00000000000E+00 -0.00000000000E+00 -0.16073775499E+02  0.16073775499E+02  0.00000000000E+00 0.  1.
         35    2    1    2    0    0  0.00000000000E+00  0.35527136788E-14  0.11391166336E+04  0.11712641846E+04  0.27253088849E+03 0.  0.
         25    2    3    3    0    0  0.21009415313E+02 -0.30077330268E+02  0.40233236609E+03  0.42312224334E+03  0.12575793684E+03 0.  0.
         25    2    3    3    0    0 -0.21009415313E+02  0.30077330268E+02  0.73678426754E+03  0.74814194128E+03  0.12457634643E+03 0.  0.
          5    1    4    4  502    0  0.66735284429E+02 -0.36219619907E+01  0.30506187545E+03  0.31233244252E+03  0.47000000000E+01 0.  1.
         -5    1    4    4    0  502 -0.45725869115E+02 -0.26455368278E+02  0.97270490639E+02  0.11078980082E+03  0.47000000000E+01 0.  1.
          5    1    5    5  503    0 -0.23121974800E+02  0.46230309387E+02  0.11549869799E+03  0.12662506254E+03  0.47000000000E+01 0. -1.
         -5    1    5    5    0  503  0.21125594865E+01 -0.16152979119E+02  0.62128556955E+03  0.62151687875E+03  0.47000000000E+01 0. -1.
<mgrwt>
<rscale>  0 0.27253089E+03</rscale>
<asrwt>0</asrwt>
<pdfrwt beam="1">  1        2 0.24728894E-02 0.27253089E+03</pdfrwt>
<pdfrwt beam="2">  1       -2 0.17772154E+00 0.27253089E+03</pdfrwt>
<totfact> 0.82324626E+02</totfact>
</mgrwt>
</event>
<event>
 9    1  0.7986988E-001  0.2762848E+03  0.7818608E-02  0.1097736E+00
         -2   -1    0    0    0  501 -0.00000000000E+00  0.00000000000E+00  0.74620486797E+01  0.74620486797E+01  0.00000000000E+00 0. -1.
          2   -1    0    0  501    0  0.00000000000E+00 -0.00000000000E+00 -0.25573845071E+04  0.25573845071E+04  0.00000000000E+00 0. -1.
         35    2    1    2    0    0  0.17763568394E-14  0.71054273576E-14 -0.25499224585E+04  0.25648465558E+04  0.27628483625E+03 0.  0.
         25    2    3    3    0    0  0.15883601559E+02  0.34957163080E+02 -0.13999196955E+04  0.14060187817E+04  0.12505746080E+03 0.  0.
         25    2    3    3    0    0 -0.15883601559E+02 -0.34957163080E+02 -0.11500027630E+04  0.11588277742E+04  0.13748150160E+03 0.  0.
          5    1    4    4  502    0  0.55260150308E+01  0.80656244925E+02 -0.73913417798E+03  0.74355725384E+03  0.47000000000E+01 0.  1.
         -5    1    4    4    0  502  0.10357586528E+02 -0.45699081845E+02 -0.66078551752E+03  0.66246152782E+03  0.47000000000E+01 0.  1.
          5    1    5    5  503    0  0.15035363846E+02 -0.83225372575E+02 -0.73287222197E+03  0.73775084449E+03  0.47000000000E+01 0.  1.
         -5    1    5    5    0  503 -0.30918965404E+02  0.48268209496E+02 -0.41713054099E+03  0.42107692967E+03  0.47000000000E+01 0.  1.
<mgrwt>
<rscale>  0 0.27628484E+03</rscale>
<asrwt>0</asrwt>
<pdfrwt beam="1">  1        2 0.39344379E+00 0.27628484E+03</pdfrwt>
<pdfrwt beam="2">  1       -2 0.11480074E-02 0.27628484E+03</pdfrwt>
<totfact> 0.65037681E+03</totfact>
</mgrwt>
</event>
<event>
 9    1  0.7986988E-001  0.2764252E+03  0.7818608E-02  0.1097658E+00
          2   -1    0    0  501    0  0.00000000000E+00  0.00000000000E+00  0.16566848851E+04  0.16566848851E+04  0.00000000000E+00 0.  1.
         -2   -1    0    0    0  501 -0.00000000000E+00 -0.00000000000E+00 -0.11530691908E+02  0.11530691908E+02  0.00000000000E+00 0.  1.
         35    2    1    2    0    0 -0.71054273576E-14 -0.10658141036E-13  0.16451541932E+04  0.16682155770E+04  0.27642520144E+03 0.  0.
         25    2    3    3    0    0 -0.43063645874E+02 -0.27845447591E+02  0.64201343509E+03  0.65597704238E+03  0.12447804125E+03 0.  0.
         25    2    3    3    0    0  0.43063645874E+02  0.27845447591E+02  0.10031407581E+04  0.10122385347E+04  0.12532208050E+03 0.  0.
          5    1    4    4  502    0  0.20123898136E+02  0.32207875847E+02  0.32213273589E+03  0.32439776213E+03  0.47000000000E+01 0. -1.
         -5    1    4    4    0  502 -0.63187544009E+02 -0.60053323438E+02  0.31988069920E+03  0.33157928025E+03  0.47000000000E+01 0. -1.
          5    1    5    5  503    0  0.34812391663E+02 -0.28004434080E+02  0.13556157579E+03  0.14281170040E+03  0.47000000000E+01 0.  1.
         -5    1    5    5    0  503  0.82512542107E+01  0.55849881671E+02  0.86757918235E+03  0.86942683425E+03  0.47000000000E+01 0.  1.
<mgrwt>
<rscale>  0 0.27642520E+03</rscale>
<asrwt>0</asrwt>
<pdfrwt beam="1">  1        2 0.25487441E+00 0.27642520E+03</pdfrwt>
<pdfrwt beam="2">  1       -2 0.17739539E-02 0.27642520E+03</pdfrwt>
<totfact> 0.10388006E+04</totfact>
</mgrwt>
</event>
<event>
 9    1  0.7986988E-001  0.2801467E+03  0.7818608E-02  0.1095609E+00
          2   -1    0    0  501    0  0.00000000000E+00  0.00000000000E+00  0.31893811042E+04  0.31893811042E+04  0.00000000000E+00 0.  1.
         -2   -1    0    0    0  501 -0.00000000000E+00 -0.00000000000E+00 -0.61518330384E+01  0.61518330384E+01  0.00000000000E+00 0.  1.
         35    2    1    2    0    0  0.00000000000E+00  0.00000000000E+00  0.31832292712E+04  0.31955329372E+04  0.28014667622E+03 0.  0.
         25    2    3    3    0    0 -0.14832767165E+01  0.58443473411E+02  0.14470959848E+04  0.14536750517E+04  0.12516599858E+03 0.  0.
         25    2    3    3    0    0  0.14832767165E+01 -0.58443473411E+02  0.17361332864E+04  0.17418578855E+04  0.12842221569E+03 0.  0.
          5    1    4    4  502    0 -0.20864351244E+02 -0.81156006877E+01  0.51515515475E+02  0.56365969006E+02  0.47000000000E+01 0. -1.
         -5    1    4    4    0  502  0.19381074528E+02  0.66559074099E+02  0.13955804693E+04  0.13973090827E+04  0.47000000000E+01 0. -1.
          5    1    5    5  503    0  0.88674274735E+01  0.39632099703E+02  0.39322189924E+03  0.39534148105E+03  0.47000000000E+01 0.  1.
         -5    1    5    5    0  503 -0.73841507570E+01 -0.98075573115E+02  0.13429113872E+04  0.13465164045E+04  0.47000000000E+01 0.  1.
<mgrwt>
<rscale>  0 0.28014668E+03</rscale>
<asrwt>0</asrwt>
<pdfrwt beam="1">  1        2 0.49067269E+00 0.28014668E+03</pdfrwt>
<pdfrwt beam="2">  1       -2 0.94643840E-03 0.28014668E+03</pdfrwt>
<totfact> 0.36958115E+03</totfact>
</mgrwt>
</event>
<event>
 9    1  0.7986988E-001  0.2755122E+03  0.7818608E-02  0.1098166E+00
          1   -1    0    0  501    0  0.00000000000E+00  0.00000000000E+00  0.30486676149E+04  0.30486676149E+04  0.00000000000E+00 0.  1.
         -1   -1    0    0    0  501 -0.00000000000E+00 -0.00000000000E+00 -0.62246001640E+01  0.62246001640E+01  0.00000000000E+00 0.  1.
         35    2    1    2    0    0  0.00000000000E+00 -0.71054273576E-14  0.30424430147E+04  0.30548922150E+04  0.27551215534E+03 0.  0.
         25    2    3    3    0    0 -0.51047760455E+02 -0.55660849930E+01  0.12564328733E+04  0.12637279315E+04  0.12549049631E+03 0.  0.
         25    2    3    3    0    0  0.51047760455E+02  0.55660849930E+01  0.17860101414E+04  0.17911642835E+04  0.12569968241E+03 0.  0.
          5    1    4    4  502    0 -0.64383218655E+02  0.44608561283E+02  0.91241854826E+03  0.91578644879E+03  0.47000000000E+01 0.  1.
         -5    1    4    4    0  502  0.13335458200E+02 -0.50174646276E+02  0.34401432504E+03  0.34794148273E+03  0.47000000000E+01 0.  1.
          5    1    5    5  503    0  0.53361737193E+02 -0.41542182204E+02  0.53793593922E+03  0.54219036565E+03  0.47000000000E+01 0. -1.
         -5    1    5    5    0  503 -0.23139767382E+01  0.47108267197E+02  0.12480742022E+04  0.12489739179E+04  0.47000000000E+01 0. -1.
<mgrwt>
<rscale>  0 0.27551216E+03</rscale>
<asrwt>0</asrwt>
<pdfrwt beam="1">  1        1 0.46902459E+00 0.27551216E+03</pdfrwt>
<pdfrwt beam="2">  1       -1 0.95763323E-03 0.27551216E+03</pdfrwt>
<totfact> 0.13396886E+03</totfact>
</mgrwt>
</event>
<event>
 9    1  0.7986988E-001  0.2613106E+03  0.7818608E-02  0.1106358E+00
         -1   -1    0    0    0  501 -0.00000000000E+00  0.00000000000E+00  0.17807793583E+03  0.17807793583E+03  0.00000000000E+00 0. -1.
          1   -1    0    0  501    0  0.00000000000E+00 -0.00000000000E+00 -0.95861475941E+02  0.95861475941E+02  0.00000000000E+00 0. -1.
         35    2    1    2    0    0  0.00000000000E+00 -0.88817841970E-15  0.82216459887E+02  0.27393941177E+03  0.26131064855E+03 0.  0.
         25    2    3    3    0    0 -0.88262064171E+01 -0.38786691288E+01  0.83458384397E+02  0.14991042242E+03  0.12415670272E+03 0.  0.
         25    2    3    3    0    0  0.88262064171E+01  0.38786691288E+01 -0.12419245105E+01  0.12402898935E+03  0.12364749018E+03 0.  0.
          5    1    4    4  502    0 -0.15817540380E+02 -0.30439352300E+02 -0.21873810265E+02  0.40954881610E+02  0.47000000000E+01 0. -1.
         -5    1    4    4    0  502  0.69913339631E+01  0.26560683171E+02  0.10533219466E+03  0.10895554081E+03  0.47000000000E+01 0. -1.
          5    1    5    5  503    0 -0.57211577273E+02  0.41549050958E+01 -0.46035910648E+01  0.57738296313E+02  0.47000000000E+01 0.  1.
         -5    1    5    5    0  503  0.66037783690E+02 -0.27623596690E+00  0.33616665543E+01  0.66290693034E+02  0.47000000000E+01 0.  1.
<mgrwt>
<rscale>  0 0.26131065E+03</rscale>
<asrwt>0</asrwt>
<pdfrwt beam="1">  1        1 0.14747919E-01 0.26131065E+03</pdfrwt>
<pdfrwt beam="2">  1       -1 0.27396606E-01 0.26131065E+03</pdfrwt>
<totfact> 0.45071736E+03</totfact>
</mgrwt>
</event>
<event>
 9    1  0.7986988E-001  0.2725929E+03  0.7818608E-02  0.1099805E+00
          2   -1    0    0  501    0  0.00000000000E+00  0.00000000000E+00  0.20361387188E+04  0.20361387188E+04  0.00000000000E+00 0. -1.
         -2   -1    0    0    0  501 -0.00000000000E+00 -0.00000000000E+00 -0.91235036700E+01  0.91235036700E+01  0.00000000000E+00 0. -1.
         35    2    1    2    0    0  0.35527136788E-14  0.00000000000E+00  0.20270152151E+04  0.20452622224E+04  0.27259287645E+03 0.  0.
         25    2    3    3    0    0 -0.14560238449E+02  0.50215992432E+02  0.90774403752E+03  0.91781941415E+03  0.12513829508E+03 0.  0.
         25    2    3    3    0    0  0.14560238449E+02 -0.50215992432E+02  0.11192711776E+04  0.11274428083E+04  0.12500268224E+03 0.  0.
          5    1    4    4  502    0  0.26924049379E+02  0.57050273343E+02  0.79309871115E+03  0.79561755495E+03  0.47000000000E+01 0.  1.
         -5    1    4    4    0  502 -0.41484287828E+02 -0.68342809108E+01  0.11464532637E+03  0.12220185919E+03  0.47000000000E+01 0.  1.
          5    1    5    5  503    0  0.25598923918E+02  0.35823008835E+02  0.25492063685E+03  0.25873773200E+03  0.47000000000E+01 0.  1.
         -5    1    5    5    0  503 -0.11038685469E+02 -0.86039001267E+02  0.86435054074E+03  0.86870507630E+03  0.47000000000E+01 0.  1.
<mgrwt>
<rscale>  0 0.27259288E+03</rscale>
<asrwt>0</asrwt>
<pdfrwt beam="1">  1        2 0.31325175E+00 0.27259288E+03</pdfrwt>
<pdfrwt beam="2">  1       -2 0.14036176E-02 0.27259288E+03</pdfrwt>
<totfact> 0.92447043E+03</totfact>
</mgrwt>
</event>
<event>
 9    1  0.7986988E-001  0.2741725E+03  0.7818608E-02  0.1098915E+00
         -1   -1    0    0    0  501 -0.00000000000E+00  0.00000000000E+00  0.25788273362E+02  0.25788273362E+02  0.00000000000E+00 0.  1.
          1   -1    0    0  501    0  0.00000000000E+00 -0.00000000000E+00 -0.72872790870E+03  0.72872790870E+03  0.00000000000E+00 0.  1.
         35    2    1    2    0    0  0.71054273576E-14  0.00000000000E+00 -0.70293963534E+03  0.75451618206E+03  0.27417246044E+03 0.  0.
         25    2    3    3    0    0  0.33047805055E+01 -0.34437811687E+02 -0.46968568867E+03  0.48776897873E+03  0.12695292836E+03 0.  0.
         25    2    3    3    0    0 -0.33047805055E+01  0.34437811687E+02 -0.23325394667E+03  0.26674720333E+03  0.12469876664E+03 0.  0.
          5    1    4    4  502    0  0.34656951898E+02 -0.53698568619E+02 -0.42448784822E+03  0.42929787312E+03  0.47000000000E+01 0.  1.
         -5    1    4    4    0  502 -0.31352171393E+02  0.19260756933E+02 -0.45197840455E+02  0.58471105603E+02  0.47000000000E+01 0.  1.
          5    1    5    5  503    0  0.38040507960E+02 -0.21009487734E+02 -0.32811333083E+02  0.54654847904E+02  0.47000000000E+01 0.  1.
         -5    1    5    5    0  503 -0.41345288466E+02  0.55447299421E+02 -0.20044261358E+03  0.21209235543E+03  0.47000000000E+01 0.  1.
<mgrwt>
<rscale>  0 0.27417246E+03</rscale>
<asrwt>0</asrwt>
<pdfrwt beam="1">  1        1 0.11211198E+00 0.27417246E+03</pdfrwt>
<pdfrwt beam="2">  1       -1 0.39674269E-02 0.27417246E+03</pdfrwt>
<totfact> 0.65941740E+03</totfact>
</mgrwt>
</event>
<event>
 9    1  0.7986988E-001  0.2793538E+03  0.7818608E-02  0.1096042E+00
          1   -1    0    0  501    0  0.00000000000E+00  0.00000000000E+00  0.12487063318E+04  0.12487063318E+04  0.00000000000E+00 0.  1.
         -1   -1    0    0    0  501 -0.00000000000E+00 -0.00000000000E+00 -0.15623880694E+02  0.15623880694E+02  0.00000000000E+00 0.  1.
         35    2    1    2    0    0  0.00000000000E+00 -0.35527136788E-14  0.12330824511E+04  0.12643302125E+04  0.27935381687E+03 0.  0.
         25    2    3    3    0    0  0.54850988286E+02  0.66187955471E+01  0.49346686695E+03  0.51223558718E+03  0.12579073346E+03 0.  0.
         25    2    3    3    0    0 -0.54850988286E+02 -0.66187955471E+01  0.73961558415E+03  0.75209462531E+03  0.12475044582E+03 0.  0.
          5    1    4    4  502    0  0.79157368980E+02  0.33641129143E+02  0.43335574178E+03  0.44183356999E+03  0.47000000000E+01 0. -1.
         -5    1    4    4    0  502 -0.24306380694E+02 -0.27022333596E+02  0.60111125173E+02  0.70402017194E+02  0.47000000000E+01 0. -1.
          5    1    5    5  503    0 -0.94495380260E+02 -0.30954632018E+01  0.46172868908E+03  0.47133261196E+03  0.47000000000E+01 0. -1.
         -5    1    5    5    0  503  0.39644391975E+02 -0.35233323452E+01  0.27788689507E+03  0.28076201335E+03  0.47000000000E+01 0. -1.
<mgrwt>
<rscale>  0 0.27935382E+03</rscale>
<asrwt>0</asrwt>
<pdfrwt beam="1">  1        1 0.19210859E+00 0.27935382E+03</pdfrwt>
<pdfrwt beam="2">  1       -1 0.24036749E-02 0.27935382E+03</pdfrwt>
<totfact> 0.55422493E+03</totfact>
</mgrwt>
</event>
<event>
 9    1  0.7986988E-001  0.2826006E+03  0.7818608E-02  0.1094277E+00
          1   -1    0    0  501    0  0.00000000000E+00  0.00000000000E+00  0.56925511993E+03  0.56925511993E+03  0.00000000000E+00 0. -1.
         -1   -1    0    0    0  501 -0.00000000000E+00 -0.00000000000E+00 -0.35073512742E+02  0.35073512742E+02  0.00000000000E+00 0. -1.
         35    2    1    2    0    0  0.00000000000E+00  0.00000000000E+00  0.53418160719E+03  0.60432863268E+03  0.28260061360E+03 0.  0.
         25    2    3    3    0    0  0.63207661833E+02 -0.17993190722E+02  0.27687066612E+03  0.31078182943E+03  0.12493604891E+03 0.  0.
         25    2    3    3    0    0 -0.63207661833E+02  0.17993190722E+02  0.25731094107E+03  0.29354680325E+03  0.12506734936E+03 0.  0.
          5    1    4    4  502    0  0.10080297812E+02  0.37374050009E+02  0.22438608228E+02  0.44989033745E+02  0.47000000000E+01 0.  1.
         -5    1    4    4    0  502  0.53127364021E+02 -0.55367240732E+02  0.25443205789E+03  0.26579279568E+03  0.47000000000E+01 0.  1.
          5    1    5    5  503    0 -0.86263939850E+01 -0.49764307579E+02  0.12733803501E+03  0.13706920202E+03  0.47000000000E+01 0. -1.
         -5    1    5    5    0  503 -0.54581267847E+02  0.67757498302E+02  0.12997290606E+03  0.15647760123E+03  0.47000000000E+01 0. -1.
<mgrwt>
<rscale>  0 0.28260061E+03</rscale>
<asrwt>0</asrwt>
<pdfrwt beam="1">  1        1 0.87577704E-01 0.28260061E+03</pdfrwt>
<pdfrwt beam="2">  1       -1 0.53959255E-02 0.28260061E+03</pdfrwt>
<totfact> 0.59205073E+03</totfact>
</mgrwt>
</event>
<event>
 9    1  0.7986988E-001  0.2738105E+03  0.7818608E-02  0.1099118E+00
         -4   -1    0    0    0  501 -0.00000000000E+00  0.00000000000E+00  0.47168344963E+03  0.47168344963E+03  0.00000000000E+00 0.  1.
          4   -1    0    0  501    0  0.00000000000E+00 -0.00000000000E+00 -0.39736500545E+02  0.39736500545E+02  0.00000000000E+00 0.  1.
         35    2    1    2    0    0 -0.71054273576E-14  0.00000000000E+00  0.43194694908E+03  0.51141995017E+03  0.27381051589E+03 0.  0.
         25    2    3    3    0    0 -0.16522690721E+02  0.47987060104E+02  0.23326630308E+03  0.27130382229E+03  0.12890631712E+03 0.  0.
         25    2    3    3    0    0  0.16522690721E+02 -0.47987060104E+02  0.19868064600E+03  0.24011612788E+03  0.12492397098E+03 0.  0.
          5    1    4    4  502    0  0.40109759058E+02 -0.43679783917E+01  0.15909114086E+03  0.16419486322E+03  0.47000000000E+01 0.  1.
         -5    1    4    4    0  502 -0.56632449779E+02  0.52355038495E+02  0.74175162217E+02  0.10710895907E+03  0.47000000000E+01 0.  1.
          5    1    5    5  503    0 -0.43630410561E+02 -0.44236060807E+02  0.15024336268E+03  0.16265177475E+03  0.47000000000E+01 0. -1.
         -5    1    5    5    0  503  0.60153101282E+02 -0.37509992963E+01  0.48437283328E+02  0.77464353129E+02  0.47000000000E+01 0. -1.
<mgrwt>
<rscale>  0 0.27381052E+03</rscale>
<asrwt>0</asrwt>
<pdfrwt beam="1">  1        4 0.61133081E-02 0.27381052E+03</pdfrwt>
<pdfrwt beam="2">  1       -4 0.72566681E-01 0.27381052E+03</pdfrwt>
<totfact> 0.56808733E+02</totfact>
</mgrwt>
</event>
<event>
 9    1  0.7986988E-001  0.2654251E+03  0.7818608E-02  0.1103927E+00
         -1   -1    0    0    0  501 -0.00000000000E+00  0.00000000000E+00  0.10239472861E+04  0.10239472861E+04  0.00000000000E+00 0.  1.
          1   -1    0    0  501    0  0.00000000000E+00 -0.00000000000E+00 -0.17200711187E+02  0.17200711187E+02  0.00000000000E+00 0.  1.
         35    2    1    2    0    0  0.00000000000E+00  0.00000000000E+00  0.10067465749E+04  0.10411479973E+04  0.26542510460E+03 0.  0.
         25    2    3    3    0    0  0.43873553848E+02 -0.32660874880E+02  0.51995693649E+03  0.53595212305E+03  0.11788910436E+03 0.  0.
         25    2    3    3    0    0 -0.43873553848E+02  0.32660874880E+02  0.48678963839E+03  0.50519587420E+03  0.12356009789E+03 0.  0.
          5    1    4    4  502    0 -0.29418997367E+02  0.21862582130E+02  0.18950701074E+03  0.19307627255E+03  0.47000000000E+01 0. -1.
         -5    1    4    4    0  502  0.73292551216E+02 -0.54523457010E+02  0.33044992575E+03  0.34287585050E+03  0.47000000000E+01 0. -1.
          5    1    5    5  503    0 -0.76880719103E+02 -0.12084355008E+02  0.31815622522E+03  0.32757006922E+03  0.47000000000E+01 0. -1.
         -5    1    5    5    0  503  0.33007165254E+02  0.44745229888E+02  0.16863341317E+03  0.17762580498E+03  0.47000000000E+01 0. -1.
<mgrwt>
<rscale>  0 0.26542510E+03</rscale>
<asrwt>0</asrwt>
<pdfrwt beam="1">  1        1 0.26462641E-02 0.26542510E+03</pdfrwt>
<pdfrwt beam="2">  1       -1 0.15753030E+00 0.26542510E+03</pdfrwt>
<totfact> 0.13487422E+03</totfact>
</mgrwt>
</event>
<event>
 9    1  0.7986988E-001  0.2773698E+03  0.7818608E-02  0.1097134E+00
          1   -1    0    0  501    0  0.00000000000E+00  0.00000000000E+00  0.70307688020E+03  0.70307688020E+03  0.00000000000E+00 0.  1.
         -1   -1    0    0    0  501 -0.00000000000E+00 -0.00000000000E+00 -0.27356184873E+02  0.27356184873E+02  0.00000000000E+00 0.  1.
         35    2    1    2    0    0  0.00000000000E+00  0.00000000000E+00  0.67572069533E+03  0.73043306508E+03  0.27736979731E+03 0.  0.
         25    2    3    3    0    0 -0.18841004663E+02 -0.47348634203E+02  0.34298366117E+03  0.37110134527E+03  0.13221777495E+03 0.  0.
         25    2    3    3    0    0  0.18841004663E+02  0.47348634203E+02  0.33273703416E+03  0.35933171981E+03  0.12573175550E+03 0.  0.
          5    1    4    4  502    0 -0.59809198571E+02  0.18589734520E+02  0.17667291788E+03  0.18750500893E+03  0.47000000000E+01 0. -1.
         -5    1    4    4    0  502  0.40968193909E+02 -0.65938368723E+02  0.16631074330E+03  0.18359633634E+03  0.47000000000E+01 0. -1.
          5    1    5    5  503    0  0.66286164344E+02  0.51185220073E+02  0.16777066360E+03  0.18757096765E+03  0.47000000000E+01 0.  1.
         -5    1    5    5    0  503 -0.47445159682E+02 -0.38365858707E+01  0.16496637056E+03  0.17176075216E+03  0.47000000000E+01 0.  1.
<mgrwt>
<rscale>  0 0.27736980E+03</rscale>
<asrwt>0</asrwt>
<pdfrwt beam="1">  1        1 0.10816566E+00 0.27736980E+03</pdfrwt>
<pdfrwt beam="2">  1       -1 0.42086444E-02 0.27736980E+03</pdfrwt>
<totfact> 0.63686751E+03</totfact>
</mgrwt>
</event>
<event>
 9    1  0.7986988E-001  0.2746551E+03  0.7818608E-02  0.1098645E+00
         -2   -1    0    0    0  501 -0.00000000000E+00  0.00000000000E+00  0.15673888157E+02  0.15673888157E+02  0.00000000000E+00 0.  1.
          2   -1    0    0  501    0  0.00000000000E+00 -0.00000000000E+00 -0.12032022167E+04  0.12032022167E+04  0.00000000000E+00 0.  1.
         35    2    1    2    0    0  0.00000000000E+00  0.35527136788E-14 -0.11875283285E+04  0.12188761049E+04  0.27465510718E+03 0.  0.
         25    2    3    3    0    0  0.16048921215E+02 -0.30780068487E+02 -0.79344183567E+03  0.80419358586E+03  0.12638194672E+03 0.  0.
         25    2    3    3    0    0 -0.16048921215E+02  0.30780068487E+02 -0.39408649287E+03  0.41468251900E+03  0.12430787268E+03 0.  0.
          5    1    4    4  502    0 -0.47726690947E+02  0.22583378636E+01 -0.17126973117E+03  0.17787171764E+03  0.47000000000E+01 0.  1.
         -5    1    4    4    0  502  0.63775612162E+02 -0.33038406351E+02 -0.62217210450E+03  0.62632186822E+03  0.47000000000E+01 0.  1.
          5    1    5    5  503    0  0.50088060018E+02  0.15352448285E+02 -0.10194416588E+03  0.11471361899E+03  0.47000000000E+01 0. -1.
         -5    1    5    5    0  503 -0.66136981233E+02  0.15427620202E+02 -0.29214232699E+03  0.29996890000E+03  0.47000000000E+01 0. -1.
<mgrwt>
<rscale>  0 0.27465511E+03</rscale>
<asrwt>0</asrwt>
<pdfrwt beam="1">  1        2 0.18510808E+00 0.27465511E+03</pdfrwt>
<pdfrwt beam="2">  1       -2 0.24113668E-02 0.27465511E+03</pdfrwt>
<totfact> 0.11650111E+04</totfact>
</mgrwt>
</event>
<event>
 9    1  0.7986988E-001  0.2764290E+03  0.7818608E-02  0.1097655E+00
          2   -1    0    0  501    0  0.00000000000E+00  0.00000000000E+00  0.55132300925E+03  0.55132300925E+03  0.00000000000E+00 0.  1.
         -2   -1    0    0    0  501 -0.00000000000E+00 -0.00000000000E+00 -0.34649824337E+02  0.34649824337E+02  0.00000000000E+00 0.  1.
         35    2    1    2    0    0 -0.71054273576E-14 -0.14210854715E-13  0.51667318491E+03  0.58597283358E+03  0.27642898128E+03 0.  0.
         25    2    3    3    0    0  0.14929645991E+01  0.30068972058E+02  0.36587229360E+03  0.38803921341E+03  0.12572002186E+03 0.  0.
         25    2    3    3    0    0 -0.14929645991E+01 -0.30068972058E+02  0.15080089131E+03  0.19793362017E+03  0.12462117457E+03 0.  0.
          5    1    4    4  502    0 -0.36169357946E+02  0.65450438679E+02  0.25197888088E+03  0.26288291840E+03  0.47000000000E+01 0.  1.
         -5    1    4    4    0  502  0.37662322545E+02 -0.35381466621E+02  0.11389341272E+03  0.12515629501E+03  0.47000000000E+01 0.  1.
          5    1    5    5  503    0 -0.40399635761E+02 -0.24673495381E+02  0.61452021833E+01  0.47966294977E+02  0.47000000000E+01 0. -1.
         -5    1    5    5    0  503  0.38906671162E+02 -0.53954766771E+01  0.14465568913E+03  0.14996732520E+03  0.47000000000E+01 0. -1.
<mgrwt>
<rscale>  0 0.27642898E+03</rscale>
<asrwt>0</asrwt>
<pdfrwt beam="1">  1        2 0.84818918E-01 0.27642898E+03</pdfrwt>
<pdfrwt beam="2">  1       -2 0.53307426E-02 0.27642898E+03</pdfrwt>
<totfact> 0.98349302E+03</totfact>
</mgrwt>
</event>
<event>
 9    1  0.7986988E-001  0.2666589E+03  0.7818608E-02  0.1103207E+00
         -2   -1    0    0    0  501 -0.00000000000E+00  0.00000000000E+00  0.18746225741E+02  0.18746225741E+02  0.00000000000E+00 0.  1.
          2   -1    0    0  501    0  0.00000000000E+00 -0.00000000000E+00 -0.94828396580E+03  0.94828396580E+03  0.00000000000E+00 0.  1.
         35    2    1    2    0    0  0.00000000000E+00  0.00000000000E+00 -0.92953774006E+03  0.96703019154E+03  0.26665892289E+03 0.  0.
         25    2    3    3    0    0 -0.27721995621E+02 -0.44145356461E+02 -0.56614360523E+03  0.58257740281E+03  0.12712406140E+03 0.  0.
         25    2    3    3    0    0  0.27721995621E+02  0.44145356461E+02 -0.36339413483E+03  0.38445278873E+03  0.11415484219E+03 0.  0.
          5    1    4    4  502    0  0.22436410030E+02 -0.58003394846E+02 -0.46065611784E+03  0.46485904875E+03  0.47000000000E+01 0. -1.
         -5    1    4    4    0  502 -0.50158405651E+02  0.13858038385E+02 -0.10548748739E+03  0.11771835406E+03  0.47000000000E+01 0. -1.
          5    1    5    5  503    0  0.71417801807E+02  0.38250162922E+02 -0.23489181432E+03  0.24851525469E+03  0.47000000000E+01 0.  1.
         -5    1    5    5    0  503 -0.43695806185E+02  0.58951935391E+01 -0.12850232051E+03  0.13593753404E+03  0.47000000000E+01 0.  1.
<mgrwt>
<rscale>  0 0.26665892E+03</rscale>
<asrwt>0</asrwt>
<pdfrwt beam="1">  1        2 0.14588978E+00 0.26665892E+03</pdfrwt>
<pdfrwt beam="2">  1       -2 0.28840359E-02 0.26665892E+03</pdfrwt>
<totfact> 0.12654265E+04</totfact>
</mgrwt>
</event>
<event>
 9    1  0.7986988E-001  0.2773829E+03  0.7818608E-02  0.1097127E+00
         -2   -1    0    0    0  501 -0.00000000000E+00  0.00000000000E+00  0.15051992671E+02  0.15051992671E+02  0.00000000000E+00 0.  1.
          2   -1    0    0  501    0  0.00000000000E+00 -0.00000000000E+00 -0.12779247262E+04  0.12779247262E+04  0.00000000000E+00 0.  1.
         35    2    1    2    0    0  0.00000000000E+00  0.00000000000E+00 -0.12628727335E+04  0.12929767188E+04  0.27738286618E+03 0.  0.
         25    2    3    3    0    0  0.33599999383E+01 -0.43081628303E+02 -0.84030539464E+03  0.85024174090E+03  0.12219061098E+03 0.  0.
         25    2    3    3    0    0 -0.33599999383E+01  0.43081628303E+02 -0.42256733887E+03  0.44273497795E+03  0.12483504526E+03 0.  0.
          5    1    4    4  502    0  0.55290124431E+02  0.26953217573E-01 -0.25070456227E+03  0.25677201197E+03  0.47000000000E+01 0. -1.
         -5    1    4    4    0  502 -0.51930124493E+02 -0.43108581520E+02 -0.58960083237E+03  0.59346972894E+03  0.47000000000E+01 0. -1.
          5    1    5    5  503    0  0.50406223372E+02  0.56348535227E+02 -0.26701779477E+03  0.27755456671E+03  0.47000000000E+01 0.  1.
         -5    1    5    5    0  503 -0.53766223310E+02 -0.13266906924E+02 -0.15554954410E+03  0.16518041124E+03  0.47000000000E+01 0.  1.
<mgrwt>
<rscale>  0 0.27738287E+03</rscale>
<asrwt>0</asrwt>
<pdfrwt beam="1">  1        2 0.19660376E+00 0.27738287E+03</pdfrwt>
<pdfrwt beam="2">  1       -2 0.23156918E-02 0.27738287E+03</pdfrwt>
<totfact> 0.11231186E+04</totfact>
</mgrwt>
</event>
<event>
 9    1  0.7986988E-001  0.2741815E+03  0.7818608E-02  0.1098910E+00
          1   -1    0    0  501    0  0.00000000000E+00  0.00000000000E+00  0.25743779047E+03  0.25743779047E+03  0.00000000000E+00 0. -1.
         -1   -1    0    0    0  501 -0.00000000000E+00 -0.00000000000E+00 -0.73003528131E+02  0.73003528131E+02  0.00000000000E+00 0. -1.
         35    2    1    2    0    0 -0.71054273576E-14  0.00000000000E+00  0.18443426233E+03  0.33044131860E+03  0.27418145071E+03 0.  0.
         25    2    3    3    0    0 -0.24705133290E+02  0.50724812059E+02  0.90860219741E+02  0.16460545975E+03  0.12512404916E+03 0.  0.
         25    2    3    3    0    0  0.24705133290E+02 -0.50724812059E+02  0.93574042593E+02  0.16583585885E+03  0.12474806798E+03 0.  0.
          5    1    4    4  502    0 -0.68705141354E+02  0.24821498346E+02  0.86246156080E+02  0.11312379355E+03  0.47000000000E+01 0.  1.
         -5    1    4    4    0  502  0.44000008064E+02  0.25903313713E+02  0.46140636612E+01  0.51481666197E+02  0.47000000000E+01 0.  1.
          5    1    5    5  503    0 -0.12658440495E+01  0.13963284502E+02  0.94813562438E+02  0.95959769161E+02  0.47000000000E+01 0.  1.
         -5    1    5    5    0  503  0.25970977340E+02 -0.64688096561E+02 -0.12395198452E+01  0.69876089688E+02  0.47000000000E+01 0.  1.
<mgrwt>
<rscale>  0 0.27418145E+03</rscale>
<asrwt>0</asrwt>
<pdfrwt beam="1">  1        1 0.39605814E-01 0.27418145E+03</pdfrwt>
<pdfrwt beam="2">  1       -1 0.11231312E-01 0.27418145E+03</pdfrwt>
<totfact> 0.53711728E+03</totfact>
</mgrwt>
</event>
<event>
 9    1  0.7986988E-001  0.2961780E+03  0.7818608E-02  0.1087167E+00
          1   -1    0    0  501    0  0.00000000000E+00  0.00000000000E+00  0.76350487113E+03  0.76350487113E+03  0.00000000000E+00 0.  1.
         -1   -1    0    0    0  501 -0.00000000000E+00 -0.00000000000E+00 -0.28723271751E+02  0.28723271751E+02  0.00000000000E+00 0.  1.
         35    2    1    2    0    0  0.00000000000E+00  0.00000000000E+00  0.73478159938E+03  0.79222814288E+03  0.29617804035E+03 0.  0.
         25    2    3    3    0    0  0.23479350999E+02  0.65586341827E+00  0.60384452440E+03  0.61704259752E+03  0.12474633232E+03 0.  0.
         25    2    3    3    0    0 -0.23479350999E+02 -0.65586341827E+00  0.13093707498E+03  0.17518554536E+03  0.11399012071E+03 0.  0.
          5    1    4    4  502    0 -0.21748806320E+02 -0.52376832845E+02  0.28718560567E+03  0.29276954298E+03  0.47000000000E+01 0.  1.
         -5    1    4    4    0  502  0.45228157319E+02  0.53032696263E+02  0.31665891873E+03  0.32427305453E+03  0.47000000000E+01 0.  1.
          5    1    5    5  503    0  0.12182568957E+02  0.51425529695E+02  0.61754465275E+02  0.81416853736E+02  0.47000000000E+01 0.  1.
         -5    1    5    5    0  503 -0.35661919955E+02 -0.52081393113E+02  0.69182609706E+02  0.93768691626E+02  0.47000000000E+01 0.  1.
<mgrwt>
<rscale>  0 0.29617804E+03</rscale>
<asrwt>0</asrwt>
<pdfrwt beam="1">  1        1 0.11746227E+00 0.29617804E+03</pdfrwt>
<pdfrwt beam="2">  1       -1 0.44189655E-02 0.29617804E+03</pdfrwt>
<totfact> 0.52461444E+03</totfact>
</mgrwt>
</event>
<event>
 9    1  0.7986988E-001  0.2760985E+03  0.7818608E-02  0.1097839E+00
          2   -1    0    0  501    0  0.00000000000E+00  0.00000000000E+00  0.11143404606E+04  0.11143404606E+04  0.00000000000E+00 0.  1.
         -2   -1    0    0    0  501 -0.00000000000E+00 -0.00000000000E+00 -0.17102129437E+02  0.17102129437E+02  0.00000000000E+00 0.  1.
         35    2    1    2    0    0  0.00000000000E+00  0.00000000000E+00  0.10972383312E+04  0.11314425900E+04  0.27609849542E+03 0.  0.
         25    2    3    3    0    0  0.30484959542E+02  0.25986247300E+02  0.72083404603E+03  0.73264932163E+03  0.12477455174E+03 0.  0.
         25    2    3    3    0    0 -0.30484959542E+02 -0.25986247300E+02  0.37640428513E+03  0.39879326841E+03  0.12550405273E+03 0.  0.
          5    1    4    4  502    0  0.59839286025E+02  0.27384121183E+02  0.67358662237E+03  0.67680991281E+03  0.47000000000E+01 0. -1.
         -5    1    4    4    0  502 -0.29354326483E+02 -0.13978738834E+01  0.47247423658E+02  0.55839408817E+02  0.47000000000E+01 0. -1.
          5    1    5    5  503    0  0.21650958209E+02 -0.49306858127E+02  0.29077601947E+03  0.29575786338E+03  0.47000000000E+01 0.  1.
         -5    1    5    5    0  503 -0.52135917751E+02  0.23320610828E+02  0.85628265661E+02  0.10303540503E+03  0.47000000000E+01 0.  1.
<mgrwt>
<rscale>  0 0.27609850E+03</rscale>
<asrwt>0</asrwt>
<pdfrwt beam="1">  1        2 0.17143694E+00 0.27609850E+03</pdfrwt>
<pdfrwt beam="2">  1       -2 0.26310977E-02 0.27609850E+03</pdfrwt>
<totfact> 0.11520985E+04</totfact>
</mgrwt>
</event>
<event>
 9    1  0.7986988E-001  0.2848073E+03  0.7818608E-02  0.1093092E+00
         -3   -1    0    0    0  501 -0.00000000000E+00  0.00000000000E+00  0.34190253466E+03  0.34190253466E+03  0.00000000000E+00 0. -1.
          3   -1    0    0  501    0  0.00000000000E+00 -0.00000000000E+00 -0.59311655423E+02  0.59311655423E+02  0.00000000000E+00 0. -1.
         35    2    1    2    0    0  0.71054273576E-14 -0.71054273576E-14  0.28259087924E+03  0.40121419009E+03  0.28480734066E+03 0.  0.
         25    2    3    3    0    0 -0.26608283680E+02  0.62128757060E+02  0.12534049754E+03  0.18966222152E+03  0.12527383897E+03 0.  0.
         25    2    3    3    0    0  0.26608283680E+02 -0.62128757060E+02  0.15725038170E+03  0.21155196857E+03  0.12433249635E+03 0.  0.
          5    1    4    4  502    0 -0.66906769461E+02  0.20505999720E-01  0.47886020059E+02  0.82411632293E+02  0.47000000000E+01 0.  1.
         -5    1    4    4    0  502  0.40298485781E+02  0.62108251060E+02  0.77454477485E+02  0.10725058922E+03  0.47000000000E+01 0.  1.
          5    1    5    5  503    0  0.37202167442E+02 -0.20095330015E+02  0.16218473524E+03  0.16767170869E+03  0.47000000000E+01 0. -1.
         -5    1    5    5    0  503 -0.10593883763E+02 -0.42033427045E+02 -0.49343535411E+01  0.43880259880E+02  0.47000000000E+01 0. -1.
<mgrwt>
<rscale>  0 0.28480734E+03</rscale>
<asrwt>0</asrwt>
<pdfrwt beam="1">  1        3 0.91248703E-02 0.28480734E+03</pdfrwt>
<pdfrwt beam="2">  1       -3 0.52600389E-01 0.28480734E+03</pdfrwt>
<totfact> 0.78998123E+02</totfact>
</mgrwt>
</event>
<event>
 9    1  0.7986988E-001  0.2736349E+03  0.7818608E-02  0.1099217E+00
          2   -1    0    0  501    0  0.00000000000E+00  0.00000000000E+00  0.13534135210E+04  0.13534135210E+04  0.00000000000E+00 0.  1.
         -2   -1    0    0    0  501 -0.00000000000E+00 -0.00000000000E+00 -0.13830964877E+02  0.13830964877E+02  0.00000000000E+00 0.  1.
         35    2    1    2    0    0  0.00000000000E+00  0.71054273576E-14  0.13395825561E+04  0.13672444859E+04  0.27363490182E+03 0.  0.
         25    2    3    3    0    0  0.13909953913E+02  0.43715174661E+02  0.51364355954E+03  0.53060905627E+03  0.12494703288E+03 0.  0.
         25    2    3    3    0    0 -0.13909953913E+02 -0.43715174661E+02  0.82593899658E+03  0.83663542961E+03  0.12521626364E+03 0.  0.
          5    1    4    4  502    0  0.39354640966E+02  0.79558086965E+02  0.34633311189E+03  0.35755697638E+03  0.47000000000E+01 0. -1.
         -5    1    4    4    0  502 -0.25444687053E+02 -0.35842912304E+02  0.16731044764E+03  0.17305207989E+03  0.47000000000E+01 0. -1.
          5    1    5    5  503    0  0.49926874935E+02  0.83271282409E+01  0.30711867850E+03  0.31129729615E+03  0.47000000000E+01 0.  1.
         -5    1    5    5    0  503 -0.63836828849E+02 -0.52042302902E+02  0.51882031809E+03  0.52533813346E+03  0.47000000000E+01 0.  1.
<mgrwt>
<rscale>  0 0.27363490E+03</rscale>
<asrwt>0</asrwt>
<pdfrwt beam="1">  1        2 0.20821736E+00 0.27363490E+03</pdfrwt>
<pdfrwt beam="2">  1       -2 0.21278418E-02 0.27363490E+03</pdfrwt>
<totfact> 0.11556031E+04</totfact>
</mgrwt>
</event>
<event>
 9    1  0.7986988E-001  0.2796758E+03  0.7818608E-02  0.1095866E+00
          2   -1    0    0  501    0  0.00000000000E+00  0.00000000000E+00  0.17070400166E+04  0.17070400166E+04  0.00000000000E+00 0.  1.
         -2   -1    0    0    0  501 -0.00000000000E+00 -0.00000000000E+00 -0.11455288025E+02  0.11455288025E+02  0.00000000000E+00 0.  1.
         35    2    1    2    0    0  0.00000000000E+00  0.00000000000E+00  0.16955847286E+04  0.17184953047E+04  0.27967577700E+03 0.  0.
         25    2    3    3    0    0  0.38855020448E+02  0.48367180858E+02  0.79682904911E+03  0.80903959771E+03  0.12553660966E+03 0.  0.
         25    2    3    3    0    0 -0.38855020448E+02 -0.48367180858E+02  0.89875567950E+03  0.90945570695E+03  0.12449423546E+03 0.  0.
          5    1    4    4  502    0  0.49050149845E+02  0.83673753828E+02  0.45735452020E+03  0.46754942138E+03  0.47000000000E+01 0.  1.
         -5    1    4    4    0  502 -0.10195129397E+02 -0.35306572970E+02  0.33947452890E+03  0.34149017633E+03  0.47000000000E+01 0.  1.
          5    1    5    5  503    0 -0.24952762372E+01 -0.77680692134E+02  0.34325445852E+03  0.35197475709E+03  0.47000000000E+01 0.  1.
         -5    1    5    5    0  503 -0.36359744211E+02  0.29313511276E+02  0.55550122098E+03  0.55748094986E+03  0.47000000000E+01 0.  1.
<mgrwt>
<rscale>  0 0.27967578E+03</rscale>
<asrwt>0</asrwt>
<pdfrwt beam="1">  1        2 0.26262134E+00 0.27967578E+03</pdfrwt>
<pdfrwt beam="2">  1       -2 0.17623534E-02 0.27967578E+03</pdfrwt>
<totfact> 0.98682380E+03</totfact>
</mgrwt>
</event>
<event>
 9    1  0.7986988E-001  0.2749320E+03  0.7818608E-02  0.1098490E+00
         -1   -1    0    0    0  501 -0.00000000000E+00  0.00000000000E+00  0.80187304108E+03  0.80187304108E+03  0.00000000000E+00 0. -1.
          1   -1    0    0  501    0  0.00000000000E+00 -0.00000000000E+00 -0.23565944376E+02  0.23565944376E+02  0.00000000000E+00 0. -1.
         35    2    1    2    0    0 -0.71054273576E-14  0.14210854715E-13  0.77830709670E+03  0.82543898545E+03  0.27493195873E+03 0.  0.
         25    2    3    3    0    0  0.10351518243E+02  0.34427306453E+02  0.52911443177E+03  0.54418723675E+03  0.12200521864E+03 0.  0.
         25    2    3    3    0    0 -0.10351518243E+02 -0.34427306453E+02  0.24919266493E+03  0.28125174870E+03  0.12535217801E+03 0.  0.
          5    1    4    4  502    0  0.47811033240E+02 -0.25042177317E+02  0.17739623617E+03  0.18548455502E+03  0.47000000000E+01 0. -1.
         -5    1    4    4    0  502 -0.37459514997E+02  0.59469483770E+02  0.35171819560E+03  0.35870268173E+03  0.47000000000E+01 0. -1.
          5    1    5    5  503    0 -0.53009998246E+02 -0.26041776963E+02  0.50639108766E+02  0.77939998705E+02  0.47000000000E+01 0.  1.
         -5    1    5    5    0  503  0.42658480004E+02 -0.83855294893E+01  0.19855355617E+03  0.20331175000E+03  0.47000000000E+01 0.  1.
<mgrwt>
<rscale>  0 0.27493196E+03</rscale>
<asrwt>0</asrwt>
<pdfrwt beam="1">  1        1 0.36255305E-02 0.27493196E+03</pdfrwt>
<pdfrwt beam="2">  1       -1 0.12336506E+00 0.27493196E+03</pdfrwt>
<totfact> 0.16142179E+03</totfact>
</mgrwt>
</event>
<event>
 9    1  0.7986988E-001  0.2740902E+03  0.7818608E-02  0.1098961E+00
         -1   -1    0    0    0  501 -0.00000000000E+00  0.00000000000E+00  0.26961837888E+02  0.26961837888E+02  0.00000000000E+00 0.  1.
          1   -1    0    0  501    0  0.00000000000E+00 -0.00000000000E+00 -0.69659026235E+03  0.69659026235E+03  0.00000000000E+00 0.  1.
         35    2    1    2    0    0 -0.35527136788E-14  0.71054273576E-14 -0.66962842446E+03  0.72355210024E+03  0.27409015836E+03 0.  0.
         25    2    3    3    0    0 -0.26139414540E+02 -0.46155290808E+02 -0.29755723754E+03  0.32736647347E+03  0.12575737939E+03 0.  0.
         25    2    3    3    0    0  0.26139414540E+02  0.46155290808E+02 -0.37207118691E+03  0.39618562677E+03  0.12534952279E+03 0.  0.
          5    1    4    4  502    0 -0.53271185242E+01 -0.88644278864E+02 -0.19599273139E+03  0.21522413230E+03  0.47000000000E+01 0.  1.
         -5    1    4    4    0  502 -0.20812296016E+02  0.42488988056E+02 -0.10156450615E+03  0.11214234116E+03  0.47000000000E+01 0.  1.
          5    1    5    5  503    0  0.37503956969E+02 -0.33222437182E+02 -0.92481782461E+02  0.10528650060E+03  0.47000000000E+01 0.  1.
         -5    1    5    5    0  503 -0.11364542429E+02  0.79377727990E+02 -0.27958940445E+03  0.29089912617E+03  0.47000000000E+01 0.  1.
<mgrwt>
<rscale>  0 0.27409016E+03</rscale>
<asrwt>0</asrwt>
<pdfrwt beam="1">  1        1 0.10716772E+00 0.27409016E+03</pdfrwt>
<pdfrwt beam="2">  1       -1 0.41479756E-02 0.27409016E+03</pdfrwt>
<totfact> 0.65944057E+03</totfact>
</mgrwt>
</event>
<event>
 9    1  0.7986988E-001  0.2773750E+03  0.7818608E-02  0.1097131E+00
          2   -1    0    0  501    0  0.00000000000E+00  0.00000000000E+00  0.99732680997E+03  0.99732680997E+03  0.00000000000E+00 0. -1.
         -2   -1    0    0    0  501 -0.00000000000E+00 -0.00000000000E+00 -0.19285776051E+02  0.19285776051E+02  0.00000000000E+00 0. -1.
         35    2    1    2    0    0  0.00000000000E+00 -0.35527136788E-14  0.97804103392E+03  0.10166125860E+04  0.27737499171E+03 0.  0.
         25    2    3    3    0    0  0.50395528013E+02 -0.25698009022E+02  0.41555656803E+03  0.43759232664E+03  0.12489870371E+03 0.  0.
         25    2    3    3    0    0 -0.50395528013E+02  0.25698009022E+02  0.56248446589E+03  0.57902025938E+03  0.12520219445E+03 0.  0.
          5    1    4    4  502    0  0.17510687833E+02 -0.57517676378E+02  0.87161283044E+02  0.10599097389E+03  0.47000000000E+01 0.  1.
         -5    1    4    4    0  502  0.32884840180E+02  0.31819667356E+02  0.32839528499E+03  0.33160135275E+03  0.47000000000E+01 0.  1.
          5    1    5    5  503    0 -0.84506512291E+02  0.13285767962E+02  0.49394366862E+03  0.50131856141E+03  0.47000000000E+01 0. -1.
         -5    1    5    5    0  503  0.34110984278E+02  0.12412241060E+02  0.68540797269E+02  0.77701697966E+02  0.47000000000E+01 0. -1.
<mgrwt>
<rscale>  0 0.27737499E+03</rscale>
<asrwt>0</asrwt>
<pdfrwt beam="1">  1        2 0.15343485E+00 0.27737499E+03</pdfrwt>
<pdfrwt beam="2">  1       -2 0.29670432E-02 0.27737499E+03</pdfrwt>
<totfact> 0.11325214E+04</totfact>
</mgrwt>
</event>
<event>
 9    1  0.7986988E-001  0.2749919E+03  0.7818608E-02  0.1098456E+00
         -2   -1    0    0    0  501 -0.00000000000E+00  0.00000000000E+00  0.13947308493E+02  0.13947308493E+02  0.00000000000E+00 0.  1.
          2   -1    0    0  501    0  0.00000000000E+00 -0.00000000000E+00 -0.13554684717E+04  0.13554684717E+04  0.00000000000E+00 0.  1.
         35    2    1    2    0    0 -0.71054273576E-14  0.00000000000E+00 -0.13415211632E+04  0.13694157802E+04  0.27499190481E+03 0.  0.
         25    2    3    3    0    0 -0.46305731499E+02 -0.13907826521E+01 -0.81961983471E+03  0.83034241638E+03  0.12468239628E+03 0.  0.
         25    2    3    3    0    0  0.46305731499E+02  0.13907826521E+01 -0.52190132852E+03  0.53907336384E+03  0.12677909860E+03 0.  0.
          5    1    4    4  502    0 -0.43113353965E+02 -0.24129776455E+02 -0.11401444427E+03  0.12434786248E+03  0.47000000000E+01 0.  1.
         -5    1    4    4    0  502 -0.31923775344E+01  0.22738993803E+02 -0.70560539044E+03  0.70599455390E+03  0.47000000000E+01 0.  1.
          5    1    5    5  503    0 -0.38194836335E+02  0.24507547309E+02 -0.14093629387E+03  0.14813707951E+03  0.47000000000E+01 0. -1.
         -5    1    5    5    0  503  0.84500567834E+02 -0.23116764657E+02 -0.38096503466E+03  0.39093628433E+03  0.47000000000E+01 0. -1.
<mgrwt>
<rscale>  0 0.27499190E+03</rscale>
<asrwt>0</asrwt>
<pdfrwt beam="1">  1        2 0.20853368E+00 0.27499190E+03</pdfrwt>
<pdfrwt beam="2">  1       -2 0.21457390E-02 0.27499190E+03</pdfrwt>
<totfact> 0.11386095E+04</totfact>
</mgrwt>
</event>
<event>
 9    1  0.7986988E-001  0.2760000E+03  0.7818608E-02  0.1097894E+00
          2   -1    0    0  501    0  0.00000000000E+00  0.00000000000E+00  0.12084119333E+04  0.12084119333E+04  0.00000000000E+00 0. -1.
         -2   -1    0    0    0  501 -0.00000000000E+00 -0.00000000000E+00 -0.15759528370E+02  0.15759528370E+02  0.00000000000E+00 0. -1.
         35    2    1    2    0    0  0.88817841970E-15 -0.71054273576E-14  0.11926524050E+04  0.12241714617E+04  0.27600001555E+03 0.  0.
         25    2    3    3    0    0  0.37128074342E+01 -0.56106353902E+02  0.63142407151E+03  0.64653798315E+03  0.12709562419E+03 0.  0.
         25    2    3    3    0    0 -0.37128074342E+01  0.56106353902E+02  0.56122833347E+03  0.57763347856E+03  0.12458525349E+03 0.  0.
          5    1    4    4  502    0  0.97578885291E+01 -0.88897986536E+02  0.56513039786E+03  0.57218224805E+03  0.47000000000E+01 0. -1.
         -5    1    4    4    0  502 -0.60450810949E+01  0.32791632634E+02  0.66293673647E+02  0.74355735097E+02  0.47000000000E+01 0. -1.
          5    1    5    5  503    0 -0.38827369136E+02  0.79785021906E+02  0.44630928452E+03  0.45506843635E+03  0.47000000000E+01 0.  1.
         -5    1    5    5    0  503  0.35114561702E+02 -0.23678668004E+02  0.11491904894E+03  0.12256504221E+03  0.47000000000E+01 0.  1.
<mgrwt>
<rscale>  0 0.27600002E+03</rscale>
<asrwt>0</asrwt>
<pdfrwt beam="1">  1        2 0.18590946E+00 0.27600002E+03</pdfrwt>
<pdfrwt beam="2">  1       -2 0.24245438E-02 0.27600002E+03</pdfrwt>
<totfact> 0.11479777E+04</totfact>
</mgrwt>
</event>
<event>
 8    1  0.7986988E-001  0.3476210E+03  0.7818608E-02  0.1063596E+00
         -2   -1    0    0    0  501 -0.00000000000E+00  0.00000000000E+00  0.42219590349E+02  0.42219590349E+02  0.00000000000E+00 0.  1.
          2   -1    0    0  501    0  0.00000000000E+00 -0.00000000000E+00 -0.71554669500E+03  0.71554669500E+03  0.00000000000E+00 0.  1.
         25    2    1    2    0    0 -0.27004814577E+02  0.10718018655E+03 -0.21496294513E+03  0.27056876201E+03  0.12157933540E+03 0.  0.
         25    2    1    2    0    0  0.27004814577E+02 -0.10718018655E+03 -0.45836415952E+03  0.48719752334E+03  0.12266569047E+03 0.  0.
          5    1    3    3  502    0 -0.27975534539E+02  0.56732687879E+02 -0.16225095960E+02  0.65471918756E+02  0.47000000000E+01 0.  1.
         -5    1    3    3    0  502  0.97071996121E+00  0.50447498668E+02 -0.19873784917E+03  0.20509684325E+03  0.47000000000E+01 0.  1.
          5    1    4    4  503    0 -0.15865076169E+02 -0.88578769877E+02 -0.40998108699E+03  0.41976717452E+03  0.47000000000E+01 0.  1.
         -5    1    4    4    0  503  0.42869890746E+02 -0.18601416670E+02 -0.48383072533E+02  0.67430348824E+02  0.47000000000E+01 0.  1.
<mgrwt>
<rscale>  0 0.34762099E+03</rscale>
<asrwt>0</asrwt>
<pdfrwt beam="1">  1        2 0.11008411E+00 0.34762099E+03</pdfrwt>
<pdfrwt beam="2">  1       -2 0.64953215E-02 0.34762099E+03</pdfrwt>
<totfact> 0.53659125E+03</totfact>
</mgrwt>
</event>
<event>
 9    1  0.7986988E-001  0.2719914E+03  0.7818608E-02  0.1100145E+00
         -1   -1    0    0    0  501 -0.00000000000E+00  0.00000000000E+00  0.20518783901E+03  0.20518783901E+03  0.00000000000E+00 0.  1.
          1   -1    0    0  501    0  0.00000000000E+00 -0.00000000000E+00 -0.90136081434E+02  0.90136081434E+02  0.00000000000E+00 0.  1.
         35    2    1    2    0    0  0.00000000000E+00  0.00000000000E+00  0.11505175757E+03  0.29532392044E+03  0.27199138049E+03 0.  0.
         25    2    3    3    0    0  0.26399279891E+02  0.46748945700E+02  0.59061886392E+02  0.14824472728E+03  0.12492320376E+03 0.  0.
         25    2    3    3    0    0 -0.26399279891E+02 -0.46748945700E+02  0.55989871180E+02  0.14707919316E+03  0.12496014358E+03 0.  0.
          5    1    4    4  502    0 -0.63443129980E+01 -0.21463885552E+02 -0.25783182646E+02  0.34464636916E+02  0.47000000000E+01 0.  1.
         -5    1    4    4    0  502  0.32743592889E+02  0.68212831251E+02  0.84845069039E+02  0.11378009036E+03  0.47000000000E+01 0.  1.
          5    1    5    5  503    0 -0.70414783704E+02 -0.53087494998E+02  0.51269389977E+02  0.10211348705E+03  0.47000000000E+01 0.  1.
         -5    1    5    5    0  503  0.44015503813E+02  0.63385492983E+01  0.47204812033E+01  0.44965706110E+02  0.47000000000E+01 0.  1.
<mgrwt>
<rscale>  0 0.27199138E+03</rscale>
<asrwt>0</asrwt>
<pdfrwt beam="1">  1        1 0.13867090E-01 0.27199138E+03</pdfrwt>
<pdfrwt beam="2">  1       -1 0.31567360E-01 0.27199138E+03</pdfrwt>
<totfact> 0.38482281E+03</totfact>
</mgrwt>
</event>
<event>
 9    1  0.7986988E-001  0.2748998E+03  0.7818608E-02  0.1098508E+00
         -1   -1    0    0    0  501 -0.00000000000E+00  0.00000000000E+00  0.13308071547E+04  0.13308071547E+04  0.00000000000E+00 0.  1.
          1   -1    0    0  501    0  0.00000000000E+00 -0.00000000000E+00 -0.14196252688E+02  0.14196252688E+02  0.00000000000E+00 0.  1.
         35    2    1    2    0    0 -0.71054273576E-14 -0.14210854715E-13  0.13166109020E+04  0.13450034074E+04  0.27489979736E+03 0.  0.
         25    2    3    3    0    0 -0.46437369619E+02 -0.29377916357E+02  0.58535839151E+03  0.60109627276E+03  0.12511111600E+03 0.  0.
         25    2    3    3    0    0  0.46437369619E+02  0.29377916357E+02  0.73125251052E+03  0.74390713465E+03  0.12509236415E+03 0.  0.
          5    1    4    4  502    0 -0.58565543383E+02  0.35598380315E+02  0.34485892402E+03  0.35163466130E+03  0.47000000000E+01 0.  1.
         -5    1    4    4    0  502  0.12128173764E+02 -0.64976296673E+02  0.24049946749E+03  0.24946161146E+03  0.47000000000E+01 0.  1.
          5    1    5    5  503    0  0.27630769614E+02  0.62865666269E+02  0.20525765838E+03  0.21649098768E+03  0.47000000000E+01 0.  1.
         -5    1    5    5    0  503  0.18806600005E+02 -0.33487749911E+02  0.52599485214E+03  0.52741614696E+03  0.47000000000E+01 0.  1.
<mgrwt>
<rscale>  0 0.27489980E+03</rscale>
<asrwt>0</asrwt>
<pdfrwt beam="1">  1        1 0.21840399E-02 0.27489980E+03</pdfrwt>
<pdfrwt beam="2">  1       -1 0.20473946E+00 0.27489980E+03</pdfrwt>
<totfact> 0.82904724E+02</totfact>
</mgrwt>
</event>
<event>
 9    1  0.7986988E-001  0.2737163E+03  0.7818608E-02  0.1099171E+00
          2   -1    0    0  501    0  0.00000000000E+00  0.00000000000E+00  0.11614335004E+03  0.11614335004E+03  0.00000000000E+00 0. -1.
         -2   -1    0    0    0  501 -0.00000000000E+00 -0.00000000000E+00 -0.16126755566E+03  0.16126755566E+03  0.00000000000E+00 0. -1.
         35    2    1    2    0    0  0.17763568394E-14  0.35527136788E-14 -0.45124205618E+02  0.27741090571E+03  0.27371630692E+03 0.  0.
         25    2    3    3    0    0  0.88226535819E+01  0.14062941290E+02  0.31369847291E+02  0.13001061281E+03  0.12507232544E+03 0.  0.
         25    2    3    3    0    0 -0.88226535819E+01 -0.14062941290E+02 -0.76494052909E+02  0.14740029289E+03  0.12489956237E+03 0.  0.
          5    1    4    4  502    0  0.19166405163E+02  0.67836198418E+02  0.11553289632E+02  0.71586796297E+02  0.47000000000E+01 0.  1.
         -5    1    4    4    0  502 -0.10343751581E+02 -0.53773257128E+02  0.19816557659E+02  0.58423816517E+02  0.47000000000E+01 0.  1.
          5    1    5    5  503    0  0.19425665434E+01  0.30156085775E+02  0.22751252839E+02  0.38116565687E+02  0.47000000000E+01 0.  1.
         -5    1    5    5    0  503 -0.10765220125E+02 -0.44219027065E+02 -0.99245305748E+02  0.10928372721E+03  0.47000000000E+01 0.  1.
<mgrwt>
<rscale>  0 0.27371631E+03</rscale>
<asrwt>0</asrwt>
<pdfrwt beam="1">  1        2 0.17868208E-01 0.27371631E+03</pdfrwt>
<pdfrwt beam="2">  1       -2 0.24810393E-01 0.27371631E+03</pdfrwt>
<totfact> 0.45331788E+03</totfact>
</mgrwt>
</event>
<event>
 9    1  0.7986988E-001  0.2746418E+03  0.7818608E-02  0.1098652E+00
          2   -1    0    0  501    0  0.00000000000E+00  0.00000000000E+00  0.22856764898E+04  0.22856764898E+04  0.00000000000E+00 0. -1.
         -2   -1    0    0    0  501 -0.00000000000E+00 -0.00000000000E+00 -0.82500897932E+01  0.82500897932E+01  0.00000000000E+00 0. -1.
         35    2    1    2    0    0 -0.53290705182E-14  0.00000000000E+00  0.22774264000E+04  0.22939265796E+04  0.27464184881E+03 0.  0.
         25    2    3    3    0    0 -0.68449966314E+01  0.46520141124E+01  0.16065444967E+04  0.16115201766E+04  0.12626782866E+03 0.  0.
         25    2    3    3    0    0  0.68449966314E+01 -0.46520141124E+01  0.67088190334E+03  0.68240640301E+03  0.12460929108E+03 0.  0.
          5    1    4    4  502    0  0.23345908701E+01  0.40709300387E+02  0.18576038363E+03  0.19024118265E+03  0.47000000000E+01 0. -1.
         -5    1    4    4    0  502 -0.91795875015E+01 -0.36057286274E+02  0.14207841131E+04  0.14212789940E+04  0.47000000000E+01 0. -1.
          5    1    5    5  503    0  0.63441343268E+02 -0.71618963912E+01  0.43981547572E+03  0.44445004160E+03  0.47000000000E+01 0. -1.
         -5    1    5    5    0  503 -0.56596346637E+02  0.25098822788E+01  0.23106642762E+03  0.23795636140E+03  0.47000000000E+01 0. -1.
<mgrwt>
<rscale>  0 0.27464185E+03</rscale>
<asrwt>0</asrwt>
<pdfrwt beam="1">  1        2 0.35164203E+00 0.27464185E+03</pdfrwt>
<pdfrwt beam="2">  1       -2 0.12692464E-02 0.27464185E+03</pdfrwt>
<totfact> 0.78936217E+03</totfact>
</mgrwt>
</event>
<event>
 9    1  0.7986988E-001  0.2757089E+03  0.7818608E-02  0.1098056E+00
          1   -1    0    0  501    0  0.00000000000E+00  0.00000000000E+00  0.48091350639E+02  0.48091350639E+02  0.00000000000E+00 0.  1.
         -1   -1    0    0    0  501 -0.00000000000E+00 -0.00000000000E+00 -0.39516144460E+03  0.39516144460E+03  0.00000000000E+00 0.  1.
         35    2    1    2    0    0 -0.71054273576E-14  0.00000000000E+00 -0.34707009396E+03  0.44325279524E+03  0.27570888699E+03 0.  0.
         25    2    3    3    0    0  0.39641893249E+02  0.43208052426E+02 -0.21253118479E+03  0.25346188382E+03  0.12504001978E+03 0.  0.
         25    2    3    3    0    0 -0.39641893249E+02 -0.43208052426E+02 -0.13453890917E+03  0.18979091142E+03  0.12033892338E+03 0.  0.
          5    1    4    4  502    0 -0.38249566498E+02  0.33923375717E+01 -0.11981172157E+03  0.12590264460E+03  0.47000000000E+01 0.  1.
         -5    1    4    4    0  502  0.77891459747E+02  0.39815714854E+02 -0.92719463215E+02  0.12755923922E+03  0.47000000000E+01 0.  1.
          5    1    5    5  503    0 -0.11795764346E+02 -0.82182284575E+02 -0.66644947572E+02  0.10656785158E+03  0.47000000000E+01 0.  1.
         -5    1    5    5    0  503 -0.27846128904E+02  0.38974232149E+02 -0.67893961599E+02  0.83223059834E+02  0.47000000000E+01 0.  1.
<mgrwt>
<rscale>  0 0.27570889E+03</rscale>
<asrwt>0</asrwt>
<pdfrwt beam="1">  1        1 0.73986692E-02 0.27570889E+03</pdfrwt>
<pdfrwt beam="2">  1       -1 0.60794069E-01 0.27570889E+03</pdfrwt>
<totfact> 0.27340867E+03</totfact>
</mgrwt>
</event>
<event>
 9    1  0.7986988E-001  0.2748722E+03  0.7818608E-02  0.1098523E+00
          2   -1    0    0  501    0  0.00000000000E+00  0.00000000000E+00  0.93312519422E+03  0.93312519422E+03  0.00000000000E+00 0.  1.
         -2   -1    0    0    0  501 -0.00000000000E+00 -0.00000000000E+00 -0.20242381728E+02  0.20242381728E+02  0.00000000000E+00 0.  1.
         35    2    1    2    0    0 -0.14210854715E-13  0.00000000000E+00  0.91288281249E+03  0.95336757595E+03  0.27487216215E+03 0.  0.
         25    2    3    3    0    0 -0.53441069961E+02 -0.17153917943E+02  0.48520229879E+03  0.50415241268E+03  0.12489267235E+03 0.  0.
         25    2    3    3    0    0  0.53441069961E+02  0.17153917943E+02  0.42768051371E+03  0.44921516327E+03  0.12543299504E+03 0.  0.
          5    1    4    4  502    0 -0.49524481248E+02 -0.50567075664E+02  0.44876741722E+03  0.45433906737E+03  0.47000000000E+01 0.  1.
         -5    1    4    4    0  502 -0.39165887127E+01  0.33413157721E+02  0.36434881568E+02  0.49813345309E+02  0.47000000000E+01 0.  1.
          5    1    5    5  503    0  0.18223469587E+02  0.35463768100E+02  0.31518648204E+02  0.51042030487E+02  0.47000000000E+01 0.  1.
         -5    1    5    5    0  503  0.35217600373E+02 -0.18309850157E+02  0.39616186550E+03  0.39817313278E+03  0.47000000000E+01 0.  1.
<mgrwt>
<rscale>  0 0.27487216E+03</rscale>
<asrwt>0</asrwt>
<pdfrwt beam="1">  1        2 0.14355769E+00 0.27487216E+03</pdfrwt>
<pdfrwt beam="2">  1       -2 0.31142133E-02 0.27487216E+03</pdfrwt>
<totfact> 0.11551391E+04</totfact>
</mgrwt>
</event>
<event>
 9    1  0.7986988E-001  0.2751980E+03  0.7818608E-02  0.1098341E+00
          1   -1    0    0  501    0  0.00000000000E+00  0.00000000000E+00  0.45387265223E+03  0.45387265223E+03  0.00000000000E+00 0. -1.
         -1   -1    0    0    0  501 -0.00000000000E+00 -0.00000000000E+00 -0.41715409286E+02  0.41715409286E+02  0.00000000000E+00 0. -1.
         35    2    1    2    0    0  0.00000000000E+00 -0.14210854715E-13  0.41215724294E+03  0.49558806151E+03  0.27519799019E+03 0.  0.
         25    2    3    3    0    0 -0.14871656432E+02  0.51478850400E+02  0.15983288763E+03  0.20967144259E+03  0.12467687703E+03 0.  0.
         25    2    3    3    0    0  0.14871656432E+02 -0.51478850400E+02  0.25232435531E+03  0.28591661892E+03  0.12332677929E+03 0.  0.
          5    1    4    4  502    0 -0.32055997533E+02  0.23938303645E+02 -0.59099106851E+01  0.40714203954E+02  0.47000000000E+01 0. -1.
         -5    1    4    4    0  502  0.17184341102E+02  0.27540546755E+02  0.16574279831E+03  0.16895723863E+03  0.47000000000E+01 0. -1.
          5    1    5    5  503    0  0.33780117823E+02  0.29687230016E+02  0.52072684262E+02  0.68964356246E+02  0.47000000000E+01 0.  1.
         -5    1    5    5    0  503 -0.18908461392E+02 -0.81166080416E+02  0.20025167105E+03  0.21695226268E+03  0.47000000000E+01 0.  1.
<mgrwt>
<rscale>  0 0.27519799E+03</rscale>
<asrwt>0</asrwt>
<pdfrwt beam="1">  1        1 0.69826558E-01 0.27519799E+03</pdfrwt>
<pdfrwt beam="2">  1       -1 0.64177556E-02 0.27519799E+03</pdfrwt>
<totfact> 0.61632960E+03</totfact>
</mgrwt>
</event>
<event>
 9    1  0.7986988E-001  0.2738215E+03  0.7818608E-02  0.1099112E+00
         -2   -1    0    0    0  501 -0.00000000000E+00  0.00000000000E+00  0.83077365147E+01  0.83077365147E+01  0.00000000000E+00 0.  1.
          2   -1    0    0  501    0  0.00000000000E+00 -0.00000000000E+00 -0.22562770723E+04  0.22562770723E+04  0.00000000000E+00 0.  1.
         35    2    1    2    0    0  0.00000000000E+00  0.71054273576E-14 -0.22479693358E+04  0.22645848088E+04  0.27382151428E+03 0.  0.
         25    2    3    3    0    0  0.19716180773E+01 -0.53448260054E+02 -0.11197436515E+04  0.11279449658E+04  0.12479341698E+03 0.  0.
         25    2    3    3    0    0 -0.19716180773E+01  0.53448260054E+02 -0.11282256843E+04  0.11366398430E+04  0.12726481982E+03 0.  0.
          5    1    4    4  502    0  0.31933096378E+02 -0.77787512299E+02 -0.95357686147E+03  0.95728864009E+03  0.47000000000E+01 0. -1.
         -5    1    4    4    0  502 -0.29961478301E+02  0.24339252245E+02 -0.16616679007E+03  0.17065632571E+03  0.47000000000E+01 0. -1.
          5    1    5    5  503    0 -0.52503444282E+02 -0.76877750313E+01 -0.30781634733E+03  0.31239191288E+03  0.47000000000E+01 0.  1.
         -5    1    5    5    0  503  0.50531826205E+02  0.61136035086E+02 -0.82040933693E+03  0.82424793015E+03  0.47000000000E+01 0.  1.
<mgrwt>
<rscale>  0 0.27382151E+03</rscale>
<asrwt>0</asrwt>
<pdfrwt beam="1">  1        2 0.34712002E+00 0.27382151E+03</pdfrwt>
<pdfrwt beam="2">  1       -2 0.12781116E-02 0.27382151E+03</pdfrwt>
<totfact> 0.81019481E+03</totfact>
</mgrwt>
</event>
<event>
 9    1  0.7986988E-001  0.2765148E+03  0.7818608E-02  0.1097608E+00
         -4   -1    0    0    0  501 -0.00000000000E+00  0.00000000000E+00  0.10742749973E+04  0.10742749973E+04  0.00000000000E+00 0. -1.
          4   -1    0    0  501    0  0.00000000000E+00 -0.00000000000E+00 -0.17793495444E+02  0.17793495444E+02  0.00000000000E+00 0. -1.
         35    2    1    2    0    0  0.00000000000E+00  0.71054273576E-14  0.10564815019E+04  0.10920684928E+04  0.27651478999E+03 0.  0.
         25    2    3    3    0    0  0.31493964477E+02  0.38928482851E+02  0.40203650485E+03  0.42402107450E+03  0.12511284433E+03 0.  0.
         25    2    3    3    0    0 -0.31493964477E+02 -0.38928482851E+02  0.65444499702E+03  0.66804741826E+03  0.12442589094E+03 0.  0.
          5    1    4    4  502    0  0.97300717969E+01  0.80631375468E+02  0.18835546157E+03  0.20517300726E+03  0.47000000000E+01 0.  1.
         -5    1    4    4    0  502  0.21763892680E+02 -0.41702892617E+02  0.21368104328E+03  0.21884806724E+03  0.47000000000E+01 0.  1.
          5    1    5    5  503    0 -0.78962080632E+02 -0.19538084911E+02  0.35714724822E+03  0.36632361902E+03  0.47000000000E+01 0.  1.
         -5    1    5    5    0  503  0.47468116155E+02 -0.19390397940E+02  0.29729774880E+03  0.30172379923E+03  0.47000000000E+01 0.  1.
<mgrwt>
<rscale>  0 0.27651479E+03</rscale>
<asrwt>0</asrwt>
<pdfrwt beam="1">  1        4 0.27374617E-02 0.27651479E+03</pdfrwt>
<pdfrwt beam="2">  1       -4 0.16527303E+00 0.27651479E+03</pdfrwt>
<totfact> 0.28581242E+02</totfact>
</mgrwt>
</event>
<event>
 9    1  0.7986988E-001  0.2757271E+03  0.7818608E-02  0.1098046E+00
          2   -1    0    0  501    0  0.00000000000E+00  0.00000000000E+00  0.10748253265E+04  0.10748253265E+04  0.00000000000E+00 0.  1.
         -2   -1    0    0    0  501 -0.00000000000E+00 -0.00000000000E+00 -0.17683209602E+02  0.17683209602E+02  0.00000000000E+00 0.  1.
         35    2    1    2    0    0  0.00000000000E+00  0.00000000000E+00  0.10571421169E+04  0.10925085361E+04  0.27572712259E+03 0.  0.
         25    2    3    3    0    0  0.34131118066E+02 -0.48447644308E+02  0.53494631883E+03  0.55250068874E+03  0.12480921267E+03 0.  0.
         25    2    3    3    0    0 -0.34131118066E+02  0.48447644308E+02  0.52219579804E+03  0.54000784733E+03  0.12412862777E+03 0.  0.
          5    1    4    4  502    0 -0.10292875886E+02 -0.64875452329E+02  0.14021358650E+03  0.15490870682E+03  0.47000000000E+01 0.  1.
         -5    1    4    4    0  502  0.44423993953E+02  0.16427808021E+02  0.39473273233E+03  0.39759198192E+03  0.47000000000E+01 0.  1.
          5    1    5    5  503    0 -0.61915655162E+01 -0.26157726241E+02  0.26878358525E+02  0.38302718998E+02  0.47000000000E+01 0. -1.
         -5    1    5    5    0  503 -0.27939552550E+02  0.74605370549E+02  0.49531743951E+03  0.50170512833E+03  0.47000000000E+01 0. -1.
<mgrwt>
<rscale>  0 0.27572712E+03</rscale>
<asrwt>0</asrwt>
<pdfrwt beam="1">  1        2 0.16535769E+00 0.27572712E+03</pdfrwt>
<pdfrwt beam="2">  1       -2 0.27204946E-02 0.27572712E+03</pdfrwt>
<totfact> 0.11566881E+04</totfact>
</mgrwt>
</event>
<event>
 9    1  0.7986988E-001  0.2766318E+03  0.7818608E-02  0.1097543E+00
          2   -1    0    0  501    0  0.00000000000E+00  0.00000000000E+00  0.64689926688E+03  0.64689926688E+03  0.00000000000E+00 0.  1.
         -2   -1    0    0    0  501 -0.00000000000E+00 -0.00000000000E+00 -0.29573829994E+02  0.29573829994E+02  0.00000000000E+00 0.  1.
         35    2    1    2    0    0  0.00000000000E+00  0.00000000000E+00  0.61732543688E+03  0.67647309687E+03  0.27663180542E+03 0.  0.
         25    2    3    3    0    0 -0.26134236331E+02 -0.35218283611E+02  0.40981955993E+03  0.43055130759E+03  0.12449510416E+03 0.  0.
         25    2    3    3    0    0  0.26134236331E+02  0.35218283611E+02  0.20750587696E+03  0.24592178928E+03  0.12448096908E+03 0.  0.
          5    1    4    4  502    0  0.28398923423E+02 -0.36510200804E+02  0.57224549951E+02  0.73730812632E+02  0.47000000000E+01 0. -1.
         -5    1    4    4    0  502 -0.54533159754E+02  0.12919171928E+01  0.35259500998E+03  0.35682049496E+03  0.47000000000E+01 0. -1.
          5    1    5    5  503    0 -0.15769419673E+02  0.36471952436E+02  0.19887851553E+03  0.20286357941E+03  0.47000000000E+01 0.  1.
         -5    1    5    5    0  503  0.41903656004E+02 -0.12536688249E+01  0.86273614243E+01  0.43058209870E+02  0.47000000000E+01 0.  1.
<mgrwt>
<rscale>  0 0.27663181E+03</rscale>
<asrwt>0</asrwt>
<pdfrwt beam="1">  1        2 0.99522954E-01 0.27663181E+03</pdfrwt>
<pdfrwt beam="2">  1       -2 0.45498205E-02 0.27663181E+03</pdfrwt>
<totfact> 0.10390907E+04</totfact>
</mgrwt>
</event>
<event>
 9    1  0.7986988E-001  0.2756485E+03  0.7818608E-02  0.1098090E+00
         -2   -1    0    0    0  501 -0.00000000000E+00  0.00000000000E+00  0.54791957518E+03  0.54791957518E+03  0.00000000000E+00 0. -1.
          2   -1    0    0  501    0  0.00000000000E+00 -0.00000000000E+00 -0.34668450629E+02  0.34668450629E+02  0.00000000000E+00 0. -1.
         35    2    1    2    0    0 -0.17763568394E-14  0.00000000000E+00  0.51325112455E+03  0.58258802581E+03  0.27564849167E+03 0.  0.
         25    2    3    3    0    0  0.92679991698E+01  0.35725192097E+02  0.21179406867E+03  0.25423143265E+03  0.13570080569E+03 0.  0.
         25    2    3    3    0    0 -0.92679991698E+01 -0.35725192097E+02  0.30145705588E+03  0.32835659316E+03  0.12481790966E+03 0.  0.
          5    1    4    4  502    0 -0.55688875397E+00  0.36397720930E+02  0.23005177215E+03  0.23296139612E+03  0.47000000000E+01 0. -1.
         -5    1    4    4    0  502  0.98248879238E+01 -0.67252883347E+00 -0.18257703476E+02  0.21270036529E+02  0.47000000000E+01 0. -1.
          5    1    5    5  503    0  0.16923266188E+02  0.48896277489E+01  0.26975006350E+03  0.27036547886E+03  0.47000000000E+01 0. -1.
         -5    1    5    5    0  503 -0.26191265358E+02 -0.40614819846E+02  0.31706992373E+02  0.57991114298E+02  0.47000000000E+01 0. -1.
<mgrwt>
<rscale>  0 0.27564849E+03</rscale>
<asrwt>0</asrwt>
<pdfrwt beam="1">  1        2 0.53336082E-02 0.27564849E+03</pdfrwt>
<pdfrwt beam="2">  1       -2 0.84295312E-01 0.27564849E+03</pdfrwt>
<totfact> 0.18261956E+03</totfact>
</mgrwt>
</event>
<event>
 9    1  0.7986988E-001  0.2751597E+03  0.7818608E-02  0.1098362E+00
          2   -1    0    0  501    0  0.00000000000E+00  0.00000000000E+00  0.32857530868E+04  0.32857530868E+04  0.00000000000E+00 0.  1.
         -2   -1    0    0    0  501 -0.00000000000E+00 -0.00000000000E+00 -0.57606931155E+01  0.57606931155E+01  0.00000000000E+00 0.  1.
         35    2    1    2    0    0 -0.35527136788E-14  0.00000000000E+00  0.32799923937E+04  0.32915137799E+04  0.27515970044E+03 0.  0.
         25    2    3    3    0    0 -0.22698097460E+02  0.50558156976E+02  0.16653421518E+04  0.16711719893E+04  0.12798439108E+03 0.  0.
         25    2    3    3    0    0  0.22698097460E+02 -0.50558156976E+02  0.16146502418E+04  0.16203417906E+04  0.12385791845E+03 0.  0.
          5    1    4    4  502    0 -0.18418173106E+02  0.58180275067E+02  0.32043528992E+03  0.32622850662E+03  0.47000000000E+01 0.  1.
         -5    1    4    4    0  502 -0.42799243542E+01 -0.76221180905E+01  0.13449068619E+04  0.13449434827E+04  0.47000000000E+01 0.  1.
          5    1    5    5  503    0  0.69943152520E+01 -0.62250837257E+02  0.15711745953E+04  0.15724298987E+04  0.47000000000E+01 0. -1.
         -5    1    5    5    0  503  0.15703782208E+02  0.11692680281E+02  0.43475646473E+02  0.47911891885E+02  0.47000000000E+01 0. -1.
<mgrwt>
<rscale>  0 0.27515970E+03</rscale>
<asrwt>0</asrwt>
<pdfrwt beam="1">  1        2 0.50549898E+00 0.27515970E+03</pdfrwt>
<pdfrwt beam="2">  1       -2 0.88626310E-03 0.27515970E+03</pdfrwt>
<totfact> 0.35427540E+03</totfact>
</mgrwt>
</event>
<event>
 9    1  0.7986988E-001  0.2715309E+03  0.7818608E-02  0.1100407E+00
         -1   -1    0    0    0  501 -0.00000000000E+00  0.00000000000E+00  0.53012037704E+02  0.53012037704E+02  0.00000000000E+00 0.  1.
          1   -1    0    0  501    0  0.00000000000E+00 -0.00000000000E+00 -0.34769943938E+03  0.34769943938E+03  0.00000000000E+00 0.  1.
         35    2    1    2    0    0  0.35527136788E-14  0.71054273576E-14 -0.29468740168E+03  0.40071147709E+03  0.27153088804E+03 0.  0.
         25    2    3    3    0    0 -0.12629348053E+02  0.29483924971E+02 -0.90467687652E+02  0.15906330279E+03  0.12683820213E+03 0.  0.
         25    2    3    3    0    0  0.12629348053E+02 -0.29483924971E+02 -0.20421971403E+03  0.24164817430E+03  0.12513730971E+03 0.  0.
          5    1    4    4  502    0 -0.68423604518E+02  0.29715788670E+02 -0.48746389751E+02  0.89236305758E+02  0.47000000000E+01 0. -1.
         -5    1    4    4    0  502  0.55794256465E+02 -0.23186369924E+00 -0.41721297901E+02  0.69826997027E+02  0.47000000000E+01 0. -1.
          5    1    5    5  503    0  0.37698301060E+02 -0.60473763951E+02 -0.64342047682E+02  0.96126100145E+02  0.47000000000E+01 0.  1.
         -5    1    5    5    0  503 -0.25068953007E+02  0.30989838980E+02 -0.13987766634E+03  0.14552207416E+03  0.47000000000E+01 0.  1.
<mgrwt>
<rscale>  0 0.27153089E+03</rscale>
<asrwt>0</asrwt>
<pdfrwt beam="1">  1        1 0.53492221E-01 0.27153089E+03</pdfrwt>
<pdfrwt beam="2">  1       -1 0.81556982E-02 0.27153089E+03</pdfrwt>
<totfact> 0.60243474E+03</totfact>
</mgrwt>
</event>
<event>
 9    1  0.7986988E-001  0.2822267E+03  0.7818608E-02  0.1094479E+00
          2   -1    0    0  501    0  0.00000000000E+00  0.00000000000E+00  0.25290685344E+04  0.25290685344E+04  0.00000000000E+00 0. -1.
         -2   -1    0    0    0  501 -0.00000000000E+00 -0.00000000000E+00 -0.78736422512E+01  0.78736422512E+01  0.00000000000E+00 0. -1.
         35    2    1    2    0    0  0.71054273576E-14  0.00000000000E+00  0.25211948921E+04  0.25369421766E+04  0.28222672353E+03 0.  0.
         25    2    3    3    0    0  0.29141562879E+02 -0.20224547483E+02  0.16764508263E+04  0.16821163760E+04  0.13330366250E+03 0.  0.
         25    2    3    3    0    0 -0.29141562879E+02  0.20224547483E+02  0.84474406587E+03  0.85482580066E+03  0.12600138747E+03 0.  0.
          5    1    4    4  502    0 -0.43479502478E+02 -0.69705312272E+01  0.26070671649E+03  0.26444117959E+03  0.47000000000E+01 0.  1.
         -5    1    4    4    0  502  0.72621065357E+02 -0.13254016256E+02  0.14157441098E+04  0.14176751964E+04  0.47000000000E+01 0.  1.
          5    1    5    5  503    0 -0.42475366470E+02  0.46164839296E+02  0.79099625778E+03  0.79349386826E+03  0.47000000000E+01 0.  1.
         -5    1    5    5    0  503  0.13333803590E+02 -0.25940291812E+02  0.53747808088E+02  0.61331932399E+02  0.47000000000E+01 0.  1.
<mgrwt>
<rscale>  0 0.28222672E+03</rscale>
<asrwt>0</asrwt>
<pdfrwt beam="1">  1        2 0.38908682E+00 0.28222672E+03</pdfrwt>
<pdfrwt beam="2">  1       -2 0.12113316E-02 0.28222672E+03</pdfrwt>
<totfact> 0.62335201E+03</totfact>
</mgrwt>
</event>
<event>
 9    1  0.7986988E-001  0.2760076E+03  0.7818608E-02  0.1097890E+00
         -4   -1    0    0    0  501 -0.00000000000E+00  0.00000000000E+00  0.10673390096E+02  0.10673390096E+02  0.00000000000E+00 0. -1.
          4   -1    0    0  501    0  0.00000000000E+00 -0.00000000000E+00 -0.17843482359E+04  0.17843482359E+04  0.00000000000E+00 0. -1.
         35    2    1    2    0    0  0.00000000000E+00  0.00000000000E+00 -0.17736748458E+04  0.17950216260E+04  0.27600757082E+03 0.  0.
         25    2    3    3    0    0  0.14008867469E+02 -0.91140617405E+01 -0.52694946260E+03  0.54161911070E+03  0.12408146700E+03 0.  0.
         25    2    3    3    0    0 -0.14008867469E+02  0.91140617405E+01 -0.12467253832E+04  0.12534025153E+04  0.12811857684E+03 0.  0.
          5    1    4    4  502    0  0.68582037126E+02 -0.14535557084E+00 -0.32430675665E+03  0.33151241207E+03  0.47000000000E+01 0.  1.
         -5    1    4    4    0  502 -0.54573169657E+02 -0.89687061696E+01 -0.20264270595E+03  0.21010669863E+03  0.47000000000E+01 0.  1.
          5    1    5    5  503    0  0.40986985353E+02  0.46768410717E+02 -0.59008345252E+03  0.59336985780E+03  0.47000000000E+01 0. -1.
         -5    1    5    5    0  503 -0.54995852823E+02 -0.37654348977E+02 -0.65664193066E+03  0.66003265747E+03  0.47000000000E+01 0. -1.
<mgrwt>
<rscale>  0 0.27600757E+03</rscale>
<asrwt>0</asrwt>
<pdfrwt beam="1">  1        4 0.27451500E+00 0.27600757E+03</pdfrwt>
<pdfrwt beam="2">  1       -4 0.16420607E-02 0.27600757E+03</pdfrwt>
<totfact> 0.13211529E+02</totfact>
</mgrwt>
</event>
<event>
 9    1  0.7986988E-001  0.2717269E+03  0.7818608E-02  0.1100295E+00
         -1   -1    0    0    0  501 -0.00000000000E+00  0.00000000000E+00  0.36881009273E+02  0.36881009273E+02  0.00000000000E+00 0.  1.
          1   -1    0    0  501    0  0.00000000000E+00 -0.00000000000E+00 -0.50049819882E+03  0.50049819882E+03  0.00000000000E+00 0.  1.
         35    2    1    2    0    0  0.71054273576E-14  0.00000000000E+00 -0.46361718955E+03  0.53737920809E+03  0.27172691226E+03 0.  0.
         25    2    3    3    0    0  0.41703932636E+02 -0.32433542137E+02 -0.20402062689E+03  0.24447658262E+03  0.12390815389E+03 0.  0.
         25    2    3    3    0    0 -0.41703932636E+02  0.32433542137E+02 -0.25959656265E+03  0.29290262547E+03  0.12494166644E+03 0.  0.
          5    1    4    4  502    0  0.18994619709E+02 -0.96104161715E+01  0.12765204684E+02  0.25262543963E+02  0.47000000000E+01 0.  1.
         -5    1    4    4    0  502  0.22709312928E+02 -0.22823125965E+02 -0.21678583158E+03  0.21921403866E+03  0.47000000000E+01 0.  1.
          5    1    5    5  503    0  0.25843821772E+02 -0.10502003522E+02 -0.17136400984E+03  0.17368335864E+03  0.47000000000E+01 0.  1.
         -5    1    5    5    0  503 -0.67547754409E+02  0.42935545659E+02 -0.88232552815E+02  0.11921926683E+03  0.47000000000E+01 0.  1.
<mgrwt>
<rscale>  0 0.27172691E+03</rscale>
<asrwt>0</asrwt>
<pdfrwt beam="1">  1        1 0.76999726E-01 0.27172691E+03</pdfrwt>
<pdfrwt beam="2">  1       -1 0.56740012E-02 0.27172691E+03</pdfrwt>
<totfact> 0.65226940E+03</totfact>
</mgrwt>
</event>
<event>
 9    1  0.7986988E-001  0.2771395E+03  0.7818608E-02  0.1097262E+00
          1   -1    0    0  501    0  0.00000000000E+00  0.00000000000E+00  0.12679080815E+03  0.12679080815E+03  0.00000000000E+00 0.  1.
         -1   -1    0    0    0  501 -0.00000000000E+00 -0.00000000000E+00 -0.15144296924E+03  0.15144296924E+03  0.00000000000E+00 0.  1.
         35    2    1    2    0    0  0.00000000000E+00  0.00000000000E+00 -0.24652161092E+02  0.27823377739E+03  0.27713950608E+03 0.  0.
         25    2    3    3    0    0 -0.47245745359E+02 -0.22049725401E+02  0.17878791107E+02  0.13672789070E+03  0.12512599282E+03 0.  0.
         25    2    3    3    0    0  0.47245745359E+02  0.22049725401E+02 -0.42530952198E+02  0.14150588669E+03  0.12448567479E+03 0.  0.
          5    1    4    4  502    0 -0.85506850207E+02  0.71956577584E+01  0.25668029500E+01  0.85976028056E+02  0.47000000000E+01 0. -1.
         -5    1    4    4    0  502  0.38261104848E+02 -0.29245383159E+02  0.15311988157E+02  0.50751862642E+02  0.47000000000E+01 0. -1.
          5    1    5    5  503    0  0.86722357562E+02  0.29355287573E+02 -0.15754498578E+02  0.93020397951E+02  0.47000000000E+01 0. -1.
         -5    1    5    5    0  503 -0.39476612203E+02 -0.73055621720E+01 -0.26776453621E+02  0.48485488738E+02  0.47000000000E+01 0. -1.
<mgrwt>
<rscale>  0 0.27713951E+03</rscale>
<asrwt>0</asrwt>
<pdfrwt beam="1">  1        1 0.19506278E-01 0.27713951E+03</pdfrwt>
<pdfrwt beam="2">  1       -1 0.23298918E-01 0.27713951E+03</pdfrwt>
<totfact> 0.41095390E+03</totfact>
</mgrwt>
</event>
<event>
 9    1  0.7986988E-001  0.2738728E+03  0.7818608E-02  0.1099083E+00
          1   -1    0    0  501    0  0.00000000000E+00  0.00000000000E+00  0.18306916285E+03  0.18306916285E+03  0.00000000000E+00 0.  1.
         -1   -1    0    0    0  501 -0.00000000000E+00 -0.00000000000E+00 -0.10242893901E+03  0.10242893901E+03  0.00000000000E+00 0.  1.
         35    2    1    2    0    0  0.14210854715E-13 -0.71054273576E-14  0.80640223838E+02  0.28549810185E+03  0.27387281804E+03 0.  0.
         25    2    3    3    0    0 -0.40322870879E+02  0.32674164756E+02  0.15248653385E+02  0.13503462285E+03  0.12372668661E+03 0.  0.
         25    2    3    3    0    0  0.40322870879E+02 -0.32674164756E+02  0.65391570454E+02  0.15046347901E+03  0.12517853678E+03 0.  0.
          5    1    4    4  502    0 -0.38643213863E+02  0.30746349573E+02 -0.49492319951E+02  0.70072931463E+02  0.47000000000E+01 0.  1.
         -5    1    4    4    0  502 -0.16796570159E+01  0.19278151826E+01  0.64740973336E+02  0.64961691384E+02  0.47000000000E+01 0.  1.
          5    1    5    5  503    0  0.75959794123E+01 -0.48750224178E+02 -0.23068957730E+02  0.54667632758E+02  0.47000000000E+01 0.  1.
         -5    1    5    5    0  503  0.32726891466E+02  0.16076059422E+02  0.88460528184E+02  0.95795846247E+02  0.47000000000E+01 0.  1.
<mgrwt>
<rscale>  0 0.27387282E+03</rscale>
<asrwt>0</asrwt>
<pdfrwt beam="1">  1        1 0.28164487E-01 0.27387282E+03</pdfrwt>
<pdfrwt beam="2">  1       -1 0.15758298E-01 0.27387282E+03</pdfrwt>
<totfact> 0.48415885E+03</totfact>
</mgrwt>
</event>
<event>
 9    1  0.7986988E-001  0.2754897E+03  0.7818608E-02  0.1098178E+00
          1   -1    0    0  501    0  0.00000000000E+00  0.00000000000E+00  0.23596122539E+03  0.23596122539E+03  0.00000000000E+00 0.  1.
         -1   -1    0    0    0  501 -0.00000000000E+00 -0.00000000000E+00 -0.80410023085E+02  0.80410023085E+02  0.00000000000E+00 0.  1.
         35    2    1    2    0    0  0.00000000000E+00  0.00000000000E+00  0.15555120230E+03  0.31637124847E+03  0.27548972816E+03 0.  0.
         25    2    3    3    0    0  0.17797531838E+02  0.49546258368E+02  0.52977435704E+02  0.14541011797E+03  0.12476341554E+03 0.  0.
         25    2    3    3    0    0 -0.17797531838E+02 -0.49546258368E+02  0.10257376660E+03  0.17096113050E+03  0.12623290652E+03 0.  0.
          5    1    4    4  502    0 -0.18338266371E+02  0.60309068260E+02  0.77635362050E+02  0.10011401085E+03  0.47000000000E+01 0. -1.
         -5    1    4    4    0  502  0.36135798209E+02 -0.10762809892E+02 -0.24657926345E+02  0.45296107124E+02  0.47000000000E+01 0. -1.
          5    1    5    5  503    0  0.24952088898E+02  0.12152842671E+02 -0.14612906412E+02  0.31716326382E+02  0.47000000000E+01 0. -1.
         -5    1    5    5    0  503 -0.42749620736E+02 -0.61699101039E+02  0.11718667301E+03  0.13924480412E+03  0.47000000000E+01 0. -1.
<mgrwt>
<rscale>  0 0.27548973E+03</rscale>
<asrwt>0</asrwt>
<pdfrwt beam="1">  1        1 0.36301727E-01 0.27548973E+03</pdfrwt>
<pdfrwt beam="2">  1       -1 0.12370773E-01 0.27548973E+03</pdfrwt>
<totfact> 0.51541192E+03</totfact>
</mgrwt>
</event>
<event>
 9    1  0.7986988E-001  0.2715009E+03  0.7818608E-02  0.1100424E+00
         -4   -1    0    0    0  501 -0.00000000000E+00  0.00000000000E+00  0.28815936736E+03  0.28815936736E+03  0.00000000000E+00 0. -1.
          4   -1    0    0  501    0  0.00000000000E+00 -0.00000000000E+00 -0.63951361186E+02  0.63951361186E+02  0.00000000000E+00 0. -1.
         35    2    1    2    0    0 -0.71054273576E-14  0.00000000000E+00  0.22420800618E+03  0.35211072855E+03  0.27150089342E+03 0.  0.
         25    2    3    3    0    0 -0.41642111377E+02 -0.24173210360E+02  0.14139158063E+03  0.19500498874E+03  0.12536728849E+03 0.  0.
         25    2    3    3    0    0  0.41642111377E+02  0.24173210360E+02  0.82816425551E+02  0.15710573981E+03  0.12452005301E+03 0.  0.
          5    1    4    4  502    0  0.25096279837E+02 -0.43694851904E+02  0.10459259639E+03  0.11619279050E+03  0.47000000000E+01 0.  1.
         -5    1    4    4    0  502 -0.66738391214E+02  0.19521641544E+02  0.36798984234E+02  0.78812198238E+02  0.47000000000E+01 0.  1.
          5    1    5    5  503    0  0.77718689248E+02  0.24312323993E+01  0.18475180113E+02  0.80059526788E+02  0.47000000000E+01 0. -1.
         -5    1    5    5    0  503 -0.36076577871E+02  0.21741977960E+02  0.64341245438E+02  0.77046213022E+02  0.47000000000E+01 0. -1.
<mgrwt>
<rscale>  0 0.27150089E+03</rscale>
<asrwt>0</asrwt>
<pdfrwt beam="1">  1        4 0.98386711E-02 0.27150089E+03</pdfrwt>
<pdfrwt beam="2">  1       -4 0.44332210E-01 0.27150089E+03</pdfrwt>
<totfact> 0.72307509E+02</totfact>
</mgrwt>
</event>
<event>
 9    1  0.7986988E-001  0.2893970E+03  0.7818608E-02  0.1090664E+00
          2   -1    0    0  501    0  0.00000000000E+00  0.00000000000E+00  0.19160968564E+04  0.19160968564E+04  0.00000000000E+00 0.  1.
         -2   -1    0    0    0  501 -0.00000000000E+00 -0.00000000000E+00 -0.10927240906E+02  0.10927240906E+02  0.00000000000E+00 0.  1.
         35    2    1    2    0    0  0.00000000000E+00  0.14210854715E-13  0.19051696155E+04  0.19270240973E+04  0.28939697268E+03 0.  0.
         25    2    3    3    0    0  0.15027736853E+02  0.68363461829E+02  0.72636877005E+03  0.73958274236E+03  0.12029815839E+03 0.  0.
         25    2    3    3    0    0 -0.15027736853E+02 -0.68363461829E+02  0.11788008454E+04  0.11874413549E+04  0.12468417068E+03 0.  0.
          5    1    4    4  502    0  0.27398051997E+02  0.82456652978E+02  0.70658089201E+03  0.71191881548E+03  0.47000000000E+01 0.  1.
         -5    1    4    4    0  502 -0.12370315145E+02 -0.14093191149E+02  0.19787878035E+02  0.27663926885E+02  0.47000000000E+01 0.  1.
          5    1    5    5  503    0  0.20838947411E+02 -0.44449211538E+02  0.15357795694E+03  0.16130180716E+03  0.47000000000E+01 0.  1.
         -5    1    5    5    0  503 -0.35866684263E+02 -0.23914250292E+02  0.10252228885E+04  0.10261395478E+04  0.47000000000E+01 0.  1.
<mgrwt>
<rscale>  0 0.28939697E+03</rscale>
<asrwt>0</asrwt>
<pdfrwt beam="1">  1        2 0.29478386E+00 0.28939697E+03</pdfrwt>
<pdfrwt beam="2">  1       -2 0.16811155E-02 0.28939697E+03</pdfrwt>
<totfact> 0.82139290E+03</totfact>
</mgrwt>
</event>
<event>
 9    1  0.7986988E-001  0.2764749E+03  0.7818608E-02  0.1097630E+00
         -1   -1    0    0    0  501 -0.00000000000E+00  0.00000000000E+00  0.88804546286E+02  0.88804546286E+02  0.00000000000E+00 0. -1.
          1   -1    0    0  501    0  0.00000000000E+00 -0.00000000000E+00 -0.21518706446E+03  0.21518706446E+03  0.00000000000E+00 0. -1.
         35    2    1    2    0    0  0.71054273576E-14  0.00000000000E+00 -0.12638251817E+03  0.30399161075E+03  0.27647487861E+03 0.  0.
         25    2    3    3    0    0  0.58730681491E+02 -0.39026282998E+01 -0.77947477083E+02  0.15895410327E+03  0.12540364551E+03 0.  0.
         25    2    3    3    0    0 -0.58730681491E+02  0.39026282998E+01 -0.48435041090E+02  0.14503750747E+03  0.12339125541E+03 0.  0.
          5    1    4    4  502    0 -0.13357415344E+02  0.47195232223E+02 -0.19975346053E+02  0.53168740244E+02  0.47000000000E+01 0. -1.
         -5    1    4    4    0  502  0.72088096835E+02 -0.51097860523E+02 -0.57972131030E+02  0.10578536303E+03  0.47000000000E+01 0. -1.
          5    1    5    5  503    0 -0.44934732288E+02 -0.50639392952E+02 -0.56118072827E+02  0.88061378493E+02  0.47000000000E+01 0. -1.
         -5    1    5    5    0  503 -0.13795949204E+02  0.54542021252E+02  0.76830317366E+01  0.56976128978E+02  0.47000000000E+01 0. -1.
<mgrwt>
<rscale>  0 0.27647488E+03</rscale>
<asrwt>0</asrwt>
<pdfrwt beam="1">  1        1 0.33105702E-01 0.27647488E+03</pdfrwt>
<pdfrwt beam="2">  1       -1 0.13662238E-01 0.27647488E+03</pdfrwt>
<totfact> 0.49520295E+03</totfact>
</mgrwt>
</event>
<event>
 9    1  0.7986988E-001  0.2792471E+03  0.7818608E-02  0.1096101E+00
         -1   -1    0    0    0  501 -0.00000000000E+00  0.00000000000E+00  0.38249613494E+02  0.38249613494E+02  0.00000000000E+00 0.  1.
          1   -1    0    0  501    0  0.00000000000E+00 -0.00000000000E+00 -0.50967134207E+03  0.50967134207E+03  0.00000000000E+00 0.  1.
         35    2    1    2    0    0  0.71054273576E-14  0.00000000000E+00 -0.47142172857E+03  0.54792095556E+03  0.27924707227E+03 0.  0.
         25    2    3    3    0    0 -0.76763259240E+01  0.20221794932E+02 -0.12055566320E+03  0.17485567951E+03  0.12479180164E+03 0.  0.
         25    2    3    3    0    0  0.76763259240E+01 -0.20221794932E+02 -0.35086606537E+03  0.37306527605E+03  0.12491139818E+03 0.  0.
          5    1    4    4  502    0 -0.52914828494E+02 -0.15131949332E+02 -0.98964663125E+02  0.11333600272E+03  0.47000000000E+01 0.  1.
         -5    1    4    4    0  502  0.45238502570E+02  0.35353744264E+02 -0.21591000079E+02  0.61519676793E+02  0.47000000000E+01 0.  1.
          5    1    5    5  503    0 -0.35504500004E+02 -0.35692680319E+02 -0.59540337241E+02  0.78113242844E+02  0.47000000000E+01 0.  1.
         -5    1    5    5    0  503  0.43180825928E+02  0.15470885387E+02 -0.29132572813E+03  0.29495203320E+03  0.47000000000E+01 0.  1.
<mgrwt>
<rscale>  0 0.27924707E+03</rscale>
<asrwt>0</asrwt>
<pdfrwt beam="1">  1        1 0.78410970E-01 0.27924707E+03</pdfrwt>
<pdfrwt beam="2">  1       -1 0.58845564E-02 0.27924707E+03</pdfrwt>
<totfact> 0.60318800E+03</totfact>
</mgrwt>
</event>
<event>
 9    1  0.7986988E-001  0.2881549E+03  0.7818608E-02  0.1091316E+00
          2   -1    0    0  501    0  0.00000000000E+00  0.00000000000E+00  0.51100346679E+03  0.51100346679E+03  0.00000000000E+00 0. -1.
         -2   -1    0    0    0  501 -0.00000000000E+00 -0.00000000000E+00 -0.40622640428E+02  0.40622640428E+02  0.00000000000E+00 0. -1.
         35    2    1    2    0    0  0.00000000000E+00  0.00000000000E+00  0.47038082636E+03  0.55162610722E+03  0.28815488952E+03 0.  0.
         25    2    3    3    0    0  0.52269374847E+02 -0.35828985896E+02  0.17088126124E+03  0.22105594423E+03  0.12509804658E+03 0.  0.
         25    2    3    3    0    0 -0.52269374847E+02  0.35828985896E+02  0.29949956512E+03  0.33057016299E+03  0.12474309349E+03 0.  0.
          5    1    4    4  502    0  0.14509968247E+02 -0.75228606065E+02  0.60154032725E+02  0.97521689906E+02  0.47000000000E+01 0. -1.
         -5    1    4    4    0  502  0.37759406600E+02  0.39399620169E+02  0.11072722851E+03  0.12353425432E+03  0.47000000000E+01 0. -1.
          5    1    5    5  503    0 -0.79205026273E+02  0.62747626440E+02  0.22777832975E+03  0.24923033185E+03  0.47000000000E+01 0. -1.
         -5    1    5    5    0  503  0.26935651427E+02 -0.26918640543E+02  0.71721235371E+02  0.81339831138E+02  0.47000000000E+01 0. -1.
<mgrwt>
<rscale>  0 0.28815489E+03</rscale>
<asrwt>0</asrwt>
<pdfrwt beam="1">  1        2 0.78615914E-01 0.28815489E+03</pdfrwt>
<pdfrwt beam="2">  1       -2 0.62496373E-02 0.28815489E+03</pdfrwt>
<totfact> 0.84126822E+03</totfact>
</mgrwt>
</event>
<event>
 9    1  0.7986988E-001  0.2747546E+03  0.7818608E-02  0.1098589E+00
          1   -1    0    0  501    0  0.00000000000E+00  0.00000000000E+00  0.45226071259E+02  0.45226071259E+02  0.00000000000E+00 0.  1.
         -1   -1    0    0    0  501 -0.00000000000E+00 -0.00000000000E+00 -0.41729285626E+03  0.41729285626E+03  0.00000000000E+00 0.  1.
         35    2    1    2    0    0  0.00000000000E+00 -0.35527136788E-14 -0.37206678500E+03  0.46251892752E+03  0.27475455558E+03 0.  0.
         25    2    3    3    0    0 -0.38736961210E+02  0.64548861993E+01 -0.11924759721E+03  0.17712991463E+03  0.12495118845E+03 0.  0.
         25    2    3    3    0    0  0.38736961210E+02 -0.64548861993E+01 -0.25281918779E+03  0.28538901289E+03  0.12644022004E+03 0.  0.
          5    1    4    4  502    0 -0.68968066873E+01 -0.36237339662E+02 -0.11792433480E+03  0.12364849157E+03  0.47000000000E+01 0. -1.
         -5    1    4    4    0  502 -0.31840154523E+02  0.42692225861E+02 -0.13232624059E+01  0.53481423059E+02  0.47000000000E+01 0. -1.
          5    1    5    5  503    0  0.13062914132E+02 -0.31560766041E+02 -0.24616435557E+03  0.24856729799E+03  0.47000000000E+01 0.  1.
         -5    1    5    5    0  503  0.25674047078E+02  0.25105879841E+02 -0.66548322182E+01  0.36821714896E+02  0.47000000000E+01 0.  1.
<mgrwt>
<rscale>  0 0.27475456E+03</rscale>
<asrwt>0</asrwt>
<pdfrwt beam="1">  1        1 0.69578570E-02 0.27475456E+03</pdfrwt>
<pdfrwt beam="2">  1       -1 0.64198902E-01 0.27475456E+03</pdfrwt>
<totfact> 0.26745525E+03</totfact>
</mgrwt>
</event>
<event>
 9    1  0.7986988E-001  0.2580063E+03  0.7818608E-02  0.1108347E+00
         -1   -1    0    0    0  501 -0.00000000000E+00  0.00000000000E+00  0.55267947071E+01  0.55267947071E+01  0.00000000000E+00 0.  1.
          1   -1    0    0  501    0  0.00000000000E+00 -0.00000000000E+00 -0.30111141808E+04  0.30111141808E+04  0.00000000000E+00 0.  1.
         35    2    1    2    0    0  0.00000000000E+00 -0.35527136788E-14 -0.30055873861E+04  0.30166409756E+04  0.25800627835E+03 0.  0.
         25    2    3    3    0    0  0.11444973473E+02  0.25831895016E+02 -0.16574690809E+04  0.16624202510E+04  0.12505623780E+03 0.  0.
         25    2    3    3    0    0 -0.11444973473E+02 -0.25831895016E+02 -0.13481183053E+04  0.13542207246E+04  0.12526983532E+03 0.  0.
          5    1    4    4  502    0  0.34394535420E+02  0.67374193005E+02 -0.78554260167E+03  0.78919043012E+03  0.47000000000E+01 0.  1.
         -5    1    4    4    0  502 -0.22949561947E+02 -0.41542297989E+02 -0.87192647922E+03  0.87322982088E+03  0.47000000000E+01 0.  1.
          5    1    5    5  503    0 -0.52976657705E+02  0.45821450145E+01 -0.29207930583E+03  0.29691738448E+03  0.47000000000E+01 0. -1.
         -5    1    5    5    0  503  0.41531684233E+02 -0.30414040031E+02 -0.10560389994E+04  0.10573033401E+04  0.47000000000E+01 0. -1.
<mgrwt>
<rscale>  0 0.25800628E+03</rscale>
<asrwt>0</asrwt>
<pdfrwt beam="1">  1        1 0.46324844E+00 0.25800628E+03</pdfrwt>
<pdfrwt beam="2">  1       -1 0.85027592E-03 0.25800628E+03</pdfrwt>
<totfact> 0.16935362E+03</totfact>
</mgrwt>
</event>
<event>
 9    1  0.7986988E-001  0.2750324E+03  0.7818608E-02  0.1098433E+00
          2   -1    0    0  501    0  0.00000000000E+00  0.00000000000E+00  0.49652175181E+03  0.49652175181E+03  0.00000000000E+00 0. -1.
         -2   -1    0    0    0  501 -0.00000000000E+00 -0.00000000000E+00 -0.38086365940E+02  0.38086365940E+02  0.00000000000E+00 0. -1.
         35    2    1    2    0    0 -0.35527136788E-14 -0.71054273576E-14  0.45843538587E+03  0.53460811775E+03  0.27503242817E+03 0.  0.
         25    2    3    3    0    0  0.25235617510E+01  0.22142033852E+02  0.12890227494E+03  0.18148458668E+03  0.12579435874E+03 0.  0.
         25    2    3    3    0    0 -0.25235617510E+01 -0.22142033852E+02  0.32953311094E+03  0.35312353108E+03  0.12493005630E+03 0.  0.
          5    1    4    4  502    0  0.24160109138E+02 -0.10073172331E+02 -0.16246385183E+02  0.31164317831E+02  0.47000000000E+01 0.  1.
         -5    1    4    4    0  502 -0.21636547387E+02  0.32215206183E+02  0.14514866012E+03  0.15032026885E+03  0.47000000000E+01 0.  1.
          5    1    5    5  503    0  0.47782440341E+02 -0.40370868525E+02  0.24552401137E+03  0.25341092871E+03  0.47000000000E+01 0.  1.
         -5    1    5    5    0  503 -0.50306002092E+02  0.18228834674E+02  0.84009099565E+02  0.99712602362E+02  0.47000000000E+01 0.  1.
<mgrwt>
<rscale>  0 0.27503243E+03</rscale>
<asrwt>0</asrwt>
<pdfrwt beam="1">  1        2 0.76387957E-01 0.27503243E+03</pdfrwt>
<pdfrwt beam="2">  1       -2 0.58594413E-02 0.27503243E+03</pdfrwt>
<totfact> 0.95766693E+03</totfact>
</mgrwt>
</event>
<event>
 9    1  0.7986988E-001  0.2779912E+03  0.7818608E-02  0.1096791E+00
         -3   -1    0    0    0  501 -0.00000000000E+00  0.00000000000E+00  0.30876102621E+03  0.30876102621E+03  0.00000000000E+00 0. -1.
          3   -1    0    0  501    0  0.00000000000E+00 -0.00000000000E+00 -0.62571946552E+02  0.62571946552E+02  0.00000000000E+00 0. -1.
         35    2    1    2    0    0  0.71054273576E-14  0.00000000000E+00  0.24618907966E+03  0.37133297276E+03  0.27799121158E+03 0.  0.
         25    2    3    3    0    0 -0.40129473563E+02  0.44351252275E+02  0.13198160547E+03  0.19140914649E+03  0.12506361962E+03 0.  0.
         25    2    3    3    0    0  0.40129473563E+02 -0.44351252275E+02  0.11420747419E+03  0.17992382627E+03  0.12550628618E+03 0.  0.
          5    1    4    4  502    0 -0.14424713941E+02  0.14014186579E+02  0.14715032006E+03  0.14859265289E+03  0.47000000000E+01 0. -1.
         -5    1    4    4    0  502 -0.25704759622E+02  0.30337065696E+02 -0.15168714593E+02  0.42816493606E+02  0.47000000000E+01 0. -1.
          5    1    5    5  503    0 -0.37899774435E+02 -0.78855217788E+01  0.28968220335E+01  0.39103144808E+02  0.47000000000E+01 0. -1.
         -5    1    5    5    0  503  0.78029247998E+02 -0.36465730496E+02  0.11131065216E+03  0.14082068146E+03  0.47000000000E+01 0. -1.
<mgrwt>
<rscale>  0 0.27799121E+03</rscale>
<asrwt>0</asrwt>
<pdfrwt beam="1">  1        3 0.96264534E-02 0.27799121E+03</pdfrwt>
<pdfrwt beam="2">  1       -3 0.47501696E-01 0.27799121E+03</pdfrwt>
<totfact> 0.88566989E+02</totfact>
</mgrwt>
</event>
<event>
 9    1  0.7986988E-001  0.2769956E+03  0.7818608E-02  0.1097341E+00
          3   -1    0    0  501    0  0.00000000000E+00  0.00000000000E+00  0.33037115236E+03  0.33037115236E+03  0.00000000000E+00 0. -1.
         -3   -1    0    0    0  501 -0.00000000000E+00 -0.00000000000E+00 -0.58060879293E+02  0.58060879293E+02  0.00000000000E+00 0. -1.
         35    2    1    2    0    0  0.17763568394E-14  0.00000000000E+00  0.27231027307E+03  0.38843203165E+03  0.27699559274E+03 0.  0.
         25    2    3    3    0    0 -0.29267962116E+01  0.60882260031E+02  0.13616783846E+03  0.19448141201E+03  0.12476427239E+03 0.  0.
         25    2    3    3    0    0  0.29267962116E+01 -0.60882260031E+02  0.13614243461E+03  0.19395061964E+03  0.12396315838E+03 0.  0.
          5    1    4    4  502    0 -0.18410207654E+02  0.88024213381E+02  0.13572136231E+03  0.16287902282E+03  0.47000000000E+01 0.  1.
         -5    1    4    4    0  502  0.15483411442E+02 -0.27141953350E+02  0.44647614282E+00  0.31602389190E+02  0.47000000000E+01 0.  1.
          5    1    5    5  503    0 -0.37226515643E+02 -0.26881602210E+02  0.13328256154E+03  0.14104880437E+03  0.47000000000E+01 0. -1.
         -5    1    5    5    0  503  0.40153311854E+02 -0.34000657821E+02  0.28598730741E+01  0.52901815273E+02  0.47000000000E+01 0. -1.
<mgrwt>
<rscale>  0 0.27699559E+03</rscale>
<asrwt>0</asrwt>
<pdfrwt beam="1">  1        3 0.50826330E-01 0.27699559E+03</pdfrwt>
<pdfrwt beam="2">  1       -3 0.89324431E-02 0.27699559E+03</pdfrwt>
<totfact> 0.87542430E+02</totfact>
</mgrwt>
</event>
<event>
 9    1  0.7986988E-001  0.2751690E+03  0.7818608E-02  0.1098357E+00
         -2   -1    0    0    0  501 -0.00000000000E+00  0.00000000000E+00  0.93346934882E+03  0.93346934882E+03  0.00000000000E+00 0.  1.
          2   -1    0    0  501    0  0.00000000000E+00 -0.00000000000E+00 -0.20278651520E+02  0.20278651520E+02  0.00000000000E+00 0.  1.
         35    2    1    2    0    0 -0.17763568394E-14  0.71054273576E-14  0.91319069730E+03  0.95374800033E+03  0.27516903626E+03 0.  0.
         25    2    3    3    0    0  0.13909567268E+02 -0.30073468966E+02  0.29208982957E+03  0.31936778104E+03  0.12482556401E+03 0.  0.
         25    2    3    3    0    0 -0.13909567268E+02  0.30073468966E+02  0.62110086772E+03  0.63438021929E+03  0.12479617440E+03 0.  0.
          5    1    4    4  502    0 -0.30243201736E+02  0.32290631657E+02  0.58135397580E+02  0.73206219653E+02  0.47000000000E+01 0.  1.
         -5    1    4    4    0  502  0.44152769005E+02 -0.62364100623E+02  0.23395443199E+03  0.24616156139E+03  0.47000000000E+01 0.  1.
          5    1    5    5  503    0 -0.29827412016E+02 -0.17825137253E+02  0.50201827191E+02  0.61234985743E+02  0.47000000000E+01 0.  1.
         -5    1    5    5    0  503  0.15917844747E+02  0.47898606219E+02  0.57089904053E+03  0.57314523355E+03  0.47000000000E+01 0.  1.
<mgrwt>
<rscale>  0 0.27516904E+03</rscale>
<asrwt>0</asrwt>
<pdfrwt beam="1">  1        2 0.31197933E-02 0.27516904E+03</pdfrwt>
<pdfrwt beam="2">  1       -2 0.14361064E+00 0.27516904E+03</pdfrwt>
<totfact> 0.10536283E+03</totfact>
</mgrwt>
</event>
<event>
 9    1  0.7986988E-001  0.2732043E+03  0.7818608E-02  0.1099460E+00
          3   -1    0    0  501    0  0.00000000000E+00  0.00000000000E+00  0.29014013224E+03  0.29014013224E+03  0.00000000000E+00 0.  1.
         -3   -1    0    0    0  501 -0.00000000000E+00 -0.00000000000E+00 -0.64314270725E+02  0.64314270725E+02  0.00000000000E+00 0.  1.
         35    2    1    2    0    0  0.71054273576E-14  0.88817841970E-15  0.22582586152E+03  0.35445440297E+03  0.27320432657E+03 0.  0.
         25    2    3    3    0    0  0.59993449634E+02  0.74003656822E+01  0.14594884676E+03  0.20046044383E+03  0.12340722937E+03 0.  0.
         25    2    3    3    0    0 -0.59993449634E+02 -0.74003656822E+01  0.79877014762E+02  0.15399395914E+03  0.11696077356E+03 0.  0.
          5    1    4    4  502    0  0.95067568420E+02  0.22119165929E+02  0.91469125913E+02  0.13384988256E+03  0.47000000000E+01 0. -1.
         -5    1    4    4    0  502 -0.35074118785E+02 -0.14718800246E+02  0.54479720845E+02  0.66610561269E+02  0.47000000000E+01 0. -1.
          5    1    5    5  503    0 -0.94143882595E+02  0.32847336944E+01  0.66924818986E+02  0.11564982275E+03  0.47000000000E+01 0.  1.
         -5    1    5    5    0  503  0.34150432961E+02 -0.10685099377E+02  0.12952195776E+02  0.38344136390E+02  0.47000000000E+01 0.  1.
<mgrwt>
<rscale>  0 0.27320433E+03</rscale>
<asrwt>0</asrwt>
<pdfrwt beam="1">  1        3 0.44636943E-01 0.27320433E+03</pdfrwt>
<pdfrwt beam="2">  1       -3 0.98945034E-02 0.27320433E+03</pdfrwt>
<totfact> 0.95618265E+02</totfact>
</mgrwt>
</event>
<event>
 9    1  0.7986988E-001  0.2755371E+03  0.7818608E-02  0.1098152E+00
          4   -1    0    0  501    0  0.00000000000E+00  0.00000000000E+00  0.59281503498E+03  0.59281503498E+03  0.00000000000E+00 0. -1.
         -4   -1    0    0    0  501 -0.00000000000E+00 -0.00000000000E+00 -0.32017024048E+02  0.32017024048E+02  0.00000000000E+00 0. -1.
         35    2    1    2    0    0  0.00000000000E+00 -0.17763568394E-14  0.56079801093E+03  0.62483205902E+03  0.27553709900E+03 0.  0.
         25    2    3    3    0    0  0.18178559896E+02  0.15713795801E+02  0.16106497479E+03  0.20530848424E+03  0.12502905334E+03 0.  0.
         25    2    3    3    0    0 -0.18178559896E+02 -0.15713795801E+02  0.39973303614E+03  0.41952357478E+03  0.12504457685E+03 0.  0.
          5    1    4    4  502    0  0.49557284741E+01  0.41546798250E+02  0.53407388163E+00  0.42107848727E+02  0.47000000000E+01 0.  1.
         -5    1    4    4    0  502  0.13222831422E+02 -0.25833002448E+02  0.16053090091E+03  0.16320063552E+03  0.47000000000E+01 0.  1.
          5    1    5    5  503    0  0.24190598202E+02 -0.30891525920E+02  0.37508224002E+02  0.54483284435E+02  0.47000000000E+01 0.  1.
         -5    1    5    5    0  503 -0.42369158098E+02  0.15177730119E+02  0.36222481214E+03  0.36504029035E+03  0.47000000000E+01 0.  1.
<mgrwt>
<rscale>  0 0.27553710E+03</rscale>
<asrwt>0</asrwt>
<pdfrwt beam="1">  1        4 0.91202305E-01 0.27553710E+03</pdfrwt>
<pdfrwt beam="2">  1       -4 0.49256964E-02 0.27553710E+03</pdfrwt>
<totfact> 0.48422952E+02</totfact>
</mgrwt>
</event>
<event>
 9    1  0.7986988E-001  0.2721653E+03  0.7818608E-02  0.1100047E+00
         -1   -1    0    0    0  501 -0.00000000000E+00  0.00000000000E+00  0.11464034730E+02  0.11464034730E+02  0.00000000000E+00 0.  1.
          1   -1    0    0  501    0  0.00000000000E+00 -0.00000000000E+00 -0.16153553779E+04  0.16153553779E+04  0.00000000000E+00 0.  1.
         35    2    1    2    0    0  0.71054273576E-14 -0.35527136788E-14 -0.16038913432E+04  0.16268194126E+04  0.27216531854E+03 0.  0.
         25    2    3    3    0    0  0.38204217917E+01  0.28908139733E+02 -0.54816571700E+03  0.56297912659E+03  0.12493825482E+03 0.  0.
         25    2    3    3    0    0 -0.38204217917E+01 -0.28908139733E+02 -0.10557256262E+04  0.10638402860E+04  0.12786430419E+03 0.  0.
          5    1    4    4  502    0 -0.57380967258E+02  0.20952988121E+02 -0.35162511735E+03  0.35692284358E+03  0.47000000000E+01 0.  1.
         -5    1    4    4    0  502  0.61201389050E+02  0.79551516115E+01 -0.19654059965E+03  0.20605628301E+03  0.47000000000E+01 0.  1.
          5    1    5    5  503    0  0.46075076950E+02 -0.54795667355E+02 -0.70040715759E+03  0.70407226495E+03  0.47000000000E+01 0. -1.
         -5    1    5    5    0  503 -0.49895498741E+02  0.25887527622E+02 -0.35531846857E+03  0.35976802107E+03  0.47000000000E+01 0. -1.
<mgrwt>
<rscale>  0 0.27216532E+03</rscale>
<asrwt>0</asrwt>
<pdfrwt beam="1">  1        1 0.24851591E+00 0.27216532E+03</pdfrwt>
<pdfrwt beam="2">  1       -1 0.17636998E-02 0.27216532E+03</pdfrwt>
<totfact> 0.49492570E+03</totfact>
</mgrwt>
</event>
<event>
 9    1  0.7986988E-001  0.2738906E+03  0.7818608E-02  0.1099073E+00
          2   -1    0    0  501    0  0.00000000000E+00  0.00000000000E+00  0.65567089776E+03  0.65567089776E+03  0.00000000000E+00 0. -1.
         -2   -1    0    0    0  501 -0.00000000000E+00 -0.00000000000E+00 -0.28602782031E+02  0.28602782031E+02  0.00000000000E+00 0. -1.
         35    2    1    2    0    0 -0.71054273576E-14  0.35527136788E-14  0.62706811573E+03  0.68427367979E+03  0.27389057503E+03 0.  0.
         25    2    3    3    0    0 -0.50946451031E+02 -0.56326801515E+01  0.37604525157E+03  0.39934288610E+03  0.12424750094E+03 0.  0.
         25    2    3    3    0    0  0.50946451031E+02  0.56326801515E+01  0.25102286416E+03  0.28493079370E+03  0.12468284127E+03 0.  0.
          5    1    4    4  502    0 -0.56284777947E+02  0.50388992292E+02  0.17851018871E+03  0.19389431205E+03  0.47000000000E+01 0. -1.
         -5    1    4    4    0  502  0.53383269158E+01 -0.56021672444E+02  0.19753506286E+03  0.20544857404E+03  0.47000000000E+01 0. -1.
          5    1    5    5  503    0  0.52044712038E+02  0.24600364141E+02  0.33989002789E+02  0.67016209066E+02  0.47000000000E+01 0. -1.
         -5    1    5    5    0  503 -0.10982610067E+01 -0.18967683989E+02  0.21703386137E+03  0.21791458463E+03  0.47000000000E+01 0. -1.
<mgrwt>
<rscale>  0 0.27389058E+03</rscale>
<asrwt>0</asrwt>
<pdfrwt beam="1">  1        2 0.10087243E+00 0.27389058E+03</pdfrwt>
<pdfrwt beam="2">  1       -2 0.44004285E-02 0.27389058E+03</pdfrwt>
<totfact> 0.10751471E+04</totfact>
</mgrwt>
</event>
<event>
 9    1  0.7986988E-001  0.2816213E+03  0.7818608E-02  0.1094807E+00
          2   -1    0    0  501    0  0.00000000000E+00  0.00000000000E+00  0.76957494294E+03  0.76957494294E+03  0.00000000000E+00 0. -1.
         -2   -1    0    0    0  501 -0.00000000000E+00 -0.00000000000E+00 -0.25764409228E+02  0.25764409228E+02  0.00000000000E+00 0. -1.
         35    2    1    2    0    0 -0.71054273576E-14  0.00000000000E+00  0.74381053371E+03  0.79533935217E+03  0.28162133273E+03 0.  0.
         25    2    3    3    0    0  0.59768004065E+01 -0.14646712927E+02  0.57287735843E+03  0.58667649577E+03  0.12550137267E+03 0.  0.
         25    2    3    3    0    0 -0.59768004065E+01  0.14646712927E+02  0.17093317528E+03  0.20866285640E+03  0.11862457117E+03 0.  0.
          5    1    4    4  502    0 -0.59441452286E+02 -0.12051196903E+02  0.26989560300E+03  0.27666630463E+03  0.47000000000E+01 0. -1.
         -5    1    4    4    0  502  0.65418252692E+02 -0.25955160245E+01  0.30298175543E+03  0.31001019114E+03  0.47000000000E+01 0. -1.
          5    1    5    5  503    0  0.35289975510E+02  0.21932491407E+02  0.10963061445E+02  0.43228408102E+02  0.47000000000E+01 0. -1.
         -5    1    5    5    0  503 -0.41266775917E+02 -0.72857784792E+01  0.15997011383E+03  0.16543444830E+03  0.47000000000E+01 0. -1.
<mgrwt>
<rscale>  0 0.28162133E+03</rscale>
<asrwt>0</asrwt>
<pdfrwt beam="1">  1        2 0.11839613E+00 0.28162133E+03</pdfrwt>
<pdfrwt beam="2">  1       -2 0.39637559E-02 0.28162133E+03</pdfrwt>
<totfact> 0.10361073E+04</totfact>
</mgrwt>
</event>
<event>
 9    1  0.7986988E-001  0.2712351E+03  0.7818608E-02  0.1100575E+00
         -2   -1    0    0    0  501 -0.00000000000E+00  0.00000000000E+00  0.28493997305E+03  0.28493997305E+03  0.00000000000E+00 0. -1.
          2   -1    0    0  501    0  0.00000000000E+00 -0.00000000000E+00 -0.64547356389E+02  0.64547356389E+02  0.00000000000E+00 0. -1.
         35    2    1    2    0    0  0.00000000000E+00 -0.14210854715E-13  0.22039261666E+03  0.34948732944E+03  0.27123511565E+03 0.  0.
         25    2    3    3    0    0 -0.12170796872E+02  0.49946803183E+02  0.10329459138E+03  0.16972715131E+03  0.12447779657E+03 0.  0.
         25    2    3    3    0    0  0.12170796872E+02 -0.49946803183E+02  0.11709802528E+03  0.17976017812E+03  0.12632878797E+03 0.  0.
          5    1    4    4  502    0  0.15217864356E+02 -0.37993639810E+02  0.21575526165E+02  0.46504767399E+02  0.47000000000E+01 0.  1.
         -5    1    4    4    0  502 -0.27388661228E+02  0.87940442993E+02  0.81719065219E+02  0.12322238392E+03  0.47000000000E+01 0.  1.
          5    1    5    5  503    0 -0.28636073548E+02  0.32335436152E+02  0.47897179411E+02  0.64667108602E+02  0.47000000000E+01 0. -1.
         -5    1    5    5    0  503  0.40806870420E+02 -0.82282239335E+02  0.69200845865E+02  0.11509306952E+03  0.47000000000E+01 0. -1.
<mgrwt>
<rscale>  0 0.27123512E+03</rscale>
<asrwt>0</asrwt>
<pdfrwt beam="1">  1        2 0.99303627E-02 0.27123512E+03</pdfrwt>
<pdfrwt beam="2">  1       -2 0.43836918E-01 0.27123512E+03</pdfrwt>
<totfact> 0.32080321E+03</totfact>
</mgrwt>
</event>
<event>
 9    1  0.7986988E-001  0.2690637E+03  0.7818608E-02  0.1101817E+00
         -1   -1    0    0    0  501 -0.00000000000E+00  0.00000000000E+00  0.20195390393E+03  0.20195390393E+03  0.00000000000E+00 0.  1.
          1   -1    0    0  501    0  0.00000000000E+00 -0.00000000000E+00 -0.89618550747E+02  0.89618550747E+02  0.00000000000E+00 0.  1.
         35    2    1    2    0    0 -0.71054273576E-14  0.00000000000E+00  0.11233535318E+03  0.29157245468E+03  0.26906368159E+03 0.  0.
         25    2    3    3    0    0 -0.34640215056E+02 -0.35714813792E+02  0.58864781504E+02  0.14645766311E+03  0.12453630860E+03 0.  0.
         25    2    3    3    0    0  0.34640215056E+02  0.35714813792E+02  0.53470571680E+02  0.14511479157E+03  0.12539421148E+03 0.  0.
          5    1    4    4  502    0 -0.48934299902E+02  0.11019564698E+02  0.78750408133E+02  0.93486433744E+02  0.47000000000E+01 0. -1.
         -5    1    4    4    0  502  0.14294084846E+02 -0.46734378490E+02 -0.19885626628E+02  0.52971229368E+02  0.47000000000E+01 0. -1.
          5    1    5    5  503    0 -0.34344197547E+02  0.12725807294E+02  0.61576034142E+02  0.71799499003E+02  0.47000000000E+01 0.  1.
         -5    1    5    5    0  503  0.68984412603E+02  0.22989006498E+02 -0.81054624620E+01  0.73315292563E+02  0.47000000000E+01 0.  1.
<mgrwt>
<rscale>  0 0.26906368E+03</rscale>
<asrwt>0</asrwt>
<pdfrwt beam="1">  1        1 0.13787469E-01 0.26906368E+03</pdfrwt>
<pdfrwt beam="2">  1       -1 0.31069831E-01 0.26906368E+03</pdfrwt>
<totfact> 0.39830420E+03</totfact>
</mgrwt>
</event>
<event>
 9    1  0.7986988E-001  0.2830732E+03  0.7818608E-02  0.1094022E+00
          1   -1    0    0  501    0  0.00000000000E+00  0.00000000000E+00  0.16238585831E+04  0.16238585831E+04  0.00000000000E+00 0.  1.
         -1   -1    0    0    0  501 -0.00000000000E+00 -0.00000000000E+00 -0.12336421654E+02  0.12336421654E+02  0.00000000000E+00 0.  1.
         35    2    1    2    0    0  0.00000000000E+00 -0.17763568394E-14  0.16115221615E+04  0.16361950048E+04  0.28307316501E+03 0.  0.
         25    2    3    3    0    0  0.32988301468E+02 -0.11759877380E+02  0.11325473082E+04  0.11399317067E+04  0.12471715136E+03 0.  0.
         25    2    3    3    0    0 -0.32988301468E+02  0.11759877380E+02  0.47897485322E+03  0.49626329804E+03  0.12503530788E+03 0.  0.
          5    1    4    4  502    0  0.27758891422E+02  0.51671280709E+02  0.36256168592E+03  0.36730579004E+03  0.47000000000E+01 0. -1.
         -5    1    4    4    0  502  0.52294100462E+01 -0.63431158090E+02  0.76998562232E+03  0.77262591668E+03  0.47000000000E+01 0. -1.
          5    1    5    5  503    0 -0.31197413916E+01  0.13404844428E+02 -0.16938090326E+01  0.14641776857E+02  0.47000000000E+01 0. -1.
         -5    1    5    5    0  503 -0.29868560077E+02 -0.16449670476E+01  0.48066866225E+03  0.48162152118E+03  0.47000000000E+01 0. -1.
<mgrwt>
<rscale>  0 0.28307317E+03</rscale>
<asrwt>0</asrwt>
<pdfrwt beam="1">  1        1 0.24982423E+00 0.28307317E+03</pdfrwt>
<pdfrwt beam="2">  1       -1 0.18979123E-02 0.28307317E+03</pdfrwt>
<totfact> 0.43906622E+03</totfact>
</mgrwt>
</event>
<event>
 9    1  0.7986988E-001  0.2737555E+03  0.7818608E-02  0.1099149E+00
          2   -1    0    0  501    0  0.00000000000E+00  0.00000000000E+00  0.32909847749E+04  0.32909847749E+04  0.00000000000E+00 0. -1.
         -2   -1    0    0    0  501 -0.00000000000E+00 -0.00000000000E+00 -0.56929821213E+01  0.56929821213E+01  0.00000000000E+00 0. -1.
         35    2    1    2    0    0  0.00000000000E+00  0.00000000000E+00  0.32852917928E+04  0.32966777570E+04  0.27375549299E+03 0.  0.
         25    2    3    3    0    0 -0.18465576884E+02  0.39854368472E+02  0.18117907737E+04  0.18164846208E+04  0.12288702840E+03 0.  0.
         25    2    3    3    0    0  0.18465576884E+02 -0.39854368472E+02  0.14735010191E+04  0.14801931362E+04  0.13355567773E+03 0.  0.
          5    1    4    4  502    0  0.34052189336E+02 -0.25624925147E+01  0.17880681619E+03  0.18209910896E+03  0.47000000000E+01 0.  1.
         -5    1    4    4    0  502 -0.52517766220E+02  0.42416860987E+02  0.16329839575E+04  0.16343855118E+04  0.47000000000E+01 0.  1.
          5    1    5    5  503    0  0.12316108859E+02  0.49255416053E+02  0.50160584031E+03  0.50419072937E+03  0.47000000000E+01 0.  1.
         -5    1    5    5    0  503  0.61494680252E+01 -0.89109784525E+02  0.97189517878E+03  0.97600240686E+03  0.47000000000E+01 0.  1.
<mgrwt>
<rscale>  0 0.27375549E+03</rscale>
<asrwt>0</asrwt>
<pdfrwt beam="1">  1        2 0.50630383E+00 0.27375549E+03</pdfrwt>
<pdfrwt beam="2">  1       -2 0.87584603E-03 0.27375549E+03</pdfrwt>
<totfact> 0.35773588E+03</totfact>
</mgrwt>
</event>
<event>
 9    1  0.7986988E-001  0.2803498E+03  0.7818608E-02  0.1095498E+00
         -4   -1    0    0    0  501 -0.00000000000E+00  0.00000000000E+00  0.12378831498E+04  0.12378831498E+04  0.00000000000E+00 0. -1.
          4   -1    0    0  501    0  0.00000000000E+00 -0.00000000000E+00 -0.15873070502E+02  0.15873070502E+02  0.00000000000E+00 0. -1.
         35    2    1    2    0    0  0.00000000000E+00 -0.14210854715E-13  0.12220100793E+04  0.12537562203E+04  0.28034982797E+03 0.  0.
         25    2    3    3    0    0  0.24398141351E+02  0.54896889856E+02  0.69270791093E+03  0.70661548853E+03  0.12590576222E+03 0.  0.
         25    2    3    3    0    0 -0.24398141351E+02 -0.54896889856E+02  0.52930216839E+03  0.54714073179E+03  0.12487296384E+03 0.  0.
          5    1    4    4  502    0  0.36824762822E+02  0.78622151153E+02  0.28417039260E+03  0.29717403628E+03  0.47000000000E+01 0.  1.
         -5    1    4    4    0  502 -0.12426621471E+02 -0.23725261296E+02  0.40853751832E+03  0.40944145225E+03  0.47000000000E+01 0.  1.
          5    1    5    5  503    0 -0.61995900671E+02 -0.73203931908E+02  0.38760210807E+03  0.39932416848E+03  0.47000000000E+01 0.  1.
         -5    1    5    5    0  503  0.37597759320E+02  0.18307042052E+02  0.14170006032E+03  0.14781656331E+03  0.47000000000E+01 0.  1.
<mgrwt>
<rscale>  0 0.28034983E+03</rscale>
<asrwt>0</asrwt>
<pdfrwt beam="1">  1        4 0.24420118E-02 0.28034983E+03</pdfrwt>
<pdfrwt beam="2">  1       -4 0.19044349E+00 0.28034983E+03</pdfrwt>
<totfact> 0.23140110E+02</totfact>
</mgrwt>
</event>
<event>
 9    1  0.7986988E-001  0.2774317E+03  0.7818608E-02  0.1097100E+00
         -1   -1    0    0    0  501 -0.00000000000E+00  0.00000000000E+00  0.24599857081E+03  0.24599857081E+03  0.00000000000E+00 0. -1.
          1   -1    0    0  501    0  0.00000000000E+00 -0.00000000000E+00 -0.78220340309E+02  0.78220340309E+02  0.00000000000E+00 0. -1.
         35    2    1    2    0    0 -0.71054273576E-14  0.71054273576E-14  0.16777823050E+03  0.32421891112E+03  0.27743173520E+03 0.  0.
         25    2    3    3    0    0 -0.13717179182E+02  0.18136744408E+02  0.20594241410E+02  0.12852480816E+03  0.12480945890E+03 0.  0.
         25    2    3    3    0    0  0.13717179182E+02 -0.18136744408E+02  0.14718398909E+03  0.19569410296E+03  0.12694862262E+03 0.  0.
          5    1    4    4  502    0 -0.69100950789E+02  0.54428440583E+01  0.16225879171E+02  0.71343781133E+02  0.47000000000E+01 0.  1.
         -5    1    4    4    0  502  0.55383771607E+02  0.12693900349E+02  0.43683622394E+01  0.57181027030E+02  0.47000000000E+01 0.  1.
          5    1    5    5  503    0  0.25339954856E+02 -0.24557235845E+02  0.16735087290E+03  0.17109522438E+03  0.47000000000E+01 0.  1.
         -5    1    5    5    0  503 -0.11622775673E+02  0.64204914369E+01 -0.20166883811E+02  0.24598878578E+02  0.47000000000E+01 0.  1.
<mgrwt>
<rscale>  0 0.27743174E+03</rscale>
<asrwt>0</asrwt>
<pdfrwt beam="1">  1        1 0.12033899E-01 0.27743174E+03</pdfrwt>
<pdfrwt beam="2">  1       -1 0.37845933E-01 0.27743174E+03</pdfrwt>
<totfact> 0.33913378E+03</totfact>
</mgrwt>
</event>
<event>
 9    1  0.7986988E-001  0.2727187E+03  0.7818608E-02  0.1099734E+00
         -1   -1    0    0    0  501 -0.00000000000E+00  0.00000000000E+00  0.36609961759E+02  0.36609961759E+02  0.00000000000E+00 0.  1.
          1   -1    0    0  501    0  0.00000000000E+00 -0.00000000000E+00 -0.50789091785E+03  0.50789091785E+03  0.00000000000E+00 0.  1.
         35    2    1    2    0    0  0.71054273576E-14  0.17763568394E-14 -0.47128095609E+03  0.54450087960E+03  0.27271866148E+03 0.  0.
         25    2    3    3    0    0 -0.54741874498E+02 -0.10719460965E+01 -0.23437719623E+03  0.27108025448E+03  0.12471572620E+03 0.  0.
         25    2    3    3    0    0  0.54741874498E+02  0.10719460965E+01 -0.23690375985E+03  0.27342062513E+03  0.12505048949E+03 0.  0.
          5    1    4    4  502    0 -0.45456474135E+02  0.11018184969E+02 -0.24656418065E+03  0.25100533185E+03  0.47000000000E+01 0.  1.
         -5    1    4    4    0  502 -0.92854003632E+01 -0.12090131066E+02  0.12186984416E+02  0.20074922621E+02  0.47000000000E+01 0.  1.
          5    1    5    5  503    0  0.19455322504E+02  0.24599681554E+02 -0.22753385914E+03  0.22973332575E+03  0.47000000000E+01 0.  1.
         -5    1    5    5    0  503  0.35286551994E+02 -0.23527735458E+02 -0.93699007136E+01  0.43687299376E+02  0.47000000000E+01 0.  1.
<mgrwt>
<rscale>  0 0.27271866E+03</rscale>
<asrwt>0</asrwt>
<pdfrwt beam="1">  1        1 0.78137059E-01 0.27271866E+03</pdfrwt>
<pdfrwt beam="2">  1       -1 0.56323022E-02 0.27271866E+03</pdfrwt>
<totfact> 0.64688005E+03</totfact>
</mgrwt>
</event>
<event>
 9    1  0.7986988E-001  0.2679404E+03  0.7818608E-02  0.1102464E+00
         -1   -1    0    0    0  501 -0.00000000000E+00  0.00000000000E+00  0.10936559335E+03  0.10936559335E+03  0.00000000000E+00 0. -1.
          1   -1    0    0  501    0  0.00000000000E+00 -0.00000000000E+00 -0.16411022312E+03  0.16411022312E+03  0.00000000000E+00 0. -1.
         35    2    1    2    0    0  0.00000000000E+00  0.35527136788E-14 -0.54744629772E+02  0.27347581648E+03  0.26794038089E+03 0.  0.
         25    2    3    3    0    0  0.39372329543E+02  0.14170610779E+02 -0.60954470409E+02  0.14167750098E+03  0.12085561749E+03 0.  0.
         25    2    3    3    0    0 -0.39372329543E+02 -0.14170610779E+02  0.62098406368E+01  0.13179831549E+03  0.12482486652E+03 0.  0.
          5    1    4    4  502    0 -0.33509456718E+02 -0.22341751598E+02 -0.13235832040E+01  0.40569439564E+02  0.47000000000E+01 0. -1.
         -5    1    4    4    0  502  0.72881786261E+02  0.36512362377E+02 -0.59630887205E+02  0.10110806142E+03  0.47000000000E+01 0. -1.
          5    1    5    5  503    0 -0.53475832162E+02 -0.37640825981E+02  0.48252356486E+02  0.81405628260E+02  0.47000000000E+01 0. -1.
         -5    1    5    5    0  503  0.14103502620E+02  0.23470215202E+02 -0.42042515849E+02  0.50392687234E+02  0.47000000000E+01 0. -1.
<mgrwt>
<rscale>  0 0.26794038E+03</rscale>
<asrwt>0</asrwt>
<pdfrwt beam="1">  1        1 0.25247727E-01 0.26794038E+03</pdfrwt>
<pdfrwt beam="2">  1       -1 0.16825476E-01 0.26794038E+03</pdfrwt>
<totfact> 0.50056486E+03</totfact>
</mgrwt>
</event>
<event>
 9    1  0.7986988E-001  0.2731671E+03  0.7818608E-02  0.1099481E+00
          2   -1    0    0  501    0  0.00000000000E+00  0.00000000000E+00  0.90840533150E+03  0.90840533150E+03  0.00000000000E+00 0. -1.
         -2   -1    0    0    0  501 -0.00000000000E+00 -0.00000000000E+00 -0.20536054991E+02  0.20536054991E+02  0.00000000000E+00 0. -1.
         35    2    1    2    0    0  0.00000000000E+00 -0.71054273576E-14  0.88786927651E+03  0.92894138649E+03  0.27316706860E+03 0.  0.
         25    2    3    3    0    0  0.49071647721E+02 -0.22918325255E+02  0.41589604592E+03  0.43758201165E+03  0.12480071981E+03 0.  0.
         25    2    3    3    0    0 -0.49071647721E+02  0.22918325255E+02  0.47197323059E+03  0.49135937484E+03  0.12546724118E+03 0.  0.
          5    1    4    4  502    0  0.30141920368E+02  0.57400805811E+01  0.13760001476E+02  0.33954550935E+02  0.47000000000E+01 0.  1.
         -5    1    4    4    0  502  0.18929727353E+02 -0.28658405836E+02  0.40213604445E+03  0.40362746072E+03  0.47000000000E+01 0.  1.
          5    1    5    5  503    0  0.93790481994E+01  0.49443578249E+02  0.34823750660E+03  0.35188646603E+03  0.47000000000E+01 0. -1.
         -5    1    5    5    0  503 -0.58450695920E+02 -0.26525252994E+02  0.12373572399E+03  0.13947290881E+03  0.47000000000E+01 0. -1.
<mgrwt>
<rscale>  0 0.27316707E+03</rscale>
<asrwt>0</asrwt>
<pdfrwt beam="1">  1        2 0.13975464E+00 0.27316707E+03</pdfrwt>
<pdfrwt beam="2">  1       -2 0.31593938E-02 0.27316707E+03</pdfrwt>
<totfact> 0.11721872E+04</totfact>
</mgrwt>
</event>
<event>
 9    1  0.7986988E-001  0.2867229E+03  0.7818608E-02  0.1092073E+00
         -1   -1    0    0    0  501 -0.00000000000E+00  0.00000000000E+00  0.77764237706E+02  0.77764237706E+02  0.00000000000E+00 0.  1.
          1   -1    0    0  501    0  0.00000000000E+00 -0.00000000000E+00 -0.26429244978E+03  0.26429244978E+03  0.00000000000E+00 0.  1.
         35    2    1    2    0    0  0.00000000000E+00  0.00000000000E+00 -0.18652821207E+03  0.34205668749E+03  0.28672286891E+03 0.  0.
         25    2    3    3    0    0 -0.34404563271E+02  0.44239457207E+02 -0.14373138958E+03  0.19878750745E+03  0.12536728927E+03 0.  0.
         25    2    3    3    0    0  0.34404563271E+02 -0.44239457207E+02 -0.42796822490E+02  0.14326918004E+03  0.12471441932E+03 0.  0.
          5    1    4    4  502    0 -0.68153599492E+00  0.55822673314E+02 -0.15190342823E+03  0.16190545653E+03  0.47000000000E+01 0. -1.
         -5    1    4    4    0  502 -0.33723027276E+02 -0.11583216107E+02  0.81720386466E+01  0.36882050915E+02  0.47000000000E+01 0. -1.
          5    1    5    5  503    0  0.68958606732E+02 -0.13822000971E+02 -0.61318631778E+02  0.93425915872E+02  0.47000000000E+01 0.  1.
         -5    1    5    5    0  503 -0.34554043461E+02 -0.30417456236E+02  0.18521809289E+02  0.49843264166E+02  0.47000000000E+01 0.  1.
<mgrwt>
<rscale>  0 0.28672287E+03</rscale>
<asrwt>0</asrwt>
<pdfrwt beam="1">  1        1 0.40660377E-01 0.28672287E+03</pdfrwt>
<pdfrwt beam="2">  1       -1 0.11963729E-01 0.28672287E+03</pdfrwt>
<totfact> 0.47156634E+03</totfact>
</mgrwt>
</event>
<event>
 9    1  0.7986988E-001  0.2666583E+03  0.7818608E-02  0.1103207E+00
         -2   -1    0    0    0  501 -0.00000000000E+00  0.00000000000E+00  0.75530043108E+01  0.75530043108E+01  0.00000000000E+00 0. -1.
          2   -1    0    0  501    0  0.00000000000E+00 -0.00000000000E+00 -0.23535889076E+04  0.23535889076E+04  0.00000000000E+00 0. -1.
         35    2    1    2    0    0  0.00000000000E+00  0.00000000000E+00 -0.23460359033E+04  0.23611419119E+04  0.26665833694E+03 0.  0.
         25    2    3    3    0    0  0.36901286892E+02 -0.26166055585E+02 -0.12418162422E+04  0.12489869992E+04  0.12575602270E+03 0.  0.
         25    2    3    3    0    0 -0.36901286892E+02  0.26166055585E+02 -0.11042196610E+04  0.11121549127E+04  0.12466403882E+03 0.  0.
          5    1    4    4  502    0 -0.87426858138E+00  0.38926881780E+02 -0.16761126826E+03  0.17213858870E+03  0.47000000000E+01 0.  1.
         -5    1    4    4    0  502  0.37775555473E+02 -0.65092937365E+02 -0.10742049740E+04  0.10768484105E+04  0.47000000000E+01 0.  1.
          5    1    5    5  503    0  0.11287273447E+01 -0.46866388667E+02 -0.52213355734E+03  0.52425497052E+03  0.47000000000E+01 0.  1.
         -5    1    5    5    0  503 -0.38030014237E+02  0.73032444252E+02 -0.58208610371E+03  0.58789994219E+03  0.47000000000E+01 0.  1.
<mgrwt>
<rscale>  0 0.26665834E+03</rscale>
<asrwt>0</asrwt>
<pdfrwt beam="1">  1        2 0.36209095E+00 0.26665834E+03</pdfrwt>
<pdfrwt beam="2">  1       -2 0.11619996E-02 0.26665834E+03</pdfrwt>
<totfact> 0.82532452E+03</totfact>
</mgrwt>
</event>
<event>
 9    1  0.7986988E-001  0.2824474E+03  0.7818608E-02  0.1094360E+00
         -2   -1    0    0    0  501 -0.00000000000E+00  0.00000000000E+00  0.29027935127E+03  0.29027935127E+03  0.00000000000E+00 0. -1.
          2   -1    0    0  501    0  0.00000000000E+00 -0.00000000000E+00 -0.68706674208E+02  0.68706674208E+02  0.00000000000E+00 0. -1.
         35    2    1    2    0    0  0.14210854715E-13  0.00000000000E+00  0.22157267706E+03  0.35898602548E+03  0.28244736725E+03 0.  0.
         25    2    3    3    0    0 -0.63855875765E+02  0.11480269856E+02  0.12488430203E+03  0.18814521067E+03  0.12487258281E+03 0.  0.
         25    2    3    3    0    0  0.63855875765E+02 -0.11480269856E+02  0.96688375030E+02  0.17084081481E+03  0.12501428988E+03 0.  0.
          5    1    4    4  502    0  0.10408472480E+02  0.21926854151E+02  0.10844232430E+03  0.11122477661E+03  0.47000000000E+01 0. -1.
         -5    1    4    4    0  502 -0.74264348245E+02 -0.10446584296E+02  0.16441977730E+02  0.76920434056E+02  0.47000000000E+01 0. -1.
          5    1    5    5  503    0 -0.26878069284E+01  0.49719028719E+02  0.29084580844E+02  0.57855068626E+02  0.47000000000E+01 0.  1.
         -5    1    5    5    0  503  0.66543682693E+02 -0.61199298575E+02  0.67603794186E+02  0.11298574618E+03  0.47000000000E+01 0.  1.
<mgrwt>
<rscale>  0 0.28244737E+03</rscale>
<asrwt>0</asrwt>
<pdfrwt beam="1">  1        2 0.10570258E-01 0.28244737E+03</pdfrwt>
<pdfrwt beam="2">  1       -2 0.44658361E-01 0.28244737E+03</pdfrwt>
<totfact> 0.28671328E+03</totfact>
</mgrwt>
</event>
<event>
 9    1  0.7986988E-001  0.2681274E+03  0.7818608E-02  0.1102356E+00
          2   -1    0    0  501    0  0.00000000000E+00  0.00000000000E+00  0.60722303545E+03  0.60722303545E+03  0.00000000000E+00 0. -1.
         -2   -1    0    0    0  501 -0.00000000000E+00 -0.00000000000E+00 -0.29598813259E+02  0.29598813259E+02  0.00000000000E+00 0. -1.
         35    2    1    2    0    0  0.00000000000E+00 -0.35527136788E-14  0.57762422219E+03  0.63682184871E+03  0.26812744159E+03 0.  0.
         25    2    3    3    0    0 -0.37033006938E+02  0.21890357056E+02  0.32983779823E+03  0.35608715240E+03  0.12710017948E+03 0.  0.
         25    2    3    3    0    0  0.37033006938E+02 -0.21890357056E+02  0.24778642396E+03  0.28073469631E+03  0.12475266122E+03 0.  0.
          5    1    4    4  502    0  0.47413052089E+02  0.77428294374E+01  0.12727183121E+03  0.13611817636E+03  0.47000000000E+01 0. -1.
         -5    1    4    4    0  502 -0.84446059026E+02  0.14147527619E+02  0.20256596702E+03  0.21996897603E+03  0.47000000000E+01 0. -1.
          5    1    5    5  503    0  0.44594674223E+02 -0.48027860855E+02  0.54165726861E+02  0.85155013673E+02  0.47000000000E+01 0.  1.
         -5    1    5    5    0  503 -0.75616672850E+01  0.26137503798E+02  0.19362069710E+03  0.19557968264E+03  0.47000000000E+01 0.  1.
<mgrwt>
<rscale>  0 0.26812744E+03</rscale>
<asrwt>0</asrwt>
<pdfrwt beam="1">  1        2 0.93418919E-01 0.26812744E+03</pdfrwt>
<pdfrwt beam="2">  1       -2 0.45536640E-02 0.26812744E+03</pdfrwt>
<totfact> 0.11165125E+04</totfact>
</mgrwt>
</event>
<event>
 9    1  0.7986988E-001  0.2776932E+03  0.7818608E-02  0.1096956E+00
          2   -1    0    0  501    0  0.00000000000E+00  0.00000000000E+00  0.73958781371E+03  0.73958781371E+03  0.00000000000E+00 0.  1.
         -2   -1    0    0    0  501 -0.00000000000E+00 -0.00000000000E+00 -0.26066383200E+02  0.26066383200E+02  0.00000000000E+00 0.  1.
         35    2    1    2    0    0  0.00000000000E+00  0.00000000000E+00  0.71352143051E+03  0.76565419691E+03  0.27769320742E+03 0.  0.
         25    2    3    3    0    0 -0.14444485185E+02 -0.51426733936E+00  0.19352705506E+03  0.23049923466E+03  0.12437149399E+03 0.  0.
         25    2    3    3    0    0  0.14444485185E+02  0.51426733936E+00  0.51999437545E+03  0.53515496225E+03  0.12564941501E+03 0.  0.
          5    1    4    4  502    0  0.23934398276E+02  0.50277985567E+02  0.12457640778E+03  0.13653608545E+03  0.47000000000E+01 0.  1.
         -5    1    4    4    0  502 -0.38378883461E+02 -0.50792252906E+02  0.68950647278E+02  0.93963149219E+02  0.47000000000E+01 0.  1.
          5    1    5    5  503    0  0.22107074441E+02  0.56016292634E+02  0.37138189006E+03  0.37626207097E+03  0.47000000000E+01 0. -1.
         -5    1    5    5    0  503 -0.76625892567E+01 -0.55502025294E+02  0.14861248539E+03  0.15889289128E+03  0.47000000000E+01 0. -1.
<mgrwt>
<rscale>  0 0.27769321E+03</rscale>
<asrwt>0</asrwt>
<pdfrwt beam="1">  1        2 0.11378272E+00 0.27769321E+03</pdfrwt>
<pdfrwt beam="2">  1       -2 0.40102134E-02 0.27769321E+03</pdfrwt>
<totfact> 0.10692599E+04</totfact>
</mgrwt>
</event>
<event>
 9    1  0.7986988E-001  0.2746199E+03  0.7818608E-02  0.1098664E+00
         -1   -1    0    0    0  501 -0.00000000000E+00  0.00000000000E+00  0.19751359794E+03  0.19751359794E+03  0.00000000000E+00 0. -1.
          1   -1    0    0  501    0  0.00000000000E+00 -0.00000000000E+00 -0.95456829462E+02  0.95456829462E+02  0.00000000000E+00 0. -1.
         35    2    1    2    0    0  0.00000000000E+00  0.00000000000E+00  0.10205676848E+03  0.29297042741E+03  0.27461989611E+03 0.  0.
         25    2    3    3    0    0  0.41128309792E+02 -0.31163920404E+02  0.31050172592E+02  0.13956927435E+03  0.12590766983E+03 0.  0.
         25    2    3    3    0    0 -0.41128309792E+02  0.31163920404E+02  0.71006595891E+02  0.15340115306E+03  0.12580639610E+03 0.  0.
          5    1    4    4  502    0  0.51050740799E+02  0.34398235901E+02 -0.83429797934E+01  0.62298572063E+02  0.47000000000E+01 0. -1.
         -5    1    4    4    0  502 -0.99224310072E+01 -0.65562156305E+02  0.39393152385E+02  0.77270702283E+02  0.47000000000E+01 0. -1.
          5    1    5    5  503    0  0.88224945713E+01 -0.19437477229E+02  0.78747057166E+02  0.81724176006E+02  0.47000000000E+01 0.  1.
         -5    1    5    5    0  503 -0.49950804363E+02  0.50601397632E+02 -0.77404612757E+01  0.71676977054E+02  0.47000000000E+01 0.  1.
<mgrwt>
<rscale>  0 0.27461990E+03</rscale>
<asrwt>0</asrwt>
<pdfrwt beam="1">  1        1 0.14685666E-01 0.27461990E+03</pdfrwt>
<pdfrwt beam="2">  1       -1 0.30386707E-01 0.27461990E+03</pdfrwt>
<totfact> 0.38096261E+03</totfact>
</mgrwt>
</event>
<event>
 9    1  0.7986988E-001  0.2760328E+03  0.7818608E-02  0.1097876E+00
          1   -1    0    0  501    0  0.00000000000E+00  0.00000000000E+00  0.10430342517E+03  0.10430342517E+03  0.00000000000E+00 0.  1.
         -1   -1    0    0    0  501 -0.00000000000E+00 -0.00000000000E+00 -0.18262604121E+03  0.18262604121E+03  0.00000000000E+00 0.  1.
         35    2    1    2    0    0 -0.71054273576E-14  0.00000000000E+00 -0.78322616042E+02  0.28692946639E+03  0.27603276345E+03 0.  0.
         25    2    3    3    0    0  0.38280796193E+02  0.39588432932E+02 -0.58842112831E+01  0.13560927267E+03  0.12378443971E+03 0.  0.
         25    2    3    3    0    0 -0.38280796193E+02 -0.39588432932E+02 -0.72438404759E+02  0.15132019371E+03  0.12090415693E+03 0.  0.
          5    1    4    4  502    0 -0.27529652012E+01 -0.73335137898E+01 -0.55223065938E+02  0.55973531722E+02  0.47000000000E+01 0.  1.
         -5    1    4    4    0  502  0.41033761395E+02  0.46921946721E+02  0.49338854655E+02  0.79635740952E+02  0.47000000000E+01 0.  1.
          5    1    5    5  503    0 -0.56572782600E+02 -0.84773425055E+01 -0.93173029261E+02  0.10943330594E+03  0.47000000000E+01 0.  1.
         -5    1    5    5    0  503  0.18291986406E+02 -0.31111090426E+02  0.20734624502E+02  0.41886887775E+02  0.47000000000E+01 0.  1.
<mgrwt>
<rscale>  0 0.27603276E+03</rscale>
<asrwt>0</asrwt>
<pdfrwt beam="1">  1        1 0.16046681E-01 0.27603276E+03</pdfrwt>
<pdfrwt beam="2">  1       -1 0.28096313E-01 0.27603276E+03</pdfrwt>
<totfact> 0.38745137E+03</totfact>
</mgrwt>
</event>
<event>
 9    1  0.7986988E-001  0.2732648E+03  0.7818608E-02  0.1099425E+00
          1   -1    0    0  501    0  0.00000000000E+00  0.00000000000E+00  0.10913353904E+04  0.10913353904E+04  0.00000000000E+00 0. -1.
         -1   -1    0    0    0  501 -0.00000000000E+00 -0.00000000000E+00 -0.17106026477E+02  0.17106026477E+02  0.00000000000E+00 0. -1.
         35    2    1    2    0    0 -0.17763568394E-14  0.00000000000E+00  0.10742293639E+04  0.11084414169E+04  0.27326479527E+03 0.  0.
         25    2    3    3    0    0 -0.66089351531E+01 -0.12382567744E+02  0.32333584525E+03  0.34710845582E+03  0.12546396003E+03 0.  0.
         25    2    3    3    0    0  0.66089351531E+01  0.12382567744E+02  0.75089351865E+03  0.76133296104E+03  0.12485910142E+03 0.  0.
          5    1    4    4  502    0 -0.10356649408E+02  0.23844785736E+02  0.30485520431E+03  0.30599774442E+03  0.47000000000E+01 0. -1.
         -5    1    4    4    0  502  0.37477142545E+01 -0.36227353480E+02  0.18480640946E+02  0.41110711403E+02  0.47000000000E+01 0. -1.
          5    1    5    5  503    0  0.17377537601E+02 -0.48053858198E+02  0.51452522596E+03  0.51707779903E+03  0.47000000000E+01 0. -1.
         -5    1    5    5    0  503 -0.10768602448E+02  0.60436425942E+02  0.23636829269E+03  0.24425516201E+03  0.47000000000E+01 0. -1.
<mgrwt>
<rscale>  0 0.27326480E+03</rscale>
<asrwt>0</asrwt>
<pdfrwt beam="1">  1        1 0.16789770E+00 0.27326480E+03</pdfrwt>
<pdfrwt beam="2">  1       -1 0.26316972E-02 0.27326480E+03</pdfrwt>
<totfact> 0.62634709E+03</totfact>
</mgrwt>
</event>
<event>
 9    1  0.7986988E-001  0.2747759E+03  0.7818608E-02  0.1098577E+00
         -1   -1    0    0    0  501 -0.00000000000E+00  0.00000000000E+00  0.12899860302E+02  0.12899860302E+02  0.00000000000E+00 0. -1.
          1   -1    0    0  501    0  0.00000000000E+00 -0.00000000000E+00 -0.14632294389E+04  0.14632294389E+04  0.00000000000E+00 0. -1.
         35    2    1    2    0    0  0.00000000000E+00  0.71054273576E-14 -0.14503295786E+04  0.14761292992E+04  0.27477594765E+03 0.  0.
         25    2    3    3    0    0  0.45037866257E+02 -0.31065234909E+02 -0.74110810262E+03  0.75353999236E+03  0.12485127990E+03 0.  0.
         25    2    3    3    0    0 -0.45037866257E+02  0.31065234909E+02 -0.70922147601E+03  0.72258930688E+03  0.12706984759E+03 0.  0.
          5    1    4    4  502    0  0.52003024916E+02  0.28927300478E+02 -0.54575969026E+03  0.54901441951E+03  0.47000000000E+01 0.  1.
         -5    1    4    4    0  502 -0.69651586587E+01 -0.59992535387E+02 -0.19534841236E+03  0.20452557285E+03  0.47000000000E+01 0.  1.
          5    1    5    5  503    0  0.15968720672E+02  0.65182971696E+02 -0.30382060947E+03  0.31117980747E+03  0.47000000000E+01 0.  1.
         -5    1    5    5    0  503 -0.61006586929E+02 -0.34117736788E+02 -0.40540086654E+03  0.41140949941E+03  0.47000000000E+01 0.  1.
<mgrwt>
<rscale>  0 0.27477595E+03</rscale>
<asrwt>0</asrwt>
<pdfrwt beam="1">  1        1 0.22511228E+00 0.27477595E+03</pdfrwt>
<pdfrwt beam="2">  1       -1 0.19845934E-02 0.27477595E+03</pdfrwt>
<totfact> 0.52503658E+03</totfact>
</mgrwt>
</event>
<event>
 9    1  0.7986988E-001  0.2783695E+03  0.7818608E-02  0.1096583E+00
          2   -1    0    0  501    0  0.00000000000E+00  0.00000000000E+00  0.77028258443E+01  0.77028258443E+01  0.00000000000E+00 0.  1.
         -2   -1    0    0    0  501 -0.00000000000E+00 -0.00000000000E+00 -0.25149724496E+04  0.25149724496E+04  0.00000000000E+00 0.  1.
         35    2    1    2    0    0  0.00000000000E+00  0.00000000000E+00 -0.25072696238E+04  0.25226752754E+04  0.27836950108E+03 0.  0.
         25    2    3    3    0    0 -0.39291095888E+02 -0.45257115339E+02 -0.11219930185E+04  0.11305061689E+04  0.12483536227E+03 0.  0.
         25    2    3    3    0    0  0.39291095888E+02  0.45257115339E+02 -0.13852766052E+04  0.13921691065E+04  0.12470585961E+03 0.  0.
          5    1    4    4  502    0 -0.47227827707E+02 -0.32535363407E+02 -0.19336509708E+03  0.20174530565E+03  0.47000000000E+01 0. -1.
         -5    1    4    4    0  502  0.79367318183E+01 -0.12721751932E+02 -0.92862792145E+03  0.92876086329E+03  0.47000000000E+01 0. -1.
          5    1    5    5  503    0 -0.23566392792E+02  0.58943352572E+02 -0.95107250745E+03  0.95320024030E+03  0.47000000000E+01 0. -1.
         -5    1    5    5    0  503  0.62857488680E+02 -0.13686237233E+02 -0.43420409777E+03  0.43896886620E+03  0.47000000000E+01 0. -1.
<mgrwt>
<rscale>  0 0.27836950E+03</rscale>
<asrwt>0</asrwt>
<pdfrwt beam="1">  1        2 0.11850507E-02 0.27836950E+03</pdfrwt>
<pdfrwt beam="2">  1       -2 0.38691864E+00 0.27836950E+03</pdfrwt>
<totfact> 0.12408892E+02</totfact>
</mgrwt>
</event>
<event>
 9    1  0.7986988E-001  0.2773523E+03  0.7818608E-02  0.1097144E+00
          1   -1    0    0  501    0  0.00000000000E+00  0.00000000000E+00  0.99572242722E+03  0.99572242722E+03  0.00000000000E+00 0.  1.
         -1   -1    0    0    0  501 -0.00000000000E+00 -0.00000000000E+00 -0.19313692929E+02  0.19313692929E+02  0.00000000000E+00 0.  1.
         35    2    1    2    0    0  0.00000000000E+00  0.00000000000E+00  0.97640873429E+03  0.10150361201E+04  0.27735231891E+03 0.  0.
         25    2    3    3    0    0 -0.87594286785E+01 -0.35114327258E+02  0.33630873620E+03  0.36185556183E+03  0.12855402758E+03 0.  0.
         25    2    3    3    0    0  0.87594286785E+01  0.35114327258E+02  0.64009999809E+03  0.65318055832E+03  0.12492834206E+03 0.  0.
          5    1    4    4  502    0 -0.60188461967E+02  0.10240604443E+01  0.95933835147E+02  0.11335382825E+03  0.47000000000E+01 0.  1.
         -5    1    4    4    0  502  0.51429033288E+02 -0.36138387702E+02  0.24037490106E+03  0.24850173357E+03  0.47000000000E+01 0.  1.
          5    1    5    5  503    0  0.55778620914E+02  0.14757218465E+02  0.51001560663E+03  0.51329040421E+03  0.47000000000E+01 0.  1.
         -5    1    5    5    0  503 -0.47019192235E+02  0.20357108794E+02  0.13008439146E+03  0.13989015412E+03  0.47000000000E+01 0.  1.
<mgrwt>
<rscale>  0 0.27735232E+03</rscale>
<asrwt>0</asrwt>
<pdfrwt beam="1">  1        1 0.15318803E+00 0.27735232E+03</pdfrwt>
<pdfrwt beam="2">  1       -1 0.29713381E-02 0.27735232E+03</pdfrwt>
<totfact> 0.61610638E+03</totfact>
</mgrwt>
</event>
<event>
 9    1  0.7986988E-001  0.2759739E+03  0.7818608E-02  0.1097908E+00
          2   -1    0    0  501    0  0.00000000000E+00  0.00000000000E+00  0.44681141734E+02  0.44681141734E+02  0.00000000000E+00 0. -1.
         -2   -1    0    0    0  501 -0.00000000000E+00 -0.00000000000E+00 -0.42613944385E+03  0.42613944385E+03  0.00000000000E+00 0. -1.
         35    2    1    2    0    0  0.71054273576E-14  0.35527136788E-14 -0.38145830212E+03  0.47082058559E+03  0.27597388927E+03 0.  0.
         25    2    3    3    0    0 -0.54157475672E+02  0.41487236290E+01 -0.17546924661E+03  0.22278993120E+03  0.12607796341E+03 0.  0.
         25    2    3    3    0    0  0.54157475672E+02 -0.41487236290E+01 -0.20598905551E+03  0.24803065439E+03  0.12703334384E+03 0.  0.
          5    1    4    4  502    0 -0.92821180625E+02  0.13900615619E-02 -0.14867249746E+03  0.17533217923E+03  0.47000000000E+01 0. -1.
         -5    1    4    4    0  502  0.38663704953E+02  0.41473335674E+01 -0.26796749151E+02  0.47457751964E+02  0.47000000000E+01 0. -1.
          5    1    5    5  503    0  0.20645697102E+01  0.43202537747E+02 -0.15497366521E+03  0.16096474342E+03  0.47000000000E+01 0. -1.
         -5    1    5    5    0  503  0.52092905962E+02 -0.47351261376E+02 -0.51015390304E+02  0.87065910972E+02  0.47000000000E+01 0. -1.
<mgrwt>
<rscale>  0 0.27597389E+03</rscale>
<asrwt>0</asrwt>
<pdfrwt beam="1">  1        2 0.68740219E-02 0.27597389E+03</pdfrwt>
<pdfrwt beam="2">  1       -2 0.65559914E-01 0.27597389E+03</pdfrwt>
<totfact> 0.22643475E+03</totfact>
</mgrwt>
</event>
<event>
 9    1  0.7986988E-001  0.2731084E+03  0.7818608E-02  0.1099514E+00
         -3   -1    0    0    0  501 -0.00000000000E+00  0.00000000000E+00  0.19200337651E+02  0.19200337651E+02  0.00000000000E+00 0.  1.
          3   -1    0    0  501    0  0.00000000000E+00 -0.00000000000E+00 -0.97118372650E+03  0.97118372650E+03  0.00000000000E+00 0.  1.
         35    2    1    2    0    0 -0.71054273576E-14  0.00000000000E+00 -0.95198338885E+03  0.99038406416E+03  0.27310844344E+03 0.  0.
         25    2    3    3    0    0  0.44166835825E+02  0.47514640994E+02 -0.45038751340E+03  0.47202507151E+03  0.12550061915E+03 0.  0.
         25    2    3    3    0    0 -0.44166835825E+02 -0.47514640994E+02 -0.50159587545E+03  0.51835899265E+03  0.11353093188E+03 0.  0.
          5    1    4    4  502    0  0.22595834185E+02  0.31947407221E+02 -0.26992511783E+02  0.47769176704E+02  0.47000000000E+01 0. -1.
         -5    1    4    4    0  502  0.21571001640E+02  0.15567233773E+02 -0.42339500162E+03  0.42425589480E+03  0.47000000000E+01 0. -1.
          5    1    5    5  503    0 -0.15585151828E+02 -0.67812396538E+02 -0.45253914724E+03  0.45788119405E+03  0.47000000000E+01 0. -1.
         -5    1    5    5    0  503 -0.28581683996E+02  0.20297755544E+02 -0.49056728209E+02  0.60477798594E+02  0.47000000000E+01 0. -1.
<mgrwt>
<rscale>  0 0.27310844E+03</rscale>
<asrwt>0</asrwt>
<pdfrwt beam="1">  1        3 0.14941285E+00 0.27310844E+03</pdfrwt>
<pdfrwt beam="2">  1       -3 0.29538987E-02 0.27310844E+03</pdfrwt>
<totfact> 0.45853787E+02</totfact>
</mgrwt>
</event>
<event>
 9    1  0.7986988E-001  0.2667647E+03  0.7818608E-02  0.1103146E+00
          2   -1    0    0  501    0  0.00000000000E+00  0.00000000000E+00  0.60285046932E+03  0.60285046932E+03  0.00000000000E+00 0. -1.
         -2   -1    0    0    0  501 -0.00000000000E+00 -0.00000000000E+00 -0.29511208964E+02  0.29511208964E+02  0.00000000000E+00 0. -1.
         35    2    1    2    0    0  0.00000000000E+00  0.00000000000E+00  0.57333926036E+03  0.63236167828E+03  0.26676466163E+03 0.  0.
         25    2    3    3    0    0 -0.12836518008E+02 -0.23264433746E+02  0.37184806726E+03  0.39399333158E+03  0.12749019623E+03 0.  0.
         25    2    3    3    0    0  0.12836518008E+02  0.23264433746E+02  0.20149119310E+03  0.23836834670E+03  0.12455825040E+03 0.  0.
          5    1    4    4  502    0  0.56920185387E+02 -0.11341560113E+02  0.19310429138E+03  0.20169257755E+03  0.47000000000E+01 0.  1.
         -5    1    4    4    0  502 -0.69756703396E+02 -0.11922873633E+02  0.17874377588E+03  0.19230075403E+03  0.47000000000E+01 0.  1.
          5    1    5    5  503    0 -0.29451581393E+02 -0.30735843443E+02  0.13904944141E+03  0.14549544624E+03  0.47000000000E+01 0. -1.
         -5    1    5    5    0  503  0.42288099401E+02  0.54000277189E+02  0.62441751683E+02  0.92872900464E+02  0.47000000000E+01 0. -1.
<mgrwt>
<rscale>  0 0.26676466E+03</rscale>
<asrwt>0</asrwt>
<pdfrwt beam="1">  1        2 0.92746217E-01 0.26676466E+03</pdfrwt>
<pdfrwt beam="2">  1       -2 0.45401864E-02 0.26676466E+03</pdfrwt>
<totfact> 0.11307625E+04</totfact>
</mgrwt>
</event>
<event>
 9    1  0.7986988E-001  0.2724418E+03  0.7818608E-02  0.1099890E+00
          1   -1    0    0  501    0  0.00000000000E+00  0.00000000000E+00  0.90906813719E+03  0.90906813719E+03  0.00000000000E+00 0.  1.
         -1   -1    0    0    0  501 -0.00000000000E+00 -0.00000000000E+00 -0.20412265662E+02  0.20412265662E+02  0.00000000000E+00 0.  1.
         35    2    1    2    0    0  0.00000000000E+00 -0.35527136788E-14  0.88865587153E+03  0.92948040285E+03  0.27244184937E+03 0.  0.
         25    2    3    3    0    0  0.29118856759E+02  0.21272806619E+02  0.58004595117E+03  0.59457023034E+03  0.12553889124E+03 0.  0.
         25    2    3    3    0    0 -0.29118856759E+02 -0.21272806619E+02  0.30860992036E+03  0.33491017252E+03  0.12499720233E+03 0.  0.
          5    1    4    4  502    0 -0.20174359130E+02  0.13790637738E+02  0.49679369735E+03  0.49741658012E+03  0.47000000000E+01 0. -1.
         -5    1    4    4    0  502  0.49293215889E+02  0.74821688810E+01  0.83252253823E+02  0.97153650217E+02  0.47000000000E+01 0. -1.
          5    1    5    5  503    0  0.39626652979E+02 -0.19845319057E+02  0.48685796476E+02  0.66003826354E+02  0.47000000000E+01 0. -1.
         -5    1    5    5    0  503 -0.68745509739E+02 -0.14274875613E+01  0.25992412388E+03  0.26890634616E+03  0.47000000000E+01 0. -1.
<mgrwt>
<rscale>  0 0.27244185E+03</rscale>
<asrwt>0</asrwt>
<pdfrwt beam="1">  1        1 0.13985661E+00 0.27244185E+03</pdfrwt>
<pdfrwt beam="2">  1       -1 0.31403493E-02 0.27244185E+03</pdfrwt>
<totfact> 0.66119257E+03</totfact>
</mgrwt>
</event>
<event>
 9    1  0.7986988E-001  0.2737107E+03  0.7818608E-02  0.1099174E+00
         -2   -1    0    0    0  501 -0.00000000000E+00  0.00000000000E+00  0.16572879562E+02  0.16572879562E+02  0.00000000000E+00 0.  1.
          2   -1    0    0  501    0  0.00000000000E+00 -0.00000000000E+00 -0.11301223140E+04  0.11301223140E+04  0.00000000000E+00 0.  1.
         35    2    1    2    0    0  0.35527136788E-14  0.00000000000E+00 -0.11135494344E+04  0.11466951935E+04  0.27371065745E+03 0.  0.
         25    2    3    3    0    0  0.16907580536E+02 -0.49697436803E+02 -0.47760800046E+03  0.49648840289E+03  0.12504251515E+03 0.  0.
         25    2    3    3    0    0 -0.16907580536E+02  0.49697436803E+02 -0.63594143396E+03  0.65020679066E+03  0.12486657553E+03 0.  0.
          5    1    4    4  502    0 -0.36666114443E+02 -0.33966479805E+02 -0.38491918770E+03  0.38817907821E+03  0.47000000000E+01 0.  1.
         -5    1    4    4    0  502  0.53573694979E+02 -0.15730956998E+02 -0.92688812757E+02  0.10830932468E+03  0.47000000000E+01 0.  1.
          5    1    5    5  503    0 -0.24279694705E+02 -0.16703501409E+02 -0.37013038504E+02  0.47545405178E+02  0.47000000000E+01 0.  1.
         -5    1    5    5    0  503  0.73721141685E+01  0.66400938213E+02 -0.59892839546E+03  0.60266138548E+03  0.47000000000E+01 0.  1.
<mgrwt>
<rscale>  0 0.27371066E+03</rscale>
<asrwt>0</asrwt>
<pdfrwt beam="1">  1        2 0.17386507E+00 0.27371066E+03</pdfrwt>
<pdfrwt beam="2">  1       -2 0.25496723E-02 0.27371066E+03</pdfrwt>
<totfact> 0.11814294E+04</totfact>
</mgrwt>
</event>
<event>
 9    1  0.7986988E-001  0.2761932E+03  0.7818608E-02  0.1097786E+00
          2   -1    0    0  501    0  0.00000000000E+00  0.00000000000E+00  0.50937924420E+03  0.50937924420E+03  0.00000000000E+00 0. -1.
         -2   -1    0    0    0  501 -0.00000000000E+00 -0.00000000000E+00 -0.37439052335E+02  0.37439052335E+02  0.00000000000E+00 0. -1.
         35    2    1    2    0    0  0.35527136788E-14 -0.14210854715E-13  0.47194019186E+03  0.54681829653E+03  0.27619323802E+03 0.  0.
         25    2    3    3    0    0 -0.17205850392E+02 -0.58832193308E+02  0.23738595370E+03  0.27495344169E+03  0.12445897246E+03 0.  0.
         25    2    3    3    0    0  0.17205850392E+02  0.58832193308E+02  0.23455423816E+03  0.27186485484E+03  0.12303471218E+03 0.  0.
          5    1    4    4  502    0  0.38748448821E+02 -0.34079309646E+02  0.32711769014E+02  0.61277985149E+02  0.47000000000E+01 0.  1.
         -5    1    4    4    0  502 -0.55954299213E+02 -0.24752883662E+02  0.20467418469E+03  0.21367545654E+03  0.47000000000E+01 0.  1.
          5    1    5    5  503    0 -0.23131924516E+02  0.17422693948E+02 -0.92025732005E+00  0.29352564961E+02  0.47000000000E+01 0.  1.
         -5    1    5    5    0  503  0.40337774908E+02  0.41409499359E+02  0.23547449548E+03  0.24251228988E+03  0.47000000000E+01 0.  1.
<mgrwt>
<rscale>  0 0.27619324E+03</rscale>
<asrwt>0</asrwt>
<pdfrwt beam="1">  1        2 0.78366033E-01 0.27619324E+03</pdfrwt>
<pdfrwt beam="2">  1       -2 0.57598546E-02 0.27619324E+03</pdfrwt>
<totfact> 0.95554344E+03</totfact>
</mgrwt>
</event>
<event>
 9    1  0.7986988E-001  0.2713772E+03  0.7818608E-02  0.1100494E+00
         -2   -1    0    0    0  501 -0.00000000000E+00  0.00000000000E+00  0.44431615411E+02  0.44431615411E+02  0.00000000000E+00 0.  1.
          2   -1    0    0  501    0  0.00000000000E+00 -0.00000000000E+00 -0.41437605543E+03  0.41437605543E+03  0.00000000000E+00 0.  1.
         35    2    1    2    0    0 -0.35527136788E-14  0.17763568394E-14 -0.36994444002E+03  0.45880767084E+03  0.27137721003E+03 0.  0.
         25    2    3    3    0    0  0.87436980802E+01 -0.84282495272E+01 -0.94919107058E+02  0.15653457059E+03  0.12387876032E+03 0.  0.
         25    2    3    3    0    0 -0.87436980802E+01  0.84282495272E+01 -0.27502533296E+03  0.30227310026E+03  0.12483030771E+03 0.  0.
          5    1    4    4  502    0 -0.49996778047E+02 -0.23856840815E+02 -0.73079449235E+02  0.91823322578E+02  0.47000000000E+01 0.  1.
         -5    1    4    4    0  502  0.58740476127E+02  0.15428591288E+02 -0.21839657823E+02  0.64711248007E+02  0.47000000000E+01 0.  1.
          5    1    5    5  503    0  0.64240826660E+01 -0.18952428580E+01  0.12054475624E+02  0.14569185501E+02  0.47000000000E+01 0.  1.
         -5    1    5    5    0  503 -0.15167780746E+02  0.10323492385E+02 -0.28707980859E+03  0.28770391476E+03  0.47000000000E+01 0.  1.
<mgrwt>
<rscale>  0 0.27137721E+03</rscale>
<asrwt>0</asrwt>
<pdfrwt beam="1">  1        2 0.63750162E-01 0.27137721E+03</pdfrwt>
<pdfrwt beam="2">  1       -2 0.68356332E-02 0.27137721E+03</pdfrwt>
<totfact> 0.92173398E+03</totfact>
</mgrwt>
</event>
<event>
 9    1  0.7986988E-001  0.2920042E+03  0.7818608E-02  0.1089307E+00
          1   -1    0    0  501    0  0.00000000000E+00  0.00000000000E+00  0.22399033155E+04  0.22399033155E+04  0.00000000000E+00 0.  1.
         -1   -1    0    0    0  501 -0.00000000000E+00 -0.00000000000E+00 -0.95167562893E+01  0.95167562893E+01  0.00000000000E+00 0.  1.
         35    2    1    2    0    0  0.00000000000E+00 -0.71054273576E-14  0.22303865592E+04  0.22494200718E+04  0.29200420521E+03 0.  0.
         25    2    3    3    0    0 -0.43514393556E+02  0.46964615776E+02  0.81619740803E+03  0.82825705006E+03  0.12542868304E+03 0.  0.
         25    2    3    3    0    0  0.43514393556E+02 -0.46964615776E+02  0.14141891512E+04  0.14211630217E+04  0.12519665097E+03 0.  0.
          5    1    4    4  502    0  0.36523092237E+02  0.18886258061E+02  0.46883153338E+03  0.47065456941E+03  0.47000000000E+01 0.  1.
         -5    1    4    4    0  502 -0.80037485794E+02  0.28078357715E+02  0.34736587465E+03  0.35760248066E+03  0.47000000000E+01 0.  1.
          5    1    5    5  503    0 -0.41464564858E+01  0.68782839846E+00  0.10288045576E+01  0.63886342916E+01  0.47000000000E+01 0. -1.
         -5    1    5    5    0  503  0.47660850042E+02 -0.47652444175E+02  0.14131603466E+04  0.14147743874E+04  0.47000000000E+01 0. -1.
<mgrwt>
<rscale>  0 0.29200421E+03</rscale>
<asrwt>0</asrwt>
<pdfrwt beam="1">  1        1 0.34460009E+00 0.29200421E+03</pdfrwt>
<pdfrwt beam="2">  1       -1 0.14641181E-02 0.29200421E+03</pdfrwt>
<totfact> 0.25433568E+03</totfact>
</mgrwt>
</event>
<event>
 9    1  0.7986988E-001  0.2816314E+03  0.7818608E-02  0.1094801E+00
         -1   -1    0    0    0  501 -0.00000000000E+00  0.00000000000E+00  0.38808653993E+02  0.38808653993E+02  0.00000000000E+00 0.  1.
          1   -1    0    0  501    0  0.00000000000E+00 -0.00000000000E+00 -0.51094437512E+03  0.51094437512E+03  0.00000000000E+00 0.  1.
         35    2    1    2    0    0  0.71054273576E-14  0.71054273576E-14 -0.47213572113E+03  0.54975302912E+03  0.28163141489E+03 0.  0.
         25    2    3    3    0    0 -0.32864571163E+02 -0.49150990768E+02 -0.28440922837E+03  0.31662018360E+03  0.12595170325E+03 0.  0.
         25    2    3    3    0    0  0.32864571163E+02  0.49150990768E+02 -0.18772649276E+03  0.23313284551E+03  0.12495514252E+03 0.  0.
          5    1    4    4  502    0  0.34813057738E+02  0.21492797497E+02 -0.86223335099E+02  0.95553350799E+02  0.47000000000E+01 0. -1.
         -5    1    4    4    0  502 -0.67677628900E+02 -0.70643788265E+02 -0.19818589327E+03  0.22106683280E+03  0.47000000000E+01 0. -1.
          5    1    5    5  503    0  0.69796327288E+02  0.30274112953E+02 -0.17269170646E+03  0.18876589920E+03  0.47000000000E+01 0. -1.
         -5    1    5    5    0  503 -0.36931756126E+02  0.18876877815E+02 -0.15034786297E+02  0.44366946318E+02  0.47000000000E+01 0. -1.
<mgrwt>
<rscale>  0 0.28163141E+03</rscale>
<asrwt>0</asrwt>
<pdfrwt beam="1">  1        1 0.78606825E-01 0.28163141E+03</pdfrwt>
<pdfrwt beam="2">  1       -1 0.59705623E-02 0.28163141E+03</pdfrwt>
<totfact> 0.58831215E+03</totfact>
</mgrwt>
</event>
<event>
 9    1  0.7986988E-001  0.2971553E+03  0.7818608E-02  0.1086671E+00
          2   -1    0    0  501    0  0.00000000000E+00  0.00000000000E+00  0.21901039790E+04  0.21901039790E+04  0.00000000000E+00 0.  1.
         -2   -1    0    0    0  501 -0.00000000000E+00 -0.00000000000E+00 -0.10079572343E+02  0.10079572343E+02  0.00000000000E+00 0.  1.
         35    2    1    2    0    0  0.35527136788E-14 -0.35527136788E-14  0.21800244066E+04  0.22001835513E+04  0.29715525568E+03 0.  0.
         25    2    3    3    0    0 -0.17612862454E+02 -0.22019529593E+02  0.51275703195E+03  0.52796637827E+03  0.12261178641E+03 0.  0.
         25    2    3    3    0    0  0.17612862454E+02  0.22019529593E+02  0.16672673747E+04  0.16722171730E+04  0.12543804263E+03 0.  0.
          5    1    4    4  502    0 -0.44037109340E+02 -0.16099558513E+02  0.49006410883E+03  0.49232446978E+03  0.47000000000E+01 0.  1.
         -5    1    4    4    0  502  0.26424246887E+02 -0.59199710802E+01  0.22692923118E+02  0.35641908490E+02  0.47000000000E+01 0.  1.
          5    1    5    5  503    0 -0.28259620331E+02  0.54394586405E+02  0.52975110041E+03  0.53330638057E+03  0.47000000000E+01 0.  1.
         -5    1    5    5    0  503  0.45872482785E+02 -0.32375056812E+02  0.11375162743E+04  0.11389107925E+04  0.47000000000E+01 0.  1.
<mgrwt>
<rscale>  0 0.29715526E+03</rscale>
<asrwt>0</asrwt>
<pdfrwt beam="1">  1        2 0.33693869E+00 0.29715526E+03</pdfrwt>
<pdfrwt beam="2">  1       -2 0.15507052E-02 0.29715526E+03</pdfrwt>
<totfact> 0.66243029E+03</totfact>
</mgrwt>
</event>
<event>
 9    1  0.7986988E-001  0.2762807E+03  0.7818608E-02  0.1097738E+00
         -2   -1    0    0    0  501 -0.00000000000E+00  0.00000000000E+00  0.14678776254E+02  0.14678776254E+02  0.00000000000E+00 0. -1.
          2   -1    0    0  501    0  0.00000000000E+00 -0.00000000000E+00 -0.13000237417E+04  0.13000237417E+04  0.00000000000E+00 0. -1.
         35    2    1    2    0    0  0.00000000000E+00  0.71054273576E-14 -0.12853449654E+04  0.13147025179E+04  0.27628070963E+03 0.  0.
         25    2    3    3    0    0 -0.57478196972E+01 -0.58568715552E+02 -0.71841908434E+03  0.73130708822E+03  0.12337238207E+03 0.  0.
         25    2    3    3    0    0  0.57478196972E+01  0.58568715552E+02 -0.56692588106E+03  0.58339542969E+03  0.12442644774E+03 0.  0.
          5    1    4    4  502    0 -0.27394306696E+02  0.24807404465E+02 -0.38897812200E+03  0.39075814099E+03  0.47000000000E+01 0. -1.
         -5    1    4    4    0  502  0.21646486999E+02 -0.83376120017E+02 -0.32944096235E+03  0.34054894723E+03  0.47000000000E+01 0. -1.
          5    1    5    5  503    0  0.87411059344E+01  0.58414354268E+02 -0.98579493525E+02  0.11501586961E+03  0.47000000000E+01 0. -1.
         -5    1    5    5    0  503 -0.29932862372E+01  0.15436128398E+00 -0.46834638753E+03  0.46837956008E+03  0.47000000000E+01 0. -1.
<mgrwt>
<rscale>  0 0.27628071E+03</rscale>
<asrwt>0</asrwt>
<pdfrwt beam="1">  1        2 0.20000374E+00 0.27628071E+03</pdfrwt>
<pdfrwt beam="2">  1       -2 0.22582723E-02 0.27628071E+03</pdfrwt>
<totfact> 0.11329477E+04</totfact>
</mgrwt>
</event>
<event>
 9    1  0.7986988E-001  0.2701322E+03  0.7818608E-02  0.1101204E+00
          1   -1    0    0  501    0  0.00000000000E+00  0.00000000000E+00  0.13872521590E+02  0.13872521590E+02  0.00000000000E+00 0. -1.
         -1   -1    0    0    0  501 -0.00000000000E+00 -0.00000000000E+00 -0.13150351929E+04  0.13150351929E+04  0.00000000000E+00 0. -1.
         35    2    1    2    0    0  0.71054273576E-14  0.00000000000E+00 -0.13011626713E+04  0.13289077145E+04  0.27013222025E+03 0.  0.
         25    2    3    3    0    0 -0.45385012412E+02  0.26365396487E+02 -0.67094448456E+03  0.68427241592E+03  0.12372269126E+03 0.  0.
         25    2    3    3    0    0  0.45385012412E+02 -0.26365396487E+02 -0.63021818675E+03  0.64463529857E+03  0.12499908711E+03 0.  0.
          5    1    4    4  502    0  0.27972444622E+02  0.64286883727E+01 -0.44272695117E+03  0.44368122451E+03  0.47000000000E+01 0. -1.
         -5    1    4    4    0  502 -0.73357457034E+02  0.19936708114E+02 -0.22821753339E+03  0.24059119140E+03  0.47000000000E+01 0. -1.
          5    1    5    5  503    0 -0.19322156567E+01  0.20555531353E+02 -0.47721502388E+03  0.47768455317E+03  0.47000000000E+01 0. -1.
         -5    1    5    5    0  503  0.47317228069E+02 -0.46920927840E+02 -0.15300316287E+03  0.16695074540E+03  0.47000000000E+01 0. -1.
<mgrwt>
<rscale>  0 0.27013222E+03</rscale>
<asrwt>0</asrwt>
<pdfrwt beam="1">  1        1 0.21342335E-02 0.27013222E+03</pdfrwt>
<pdfrwt beam="2">  1       -1 0.20231317E+00 0.27013222E+03</pdfrwt>
<totfact> 0.88877534E+02</totfact>
</mgrwt>
</event>
<event>
 9    1  0.7986988E-001  0.2747877E+03  0.7818608E-02  0.1098570E+00
          2   -1    0    0  501    0  0.00000000000E+00  0.00000000000E+00  0.70735183998E+03  0.70735183998E+03  0.00000000000E+00 0.  1.
         -2   -1    0    0    0  501 -0.00000000000E+00 -0.00000000000E+00 -0.26686965717E+02  0.26686965717E+02  0.00000000000E+00 0.  1.
         35    2    1    2    0    0 -0.35527136788E-14  0.00000000000E+00  0.68066487427E+03  0.73403880570E+03  0.27478773119E+03 0.  0.
         25    2    3    3    0    0  0.26953282971E+02 -0.30626926228E+02  0.24555755000E+03  0.27952848568E+03  0.12717380183E+03 0.  0.
         25    2    3    3    0    0 -0.26953282971E+02  0.30626926228E+02  0.43510732427E+03  0.45451032002E+03  0.12488698612E+03 0.  0.
          5    1    4    4  502    0 -0.26341586602E+02  0.24054584315E+02  0.16321052758E+03  0.16712949628E+03  0.47000000000E+01 0.  1.
         -5    1    4    4    0  502  0.53294869573E+02 -0.54681510542E+02  0.82347022414E+02  0.11239898940E+03  0.47000000000E+01 0.  1.
          5    1    5    5  503    0 -0.68270486708E+01  0.78583040853E+02  0.27225743217E+03  0.28349268469E+03  0.47000000000E+01 0.  1.
         -5    1    5    5    0  503 -0.20126234300E+02 -0.47956114625E+02  0.16284989210E+03  0.17101763533E+03  0.47000000000E+01 0.  1.
<mgrwt>
<rscale>  0 0.27478773E+03</rscale>
<asrwt>0</asrwt>
<pdfrwt beam="1">  1        2 0.10882335E+00 0.27478773E+03</pdfrwt>
<pdfrwt beam="2">  1       -2 0.41056876E-02 0.27478773E+03</pdfrwt>
<totfact> 0.10896436E+04</totfact>
</mgrwt>
</event>
<event>
 9    1  0.7986988E-001  0.2770282E+03  0.7818608E-02  0.1097323E+00
          1   -1    0    0  501    0  0.00000000000E+00  0.00000000000E+00  0.55439976231E+02  0.55439976231E+02  0.00000000000E+00 0.  1.
         -1   -1    0    0    0  501 -0.00000000000E+00 -0.00000000000E+00 -0.34607076747E+03  0.34607076747E+03  0.00000000000E+00 0.  1.
         35    2    1    2    0    0  0.35527136788E-14  0.00000000000E+00 -0.29063079124E+03  0.40151074370E+03  0.27702819440E+03 0.  0.
         25    2    3    3    0    0 -0.27608010759E+02  0.30895912819E+01 -0.22012519612E+03  0.25470024904E+03  0.12508144172E+03 0.  0.
         25    2    3    3    0    0  0.27608010759E+02 -0.30895912819E+01 -0.70505595123E+02  0.14681049467E+03  0.12573994818E+03 0.  0.
          5    1    4    4  502    0  0.22397001522E+02 -0.43530769967E+02 -0.45062306482E+02  0.66702736650E+02  0.47000000000E+01 0. -1.
         -5    1    4    4    0  502 -0.50005012282E+02  0.46620361249E+02 -0.17506288963E+03  0.18799751239E+03  0.47000000000E+01 0. -1.
          5    1    5    5  503    0 -0.24674659902E+01 -0.72325862886E+01  0.35410327556E+02  0.36529166299E+02  0.47000000000E+01 0. -1.
         -5    1    5    5    0  503  0.30075476749E+02  0.41429950068E+01 -0.10591592268E+03  0.11028132837E+03  0.47000000000E+01 0. -1.
<mgrwt>
<rscale>  0 0.27702819E+03</rscale>
<asrwt>0</asrwt>
<pdfrwt beam="1">  1        1 0.85292271E-02 0.27702819E+03</pdfrwt>
<pdfrwt beam="2">  1       -1 0.53241657E-01 0.27702819E+03</pdfrwt>
<totfact> 0.28998528E+03</totfact>
</mgrwt>
</event>
<event>
 9    1  0.7986988E-001  0.2751471E+03  0.7818608E-02  0.1098369E+00
          3   -1    0    0  501    0  0.00000000000E+00  0.00000000000E+00  0.32163482281E+02  0.32163482281E+02  0.00000000000E+00 0.  1.
         -3   -1    0    0    0  501 -0.00000000000E+00 -0.00000000000E+00 -0.58844634200E+03  0.58844634200E+03  0.00000000000E+00 0.  1.
         35    2    1    2    0    0  0.00000000000E+00 -0.35527136788E-14 -0.55628285972E+03  0.62060982428E+03  0.27514711334E+03 0.  0.
         25    2    3    3    0    0 -0.38575655753E+02  0.22357125044E+02 -0.19499167383E+03  0.23572671001E+03  0.12472933374E+03 0.  0.
         25    2    3    3    0    0  0.38575655753E+02 -0.22357125044E+02 -0.36129118589E+03  0.38488311427E+03  0.12496306809E+03 0.  0.
          5    1    4    4  502    0  0.26955927604E+02  0.52217735532E+02 -0.10449931398E+03  0.11998129254E+03  0.47000000000E+01 0. -1.
         -5    1    4    4    0  502 -0.65531583357E+02 -0.29860610488E+02 -0.90492359840E+02  0.11574541747E+03  0.47000000000E+01 0. -1.
          5    1    5    5  503    0  0.76349669722E+02 -0.44640620908E+02 -0.24252251672E+03  0.25818853231E+03  0.47000000000E+01 0.  1.
         -5    1    5    5    0  503 -0.37774013969E+02  0.22283495863E+02 -0.11876866917E+03  0.12669458195E+03  0.47000000000E+01 0.  1.
<mgrwt>
<rscale>  0 0.27514711E+03</rscale>
<asrwt>0</asrwt>
<pdfrwt beam="1">  1        3 0.49482277E-02 0.27514711E+03</pdfrwt>
<pdfrwt beam="2">  1       -3 0.90530212E-01 0.27514711E+03</pdfrwt>
<totfact> 0.66713321E+02</totfact>
</mgrwt>
</event>
<event>
 9    1  0.7986988E-001  0.2729186E+03  0.7818608E-02  0.1099621E+00
         -2   -1    0    0    0  501 -0.00000000000E+00  0.00000000000E+00  0.15173990057E+02  0.15173990057E+02  0.00000000000E+00 0.  1.
          2   -1    0    0  501    0  0.00000000000E+00 -0.00000000000E+00 -0.12271748395E+04  0.12271748395E+04  0.00000000000E+00 0.  1.
         35    2    1    2    0    0  0.71054273576E-14  0.71054273576E-14 -0.12120008494E+04  0.12423488295E+04  0.27291858722E+03 0.  0.
         25    2    3    3    0    0  0.52525234664E+02  0.10168597883E+02 -0.43144569775E+03  0.45034573916E+03  0.11748869740E+03 0.  0.
         25    2    3    3    0    0 -0.52525234664E+02 -0.10168597883E+02 -0.78055515168E+03  0.79200309038E+03  0.12304572199E+03 0.  0.
          5    1    4    4  502    0 -0.47130281363E+01 -0.43162879224E+02 -0.90215356453E+02  0.10023047100E+03  0.47000000000E+01 0.  1.
         -5    1    4    4    0  502  0.57238262800E+02  0.53331477108E+02 -0.34123034129E+03  0.35011526816E+03  0.47000000000E+01 0.  1.
          5    1    5    5  503    0 -0.41547822073E+02 -0.38686297934E+02 -0.14635921362E+03  0.15705400529E+03  0.47000000000E+01 0. -1.
         -5    1    5    5    0  503 -0.10977412591E+02  0.28517700051E+02 -0.63419593807E+03  0.63494908509E+03  0.47000000000E+01 0. -1.
<mgrwt>
<rscale>  0 0.27291859E+03</rscale>
<asrwt>0</asrwt>
<pdfrwt beam="1">  1        2 0.18879618E+00 0.27291859E+03</pdfrwt>
<pdfrwt beam="2">  1       -2 0.23344594E-02 0.27291859E+03</pdfrwt>
<totfact> 0.11843832E+04</totfact>
</mgrwt>
</event>
<event>
 9    1  0.7986988E-001  0.2714500E+03  0.7818608E-02  0.1100453E+00
         -1   -1    0    0    0  501 -0.00000000000E+00  0.00000000000E+00  0.42887390283E+02  0.42887390283E+02  0.00000000000E+00 0. -1.
          1   -1    0    0  501    0  0.00000000000E+00 -0.00000000000E+00 -0.42952649162E+03  0.42952649162E+03  0.00000000000E+00 0. -1.
         35    2    1    2    0    0  0.00000000000E+00  0.71054273576E-14 -0.38663910133E+03  0.47241388190E+03  0.27144996064E+03 0.  0.
         25    2    3    3    0    0  0.78747945507E+00  0.50481774445E+02 -0.16366579264E+03  0.21238429862E+03  0.12558490731E+03 0.  0.
         25    2    3    3    0    0 -0.78747945507E+00 -0.50481774445E+02 -0.22297330869E+03  0.26002958328E+03  0.12389212290E+03 0.  0.
          5    1    4    4  502    0 -0.51579282693E+02  0.59476287762E+02 -0.11926012180E+03  0.14297873219E+03  0.47000000000E+01 0.  1.
         -5    1    4    4    0  502  0.52366762148E+02 -0.89945133174E+01 -0.44405670844E+02  0.69405566425E+02  0.47000000000E+01 0.  1.
          5    1    5    5  503    0 -0.39877503408E+02 -0.76616771388E+02 -0.14668609741E+03  0.17029165014E+03  0.47000000000E+01 0.  1.
         -5    1    5    5    0  503  0.39090023952E+02  0.26134996943E+02 -0.76287211287E+02  0.89737933138E+02  0.47000000000E+01 0.  1.
<mgrwt>
<rscale>  0 0.27144996E+03</rscale>
<asrwt>0</asrwt>
<pdfrwt beam="1">  1        1 0.66081000E-01 0.27144996E+03</pdfrwt>
<pdfrwt beam="2">  1       -1 0.65980600E-02 0.27144996E+03</pdfrwt>
<totfact> 0.63464831E+03</totfact>
</mgrwt>
</event>
<event>
 9    1  0.7986988E-001  0.2702261E+03  0.7818608E-02  0.1101150E+00
          3   -1    0    0  501    0  0.00000000000E+00  0.00000000000E+00  0.70805414504E+03  0.70805414504E+03  0.00000000000E+00 0.  1.
         -3   -1    0    0    0  501 -0.00000000000E+00 -0.00000000000E+00 -0.25782687219E+02  0.25782687219E+02  0.00000000000E+00 0.  1.
         35    2    1    2    0    0  0.00000000000E+00  0.00000000000E+00  0.68227145783E+03  0.73383683226E+03  0.27022611684E+03 0.  0.
         25    2    3    3    0    0  0.21709193919E+02  0.33032713270E+02  0.43804524936E+03  0.45753501371E+03  0.12606426548E+03 0.  0.
         25    2    3    3    0    0 -0.21709193919E+02 -0.33032713270E+02  0.24422620846E+03  0.27630181856E+03  0.12301953012E+03 0.  0.
          5    1    4    4  502    0 -0.83993822483E+01  0.14471502040E+02 -0.64900420067E+00  0.17392101652E+02  0.47000000000E+01 0.  1.
         -5    1    4    4    0  502  0.30108576167E+02  0.18561211231E+02  0.43869425356E+03  0.44014291205E+03  0.47000000000E+01 0.  1.
          5    1    5    5  503    0 -0.19324231651E+02 -0.78342426647E+02  0.18205880149E+03  0.19919452538E+03  0.47000000000E+01 0. -1.
         -5    1    5    5    0  503 -0.23849622677E+01  0.45309713377E+02  0.62167406976E+02  0.77107293179E+02  0.47000000000E+01 0. -1.
<mgrwt>
<rscale>  0 0.27022612E+03</rscale>
<asrwt>0</asrwt>
<pdfrwt beam="1">  1        3 0.10893139E+00 0.27022612E+03</pdfrwt>
<pdfrwt beam="2">  1       -3 0.39665678E-02 0.27022612E+03</pdfrwt>
<totfact> 0.62012879E+02</totfact>
</mgrwt>
</event>
<event>
 9    1  0.7986988E-001  0.2752281E+03  0.7818608E-02  0.1098324E+00
         -1   -1    0    0    0  501 -0.00000000000E+00  0.00000000000E+00  0.14543834971E+03  0.14543834971E+03  0.00000000000E+00 0. -1.
          1   -1    0    0  501    0  0.00000000000E+00 -0.00000000000E+00 -0.13021067698E+03  0.13021067698E+03  0.00000000000E+00 0. -1.
         35    2    1    2    0    0  0.00000000000E+00  0.71054273576E-14  0.15227672728E+02  0.27564902668E+03  0.27522809430E+03 0.  0.
         25    2    3    3    0    0 -0.12432797174E+02 -0.39974519599E+02 -0.12863312229E+02  0.13244378476E+03  0.12499341846E+03 0.  0.
         25    2    3    3    0    0  0.12432797174E+02  0.39974519599E+02  0.28090984957E+02  0.14320524192E+03  0.13403768580E+03 0.  0.
          5    1    4    4  502    0 -0.11132308986E+01  0.41363699082E+02  0.16934779532E+02  0.44956330395E+02  0.47000000000E+01 0. -1.
         -5    1    4    4    0  502 -0.11319566275E+02 -0.81338218681E+02 -0.29798091761E+02  0.87487454366E+02  0.47000000000E+01 0. -1.
          5    1    5    5  503    0  0.36513024807E+01 -0.31726985353E+02 -0.34688463274E+02  0.47384734817E+02  0.47000000000E+01 0.  1.
         -5    1    5    5    0  503  0.87814946929E+01  0.71701504952E+02  0.62779448231E+02  0.95820507104E+02  0.47000000000E+01 0.  1.
<mgrwt>
<rscale>  0 0.27522809E+03</rscale>
<asrwt>0</asrwt>
<pdfrwt beam="1">  1        1 0.20032412E-01 0.27522809E+03</pdfrwt>
<pdfrwt beam="2">  1       -1 0.22375131E-01 0.27522809E+03</pdfrwt>
<totfact> 0.42436518E+03</totfact>
</mgrwt>
</event>
<event>
 9    1  0.7986988E-001  0.2732914E+03  0.7818608E-02  0.1099410E+00
         -2   -1    0    0    0  501 -0.00000000000E+00  0.00000000000E+00  0.51062331395E+02  0.51062331395E+02  0.00000000000E+00 0.  1.
          2   -1    0    0  501    0  0.00000000000E+00 -0.00000000000E+00 -0.36567171092E+03  0.36567171092E+03  0.00000000000E+00 0.  1.
         35    2    1    2    0    0  0.00000000000E+00  0.00000000000E+00 -0.31460937952E+03  0.41673404231E+03  0.27329142017E+03 0.  0.
         25    2    3    3    0    0 -0.29365091842E+02 -0.48444821915E+02 -0.15891639284E+03  0.20948233916E+03  0.12417415639E+03 0.  0.
         25    2    3    3    0    0  0.29365091842E+02  0.48444821915E+02 -0.15569298668E+03  0.20725170316E+03  0.12451406736E+03 0.  0.
          5    1    4    4  502    0 -0.28583567778E+02  0.38416476075E+02 -0.42810206666E+02  0.64402249772E+02  0.47000000000E+01 0. -1.
         -5    1    4    4    0  502 -0.78152406445E+00 -0.86861297989E+02 -0.11610618618E+03  0.14508008939E+03  0.47000000000E+01 0. -1.
          5    1    5    5  503    0  0.29278529529E+02  0.90032644268E+02 -0.10342938567E+03  0.14029553502E+03  0.47000000000E+01 0. -1.
         -5    1    5    5    0  503  0.86562313522E-01 -0.41587822353E+02 -0.52263601010E+02  0.66956168138E+02  0.47000000000E+01 0. -1.
<mgrwt>
<rscale>  0 0.27329142E+03</rscale>
<asrwt>0</asrwt>
<pdfrwt beam="1">  1        2 0.56257187E-01 0.27329142E+03</pdfrwt>
<pdfrwt beam="2">  1       -2 0.78557432E-02 0.27329142E+03</pdfrwt>
<totfact> 0.85079217E+03</totfact>
</mgrwt>
</event>
<event>
 9    1  0.7986988E-001  0.2911347E+03  0.7818608E-02  0.1089758E+00
         -1   -1    0    0    0  501 -0.00000000000E+00  0.00000000000E+00  0.10979065835E+02  0.10979065835E+02  0.00000000000E+00 0. -1.
          1   -1    0    0  501    0  0.00000000000E+00 -0.00000000000E+00 -0.19300235423E+04  0.19300235423E+04  0.00000000000E+00 0. -1.
         35    2    1    2    0    0 -0.17763568394E-14  0.71054273576E-14 -0.19190444765E+04  0.19410026082E+04  0.29113471476E+03 0.  0.
         25    2    3    3    0    0  0.41662496556E+01  0.52084479439E+02 -0.13491101017E+04  0.13557384810E+04  0.12328264978E+03 0.  0.
         25    2    3    3    0    0 -0.41662496556E+01 -0.52084479439E+02 -0.56993437479E+03  0.58526412715E+03  0.12238772950E+03 0.  0.
          5    1    4    4  502    0 -0.13043111674E+02  0.86846197891E+02 -0.70841972696E+03  0.71385781805E+03  0.47000000000E+01 0.  1.
         -5    1    4    4    0  502  0.17209361329E+02 -0.34761718452E+02 -0.64069037476E+03  0.64188066297E+03  0.47000000000E+01 0.  1.
          5    1    5    5  503    0  0.57929331910E+02 -0.34693492896E+02 -0.26078365500E+03  0.26942466602E+03  0.47000000000E+01 0.  1.
         -5    1    5    5    0  503 -0.62095581566E+02 -0.17390986543E+02 -0.30915071978E+03  0.31583946113E+03  0.47000000000E+01 0.  1.
<mgrwt>
<rscale>  0 0.29113471E+03</rscale>
<asrwt>0</asrwt>
<pdfrwt beam="1">  1        1 0.29692674E+00 0.29113471E+03</pdfrwt>
<pdfrwt beam="2">  1       -1 0.16890868E-02 0.29113471E+03</pdfrwt>
<totfact> 0.32876151E+03</totfact>
</mgrwt>
</event>
<event>
 9    1  0.7986988E-001  0.2677200E+03  0.7818608E-02  0.1102592E+00
          2   -1    0    0  501    0  0.00000000000E+00  0.00000000000E+00  0.71054279029E+03  0.71054279029E+03  0.00000000000E+00 0. -1.
         -2   -1    0    0    0  501 -0.00000000000E+00 -0.00000000000E+00 -0.25218053578E+02  0.25218053578E+02  0.00000000000E+00 0. -1.
         35    2    1    2    0    0  0.71054273576E-14  0.00000000000E+00  0.68532473671E+03  0.73576084386E+03  0.26772004897E+03 0.  0.
         25    2    3    3    0    0  0.17579436001E+02 -0.41571653222E+02  0.37845184930E+03  0.40143852387E+03  0.12605493756E+03 0.  0.
         25    2    3    3    0    0 -0.17579436001E+02  0.41571653222E+02  0.30687288740E+03  0.33432231999E+03  0.12475257793E+03 0.  0.
          5    1    4    4  502    0  0.28123037895E+02  0.31150325871E+02  0.53029673179E+02  0.67790001474E+02  0.47000000000E+01 0.  1.
         -5    1    4    4    0  502 -0.10543601894E+02 -0.72721979093E+02  0.32542217612E+03  0.33364852240E+03  0.47000000000E+01 0.  1.
          5    1    5    5  503    0 -0.69429415656E+02  0.10604655506E+02  0.19123590988E+03  0.20377969895E+03  0.47000000000E+01 0.  1.
         -5    1    5    5    0  503  0.51849979655E+02  0.30966997717E+02  0.11563697752E+03  0.13054262104E+03  0.47000000000E+01 0.  1.
<mgrwt>
<rscale>  0 0.26772005E+03</rscale>
<asrwt>0</asrwt>
<pdfrwt beam="1">  1        2 0.10931426E+00 0.26772005E+03</pdfrwt>
<pdfrwt beam="2">  1       -2 0.38797011E-02 0.26772005E+03</pdfrwt>
<totfact> 0.11788230E+04</totfact>
</mgrwt>
</event>
<event>
 9    1  0.7986988E-001  0.2757880E+03  0.7818608E-02  0.1098012E+00
          1   -1    0    0  501    0  0.00000000000E+00  0.00000000000E+00  0.47131046675E+02  0.47131046675E+02  0.00000000000E+00 0.  1.
         -1   -1    0    0    0  501 -0.00000000000E+00 -0.00000000000E+00 -0.40344437555E+03  0.40344437555E+03  0.00000000000E+00 0.  1.
         35    2    1    2    0    0  0.00000000000E+00  0.00000000000E+00 -0.35631332887E+03  0.45057542222E+03  0.27578800333E+03 0.  0.
         25    2    3    3    0    0  0.48393823847E+02 -0.15713337661E+02 -0.13709433615E+03  0.19134850310E+03  0.12341199888E+03 0.  0.
         25    2    3    3    0    0 -0.48393823847E+02  0.15713337661E+02 -0.21921899272E+03  0.25922691912E+03  0.12865752081E+03 0.  0.
          5    1    4    4  502    0  0.71524542041E+02 -0.22806423137E+02 -0.14672910582E+03  0.16488606232E+03  0.47000000000E+01 0. -1.
         -5    1    4    4    0  502 -0.23130718193E+02  0.70930854763E+01  0.96347696707E+01  0.26462440785E+02  0.47000000000E+01 0. -1.
          5    1    5    5  503    0 -0.59647861802E+02 -0.44824188219E+02 -0.14074499929E+03  0.15936850408E+03  0.47000000000E+01 0. -1.
         -5    1    5    5    0  503  0.11254037954E+02  0.60537525880E+02 -0.78473993429E+02  0.99858415041E+02  0.47000000000E+01 0. -1.
<mgrwt>
<rscale>  0 0.27578800E+03</rscale>
<asrwt>0</asrwt>
<pdfrwt beam="1">  1        1 0.72509300E-02 0.27578800E+03</pdfrwt>
<pdfrwt beam="2">  1       -1 0.62068367E-01 0.27578800E+03</pdfrwt>
<totfact> 0.26998624E+03</totfact>
</mgrwt>
</event>
<event>
 9    1  0.7986988E-001  0.2768552E+03  0.7818608E-02  0.1097419E+00
          2   -1    0    0  501    0  0.00000000000E+00  0.00000000000E+00  0.98898874739E+02  0.98898874739E+02  0.00000000000E+00 0. -1.
         -2   -1    0    0    0  501 -0.00000000000E+00 -0.00000000000E+00 -0.19375550908E+03  0.19375550908E+03  0.00000000000E+00 0. -1.
         35    2    1    2    0    0 -0.14210854715E-13  0.35527136788E-14 -0.94856634342E+02  0.29265438382E+03  0.27685520997E+03 0.  0.
         25    2    3    3    0    0 -0.35855527547E+02  0.11512160779E+02 -0.94564873878E+02  0.16067932341E+03  0.12432691140E+03 0.  0.
         25    2    3    3    0    0  0.35855527547E+02 -0.11512160779E+02 -0.29176046311E+00  0.13197506041E+03  0.12648787588E+03 0.  0.
          5    1    4    4  502    0 -0.74836815980E+02  0.35972110187E+02 -0.54053752916E+02  0.99188910377E+02  0.47000000000E+01 0. -1.
         -5    1    4    4    0  502  0.38981288433E+02 -0.24459949408E+02 -0.40511120963E+02  0.61490413030E+02  0.47000000000E+01 0. -1.
          5    1    5    5  503    0 -0.45992701046E+02  0.91218987118E+01  0.42395131490E+01  0.47313856928E+02  0.47000000000E+01 0.  1.
         -5    1    5    5    0  503  0.81848228593E+02 -0.20634059491E+02 -0.45312736121E+01  0.84661203485E+02  0.47000000000E+01 0.  1.
<mgrwt>
<rscale>  0 0.27685521E+03</rscale>
<asrwt>0</asrwt>
<pdfrwt beam="1">  1        2 0.15215212E-01 0.27685521E+03</pdfrwt>
<pdfrwt beam="2">  1       -2 0.29808540E-01 0.27685521E+03</pdfrwt>
<totfact> 0.39435559E+03</totfact>
</mgrwt>
</event>
<event>
 9    1  0.7986988E-001  0.2721185E+03  0.7818608E-02  0.1100073E+00
         -1   -1    0    0    0  501 -0.00000000000E+00  0.00000000000E+00  0.40376917230E+03  0.40376917230E+03  0.00000000000E+00 0.  1.
          1   -1    0    0  501    0  0.00000000000E+00 -0.00000000000E+00 -0.45848265562E+02  0.45848265562E+02  0.00000000000E+00 0.  1.
         35    2    1    2    0    0  0.71054273576E-14  0.00000000000E+00  0.35792090674E+03  0.44961743786E+03  0.27211847594E+03 0.  0.
         25    2    3    3    0    0 -0.45049266708E+02 -0.14348432376E+02  0.13965619004E+03  0.19377078914E+03  0.12572968371E+03 0.  0.
         25    2    3    3    0    0  0.45049266708E+02  0.14348432376E+02  0.21826471670E+03  0.25584664872E+03  0.12483071402E+03 0.  0.
          5    1    4    4  502    0  0.18458306907E+02  0.17068757388E+02 -0.10518003040E+02  0.27654474513E+02  0.47000000000E+01 0. -1.
         -5    1    4    4    0  502 -0.63507573615E+02 -0.31417189764E+02  0.15017419308E+03  0.16611631463E+03  0.47000000000E+01 0. -1.
          5    1    5    5  503    0 -0.93096365477E+00 -0.47797653959E+02  0.43984673483E+02  0.65132356926E+02  0.47000000000E+01 0.  1.
         -5    1    5    5    0  503  0.45980230362E+02  0.62146086335E+02  0.17428004322E+03  0.19071429180E+03  0.47000000000E+01 0.  1.
<mgrwt>
<rscale>  0 0.27211848E+03</rscale>
<asrwt>0</asrwt>
<pdfrwt beam="1">  1        1 0.70535796E-02 0.27211848E+03</pdfrwt>
<pdfrwt beam="2">  1       -1 0.62118332E-01 0.27211848E+03</pdfrwt>
<totfact> 0.27983059E+03</totfact>
</mgrwt>
</event>
<event>
 9    1  0.7986988E-001  0.2717449E+03  0.7818608E-02  0.1100285E+00
         -1   -1    0    0    0  501 -0.00000000000E+00  0.00000000000E+00  0.17727202001E+03  0.17727202001E+03  0.00000000000E+00 0. -1.
          1   -1    0    0  501    0  0.00000000000E+00 -0.00000000000E+00 -0.10414120407E+03  0.10414120407E+03  0.00000000000E+00 0. -1.
         35    2    1    2    0    0  0.00000000000E+00  0.00000000000E+00  0.73130815936E+02  0.28141322408E+03  0.27174489222E+03 0.  0.
         25    2    3    3    0    0  0.32408969299E+02  0.16463358797E+02  0.53685764679E+02  0.14984873010E+03  0.13509662139E+03 0.  0.
         25    2    3    3    0    0 -0.32408969299E+02 -0.16463358797E+02  0.19445051257E+02  0.13156449398E+03  0.12493887539E+03 0.  0.
          5    1    4    4  502    0  0.85111557970E+02  0.49198281753E+01  0.27566273781E+02  0.89722747726E+02  0.47000000000E+01 0.  1.
         -5    1    4    4    0  502 -0.52702588671E+02  0.11543530622E+02  0.26119490898E+02  0.60125982376E+02  0.47000000000E+01 0.  1.
          5    1    5    5  503    0 -0.60453115586E+02  0.34291322809E+02  0.22783230972E+02  0.73291470292E+02  0.47000000000E+01 0.  1.
         -5    1    5    5    0  503  0.28044146288E+02 -0.50754681607E+02 -0.33381797148E+01  0.58273023689E+02  0.47000000000E+01 0.  1.
<mgrwt>
<rscale>  0 0.27174489E+03</rscale>
<asrwt>0</asrwt>
<pdfrwt beam="1">  1        1 0.16021724E-01 0.27174489E+03</pdfrwt>
<pdfrwt beam="2">  1       -1 0.27272618E-01 0.27174489E+03</pdfrwt>
<totfact> 0.40799656E+03</totfact>
</mgrwt>
</event>
<event>
 9    1  0.7986988E-001  0.2749590E+03  0.7818608E-02  0.1098475E+00
          1   -1    0    0  501    0  0.00000000000E+00  0.00000000000E+00  0.31802963496E+03  0.31802963496E+03  0.00000000000E+00 0.  1.
         -1   -1    0    0    0  501 -0.00000000000E+00 -0.00000000000E+00 -0.59430345817E+02  0.59430345817E+02  0.00000000000E+00 0.  1.
         35    2    1    2    0    0  0.00000000000E+00  0.00000000000E+00  0.25859928914E+03  0.37745998078E+03  0.27495898738E+03 0.  0.
         25    2    3    3    0    0  0.28960681042E+02  0.48679021549E+02  0.12971555682E+03  0.18893984318E+03  0.12515498582E+03 0.  0.
         25    2    3    3    0    0 -0.28960681042E+02 -0.48679021549E+02  0.12888373232E+03  0.18852013759E+03  0.12538124914E+03 0.  0.
          5    1    4    4  502    0  0.60559558608E+02 -0.16792062304E+01  0.11081166302E+03  0.12637877407E+03  0.47000000000E+01 0. -1.
         -5    1    4    4    0  502 -0.31598877566E+02  0.50358227780E+02  0.18903893794E+02  0.62561069117E+02  0.47000000000E+01 0. -1.
          5    1    5    5  503    0 -0.61401906892E+02 -0.66173570055E+02  0.12013987595E+03  0.15034897850E+03  0.47000000000E+01 0.  1.
         -5    1    5    5    0  503  0.32441225850E+02  0.17494548505E+02  0.87438563759E+01  0.38171159091E+02  0.47000000000E+01 0.  1.
<mgrwt>
<rscale>  0 0.27495899E+03</rscale>
<asrwt>0</asrwt>
<pdfrwt beam="1">  1        1 0.48927635E-01 0.27495899E+03</pdfrwt>
<pdfrwt beam="2">  1       -1 0.91431303E-02 0.27495899E+03</pdfrwt>
<totfact> 0.56617334E+03</totfact>
</mgrwt>
</event>
<event>
 9    1  0.7986988E-001  0.2784320E+03  0.7818608E-02  0.1096548E+00
          2   -1    0    0  501    0  0.00000000000E+00  0.00000000000E+00  0.22877159489E+04  0.22877159489E+04  0.00000000000E+00 0.  1.
         -2   -1    0    0    0  501 -0.00000000000E+00 -0.00000000000E+00 -0.84718091917E+01  0.84718091917E+01  0.00000000000E+00 0.  1.
         35    2    1    2    0    0  0.00000000000E+00  0.00000000000E+00  0.22792441397E+04  0.22961877581E+04  0.27843198813E+03 0.  0.
         25    2    3    3    0    0 -0.18075719077E+02  0.12556996140E+02  0.66881431832E+03  0.68079234944E+03  0.12522468160E+03 0.  0.
         25    2    3    3    0    0  0.18075719077E+02 -0.12556996140E+02  0.16104298214E+04  0.16153954086E+04  0.12463429276E+03 0.  0.
          5    1    4    4  502    0 -0.46454974267E+02 -0.36065468956E+02  0.19807234139E+03  0.20667250690E+03  0.47000000000E+01 0.  1.
         -5    1    4    4    0  502  0.28379255190E+02  0.48622465096E+02  0.47074197694E+03  0.47411984254E+03  0.47000000000E+01 0.  1.
          5    1    5    5  503    0  0.35785585019E+02  0.14735623981E+02  0.16318045536E+03  0.16777275619E+03  0.47000000000E+01 0.  1.
         -5    1    5    5    0  503 -0.17709865942E+02 -0.27292620122E+02  0.14472493660E+04  0.14476226525E+04  0.47000000000E+01 0.  1.
<mgrwt>
<rscale>  0 0.27843199E+03</rscale>
<asrwt>0</asrwt>
<pdfrwt beam="1">  1        2 0.35195581E+00 0.27843199E+03</pdfrwt>
<pdfrwt beam="2">  1       -2 0.13033571E-02 0.27843199E+03</pdfrwt>
<totfact> 0.75750427E+03</totfact>
</mgrwt>
</event>
<event>
 9    1  0.7986988E-001  0.2839832E+03  0.7818608E-02  0.1093533E+00
          2   -1    0    0  501    0  0.00000000000E+00  0.00000000000E+00  0.67899423835E+03  0.67899423835E+03  0.00000000000E+00 0.  1.
         -2   -1    0    0    0  501 -0.00000000000E+00 -0.00000000000E+00 -0.29693348998E+02  0.29693348998E+02  0.00000000000E+00 0.  1.
         35    2    1    2    0    0  0.00000000000E+00  0.00000000000E+00  0.64930088935E+03  0.70868758734E+03  0.28398318885E+03 0.  0.
         25    2    3    3    0    0  0.67396758825E+02 -0.96106408158E+01  0.35536966370E+03  0.38298925234E+03  0.12553279258E+03 0.  0.
         25    2    3    3    0    0 -0.67396758825E+02  0.96106408158E+01  0.29393122565E+03  0.32569833501E+03  0.12267498725E+03 0.  0.
          5    1    4    4  502    0  0.75908561318E+02  0.27664128063E+02  0.32202989853E+03  0.33204330924E+03  0.47000000000E+01 0. -1.
         -5    1    4    4    0  502 -0.85118024931E+01 -0.37274768879E+02  0.33339765166E+02  0.50945943096E+02  0.47000000000E+01 0. -1.
          5    1    5    5  503    0 -0.87561312674E+02  0.25314064456E+02  0.28326971341E+03  0.29760982153E+03  0.47000000000E+01 0.  1.
         -5    1    5    5    0  503  0.20164553850E+02 -0.15703423640E+02  0.10661512239E+02  0.28088513474E+02  0.47000000000E+01 0.  1.
<mgrwt>
<rscale>  0 0.28398319E+03</rscale>
<asrwt>0</asrwt>
<pdfrwt beam="1">  1        2 0.10446064E+00 0.28398319E+03</pdfrwt>
<pdfrwt beam="2">  1       -2 0.45682080E-02 0.28398319E+03</pdfrwt>
<totfact> 0.97562683E+03</totfact>
</mgrwt>
</event>
<event>
 9    1  0.7986988E-001  0.2738307E+03  0.7818608E-02  0.1099107E+00
          2   -1    0    0  501    0  0.00000000000E+00  0.00000000000E+00  0.37668831479E+03  0.37668831479E+03  0.00000000000E+00 0. -1.
         -2   -1    0    0    0  501 -0.00000000000E+00 -0.00000000000E+00 -0.49764775846E+02  0.49764775846E+02  0.00000000000E+00 0. -1.
         35    2    1    2    0    0  0.71054273576E-14  0.71054273576E-14  0.32692353894E+03  0.42645309064E+03  0.27383067432E+03 0.  0.
         25    2    3    3    0    0 -0.50146607275E+02 -0.10825728066E+02  0.19767068300E+03  0.23958410990E+03  0.12527956015E+03 0.  0.
         25    2    3    3    0    0  0.50146607275E+02  0.10825728066E+02  0.12925285595E+03  0.18686898073E+03  0.12482722692E+03 0.  0.
          5    1    4    4  502    0 -0.10252439246E+02  0.39787296385E+02  0.12105253066E+02  0.43090238058E+02  0.47000000000E+01 0.  1.
         -5    1    4    4    0  502 -0.39894168029E+02 -0.50613024451E+02  0.18556542993E+03  0.19649387185E+03  0.47000000000E+01 0.  1.
          5    1    5    5  503    0  0.84335645155E+00 -0.35126537654E+02 -0.57419940701E+01  0.35911633123E+02  0.47000000000E+01 0.  1.
         -5    1    5    5    0  503  0.49303250824E+02  0.45952265721E+02  0.13499485002E+03  0.15095734761E+03  0.47000000000E+01 0.  1.
<mgrwt>
<rscale>  0 0.27383067E+03</rscale>
<asrwt>0</asrwt>
<pdfrwt beam="1">  1        2 0.57952047E-01 0.27383067E+03</pdfrwt>
<pdfrwt beam="2">  1       -2 0.76561196E-02 0.27383067E+03</pdfrwt>
<totfact> 0.85770154E+03</totfact>
</mgrwt>
</event>
<event>
 9    1  0.7986988E-001  0.2721779E+03  0.7818608E-02  0.1100040E+00
         -2   -1    0    0    0  501 -0.00000000000E+00  0.00000000000E+00  0.34782598125E+03  0.34782598125E+03  0.00000000000E+00 0. -1.
          2   -1    0    0  501    0  0.00000000000E+00 -0.00000000000E+00 -0.53245586991E+02  0.53245586991E+02  0.00000000000E+00 0. -1.
         35    2    1    2    0    0  0.00000000000E+00 -0.71054273576E-14  0.29458039426E+03  0.40107156824E+03  0.27217787230E+03 0.  0.
         25    2    3    3    0    0 -0.13190325214E+02  0.35538344239E+02  0.20443350320E+03  0.24248001478E+03  0.12476594786E+03 0.  0.
         25    2    3    3    0    0  0.13190325214E+02 -0.35538344239E+02  0.90146891052E+02  0.15859155346E+03  0.12485135270E+03 0.  0.
          5    1    4    4  502    0 -0.46377556791E+02  0.12593601794E+01  0.18493498873E+03  0.19072363204E+03  0.47000000000E+01 0.  1.
         -5    1    4    4    0  502  0.33187231577E+02  0.34278984060E+02  0.19498514477E+02  0.51756382744E+02  0.47000000000E+01 0.  1.
          5    1    5    5  503    0  0.12052265615E+02 -0.81259812140E+02  0.71390813650E+02  0.10893646061E+03  0.47000000000E+01 0. -1.
         -5    1    5    5    0  503  0.11380595989E+01  0.45721467901E+02  0.18756077401E+02  0.49655092852E+02  0.47000000000E+01 0. -1.
<mgrwt>
<rscale>  0 0.27217787E+03</rscale>
<asrwt>0</asrwt>
<pdfrwt beam="1">  1        2 0.81916290E-02 0.27217787E+03</pdfrwt>
<pdfrwt beam="2">  1       -2 0.53511688E-01 0.27217787E+03</pdfrwt>
<totfact> 0.27514925E+03</totfact>
</mgrwt>
</event>
<event>
 9    1  0.7986988E-001  0.2759158E+03  0.7818608E-02  0.1097941E+00
          2   -1    0    0  501    0  0.00000000000E+00  0.00000000000E+00  0.20528132488E+04  0.20528132488E+04  0.00000000000E+00 0.  1.
         -2   -1    0    0    0  501 -0.00000000000E+00 -0.00000000000E+00 -0.92713640946E+01  0.92713640946E+01  0.00000000000E+00 0.  1.
         35    2    1    2    0    0  0.71054273576E-14  0.00000000000E+00  0.20435418847E+04  0.20620846129E+04  0.27591577735E+03 0.  0.
         25    2    3    3    0    0  0.29785743141E+02 -0.50875056517E+02  0.11479064886E+04  0.11561582456E+04  0.12464798576E+03 0.  0.
         25    2    3    3    0    0 -0.29785743141E+02  0.50875056517E+02  0.89563539609E+03  0.90592636731E+03  0.12273694795E+03 0.  0.
          5    1    4    4  502    0  0.60858563780E+02 -0.10004168653E+02  0.28133090541E+03  0.28805037149E+03  0.47000000000E+01 0.  1.
         -5    1    4    4    0  502 -0.31072820639E+02 -0.40870887863E+02  0.86657558323E+03  0.86810787412E+03  0.47000000000E+01 0.  1.
          5    1    5    5  503    0  0.40186529023E+02  0.38555608691E+02  0.56231166126E+03  0.56508228292E+03  0.47000000000E+01 0. -1.
         -5    1    5    5    0  503 -0.69972272165E+02  0.12319447825E+02  0.33332373483E+03  0.34084408440E+03  0.47000000000E+01 0. -1.
<mgrwt>
<rscale>  0 0.27591578E+03</rscale>
<asrwt>0</asrwt>
<pdfrwt beam="1">  1        2 0.31581706E+00 0.27591578E+03</pdfrwt>
<pdfrwt beam="2">  1       -2 0.14263653E-02 0.27591578E+03</pdfrwt>
<totfact> 0.88500761E+03</totfact>
</mgrwt>
</event>
<event>
 9    1  0.7986988E-001  0.2742047E+03  0.7818608E-02  0.1098897E+00
          4   -1    0    0  501    0  0.00000000000E+00  0.00000000000E+00  0.42895618225E+02  0.42895618225E+02  0.00000000000E+00 0.  1.
         -4   -1    0    0    0  501 -0.00000000000E+00 -0.00000000000E+00 -0.43820449813E+03  0.43820449813E+03  0.00000000000E+00 0.  1.
         35    2    1    2    0    0  0.35527136788E-14  0.00000000000E+00 -0.39530887991E+03  0.48110011636E+03  0.27420468892E+03 0.  0.
         25    2    3    3    0    0 -0.41607246971E+01 -0.55821230979E+02 -0.17414176857E+03  0.22064913994E+03  0.12339921368E+03 0.  0.
         25    2    3    3    0    0  0.41607246971E+01  0.55821230979E+02 -0.22116711134E+03  0.26045097642E+03  0.12564433343E+03 0.  0.
          5    1    4    4  502    0 -0.29143986435E+02 -0.19276464515E+02  0.54024415991E+01  0.35668338968E+02  0.47000000000E+01 0.  1.
         -5    1    4    4    0  502  0.24983261738E+02 -0.36544766464E+02 -0.17954421017E+03  0.18498080097E+03  0.47000000000E+01 0.  1.
          5    1    5    5  503    0  0.47593594503E+02  0.51050085512E+02 -0.19958980407E+03  0.21149336008E+03  0.47000000000E+01 0.  1.
         -5    1    5    5    0  503 -0.43432869806E+02  0.47711454672E+01 -0.21577307264E+02  0.48957616337E+02  0.47000000000E+01 0.  1.
<mgrwt>
<rscale>  0 0.27420469E+03</rscale>
<asrwt>0</asrwt>
<pdfrwt beam="1">  1        4 0.65993261E-02 0.27420469E+03</pdfrwt>
<pdfrwt beam="2">  1       -4 0.67416074E-01 0.27420469E+03</pdfrwt>
<totfact> 0.58822951E+02</totfact>
</mgrwt>
</event>
<event>
 9    1  0.7986988E-001  0.2665824E+03  0.7818608E-02  0.1103252E+00
         -1   -1    0    0    0  501 -0.00000000000E+00  0.00000000000E+00  0.83017559497E+01  0.83017559497E+01  0.00000000000E+00 0. -1.
          1   -1    0    0  501    0  0.00000000000E+00 -0.00000000000E+00 -0.21400942959E+04  0.21400942959E+04  0.00000000000E+00 0. -1.
         35    2    1    2    0    0  0.00000000000E+00  0.00000000000E+00 -0.21317925399E+04  0.21483960518E+04  0.26658237416E+03 0.  0.
         25    2    3    3    0    0  0.32666978195E+02  0.22779899486E+02 -0.12736790369E+04  0.12804161715E+04  0.12498491055E+03 0.  0.
         25    2    3    3    0    0 -0.32666978195E+02 -0.22779899486E+02 -0.85811350298E+03  0.86797988030E+03  0.12427482980E+03 0.  0.
          5    1    4    4  502    0  0.45825963887E+02  0.68545884388E+02 -0.86990907642E+03  0.87382060428E+03  0.47000000000E+01 0.  1.
         -5    1    4    4    0  502 -0.13158985692E+02 -0.45765984902E+02 -0.40376996051E+03  0.40659556722E+03  0.47000000000E+01 0.  1.
          5    1    5    5  503    0 -0.36173260028E+02  0.34811131988E+02 -0.16699545073E+03  0.17444165275E+03  0.47000000000E+01 0.  1.
         -5    1    5    5    0  503  0.35062818326E+01 -0.57591031473E+02 -0.69111805225E+03  0.69353822755E+03  0.47000000000E+01 0.  1.
<mgrwt>
<rscale>  0 0.26658237E+03</rscale>
<asrwt>0</asrwt>
<pdfrwt beam="1">  1        1 0.32924599E+00 0.26658237E+03</pdfrwt>
<pdfrwt beam="2">  1       -1 0.12771904E-02 0.26658237E+03</pdfrwt>
<totfact> 0.36075162E+03</totfact>
</mgrwt>
</event>
<event>
 9    1  0.7986988E-001  0.2862523E+03  0.7818608E-02  0.1092322E+00
         -2   -1    0    0    0  501 -0.00000000000E+00  0.00000000000E+00  0.20954488751E+03  0.20954488751E+03  0.00000000000E+00 0. -1.
          2   -1    0    0  501    0  0.00000000000E+00 -0.00000000000E+00 -0.97759938585E+02  0.97759938585E+02  0.00000000000E+00 0. -1.
         35    2    1    2    0    0  0.00000000000E+00  0.00000000000E+00  0.11178494893E+03  0.30730482610E+03  0.28625230364E+03 0.  0.
         25    2    3    3    0    0 -0.57650828833E+02  0.30861042114E+01  0.14924635279E+02  0.13895269920E+03  0.12550683556E+03 0.  0.
         25    2    3    3    0    0  0.57650828833E+02 -0.30861042114E+01  0.96860313648E+02  0.16835212690E+03  0.12500950430E+03 0.  0.
          5    1    4    4  502    0  0.19709520668E+02 -0.40714967912E+02 -0.98774659883E+01  0.46538458842E+02  0.47000000000E+01 0. -1.
         -5    1    4    4    0  502 -0.77360349501E+02  0.43801072124E+02  0.24802101267E+02  0.92414240360E+02  0.47000000000E+01 0. -1.
          5    1    5    5  503    0  0.22493185359E+02  0.57820454125E+02  0.68056604709E+02  0.92211386213E+02  0.47000000000E+01 0. -1.
         -5    1    5    5    0  503  0.35157643474E+02 -0.60906558336E+02  0.28803708939E+02  0.76140740682E+02  0.47000000000E+01 0. -1.
<mgrwt>
<rscale>  0 0.28625230E+03</rscale>
<asrwt>0</asrwt>
<pdfrwt beam="1">  1        2 0.15039991E-01 0.28625230E+03</pdfrwt>
<pdfrwt beam="2">  1       -2 0.32237675E-01 0.28625230E+03</pdfrwt>
<totfact> 0.34682909E+03</totfact>
</mgrwt>
</event>
<event>
 9    1  0.7986988E-001  0.2721508E+03  0.7818608E-02  0.1100055E+00
         -3   -1    0    0    0  501 -0.00000000000E+00  0.00000000000E+00  0.13776574364E+02  0.13776574364E+02  0.00000000000E+00 0. -1.
          3   -1    0    0  501    0  0.00000000000E+00 -0.00000000000E+00 -0.13440576651E+04  0.13440576651E+04  0.00000000000E+00 0. -1.
         35    2    1    2    0    0 -0.71054273576E-14  0.00000000000E+00 -0.13302810907E+04  0.13578342395E+04  0.27215076977E+03 0.  0.
         25    2    3    3    0    0  0.23956173202E+02  0.27528119408E+02 -0.86186749505E+03  0.87168701611E+03  0.12526363972E+03 0.  0.
         25    2    3    3    0    0 -0.23956173202E+02 -0.27528119408E+02 -0.46841359568E+03  0.48614722334E+03  0.12488446884E+03 0.  0.
          5    1    4    4  502    0  0.43261794839E+02 -0.64237158822E+01 -0.10557716210E+03  0.11437427235E+03  0.47000000000E+01 0.  1.
         -5    1    4    4    0  502 -0.19305621637E+02  0.33951835291E+02 -0.75629033295E+03  0.75731274376E+03  0.47000000000E+01 0.  1.
          5    1    5    5  503    0 -0.71748717334E+02 -0.37165921009E+02 -0.27904686742E+03  0.29054849568E+03  0.47000000000E+01 0. -1.
         -5    1    5    5    0  503  0.47792544133E+02  0.96378016008E+01 -0.18936672826E+03  0.19559872767E+03  0.47000000000E+01 0. -1.
<mgrwt>
<rscale>  0 0.27215077E+03</rscale>
<asrwt>0</asrwt>
<pdfrwt beam="1">  1        3 0.20677808E+00 0.27215077E+03</pdfrwt>
<pdfrwt beam="2">  1       -3 0.21194732E-02 0.27215077E+03</pdfrwt>
<totfact> 0.32222042E+02</totfact>
</mgrwt>
</event>
<event>
 9    1  0.7986988E-001  0.2748292E+03  0.7818608E-02  0.1098547E+00
         -2   -1    0    0    0  501 -0.00000000000E+00  0.00000000000E+00  0.44862835081E+03  0.44862835081E+03  0.00000000000E+00 0.  1.
          2   -1    0    0  501    0  0.00000000000E+00 -0.00000000000E+00 -0.42090021867E+02  0.42090021867E+02  0.00000000000E+00 0.  1.
         35    2    1    2    0    0  0.00000000000E+00  0.35527136788E-14  0.40653832894E+03  0.49071837267E+03  0.27482923495E+03 0.  0.
         25    2    3    3    0    0 -0.11865923154E+02  0.30038375012E+02  0.10582996872E+03  0.16598178047E+03  0.12372091603E+03 0.  0.
         25    2    3    3    0    0  0.11865923154E+02 -0.30038375012E+02  0.30070836022E+03  0.32473659220E+03  0.11825917429E+03 0.  0.
          5    1    4    4  502    0  0.49081118431E+02  0.25032714698E+02  0.16652956408E+02  0.57749493060E+02  0.47000000000E+01 0.  1.
         -5    1    4    4    0  502 -0.60947041585E+02  0.50056603137E+01  0.89177012316E+02  0.10823228741E+03  0.47000000000E+01 0.  1.
          5    1    5    5  503    0  0.65178155553E+01  0.21302233647E+02  0.25383309992E+03  0.25485211338E+03  0.47000000000E+01 0. -1.
         -5    1    5    5    0  503  0.53481075985E+01 -0.51340608659E+02  0.46875260292E+02  0.69884478819E+02  0.47000000000E+01 0. -1.
<mgrwt>
<rscale>  0 0.27482923E+03</rscale>
<asrwt>0</asrwt>
<pdfrwt beam="1">  1        2 0.64753883E-02 0.27482923E+03</pdfrwt>
<pdfrwt beam="2">  1       -2 0.69019743E-01 0.27482923E+03</pdfrwt>
<totfact> 0.21928737E+03</totfact>
</mgrwt>
</event>
<event>
 9    1  0.7986988E-001  0.2740204E+03  0.7818608E-02  0.1099000E+00
          2   -1    0    0  501    0  0.00000000000E+00  0.00000000000E+00  0.14772080366E+04  0.14772080366E+04  0.00000000000E+00 0.  1.
         -2   -1    0    0    0  501 -0.00000000000E+00 -0.00000000000E+00 -0.12707615710E+02  0.12707615710E+02  0.00000000000E+00 0.  1.
         35    2    1    2    0    0 -0.35527136788E-14  0.71054273576E-14  0.14645004209E+04  0.14899156524E+04  0.27402037920E+03 0.  0.
         25    2    3    3    0    0  0.61033871128E+01  0.35908896138E+02  0.49970889075E+03  0.51640594726E+03  0.12505769353E+03 0.  0.
         25    2    3    3    0    0 -0.61033871128E+01 -0.35908896138E+02  0.96479153018E+03  0.97350970510E+03  0.12478681442E+03 0.  0.
          5    1    4    4  502    0  0.56745229379E+01 -0.35512231312E+02  0.54402872402E+02  0.65384105935E+02  0.47000000000E+01 0. -1.
         -5    1    4    4    0  502  0.42886417488E+00  0.71421127451E+02  0.44530601835E+03  0.45102184132E+03  0.47000000000E+01 0. -1.
          5    1    5    5  503    0 -0.37036828635E+02 -0.72611537538E+02  0.62631205558E+03  0.63161146524E+03  0.47000000000E+01 0.  1.
         -5    1    5    5    0  503  0.30933441522E+02  0.36702641400E+02  0.33847947461E+03  0.34189823986E+03  0.47000000000E+01 0.  1.
<mgrwt>
<rscale>  0 0.27402038E+03</rscale>
<asrwt>0</asrwt>
<pdfrwt beam="1">  1        2 0.22726264E+00 0.27402038E+03</pdfrwt>
<pdfrwt beam="2">  1       -2 0.19550190E-02 0.27402038E+03</pdfrwt>
<totfact> 0.11217598E+04</totfact>
</mgrwt>
</event>
<event>
 9    1  0.7986988E-001  0.2762490E+03  0.7818608E-02  0.1097755E+00
         -2   -1    0    0    0  501 -0.00000000000E+00  0.00000000000E+00  0.28004254407E+02  0.28004254407E+02  0.00000000000E+00 0. -1.
          2   -1    0    0  501    0  0.00000000000E+00 -0.00000000000E+00 -0.68126703062E+03  0.68126703062E+03  0.00000000000E+00 0. -1.
         35    2    1    2    0    0  0.00000000000E+00  0.00000000000E+00 -0.65326277622E+03  0.70927128503E+03  0.27624898367E+03 0.  0.
         25    2    3    3    0    0 -0.48365403779E+02  0.37665842729E+02 -0.39202486763E+03  0.41576851197E+03  0.12418546901E+03 0.  0.
         25    2    3    3    0    0  0.48365403779E+02 -0.37665842729E+02 -0.26123790859E+03  0.29350277306E+03  0.11891469598E+03 0.  0.
          5    1    4    4  502    0  0.29428058716E+02  0.23282087800E+01 -0.25206369254E+02  0.39100923863E+02  0.47000000000E+01 0.  1.
         -5    1    4    4    0  502 -0.77793462495E+02  0.35337633949E+02 -0.36681849837E+03  0.37666758810E+03  0.47000000000E+01 0.  1.
          5    1    5    5  503    0  0.43860490583E+02 -0.71710201562E+02 -0.23616643402E+03  0.25072449062E+03  0.47000000000E+01 0. -1.
         -5    1    5    5    0  503  0.45049131954E+01  0.34044358834E+02 -0.25071474573E+02  0.42778282441E+02  0.47000000000E+01 0. -1.
<mgrwt>
<rscale>  0 0.27624898E+03</rscale>
<asrwt>0</asrwt>
<pdfrwt beam="1">  1        2 0.10481032E+00 0.27624898E+03</pdfrwt>
<pdfrwt beam="2">  1       -2 0.43083465E-02 0.27624898E+03</pdfrwt>
<totfact> 0.10606588E+04</totfact>
</mgrwt>
</event>
<event>
 9    1  0.7986988E-001  0.2780386E+03  0.7818608E-02  0.1096765E+00
          2   -1    0    0  501    0  0.00000000000E+00  0.00000000000E+00  0.24113714905E+04  0.24113714905E+04  0.00000000000E+00 0.  1.
         -2   -1    0    0    0  501 -0.00000000000E+00 -0.00000000000E+00 -0.80146750211E+01  0.80146750211E+01  0.00000000000E+00 0.  1.
         35    2    1    2    0    0  0.00000000000E+00 -0.71054273576E-14  0.24033568155E+04  0.24193861655E+04  0.27803855022E+03 0.  0.
         25    2    3    3    0    0  0.64906868003E-01  0.25824527016E+02  0.16478690358E+04  0.16528178392E+04  0.12517004535E+03 0.  0.
         25    2    3    3    0    0 -0.64906868003E-01 -0.25824527016E+02  0.75548777973E+03  0.76656832630E+03  0.12727255462E+03 0.  0.
          5    1    4    4  502    0  0.25535501365E+02  0.70558216013E+02  0.87638280207E+03  0.87960185848E+03  0.47000000000E+01 0.  1.
         -5    1    4    4    0  502 -0.25470594497E+02 -0.44733688997E+02  0.77148623370E+03  0.77321598076E+03  0.47000000000E+01 0.  1.
          5    1    5    5  503    0  0.29541498714E+02  0.69610884374E+01  0.43796394438E+02  0.53491785017E+02  0.47000000000E+01 0. -1.
         -5    1    5    5    0  503 -0.29606405582E+02 -0.32785615453E+02  0.71169138529E+03  0.71307654128E+03  0.47000000000E+01 0. -1.
<mgrwt>
<rscale>  0 0.27803855E+03</rscale>
<asrwt>0</asrwt>
<pdfrwt beam="1">  1        2 0.37097965E+00 0.27803855E+03</pdfrwt>
<pdfrwt beam="2">  1       -2 0.12330289E-02 0.27803855E+03</pdfrwt>
<totfact> 0.70444769E+03</totfact>
</mgrwt>
</event>
<event>
 9    1  0.7986988E-001  0.2700979E+03  0.7818608E-02  0.1101224E+00
         -2   -1    0    0    0  501 -0.00000000000E+00  0.00000000000E+00  0.27780633689E+02  0.27780633689E+02  0.00000000000E+00 0. -1.
          2   -1    0    0  501    0  0.00000000000E+00 -0.00000000000E+00 -0.65650834699E+03  0.65650834699E+03  0.00000000000E+00 0. -1.
         35    2    1    2    0    0  0.71054273576E-14  0.71054273576E-14 -0.62872771330E+03  0.68428898068E+03  0.27009789264E+03 0.  0.
         25    2    3    3    0    0  0.35001375671E+02  0.34537295387E+02 -0.27274249331E+03  0.30367995147E+03  0.12415765864E+03 0.  0.
         25    2    3    3    0    0 -0.35001375671E+02 -0.34537295387E+02 -0.35598521999E+03  0.38060902921E+03  0.12537876690E+03 0.  0.
          5    1    4    4  502    0  0.79444212766E+02  0.77453695917E+01 -0.18651104464E+03  0.20292814853E+03  0.47000000000E+01 0.  1.
         -5    1    4    4    0  502 -0.44442837096E+02  0.26791925795E+02 -0.86231448672E+02  0.10075180295E+03  0.47000000000E+01 0.  1.
          5    1    5    5  503    0 -0.36699642401E+02  0.23959774147E+02 -0.28546659970E+03  0.28884979500E+03  0.47000000000E+01 0.  1.
         -5    1    5    5    0  503  0.16982667303E+01 -0.58497069534E+02 -0.70518620294E+02  0.91759234206E+02  0.47000000000E+01 0.  1.
<mgrwt>
<rscale>  0 0.27009789E+03</rscale>
<asrwt>0</asrwt>
<pdfrwt beam="1">  1        2 0.10100128E+00 0.27009789E+03</pdfrwt>
<pdfrwt beam="2">  1       -2 0.42739439E-02 0.27009789E+03</pdfrwt>
<totfact> 0.11212322E+04</totfact>
</mgrwt>
</event>
<event>
 9    1  0.7986988E-001  0.2748915E+03  0.7818608E-02  0.1098512E+00
         -2   -1    0    0    0  501 -0.00000000000E+00  0.00000000000E+00  0.21459195191E+02  0.21459195191E+02  0.00000000000E+00 0. -1.
          2   -1    0    0  501    0  0.00000000000E+00 -0.00000000000E+00 -0.88033729403E+03  0.88033729403E+03  0.00000000000E+00 0. -1.
         35    2    1    2    0    0  0.00000000000E+00  0.00000000000E+00 -0.85887809884E+03  0.90179648922E+03  0.27489146823E+03 0.  0.
         25    2    3    3    0    0  0.22278687457E+02 -0.37582735737E+02 -0.36322139839E+03  0.38854402514E+03  0.13087350107E+03 0.  0.
         25    2    3    3    0    0 -0.22278687457E+02  0.37582735737E+02 -0.49565670044E+03  0.51325246408E+03  0.12587186042E+03 0.  0.
          5    1    4    4  502    0  0.55197689485E+02 -0.48395390894E+01 -0.60212438701E+02  0.81962392824E+02  0.47000000000E+01 0. -1.
         -5    1    4    4    0  502 -0.32919002028E+02 -0.32743196647E+02 -0.30300895969E+03  0.30658163232E+03  0.47000000000E+01 0. -1.
          5    1    5    5  503    0 -0.63031276646E+02  0.57824147800E+02 -0.36148098027E+03  0.37149315337E+03  0.47000000000E+01 0. -1.
         -5    1    5    5    0  503  0.40752589189E+02 -0.20241412063E+02 -0.13417572017E+03  0.14175931070E+03  0.47000000000E+01 0. -1.
<mgrwt>
<rscale>  0 0.27489147E+03</rscale>
<asrwt>0</asrwt>
<pdfrwt beam="1">  1        2 0.13543647E+00 0.27489147E+03</pdfrwt>
<pdfrwt beam="2">  1       -2 0.33014156E-02 0.27489147E+03</pdfrwt>
<totfact> 0.11449607E+04</totfact>
</mgrwt>
</event>
<event>
 9    1  0.7986988E-001  0.2748873E+03  0.7818608E-02  0.1098515E+00
          1   -1    0    0  501    0  0.00000000000E+00  0.00000000000E+00  0.46431716933E+03  0.46431716933E+03  0.00000000000E+00 0. -1.
         -1   -1    0    0    0  501 -0.00000000000E+00 -0.00000000000E+00 -0.40685034258E+02  0.40685034258E+02  0.00000000000E+00 0. -1.
         35    2    1    2    0    0  0.00000000000E+00 -0.71054273576E-14  0.42363213507E+03  0.50500220359E+03  0.27488732194E+03 0.  0.
         25    2    3    3    0    0 -0.86073691866E+01  0.18487621760E+02  0.11775232264E+03  0.17283467815E+03  0.12486127311E+03 0.  0.
         25    2    3    3    0    0  0.86073691866E+01 -0.18487621760E+02  0.30587981243E+03  0.33216752544E+03  0.12789419978E+03 0.  0.
          5    1    4    4  502    0 -0.25609950464E+02  0.61930503753E+02  0.30497256579E+02  0.73779600952E+02  0.47000000000E+01 0.  1.
         -5    1    4    4    0  502  0.17002581277E+02 -0.43442881993E+02  0.87255066062E+02  0.99055077202E+02  0.47000000000E+01 0.  1.
          5    1    5    5  503    0 -0.69133001326E+01 -0.72429619662E+02  0.18316225472E+03  0.19714041970E+03  0.47000000000E+01 0. -1.
         -5    1    5    5    0  503  0.15520669319E+02  0.53941997902E+02  0.12271755771E+03  0.13502710574E+03  0.47000000000E+01 0. -1.
<mgrwt>
<rscale>  0 0.27488732E+03</rscale>
<asrwt>0</asrwt>
<pdfrwt beam="1">  1        1 0.71433407E-01 0.27488732E+03</pdfrwt>
<pdfrwt beam="2">  1       -1 0.62592364E-02 0.27488732E+03</pdfrwt>
<totfact> 0.62129208E+03</totfact>
</mgrwt>
</event>
<event>
 9    1  0.7986988E-001  0.2672747E+03  0.7818608E-02  0.1102850E+00
         -2   -1    0    0    0  501 -0.00000000000E+00  0.00000000000E+00  0.80941353583E+01  0.80941353583E+01  0.00000000000E+00 0. -1.
          2   -1    0    0  501    0  0.00000000000E+00 -0.00000000000E+00 -0.22064046040E+04  0.22064046040E+04  0.00000000000E+00 0. -1.
         35    2    1    2    0    0  0.00000000000E+00 -0.35527136788E-14 -0.21983104686E+04  0.22144987393E+04  0.26727467160E+03 0.  0.
         25    2    3    3    0    0 -0.34516342851E+02 -0.20360947456E+02 -0.93630350690E+03  0.94554183601E+03  0.12561512851E+03 0.  0.
         25    2    3    3    0    0  0.34516342851E+02  0.20360947456E+02 -0.12620069617E+04  0.12689569033E+04  0.12642826013E+03 0.  0.
          5    1    4    4  502    0  0.21814607766E+02  0.40319432308E+02 -0.43384602920E+03  0.43628660395E+03  0.47000000000E+01 0.  1.
         -5    1    4    4    0  502 -0.56330950617E+02 -0.60680379764E+02 -0.50245747770E+03  0.50925523206E+03  0.47000000000E+01 0.  1.
          5    1    5    5  503    0 -0.33736909525E+02 -0.30096544826E+02 -0.55484225928E+03  0.55670100032E+03  0.47000000000E+01 0.  1.
         -5    1    5    5    0  503  0.68253252376E+02  0.50457492282E+02 -0.70716470241E+03  0.71225590297E+03  0.47000000000E+01 0.  1.
<mgrwt>
<rscale>  0 0.26727467E+03</rscale>
<asrwt>0</asrwt>
<pdfrwt beam="1">  1        2 0.33944716E+00 0.26727467E+03</pdfrwt>
<pdfrwt beam="2">  1       -2 0.12452505E-02 0.26727467E+03</pdfrwt>
<totfact> 0.89455970E+03</totfact>
</mgrwt>
</event>
<event>
 9    1  0.7986988E-001  0.2731725E+03  0.7818608E-02  0.1099477E+00
          2   -1    0    0  501    0  0.00000000000E+00  0.00000000000E+00  0.67713531731E+02  0.67713531731E+02  0.00000000000E+00 0. -1.
         -2   -1    0    0    0  501 -0.00000000000E+00 -0.00000000000E+00 -0.27551079622E+03  0.27551079622E+03  0.00000000000E+00 0. -1.
         35    2    1    2    0    0  0.71054273576E-14  0.00000000000E+00 -0.20779726449E+03  0.34322432795E+03  0.27317253919E+03 0.  0.
         25    2    3    3    0    0 -0.24685603402E+02 -0.43165193518E+02 -0.69440958823E+02  0.15093476802E+03  0.12444534739E+03 0.  0.
         25    2    3    3    0    0  0.24685603402E+02  0.43165193518E+02 -0.13835630567E+03  0.19228955993E+03  0.12393625214E+03 0.  0.
          5    1    4    4  502    0  0.75174316369E+01  0.41728936468E+02 -0.16599787500E+02  0.45776182259E+02  0.47000000000E+01 0.  1.
         -5    1    4    4    0  502 -0.32203035039E+02 -0.84894129986E+02 -0.52841171323E+02  0.10515858576E+03  0.47000000000E+01 0.  1.
          5    1    5    5  503    0  0.56916086190E+01  0.82776080986E+02 -0.11621539991E+03  0.14287191176E+03  0.47000000000E+01 0.  1.
         -5    1    5    5    0  503  0.18993994783E+02 -0.39610887468E+02 -0.22140905752E+02  0.49417648177E+02  0.47000000000E+01 0.  1.
<mgrwt>
<rscale>  0 0.27317254E+03</rscale>
<asrwt>0</asrwt>
<pdfrwt beam="1">  1        2 0.10417467E-01 0.27317254E+03</pdfrwt>
<pdfrwt beam="2">  1       -2 0.42386276E-01 0.27317254E+03</pdfrwt>
<totfact> 0.32274590E+03</totfact>
</mgrwt>
</event>
<event>
 9    1  0.7986988E-001  0.2751829E+03  0.7818608E-02  0.1098349E+00
          2   -1    0    0  501    0  0.00000000000E+00  0.00000000000E+00  0.14091921452E+04  0.14091921452E+04  0.00000000000E+00 0. -1.
         -2   -1    0    0    0  501 -0.00000000000E+00 -0.00000000000E+00 -0.13434231091E+02  0.13434231091E+02  0.00000000000E+00 0. -1.
         35    2    1    2    0    0 -0.35527136788E-14  0.00000000000E+00  0.13957579141E+04  0.14226263763E+04  0.27518294228E+03 0.  0.
         25    2    3    3    0    0 -0.25128117126E+02 -0.49197815294E+02  0.62084400043E+03  0.63570943137E+03  0.12500944349E+03 0.  0.
         25    2    3    3    0    0  0.25128117126E+02  0.49197815294E+02  0.77491391370E+03  0.78691694494E+03  0.12527911754E+03 0.  0.
          5    1    4    4  502    0 -0.33445972585E+02 -0.23063584357E+01  0.54486598851E+03  0.54591664914E+03  0.47000000000E+01 0. -1.
         -5    1    4    4    0  502  0.83178554596E+01 -0.46891456858E+02  0.75978011926E+02  0.89792782237E+02  0.47000000000E+01 0. -1.
          5    1    5    5  503    0  0.61765802393E+02  0.26904794526E+02  0.21532957179E+03  0.22567187862E+03  0.47000000000E+01 0. -1.
         -5    1    5    5    0  503 -0.36637685267E+02  0.22293020768E+02  0.55958434191E+03  0.56124506632E+03  0.47000000000E+01 0. -1.
<mgrwt>
<rscale>  0 0.27518294E+03</rscale>
<asrwt>0</asrwt>
<pdfrwt beam="1">  1        2 0.21679868E+00 0.27518294E+03</pdfrwt>
<pdfrwt beam="2">  1       -2 0.20668059E-02 0.27518294E+03</pdfrwt>
<totfact> 0.11248538E+04</totfact>
</mgrwt>
</event>
<event>
 9    1  0.7986988E-001  0.2752943E+03  0.7818608E-02  0.1098287E+00
          2   -1    0    0  501    0  0.00000000000E+00  0.00000000000E+00  0.57406596629E+03  0.57406596629E+03  0.00000000000E+00 0.  1.
         -2   -1    0    0    0  501 -0.00000000000E+00 -0.00000000000E+00 -0.33004458079E+02  0.33004458079E+02  0.00000000000E+00 0.  1.
         35    2    1    2    0    0 -0.71054273576E-14  0.14210854715E-13  0.54106150821E+03  0.60707042437E+03  0.27529428704E+03 0.  0.
         25    2    3    3    0    0 -0.15308968332E+02  0.35511559019E+02  0.36559679920E+03  0.38832063046E+03  0.12504582007E+03 0.  0.
         25    2    3    3    0    0  0.15308968332E+02 -0.35511559019E+02  0.17546470901E+03  0.21874979391E+03  0.12477248452E+03 0.  0.
          5    1    4    4  502    0  0.41987060685E+02  0.55598308177E+02  0.20491062029E+03  0.21648218737E+03  0.47000000000E+01 0.  1.
         -5    1    4    4    0  502 -0.57296029017E+02 -0.20086749158E+02  0.16068617890E+03  0.17183844309E+03  0.47000000000E+01 0.  1.
          5    1    5    5  503    0  0.49957170311E+02 -0.62861675572E+02  0.79875029505E+02  0.11335527980E+03  0.47000000000E+01 0. -1.
         -5    1    5    5    0  503 -0.34648201980E+02  0.27350116552E+02  0.95589679509E+02  0.10539451411E+03  0.47000000000E+01 0. -1.
<mgrwt>
<rscale>  0 0.27529429E+03</rscale>
<asrwt>0</asrwt>
<pdfrwt beam="1">  1        2 0.88317834E-01 0.27529429E+03</pdfrwt>
<pdfrwt beam="2">  1       -2 0.50776093E-02 0.27529429E+03</pdfrwt>
<totfact> 0.10110860E+04</totfact>
</mgrwt>
</event>
<event>
 9    1  0.7986988E-001  0.2748845E+03  0.7818608E-02  0.1098516E+00
          1   -1    0    0  501    0  0.00000000000E+00  0.00000000000E+00  0.26444407190E+04  0.26444407190E+04  0.00000000000E+00 0. -1.
         -1   -1    0    0    0  501 -0.00000000000E+00 -0.00000000000E+00 -0.71434259944E+01  0.71434259944E+01  0.00000000000E+00 0. -1.
         35    2    1    2    0    0  0.00000000000E+00  0.17763568394E-14  0.26372972930E+04  0.26515841450E+04  0.27488445989E+03 0.  0.
         25    2    3    3    0    0  0.53454892453E+02 -0.40842926107E+00  0.15356357279E+04  0.15416169041E+04  0.12469161085E+03 0.  0.
         25    2    3    3    0    0 -0.53454892453E+02  0.40842926107E+00  0.11016615651E+04  0.11099672409E+04  0.12454509031E+03 0.  0.
          5    1    4    4  502    0 -0.36558085116E+01 -0.44137672362E+02  0.10194530785E+04  0.10204254840E+04  0.47000000000E+01 0. -1.
         -5    1    4    4    0  502  0.57110700964E+02  0.43729243101E+02  0.51618264935E+03  0.52119142007E+03  0.47000000000E+01 0. -1.
          5    1    5    5  503    0  0.13172078119E+02  0.95537519229E+01  0.20005662482E+02  0.26212484604E+02  0.47000000000E+01 0. -1.
         -5    1    5    5    0  503 -0.66626970572E+02 -0.91453226618E+01  0.10816559026E+04  0.10837547563E+04  0.47000000000E+01 0. -1.
<mgrwt>
<rscale>  0 0.27488446E+03</rscale>
<asrwt>0</asrwt>
<pdfrwt beam="1">  1        1 0.40683625E+00 0.27488446E+03</pdfrwt>
<pdfrwt beam="2">  1       -1 0.10989907E-02 0.27488446E+03</pdfrwt>
<totfact> 0.20822759E+03</totfact>
</mgrwt>
</event>
<event>
 9    1  0.7986988E-001  0.2805409E+03  0.7818608E-02  0.1095394E+00
          3   -1    0    0  501    0  0.00000000000E+00  0.00000000000E+00  0.11627940301E+03  0.11627940301E+03  0.00000000000E+00 0. -1.
         -3   -1    0    0    0  501 -0.00000000000E+00 -0.00000000000E+00 -0.16921133547E+03  0.16921133547E+03  0.00000000000E+00 0. -1.
         35    2    1    2    0    0  0.71054273576E-14  0.00000000000E+00 -0.52931932458E+02  0.28549073848E+03  0.28054085671E+03 0.  0.
         25    2    3    3    0    0 -0.26111946954E+01 -0.58613658141E+02 -0.53207239695E+00  0.13832064444E+03  0.12525948395E+03 0.  0.
         25    2    3    3    0    0  0.26111946954E+01  0.58613658141E+02 -0.52399860061E+02  0.14717009403E+03  0.12438212084E+03 0.  0.
          5    1    4    4  502    0  0.48208224975E+02 -0.48343889454E+02  0.33429714397E+02  0.76162985810E+02  0.47000000000E+01 0.  1.
         -5    1    4    4    0  502 -0.50819419670E+02 -0.10269768687E+02 -0.33961786794E+02  0.62157658633E+02  0.47000000000E+01 0.  1.
          5    1    5    5  503    0  0.37189086939E+02  0.78642666367E+02 -0.60579736818E+02  0.10611169433E+03  0.47000000000E+01 0. -1.
         -5    1    5    5    0  503 -0.34577892243E+02 -0.20029008225E+02  0.81798767573E+01  0.41058399704E+02  0.47000000000E+01 0. -1.
<mgrwt>
<rscale>  0 0.28054086E+03</rscale>
<asrwt>0</asrwt>
<pdfrwt beam="1">  1        3 0.17889139E-01 0.28054086E+03</pdfrwt>
<pdfrwt beam="2">  1       -3 0.26032513E-01 0.28054086E+03</pdfrwt>
<totfact> 0.97160709E+02</totfact>
</mgrwt>
</event>
<event>
 9    1  0.7986988E-001  0.2765568E+03  0.7818608E-02  0.1097585E+00
          2   -1    0    0  501    0  0.00000000000E+00  0.00000000000E+00  0.43228182889E+03  0.43228182889E+03  0.00000000000E+00 0.  1.
         -2   -1    0    0    0  501 -0.00000000000E+00 -0.00000000000E+00 -0.44232511264E+02  0.44232511264E+02  0.00000000000E+00 0.  1.
         35    2    1    2    0    0  0.00000000000E+00 -0.71054273576E-14  0.38804931763E+03  0.47651434016E+03  0.27655676355E+03 0.  0.
         25    2    3    3    0    0 -0.25877330898E+02  0.49652811293E+02  0.16230169603E+03  0.21246638827E+03  0.12516024802E+03 0.  0.
         25    2    3    3    0    0  0.25877330898E+02 -0.49652811293E+02  0.22574762160E+03  0.26404795189E+03  0.12499717723E+03 0.  0.
          5    1    4    4  502    0 -0.58907032021E+02  0.46866132322E+02  0.16232086491E+03  0.17898778161E+03  0.47000000000E+01 0.  1.
         -5    1    4    4    0  502  0.33029701123E+02  0.27866789718E+01 -0.19168883414E-01  0.33478606653E+02  0.47000000000E+01 0.  1.
          5    1    5    5  503    0 -0.31773946189E+02 -0.83577093208E+00  0.74249623361E+01  0.32977298785E+02  0.47000000000E+01 0.  1.
         -5    1    5    5    0  503  0.57651277087E+02 -0.48817040361E+02  0.21832265926E+03  0.23107065311E+03  0.47000000000E+01 0.  1.
<mgrwt>
<rscale>  0 0.27655676E+03</rscale>
<asrwt>0</asrwt>
<pdfrwt beam="1">  1        2 0.66504894E-01 0.27655676E+03</pdfrwt>
<pdfrwt beam="2">  1       -2 0.68050020E-02 0.27655676E+03</pdfrwt>
<totfact> 0.88687203E+03</totfact>
</mgrwt>
</event>
<event>
 9    1  0.7986988E-001  0.2744938E+03  0.7818608E-02  0.1098735E+00
         -1   -1    0    0    0  501 -0.00000000000E+00  0.00000000000E+00  0.36735074378E+02  0.36735074378E+02  0.00000000000E+00 0. -1.
          1   -1    0    0  501    0  0.00000000000E+00 -0.00000000000E+00 -0.51277187575E+03  0.51277187575E+03  0.00000000000E+00 0. -1.
         35    2    1    2    0    0  0.71054273576E-14  0.00000000000E+00 -0.47603680137E+03  0.54950695013E+03  0.27449381046E+03 0.  0.
         25    2    3    3    0    0  0.46268573753E+02 -0.34252367714E+02 -0.25297477720E+03  0.28754289600E+03  0.12397852045E+03 0.  0.
         25    2    3    3    0    0 -0.46268573753E+02  0.34252367714E+02 -0.22306202417E+03  0.26196405412E+03  0.12471765478E+03 0.  0.
          5    1    4    4  502    0  0.78350364161E+02 -0.27280215583E+02 -0.23617120421E+03  0.25036357048E+03  0.47000000000E+01 0.  1.
         -5    1    4    4    0  502 -0.32081790408E+02 -0.69721521305E+01 -0.16803572990E+02  0.37179325523E+02  0.47000000000E+01 0.  1.
          5    1    5    5  503    0 -0.78229922569E+02  0.20659465334E+02 -0.20906287200E+03  0.22422334567E+03  0.47000000000E+01 0.  1.
         -5    1    5    5    0  503  0.31961348816E+02  0.13592902380E+02 -0.13999152170E+02  0.37740708455E+02  0.47000000000E+01 0.  1.
<mgrwt>
<rscale>  0 0.27449381E+03</rscale>
<asrwt>0</asrwt>
<pdfrwt beam="1">  1        1 0.78887984E-01 0.27449381E+03</pdfrwt>
<pdfrwt beam="2">  1       -1 0.56515497E-02 0.27449381E+03</pdfrwt>
<totfact> 0.63553625E+03</totfact>
</mgrwt>
</event>
<event>
 9    1  0.7986988E-001  0.2755893E+03  0.7818608E-02  0.1098123E+00
          2   -1    0    0  501    0  0.00000000000E+00  0.00000000000E+00  0.13613874755E+03  0.13613874755E+03  0.00000000000E+00 0.  1.
         -2   -1    0    0    0  501 -0.00000000000E+00 -0.00000000000E+00 -0.13947068008E+03  0.13947068008E+03  0.00000000000E+00 0.  1.
         35    2    1    2    0    0  0.35527136788E-14 -0.71054273576E-14 -0.33319325330E+01  0.27560942762E+03  0.27558928648E+03 0.  0.
         25    2    3    3    0    0 -0.17860383233E+02 -0.36139420337E+02 -0.41989465553E+02  0.13866686524E+03  0.12585838592E+03 0.  0.
         25    2    3    3    0    0  0.17860383233E+02  0.36139420337E+02  0.38657533020E+02  0.13694256238E+03  0.12503523320E+03 0.  0.
          5    1    4    4  502    0 -0.44932800374E+02 -0.72990813792E+02 -0.22520010738E+02  0.88746021495E+02  0.47000000000E+01 0. -1.
         -5    1    4    4    0  502  0.27072417141E+02  0.36851393456E+02 -0.19469454815E+02  0.49920843746E+02  0.47000000000E+01 0. -1.
          5    1    5    5  503    0  0.32434850879E+02  0.89208723457E+01  0.78960128039E+02  0.85955763826E+02  0.47000000000E+01 0. -1.
         -5    1    5    5    0  503 -0.14574467646E+02  0.27218547991E+02 -0.40302595019E+02  0.50986798558E+02  0.47000000000E+01 0. -1.
<mgrwt>
<rscale>  0 0.27558929E+03</rscale>
<asrwt>0</asrwt>
<pdfrwt beam="1">  1        2 0.20944423E-01 0.27558929E+03</pdfrwt>
<pdfrwt beam="2">  1       -2 0.21457028E-01 0.27558929E+03</pdfrwt>
<totfact> 0.48661480E+03</totfact>
</mgrwt>
</event>
<event>
 9    1  0.7986988E-001  0.2763342E+03  0.7818608E-02  0.1097708E+00
          2   -1    0    0  501    0  0.00000000000E+00  0.00000000000E+00  0.33272491063E+03  0.33272491063E+03  0.00000000000E+00 0. -1.
         -2   -1    0    0    0  501 -0.00000000000E+00 -0.00000000000E+00 -0.57375176206E+02  0.57375176206E+02  0.00000000000E+00 0. -1.
         35    2    1    2    0    0  0.00000000000E+00  0.35527136788E-14  0.27534973442E+03  0.39010008683E+03  0.27633422065E+03 0.  0.
         25    2    3    3    0    0 -0.22025616046E+02  0.19427124264E+02  0.68452814668E+02  0.14600044507E+03  0.12556990565E+03 0.  0.
         25    2    3    3    0    0  0.22025616046E+02 -0.19427124264E+02  0.20689691975E+03  0.24409964177E+03  0.12615767431E+03 0.  0.
          5    1    4    4  502    0  0.19112618855E+00 -0.25065843537E+02  0.88555097206E+02  0.92154372021E+02  0.47000000000E+01 0. -1.
         -5    1    4    4    0  502 -0.22216742235E+02  0.44492967801E+02 -0.20102282538E+02  0.53846073046E+02  0.47000000000E+01 0. -1.
          5    1    5    5  503    0 -0.71697142899E+01 -0.45850517593E+02  0.19804904486E+03  0.20346790640E+03  0.47000000000E+01 0.  1.
         -5    1    5    5    0  503  0.29195330336E+02  0.26423393329E+02  0.88478748948E+01  0.40631735363E+02  0.47000000000E+01 0.  1.
<mgrwt>
<rscale>  0 0.27633422E+03</rscale>
<asrwt>0</asrwt>
<pdfrwt beam="1">  1        2 0.51188446E-01 0.27633422E+03</pdfrwt>
<pdfrwt beam="2">  1       -2 0.88269504E-02 0.27633422E+03</pdfrwt>
<totfact> 0.78515532E+03</totfact>
</mgrwt>
</event>
<event>
 9    1  0.7986988E-001  0.2872990E+03  0.7818608E-02  0.1091768E+00
         -2   -1    0    0    0  501 -0.00000000000E+00  0.00000000000E+00  0.48870219480E+02  0.48870219480E+02  0.00000000000E+00 0.  1.
          2   -1    0    0  501    0  0.00000000000E+00 -0.00000000000E+00 -0.42224455650E+03  0.42224455650E+03  0.00000000000E+00 0.  1.
         35    2    1    2    0    0 -0.14210854715E-13  0.35527136788E-14 -0.37337433702E+03  0.47111477598E+03  0.28729903689E+03 0.  0.
         25    2    3    3    0    0 -0.69296982511E+02  0.13588071450E+02 -0.17881822159E+03  0.22928627575E+03  0.12493811431E+03 0.  0.
         25    2    3    3    0    0  0.69296982511E+02 -0.13588071450E+02 -0.19455611543E+03  0.24182850022E+03  0.12506891699E+03 0.  0.
          5    1    4    4  502    0 -0.35550133924E+02  0.10850180467E+02 -0.18973843700E+03  0.19340192065E+03  0.47000000000E+01 0.  1.
         -5    1    4    4    0  502 -0.33746848586E+02  0.27378909831E+01  0.10920215410E+02  0.35884355103E+02  0.47000000000E+01 0.  1.
          5    1    5    5  503    0  0.31759213592E+02  0.13921896159E+02 -0.19180590556E+03  0.19497195247E+03  0.47000000000E+01 0. -1.
         -5    1    5    5    0  503  0.37537768918E+02 -0.27509967609E+02 -0.27502098712E+01  0.46856547755E+02  0.47000000000E+01 0. -1.
<mgrwt>
<rscale>  0 0.28729904E+03</rscale>
<asrwt>0</asrwt>
<pdfrwt beam="1">  1        2 0.64960703E-01 0.28729904E+03</pdfrwt>
<pdfrwt beam="2">  1       -2 0.75184951E-02 0.28729904E+03</pdfrwt>
<totfact> 0.78060414E+03</totfact>
</mgrwt>
</event>
<event>
 9    1  0.7986988E-001  0.2748460E+03  0.7818608E-02  0.1098538E+00
         -2   -1    0    0    0  501 -0.00000000000E+00  0.00000000000E+00  0.20972476790E+03  0.20972476790E+03  0.00000000000E+00 0.  1.
          2   -1    0    0  501    0  0.00000000000E+00 -0.00000000000E+00 -0.90046992636E+02  0.90046992636E+02  0.00000000000E+00 0.  1.
         35    2    1    2    0    0  0.71054273576E-14 -0.53290705182E-14  0.11967777527E+03  0.29977176054E+03  0.27484602694E+03 0.  0.
         25    2    3    3    0    0  0.56285407063E+02 -0.11419268301E+02  0.63687677188E+02  0.15164413605E+03  0.12506549099E+03 0.  0.
         25    2    3    3    0    0 -0.56285407063E+02  0.11419268301E+02  0.55990098080E+02  0.14812762449E+03  0.12453294872E+03 0.  0.
          5    1    4    4  502    0 -0.18936432319E+02 -0.48838035893E+02  0.32944108610E+02  0.62057606391E+02  0.47000000000E+01 0. -1.
         -5    1    4    4    0  502  0.75221839382E+02  0.37418767592E+02  0.30743568578E+02  0.89586529663E+02  0.47000000000E+01 0. -1.
          5    1    5    5  503    0 -0.77574227557E+02 -0.50629185009E+01  0.80072285116E+02  0.11170073755E+03  0.47000000000E+01 0. -1.
         -5    1    5    5    0  503  0.21288820494E+02  0.16482186802E+02 -0.24082187035E+02  0.36426886941E+02  0.47000000000E+01 0. -1.
<mgrwt>
<rscale>  0 0.27484603E+03</rscale>
<asrwt>0</asrwt>
<pdfrwt beam="1">  1        2 0.13853384E-01 0.27484603E+03</pdfrwt>
<pdfrwt beam="2">  1       -2 0.32265349E-01 0.27484603E+03</pdfrwt>
<totfact> 0.38144809E+03</totfact>
</mgrwt>
</event>
<event>
 9    1  0.7986988E-001  0.2763972E+03  0.7818608E-02  0.1097673E+00
          1   -1    0    0  501    0  0.00000000000E+00  0.00000000000E+00  0.46879466260E+03  0.46879466260E+03  0.00000000000E+00 0.  1.
         -1   -1    0    0    0  501 -0.00000000000E+00 -0.00000000000E+00 -0.40740347478E+02  0.40740347478E+02  0.00000000000E+00 0.  1.
         35    2    1    2    0    0  0.00000000000E+00  0.00000000000E+00  0.42805431512E+03  0.50953501007E+03  0.27639723190E+03 0.  0.
         25    2    3    3    0    0 -0.40203600077E+02 -0.35080583833E+02  0.17675492430E+03  0.22315086660E+03  0.12532768719E+03 0.  0.
         25    2    3    3    0    0  0.40203600077E+02  0.35080583833E+02  0.25129939081E+03  0.28638414348E+03  0.12656032945E+03 0.  0.
          5    1    4    4  502    0 -0.85346770627E+01  0.37824645834E+01 -0.18641205964E+02  0.21371296420E+02  0.47000000000E+01 0.  1.
         -5    1    4    4    0  502 -0.31668923014E+02 -0.38863048417E+02  0.19539613027E+03  0.20177957018E+03  0.47000000000E+01 0.  1.
          5    1    5    5  503    0 -0.30137788165E+02  0.46867141363E+01  0.88996146583E+01  0.32117669684E+02  0.47000000000E+01 0. -1.
         -5    1    5    5    0  503  0.70341388242E+02  0.30393869697E+02  0.24239977616E+03  0.25426647379E+03  0.47000000000E+01 0. -1.
<mgrwt>
<rscale>  0 0.27639723E+03</rscale>
<asrwt>0</asrwt>
<pdfrwt beam="1">  1        1 0.72122252E-01 0.27639723E+03</pdfrwt>
<pdfrwt beam="2">  1       -1 0.62677461E-02 0.27639723E+03</pdfrwt>
<totfact> 0.61236588E+03</totfact>
</mgrwt>
</event>
<event>
 9    1  0.7986988E-001  0.2779159E+03  0.7818608E-02  0.1096833E+00
         -1   -1    0    0    0  501 -0.00000000000E+00  0.00000000000E+00  0.12349961156E+04  0.12349961156E+04  0.00000000000E+00 0. -1.
          1   -1    0    0  501    0  0.00000000000E+00 -0.00000000000E+00 -0.15635120708E+02  0.15635120708E+02  0.00000000000E+00 0. -1.
         35    2    1    2    0    0 -0.17763568394E-14 -0.14210854715E-13  0.12193609949E+04  0.12506312363E+04  0.27791591060E+03 0.  0.
         25    2    3    3    0    0  0.14094247780E+02 -0.55107146562E+02  0.70356035378E+03  0.71693786911E+03  0.12556787540E+03 0.  0.
         25    2    3    3    0    0 -0.14094247780E+02  0.55107146562E+02  0.51580064111E+03  0.53369336720E+03  0.12467102067E+03 0.  0.
          5    1    4    4  502    0 -0.34258821482E+02  0.22091364516E+02  0.13470605625E+03  0.14081728170E+03  0.47000000000E+01 0.  1.
         -5    1    4    4    0  502  0.48353069262E+02 -0.77198511078E+02  0.56885429753E+03  0.57612058741E+03  0.47000000000E+01 0.  1.
          5    1    5    5  503    0  0.15677421189E+02  0.89677537494E+02  0.34627374396E+03  0.35807183360E+03  0.47000000000E+01 0.  1.
         -5    1    5    5    0  503 -0.29771668969E+02 -0.34570390933E+02  0.16952689716E+03  0.17562153359E+03  0.47000000000E+01 0.  1.
<mgrwt>
<rscale>  0 0.27791591E+03</rscale>
<asrwt>0</asrwt>
<pdfrwt beam="1">  1        1 0.24054042E-02 0.27791591E+03</pdfrwt>
<pdfrwt beam="2">  1       -1 0.18999932E+00 0.27791591E+03</pdfrwt>
<totfact> 0.90871748E+02</totfact>
</mgrwt>
</event>
<event>
 9    1  0.7986988E-001  0.2649600E+03  0.7818608E-02  0.1104199E+00
          2   -1    0    0  501    0  0.00000000000E+00  0.00000000000E+00  0.42626069279E+03  0.42626069279E+03  0.00000000000E+00 0.  1.
         -2   -1    0    0    0  501 -0.00000000000E+00 -0.00000000000E+00 -0.41174213312E+02  0.41174213312E+02  0.00000000000E+00 0.  1.
         35    2    1    2    0    0  0.35527136788E-14  0.71054273576E-14  0.38508647948E+03  0.46743490610E+03  0.26495998710E+03 0.  0.
         25    2    3    3    0    0 -0.27579661952E-01  0.43434996319E+02  0.20721837299E+03  0.24576766010E+03  0.12480260004E+03 0.  0.
         25    2    3    3    0    0  0.27579661952E-01 -0.43434996319E+02  0.17786810649E+03  0.22166724601E+03  0.12495081025E+03 0.  0.
          5    1    4    4  502    0 -0.42469401234E+02  0.69882202983E+02  0.12723317333E+03  0.15131934024E+03  0.47000000000E+01 0. -1.
         -5    1    4    4    0  502  0.42441821572E+02 -0.26447206664E+02  0.79985199658E+02  0.94448319852E+02  0.47000000000E+01 0. -1.
          5    1    5    5  503    0  0.16254871963E+02  0.41924000824E+02  0.64015735446E+02  0.78370575424E+02  0.47000000000E+01 0.  1.
         -5    1    5    5    0  503 -0.16227292301E+02 -0.85358997143E+02  0.11385237104E+03  0.14329667058E+03  0.47000000000E+01 0.  1.
<mgrwt>
<rscale>  0 0.26495999E+03</rscale>
<asrwt>0</asrwt>
<pdfrwt beam="1">  1        2 0.65578565E-01 0.26495999E+03</pdfrwt>
<pdfrwt beam="2">  1       -2 0.63344947E-02 0.26495999E+03</pdfrwt>
<totfact> 0.10040757E+04</totfact>
</mgrwt>
</event>
<event>
 9    1  0.7986988E-001  0.2743767E+03  0.7818608E-02  0.1098801E+00
          1   -1    0    0  501    0  0.00000000000E+00  0.00000000000E+00  0.62824250311E+03  0.62824250311E+03  0.00000000000E+00 0. -1.
         -1   -1    0    0    0  501 -0.00000000000E+00 -0.00000000000E+00 -0.29957601419E+02  0.29957601419E+02  0.00000000000E+00 0. -1.
         35    2    1    2    0    0 -0.14210854715E-13  0.00000000000E+00  0.59828490169E+03  0.65820010453E+03  0.27437666448E+03 0.  0.
         25    2    3    3    0    0  0.55786405699E+02 -0.49560791584E+01  0.26738495034E+03  0.30022099296E+03  0.12450400462E+03 0.  0.
         25    2    3    3    0    0 -0.55786405699E+02  0.49560791584E+01  0.33089995135E+03  0.35797911157E+03  0.12456958188E+03 0.  0.
          5    1    4    4  502    0 -0.28054120749E+02  0.33648639553E+02  0.82993730566E+02  0.93964429163E+02  0.47000000000E+01 0.  1.
         -5    1    4    4    0  502  0.83840526448E+02 -0.38604718711E+02  0.18439121977E+03  0.20625656380E+03  0.47000000000E+01 0.  1.
          5    1    5    5  503    0 -0.82608957769E+01  0.29285695194E+02  0.96172248052E+01  0.32256400218E+02  0.47000000000E+01 0. -1.
         -5    1    5    5    0  503 -0.47525509922E+02 -0.24329616036E+02  0.32128272655E+03  0.32572271135E+03  0.47000000000E+01 0. -1.
<mgrwt>
<rscale>  0 0.27437666E+03</rscale>
<asrwt>0</asrwt>
<pdfrwt beam="1">  1        1 0.96652683E-01 0.27437666E+03</pdfrwt>
<pdfrwt beam="2">  1       -1 0.46088622E-02 0.27437666E+03</pdfrwt>
<totfact> 0.65336640E+03</totfact>
</mgrwt>
</event>
<event>
 9    1  0.7986988E-001  0.2764921E+03  0.7818608E-02  0.1097620E+00
         -1   -1    0    0    0  501 -0.00000000000E+00  0.00000000000E+00  0.16398953190E+03  0.16398953190E+03  0.00000000000E+00 0. -1.
          1   -1    0    0  501    0  0.00000000000E+00 -0.00000000000E+00 -0.11654385476E+03  0.11654385476E+03  0.00000000000E+00 0. -1.
         35    2    1    2    0    0  0.35527136788E-14 -0.71054273576E-14  0.47445677139E+02  0.28053338665E+03  0.27649211335E+03 0.  0.
         25    2    3    3    0    0  0.85091083883E+01 -0.44034006191E+02  0.59233309393E+02  0.14690565266E+03  0.12673313385E+03 0.  0.
         25    2    3    3    0    0 -0.85091083883E+01  0.44034006191E+02 -0.11787632254E+02  0.13362773399E+03  0.12532367849E+03 0.  0.
          5    1    4    4  502    0  0.13075530470E+02  0.82880267612E+01 -0.35204182260E+02  0.38743842521E+02  0.47000000000E+01 0. -1.
         -5    1    4    4    0  502 -0.45664220817E+01 -0.52322032952E+02  0.94437491653E+02  0.10816181014E+03  0.47000000000E+01 0. -1.
          5    1    5    5  503    0  0.36751921788E+02  0.49595222894E+02  0.32471390627E+02  0.69906159230E+02  0.47000000000E+01 0. -1.
         -5    1    5    5    0  503 -0.45261030177E+02 -0.55612167037E+01 -0.44259022881E+02  0.63721574763E+02  0.47000000000E+01 0. -1.
<mgrwt>
<rscale>  0 0.27649211E+03</rscale>
<asrwt>0</asrwt>
<pdfrwt beam="1">  1        1 0.17929824E-01 0.27649211E+03</pdfrwt>
<pdfrwt beam="2">  1       -1 0.25229159E-01 0.27649211E+03</pdfrwt>
<totfact> 0.40162532E+03</totfact>
</mgrwt>
</event>
<event>
 9    1  0.7986988E-001  0.2780946E+03  0.7818608E-02  0.1096734E+00
         -1   -1    0    0    0  501 -0.00000000000E+00  0.00000000000E+00  0.75794587998E+02  0.75794587998E+02  0.00000000000E+00 0.  1.
          1   -1    0    0  501    0  0.00000000000E+00 -0.00000000000E+00 -0.25508614765E+03  0.25508614765E+03  0.00000000000E+00 0.  1.
         35    2    1    2    0    0  0.71054273576E-14 -0.88817841970E-15 -0.17929155965E+03  0.33088073565E+03  0.27809458438E+03 0.  0.
         25    2    3    3    0    0  0.45977255892E+02  0.35677564519E+00 -0.40646164833E+02  0.13914688703E+03  0.12488278547E+03 0.  0.
         25    2    3    3    0    0 -0.45977255892E+02 -0.35677564519E+00 -0.13864539482E+03  0.19173384862E+03  0.12419858233E+03 0.  0.
          5    1    4    4  502    0  0.15851228568E+02  0.73456788474E+01 -0.83865664634E+02  0.85794872512E+02  0.47000000000E+01 0.  1.
         -5    1    4    4    0  502  0.30126027324E+02 -0.69889032022E+01  0.43219499801E+02  0.53352014520E+02  0.47000000000E+01 0.  1.
          5    1    5    5  503    0 -0.60049965667E+02 -0.46963313088E+02 -0.52533228384E+02  0.92700492109E+02  0.47000000000E+01 0.  1.
         -5    1    5    5    0  503  0.14072709775E+02  0.46606537443E+02 -0.86112166437E+02  0.99033356508E+02  0.47000000000E+01 0.  1.
<mgrwt>
<rscale>  0 0.27809458E+03</rscale>
<asrwt>0</asrwt>
<pdfrwt beam="1">  1        1 0.39244024E-01 0.27809458E+03</pdfrwt>
<pdfrwt beam="2">  1       -1 0.11660706E-01 0.27809458E+03</pdfrwt>
<totfact> 0.51272916E+03</totfact>
</mgrwt>
</event>
<event>
 9    1  0.7986988E-001  0.2752554E+03  0.7818608E-02  0.1098309E+00
          2   -1    0    0  501    0  0.00000000000E+00  0.00000000000E+00  0.73134969318E+03  0.73134969318E+03  0.00000000000E+00 0. -1.
         -2   -1    0    0    0  501 -0.00000000000E+00 -0.00000000000E+00 -0.25899217641E+02  0.25899217641E+02  0.00000000000E+00 0. -1.
         35    2    1    2    0    0 -0.71054273576E-14  0.00000000000E+00  0.70545047554E+03  0.75724891082E+03  0.27525540776E+03 0.  0.
         25    2    3    3    0    0  0.53942567180E+02  0.13634905258E+02  0.38916134067E+03  0.41284675887E+03  0.12609593983E+03 0.  0.
         25    2    3    3    0    0 -0.53942567180E+02 -0.13634905258E+02  0.31628913487E+03  0.34440215195E+03  0.12441187338E+03 0.  0.
          5    1    4    4  502    0  0.94076951160E+01  0.30361467357E+02  0.34881677431E+03  0.35029352758E+03  0.47000000000E+01 0.  1.
         -5    1    4    4    0  502  0.44534872064E+02 -0.16726562099E+02  0.40344566361E+02  0.62553231285E+02  0.47000000000E+01 0.  1.
          5    1    5    5  503    0 -0.93692932569E+02 -0.97516145777E+01  0.24539777866E+03  0.26289849633E+03  0.47000000000E+01 0.  1.
         -5    1    5    5    0  503  0.39750365389E+02 -0.38832906800E+01  0.70891356213E+02  0.81503655628E+02  0.47000000000E+01 0.  1.
<mgrwt>
<rscale>  0 0.27525541E+03</rscale>
<asrwt>0</asrwt>
<pdfrwt beam="1">  1        2 0.11251532E+00 0.27525541E+03</pdfrwt>
<pdfrwt beam="2">  1       -2 0.39844956E-02 0.27525541E+03</pdfrwt>
<totfact> 0.10943408E+04</totfact>
</mgrwt>
</event>
<event>
 9    1  0.7986988E-001  0.2767345E+03  0.7818608E-02  0.1097486E+00
         -2   -1    0    0    0  501 -0.00000000000E+00  0.00000000000E+00  0.44624897614E+02  0.44624897614E+02  0.00000000000E+00 0. -1.
          2   -1    0    0  501    0  0.00000000000E+00 -0.00000000000E+00 -0.42903177459E+03  0.42903177459E+03  0.00000000000E+00 0. -1.
         35    2    1    2    0    0  0.00000000000E+00 -0.71054273576E-14 -0.38440687697E+03  0.47365667220E+03  0.27673452270E+03 0.  0.
         25    2    3    3    0    0  0.22373017211E+02  0.51534284032E+02 -0.22151269544E+03  0.26061768228E+03  0.12528913659E+03 0.  0.
         25    2    3    3    0    0 -0.22373017211E+02 -0.51534284032E+02 -0.16289418153E+03  0.21303898992E+03  0.12527873929E+03 0.  0.
          5    1    4    4  502    0  0.13191308824E+02 -0.37440774326E+02 -0.32731810387E+02  0.51665110295E+02  0.47000000000E+01 0.  1.
         -5    1    4    4    0  502  0.91817083869E+01  0.88975058358E+02 -0.18878088505E+03  0.20895257199E+03  0.47000000000E+01 0.  1.
          5    1    5    5  503    0  0.16050611349E+02  0.36961539926E+02 -0.43885246572E+02  0.59764390945E+02  0.47000000000E+01 0. -1.
         -5    1    5    5    0  503 -0.38423628560E+02 -0.88495823958E+02 -0.11900893496E+03  0.15327459897E+03  0.47000000000E+01 0. -1.
<mgrwt>
<rscale>  0 0.27673452E+03</rscale>
<asrwt>0</asrwt>
<pdfrwt beam="1">  1        2 0.66004886E-01 0.27673452E+03</pdfrwt>
<pdfrwt beam="2">  1       -2 0.68653691E-02 0.27673452E+03</pdfrwt>
<totfact> 0.88212464E+03</totfact>
</mgrwt>
</event>
<event>
 9    1  0.7986988E-001  0.2776796E+03  0.7818608E-02  0.1096963E+00
         -1   -1    0    0    0  501 -0.00000000000E+00  0.00000000000E+00  0.21491715074E+03  0.21491715074E+03  0.00000000000E+00 0. -1.
          1   -1    0    0  501    0  0.00000000000E+00 -0.00000000000E+00 -0.89692659651E+02  0.89692659651E+02  0.00000000000E+00 0. -1.
         35    2    1    2    0    0  0.71054273576E-14  0.00000000000E+00  0.12522449109E+03  0.30460981039E+03  0.27767960569E+03 0.  0.
         25    2    3    3    0    0 -0.43845995046E+02 -0.11277718883E+02  0.20238086977E+02  0.13461856607E+03  0.12515158785E+03 0.  0.
         25    2    3    3    0    0  0.43845995046E+02  0.11277718883E+02  0.10498640411E+03  0.16999124432E+03  0.12579833016E+03 0.  0.
          5    1    4    4  502    0 -0.85653744727E+02 -0.18282676781E+02  0.71464851476E+00  0.87712148409E+02  0.47000000000E+01 0. -1.
         -5    1    4    4    0  502  0.41807749680E+02  0.70049578978E+01  0.19523438462E+02  0.46906417662E+02  0.47000000000E+01 0. -1.
          5    1    5    5  503    0 -0.27385605368E+02  0.86335306002E+01  0.93141527761E+02  0.97580445919E+02  0.47000000000E+01 0. -1.
         -5    1    5    5    0  503  0.71231600415E+02  0.26441882831E+01  0.11844876351E+02  0.72410798401E+02  0.47000000000E+01 0. -1.
<mgrwt>
<rscale>  0 0.27767961E+03</rscale>
<asrwt>0</asrwt>
<pdfrwt beam="1">  1        1 0.13798871E-01 0.27767961E+03</pdfrwt>
<pdfrwt beam="2">  1       -1 0.33064177E-01 0.27767961E+03</pdfrwt>
<totfact> 0.35791322E+03</totfact>
</mgrwt>
</event>
<event>
 9    1  0.7986988E-001  0.2756340E+03  0.7818608E-02  0.1098098E+00
         -2   -1    0    0    0  501 -0.00000000000E+00  0.00000000000E+00  0.80896737441E+01  0.80896737441E+01  0.00000000000E+00 0.  1.
          2   -1    0    0  501    0  0.00000000000E+00 -0.00000000000E+00 -0.23478726386E+04  0.23478726386E+04  0.00000000000E+00 0.  1.
         35    2    1    2    0    0  0.00000000000E+00  0.00000000000E+00 -0.23397829649E+04  0.23559623124E+04  0.27563398658E+03 0.  0.
         25    2    3    3    0    0 -0.50910632698E+02 -0.45971717028E+01 -0.14499415482E+04  0.14558718102E+04  0.12090991727E+03 0.  0.
         25    2    3    3    0    0  0.50910632698E+02  0.45971717028E+01 -0.88984141667E+03  0.90009050214E+03  0.12542782269E+03 0.  0.
          5    1    4    4  502    0 -0.87721110326E+02 -0.14920301285E+02 -0.83932081450E+03  0.84403739742E+03  0.47000000000E+01 0. -1.
         -5    1    4    4    0  502  0.36810477628E+02  0.10323129582E+02 -0.61062073372E+03  0.61183441282E+03  0.47000000000E+01 0. -1.
          5    1    5    5  503    0  0.71307045142E+02  0.31518761850E+02 -0.80306468036E+03  0.80685382683E+03  0.47000000000E+01 0.  1.
         -5    1    5    5    0  503 -0.20396412445E+02 -0.26921590147E+02 -0.86776736314E+02  0.93236675305E+02  0.47000000000E+01 0.  1.
<mgrwt>
<rscale>  0 0.27563399E+03</rscale>
<asrwt>0</asrwt>
<pdfrwt beam="1">  1        2 0.36121094E+00 0.27563399E+03</pdfrwt>
<pdfrwt beam="2">  1       -2 0.12445660E-02 0.27563399E+03</pdfrwt>
<totfact> 0.75213435E+03</totfact>
</mgrwt>
</event>
<event>
 9    1  0.7986988E-001  0.2746717E+03  0.7818608E-02  0.1098635E+00
         -3   -1    0    0    0  501 -0.00000000000E+00  0.00000000000E+00  0.40089173758E+02  0.40089173758E+02  0.00000000000E+00 0. -1.
          3   -1    0    0  501    0  0.00000000000E+00 -0.00000000000E+00 -0.47047955305E+03  0.47047955305E+03  0.00000000000E+00 0. -1.
         35    2    1    2    0    0  0.71054273576E-14  0.00000000000E+00 -0.43039037929E+03  0.51056872681E+03  0.27467170624E+03 0.  0.
         25    2    3    3    0    0 -0.10318788546E+02 -0.21413735882E+01 -0.12803300338E+03  0.18113833740E+03  0.12770115288E+03 0.  0.
         25    2    3    3    0    0  0.10318788546E+02  0.21413735882E+01 -0.30235737591E+03  0.32943038940E+03  0.13035848961E+03 0.  0.
          5    1    4    4  502    0 -0.64909808103E+02 -0.11286496067E+02 -0.40540346294E+02  0.77500179736E+02  0.47000000000E+01 0.  1.
         -5    1    4    4    0  502  0.54591019556E+02  0.91451224787E+01 -0.87492657084E+02  0.10363815767E+03  0.47000000000E+01 0.  1.
          5    1    5    5  503    0  0.56280537901E+02 -0.37586554926E+02 -0.13031451044E+03  0.14691565502E+03  0.47000000000E+01 0. -1.
         -5    1    5    5    0  503 -0.45961749355E+02  0.39727928514E+02 -0.17204286547E+03  0.18251473438E+03  0.47000000000E+01 0. -1.
<mgrwt>
<rscale>  0 0.27467171E+03</rscale>
<asrwt>0</asrwt>
<pdfrwt beam="1">  1        3 0.72381467E-01 0.27467171E+03</pdfrwt>
<pdfrwt beam="2">  1       -3 0.61675655E-02 0.27467171E+03</pdfrwt>
<totfact> 0.76700549E+02</totfact>
</mgrwt>
</event>
<event>
 9    1  0.7986988E-001  0.2760596E+03  0.7818608E-02  0.1097861E+00
         -1   -1    0    0    0  501 -0.00000000000E+00  0.00000000000E+00  0.69182464167E+02  0.69182464167E+02  0.00000000000E+00 0.  1.
          1   -1    0    0  501    0  0.00000000000E+00 -0.00000000000E+00 -0.27539102759E+03  0.27539102759E+03  0.00000000000E+00 0.  1.
         35    2    1    2    0    0 -0.71054273576E-14  0.00000000000E+00 -0.20620856342E+03  0.34457349175E+03  0.27605963050E+03 0.  0.
         25    2    3    3    0    0 -0.21864164932E+02  0.40565940322E+02 -0.15409402391E+03  0.20298901913E+03  0.12383834810E+03 0.  0.
         25    2    3    3    0    0  0.21864164932E+02 -0.40565940322E+02 -0.52114539512E+02  0.14158447263E+03  0.12331504547E+03 0.  0.
          5    1    4    4  502    0  0.37819281245E+02 -0.10584919433E+02 -0.13405492552E+02  0.41762851721E+02  0.47000000000E+01 0. -1.
         -5    1    4    4    0  502 -0.59683446177E+02  0.51150859755E+02 -0.14068853135E+03  0.16122616740E+03  0.47000000000E+01 0. -1.
          5    1    5    5  503    0 -0.34903818909E+02 -0.16100718745E+02  0.22334355356E+02  0.44703726329E+02  0.47000000000E+01 0.  1.
         -5    1    5    5    0  503  0.56767983841E+02 -0.24465221577E+02 -0.74448894868E+02  0.96880746298E+02  0.47000000000E+01 0.  1.
<mgrwt>
<rscale>  0 0.27605963E+03</rscale>
<asrwt>0</asrwt>
<pdfrwt beam="1">  1        1 0.42367850E-01 0.27605963E+03</pdfrwt>
<pdfrwt beam="2">  1       -1 0.10643456E-01 0.27605963E+03</pdfrwt>
<totfact> 0.53666685E+03</totfact>
</mgrwt>
</event>
<event>
 9    1  0.7986988E-001  0.2748616E+03  0.7818608E-02  0.1098529E+00
          2   -1    0    0  501    0  0.00000000000E+00  0.00000000000E+00  0.77196713210E+03  0.77196713210E+03  0.00000000000E+00 0. -1.
         -2   -1    0    0    0  501 -0.00000000000E+00 -0.00000000000E+00 -0.24466352551E+02  0.24466352551E+02  0.00000000000E+00 0. -1.
         35    2    1    2    0    0 -0.53290705182E-14  0.71054273576E-14  0.74750077955E+03  0.79643348466E+03  0.27486156524E+03 0.  0.
         25    2    3    3    0    0  0.15542294600E+02 -0.62888513442E+02  0.35500247189E+03  0.37946631756E+03  0.11735162151E+03 0.  0.
         25    2    3    3    0    0 -0.15542294600E+02  0.62888513442E+02  0.39249830767E+03  0.41696716710E+03  0.12494066140E+03 0.  0.
          5    1    4    4  502    0 -0.38911063533E+00 -0.70257409765E+02  0.92088517563E+02  0.11592514870E+03  0.47000000000E+01 0. -1.
         -5    1    4    4    0  502  0.15931405235E+02  0.73688963226E+01  0.26291395432E+03  0.26354116886E+03  0.47000000000E+01 0. -1.
          5    1    5    5  503    0  0.22886606658E+02  0.35451424894E+02  0.35209203114E+03  0.35464276207E+03  0.47000000000E+01 0. -1.
         -5    1    5    5    0  503 -0.38428901258E+02  0.27437088548E+02  0.40406276525E+02  0.62324405031E+02  0.47000000000E+01 0. -1.
<mgrwt>
<rscale>  0 0.27486157E+03</rscale>
<asrwt>0</asrwt>
<pdfrwt beam="1">  1        2 0.11876416E+00 0.27486157E+03</pdfrwt>
<pdfrwt beam="2">  1       -2 0.37640548E-02 0.27486157E+03</pdfrwt>
<totfact> 0.11145002E+04</totfact>
</mgrwt>
</event>
<event>
 9    1  0.7986988E-001  0.2718603E+03  0.7818608E-02  0.1100220E+00
         -1   -1    0    0    0  501 -0.00000000000E+00  0.00000000000E+00  0.32439379883E+02  0.32439379883E+02  0.00000000000E+00 0.  1.
          1   -1    0    0  501    0  0.00000000000E+00 -0.00000000000E+00 -0.56958561673E+03  0.56958561673E+03  0.00000000000E+00 0.  1.
         35    2    1    2    0    0  0.00000000000E+00  0.00000000000E+00 -0.53714623685E+03  0.60202499662E+03  0.27186028910E+03 0.  0.
         25    2    3    3    0    0 -0.51315610944E+02 -0.12944693071E+02 -0.22696418092E+03  0.26266767228E+03  0.12116397828E+03 0.  0.
         25    2    3    3    0    0  0.51315610944E+02  0.12944693071E+02 -0.31018205593E+03  0.33935732434E+03  0.12708118962E+03 0.  0.
          5    1    4    4  502    0 -0.12294289198E+02 -0.64217784548E+02 -0.91185218364E+02  0.11230274906E+03  0.47000000000E+01 0.  1.
         -5    1    4    4    0  502 -0.39021321746E+02  0.51273091477E+02 -0.13577896256E+03  0.15036492322E+03  0.47000000000E+01 0.  1.
          5    1    5    5  503    0  0.25509238367E+02 -0.55828894543E+02 -0.10973545896E+03  0.12582347818E+03  0.47000000000E+01 0.  1.
         -5    1    5    5    0  503  0.25806372577E+02  0.68773587614E+02 -0.20044659697E+03  0.21353384616E+03  0.47000000000E+01 0.  1.
<mgrwt>
<rscale>  0 0.27186029E+03</rscale>
<asrwt>0</asrwt>
<pdfrwt beam="1">  1        1 0.87628551E-01 0.27186029E+03</pdfrwt>
<pdfrwt beam="2">  1       -1 0.49906741E-02 0.27186029E+03</pdfrwt>
<totfact> 0.66436153E+03</totfact>
</mgrwt>
</event>
<event>
 9    1  0.7986988E-001  0.2746822E+03  0.7818608E-02  0.1098629E+00
          1   -1    0    0  501    0  0.00000000000E+00  0.00000000000E+00  0.11448383641E+04  0.11448383641E+04  0.00000000000E+00 0. -1.
         -1   -1    0    0    0  501 -0.00000000000E+00 -0.00000000000E+00 -0.16476198448E+02  0.16476198448E+02  0.00000000000E+00 0. -1.
         35    2    1    2    0    0  0.53290705182E-14  0.00000000000E+00  0.11283621657E+04  0.11613145625E+04  0.27468224608E+03 0.  0.
         25    2    3    3    0    0 -0.14546125671E+01  0.17277492497E+02  0.33490303422E+03  0.35786098521E+03  0.12491523030E+03 0.  0.
         25    2    3    3    0    0  0.14546125671E+01 -0.17277492497E+02  0.79345913143E+03  0.80345357733E+03  0.12513844349E+03 0.  0.
          5    1    4    4  502    0  0.81007991440E+01  0.55651270653E+02  0.29888196949E+03  0.30416312821E+03  0.47000000000E+01 0. -1.
         -5    1    4    4    0  502 -0.95554117111E+01 -0.38373778156E+02  0.36021064728E+02  0.53697857006E+02  0.47000000000E+01 0. -1.
          5    1    5    5  503    0 -0.55451999761E+02  0.76105719692E+01  0.23924448012E+03  0.24574958057E+03  0.47000000000E+01 0. -1.
         -5    1    5    5    0  503  0.56906612328E+02 -0.24888064466E+02  0.55421465131E+03  0.55770399676E+03  0.47000000000E+01 0. -1.
<mgrwt>
<rscale>  0 0.27468225E+03</rscale>
<asrwt>0</asrwt>
<pdfrwt beam="1">  1        1 0.17612892E+00 0.27468225E+03</pdfrwt>
<pdfrwt beam="2">  1       -1 0.25348007E-02 0.27468225E+03</pdfrwt>
<totfact> 0.60599634E+03</totfact>
</mgrwt>
</event>
<event>
 9    1  0.7986988E-001  0.2800382E+03  0.7818608E-02  0.1095668E+00
         -2   -1    0    0    0  501 -0.00000000000E+00  0.00000000000E+00  0.68225550329E+03  0.68225550329E+03  0.00000000000E+00 0. -1.
          2   -1    0    0  501    0  0.00000000000E+00 -0.00000000000E+00 -0.28736087791E+02  0.28736087791E+02  0.00000000000E+00 0. -1.
         35    2    1    2    0    0  0.71054273576E-14  0.71054273576E-14  0.65351941550E+03  0.71099159108E+03  0.28003824052E+03 0.  0.
         25    2    3    3    0    0 -0.54114964155E+02 -0.33101515943E+02  0.38742908493E+03  0.41202491570E+03  0.12505636970E+03 0.  0.
         25    2    3    3    0    0  0.54114964155E+02  0.33101515943E+02  0.26609033056E+03  0.29896667538E+03  0.12063527372E+03 0.  0.
          5    1    4    4  502    0 -0.35058720234E+02  0.24672907980E+02  0.38534087795E+02  0.57834524073E+02  0.47000000000E+01 0.  1.
         -5    1    4    4    0  502 -0.19056243922E+02 -0.57774423923E+02  0.34889499714E+03  0.35419039162E+03  0.47000000000E+01 0.  1.
          5    1    5    5  503    0  0.50885001338E+02  0.50253329175E+02  0.27093434609E+03  0.28025379630E+03  0.47000000000E+01 0. -1.
         -5    1    5    5    0  503  0.32299628173E+01 -0.17151813231E+02 -0.48440155217E+01  0.18712879076E+02  0.47000000000E+01 0. -1.
<mgrwt>
<rscale>  0 0.28003824E+03</rscale>
<asrwt>0</asrwt>
<pdfrwt beam="1">  1        2 0.44209371E-02 0.28003824E+03</pdfrwt>
<pdfrwt beam="2">  1       -2 0.10496237E+00 0.28003824E+03</pdfrwt>
<totfact> 0.14180853E+03</totfact>
</mgrwt>
</event>
<event>
 9    1  0.7986988E-001  0.2676611E+03  0.7818608E-02  0.1102626E+00
         -2   -1    0    0    0  501 -0.00000000000E+00  0.00000000000E+00  0.83418866947E+02  0.83418866947E+02  0.00000000000E+00 0. -1.
          2   -1    0    0  501    0  0.00000000000E+00 -0.00000000000E+00 -0.21470696384E+03  0.21470696384E+03  0.00000000000E+00 0. -1.
         35    2    1    2    0    0  0.00000000000E+00  0.00000000000E+00 -0.13128809689E+03  0.29812583078E+03  0.26766106664E+03 0.  0.
         25    2    3    3    0    0  0.44345598781E+01  0.49221543083E+02 -0.74947672270E+02  0.15299563888E+03  0.12388739368E+03 0.  0.
         25    2    3    3    0    0 -0.44345598781E+01 -0.49221543083E+02 -0.56340424619E+02  0.14513019190E+03  0.12428235406E+03 0.  0.
          5    1    4    4  502    0 -0.47013357822E+02  0.37207738923E+02  0.12528930565E+01  0.60152567614E+02  0.47000000000E+01 0.  1.
         -5    1    4    4    0  502  0.51447917700E+02  0.12013804159E+02 -0.76200565326E+02  0.92843071266E+02  0.47000000000E+01 0.  1.
          5    1    5    5  503    0 -0.21328245908E+02 -0.77714673661E+01  0.35762791114E+02  0.42618740089E+02  0.47000000000E+01 0. -1.
         -5    1    5    5    0  503  0.16893686030E+02 -0.41450075716E+02 -0.92103215733E+02  0.10251145181E+03  0.47000000000E+01 0. -1.
<mgrwt>
<rscale>  0 0.26766107E+03</rscale>
<asrwt>0</asrwt>
<pdfrwt beam="1">  1        2 0.33031841E-01 0.26766107E+03</pdfrwt>
<pdfrwt beam="2">  1       -2 0.12833672E-01 0.26766107E+03</pdfrwt>
<totfact> 0.69181709E+03</totfact>
</mgrwt>
</event>
<event>
 9    1  0.7986988E-001  0.2752578E+03  0.7818608E-02  0.1098308E+00
          2   -1    0    0  501    0  0.00000000000E+00  0.00000000000E+00  0.19829047682E+03  0.19829047682E+03  0.00000000000E+00 0.  1.
         -2   -1    0    0    0  501 -0.00000000000E+00 -0.00000000000E+00 -0.95525102565E+02  0.95525102565E+02  0.00000000000E+00 0.  1.
         35    2    1    2    0    0  0.71054273576E-14  0.71054273576E-14  0.10276537426E+03  0.29381557939E+03  0.27525782922E+03 0.  0.
         25    2    3    3    0    0  0.41895032086E+02  0.20103021503E+02  0.14576270183E+02  0.13415320195E+03  0.12500115501E+03 0.  0.
         25    2    3    3    0    0 -0.41895032086E+02 -0.20103021503E+02  0.88189104075E+02  0.15966237744E+03  0.12472141558E+03 0.  0.
          5    1    4    4  502    0 -0.90073574878E+01 -0.41294525892E+02  0.30954966720E+02  0.52599147543E+02  0.47000000000E+01 0. -1.
         -5    1    4    4    0  502  0.50902389574E+02  0.61397547395E+02 -0.16378696537E+02  0.81554054410E+02  0.47000000000E+01 0. -1.
          5    1    5    5  503    0  0.38832839602E+01  0.11572911388E+02 -0.27908754437E+02  0.30822082126E+02  0.47000000000E+01 0.  1.
         -5    1    5    5    0  503 -0.45778316046E+02 -0.31675932891E+02  0.11609785851E+03  0.12884029531E+03  0.47000000000E+01 0.  1.
<mgrwt>
<rscale>  0 0.27525783E+03</rscale>
<asrwt>0</asrwt>
<pdfrwt beam="1">  1        2 0.30506227E-01 0.27525783E+03</pdfrwt>
<pdfrwt beam="2">  1       -2 0.14696170E-01 0.27525783E+03</pdfrwt>
<totfact> 0.60516506E+03</totfact>
</mgrwt>
</event>
<event>
 9    1  0.7986988E-001  0.2728938E+03  0.7818608E-02  0.1099635E+00
         -2   -1    0    0    0  501 -0.00000000000E+00  0.00000000000E+00  0.14068849487E+02  0.14068849487E+02  0.00000000000E+00 0. -1.
          2   -1    0    0  501    0  0.00000000000E+00 -0.00000000000E+00 -0.13233313985E+04  0.13233313985E+04  0.00000000000E+00 0. -1.
         35    2    1    2    0    0 -0.71054273576E-14  0.35527136788E-14 -0.13092625490E+04  0.13374002480E+04  0.27289375417E+03 0.  0.
         25    2    3    3    0    0  0.49492666799E+02 -0.26097095993E+02 -0.65130188592E+03  0.66595583968E+03  0.12717095312E+03 0.  0.
         25    2    3    3    0    0 -0.49492666799E+02  0.26097095993E+02 -0.65796066311E+03  0.67144440832E+03  0.12163378141E+03 0.  0.
          5    1    4    4  502    0 -0.30556786595E+02 -0.41444352711E+01 -0.40092839124E+03  0.40213997371E+03  0.47000000000E+01 0.  1.
         -5    1    4    4    0  502  0.80049453394E+02 -0.21952660722E+02 -0.25037349468E+03  0.26381586597E+03  0.47000000000E+01 0.  1.
          5    1    5    5  503    0  0.33429880800E+02 -0.19433905955E+02 -0.17485749323E+03  0.17914370369E+03  0.47000000000E+01 0.  1.
         -5    1    5    5    0  503 -0.82922547600E+02  0.45531001949E+02 -0.48310316988E+03  0.49230070463E+03  0.47000000000E+01 0.  1.
<mgrwt>
<rscale>  0 0.27289375E+03</rscale>
<asrwt>0</asrwt>
<pdfrwt beam="1">  1        2 0.20358948E+00 0.27289375E+03</pdfrwt>
<pdfrwt beam="2">  1       -2 0.21644380E-02 0.27289375E+03</pdfrwt>
<totfact> 0.11705385E+04</totfact>
</mgrwt>
</event>
<event>
 9    1  0.7986988E-001  0.2681505E+03  0.7818608E-02  0.1102343E+00
         -2   -1    0    0    0  501 -0.00000000000E+00  0.00000000000E+00  0.12748026796E+02  0.12748026796E+02  0.00000000000E+00 0.  1.
          2   -1    0    0  501    0  0.00000000000E+00 -0.00000000000E+00 -0.14101138170E+04  0.14101138170E+04  0.00000000000E+00 0.  1.
         35    2    1    2    0    0 -0.71054273576E-14 -0.35527136788E-14 -0.13973657902E+04  0.14228618438E+04  0.26815047063E+03 0.  0.
         25    2    3    3    0    0 -0.16086902126E+02  0.20716898353E+02 -0.89943088819E+03  0.90880154377E+03  0.12750037263E+03 0.  0.
         25    2    3    3    0    0  0.16086902126E+02 -0.20716898353E+02 -0.49793490205E+03  0.51406030007E+03  0.12502338632E+03 0.  0.
          5    1    4    4  502    0 -0.23280338116E+02  0.51610523766E+01 -0.27544980118E+02  0.36734541431E+02  0.47000000000E+01 0.  1.
         -5    1    4    4    0  502  0.71934359902E+01  0.15555845976E+02 -0.87188590807E+03  0.87206700234E+03  0.47000000000E+01 0.  1.
          5    1    5    5  503    0 -0.18554121171E+02 -0.56591432124E+02 -0.13425090489E+03  0.14694298576E+03  0.47000000000E+01 0. -1.
         -5    1    5    5    0  503  0.34641023297E+02  0.35874533771E+02 -0.36368399716E+03  0.36711731430E+03  0.47000000000E+01 0. -1.
<mgrwt>
<rscale>  0 0.26815047E+03</rscale>
<asrwt>0</asrwt>
<pdfrwt beam="1">  1        2 0.21694052E+00 0.26815047E+03</pdfrwt>
<pdfrwt beam="2">  1       -2 0.19612355E-02 0.26815047E+03</pdfrwt>
<totfact> 0.12128932E+04</totfact>
</mgrwt>
</event>
<event>
 9    1  0.7986988E-001  0.2761592E+03  0.7818608E-02  0.1097805E+00
         -2   -1    0    0    0  501 -0.00000000000E+00  0.00000000000E+00  0.35222749527E+03  0.35222749527E+03  0.00000000000E+00 0. -1.
          2   -1    0    0  501    0  0.00000000000E+00 -0.00000000000E+00 -0.54129729607E+02  0.54129729607E+02  0.00000000000E+00 0. -1.
         35    2    1    2    0    0  0.71054273576E-14 -0.35527136788E-14  0.29809776567E+03  0.40635722488E+03  0.27615922276E+03 0.  0.
         25    2    3    3    0    0 -0.29805430900E+02 -0.29802699864E+02  0.16578499888E+03  0.21185410509E+03  0.12498372438E+03 0.  0.
         25    2    3    3    0    0  0.29805430900E+02  0.29802699864E+02  0.13231276679E+03  0.19450311979E+03  0.13619188935E+03 0.  0.
          5    1    4    4  502    0  0.31625227982E+02 -0.35686799509E+02  0.13393805739E+03  0.14225046896E+03  0.47000000000E+01 0. -1.
         -5    1    4    4    0  502 -0.61430658882E+02  0.58840996453E+01  0.31846941493E+02  0.69603636124E+02  0.47000000000E+01 0. -1.
          5    1    5    5  503    0 -0.18676496158E+02  0.38802022124E+02 -0.94485619106E+01  0.44337047171E+02  0.47000000000E+01 0.  1.
         -5    1    5    5    0  503  0.48481927058E+02 -0.89993222602E+01  0.14176132870E+03  0.15016607262E+03  0.47000000000E+01 0.  1.
<mgrwt>
<rscale>  0 0.27615922E+03</rscale>
<asrwt>0</asrwt>
<pdfrwt beam="1">  1        2 0.83276509E-02 0.27615922E+03</pdfrwt>
<pdfrwt beam="2">  1       -2 0.54188844E-01 0.27615922E+03</pdfrwt>
<totfact> 0.26280310E+03</totfact>
</mgrwt>
</event>
<event>
 9    1  0.7986988E-001  0.2821786E+03  0.7818608E-02  0.1094505E+00
         -1   -1    0    0    0  501 -0.00000000000E+00  0.00000000000E+00  0.52203805391E+03  0.52203805391E+03  0.00000000000E+00 0.  1.
          1   -1    0    0  501    0  0.00000000000E+00 -0.00000000000E+00 -0.38131683061E+02  0.38131683061E+02  0.00000000000E+00 0.  1.
         35    2    1    2    0    0 -0.35527136788E-14  0.00000000000E+00  0.48390637085E+03  0.56016973697E+03  0.28217859322E+03 0.  0.
         25    2    3    3    0    0  0.29685119927E+02 -0.38769841013E+02  0.32979743802E+03  0.35608167629E+03  0.12507399070E+03 0.  0.
         25    2    3    3    0    0 -0.29685119927E+02  0.38769841013E+02  0.15410893283E+03  0.20408806068E+03  0.12457153132E+03 0.  0.
          5    1    4    4  502    0  0.23525687238E+02 -0.80955278445E+02  0.15955062156E+03  0.18051511269E+03  0.47000000000E+01 0.  1.
         -5    1    4    4    0  502  0.61594326889E+01  0.42185437431E+02  0.17024681646E+03  0.17556656360E+03  0.47000000000E+01 0.  1.
          5    1    5    5  503    0 -0.10840456549E+01 -0.27158443086E+01  0.15337484191E+03  0.15347469856E+03  0.47000000000E+01 0.  1.
         -5    1    5    5    0  503 -0.28601074272E+02  0.41485685322E+02  0.73409092002E+00  0.50613362125E+02  0.47000000000E+01 0.  1.
<mgrwt>
<rscale>  0 0.28217859E+03</rscale>
<asrwt>0</asrwt>
<pdfrwt beam="1">  1        1 0.58664132E-02 0.28217859E+03</pdfrwt>
<pdfrwt beam="2">  1       -1 0.80313542E-01 0.28217859E+03</pdfrwt>
<totfact> 0.21549742E+03</totfact>
</mgrwt>
</event>
<event>
 9    1  0.7986988E-001  0.2842896E+03  0.7818608E-02  0.1093369E+00
          1   -1    0    0  501    0  0.00000000000E+00  0.00000000000E+00  0.48911781036E+03  0.48911781036E+03  0.00000000000E+00 0.  1.
         -1   -1    0    0    0  501 -0.00000000000E+00 -0.00000000000E+00 -0.41309359644E+02  0.41309359644E+02  0.00000000000E+00 0.  1.
         35    2    1    2    0    0  0.71054273576E-14  0.00000000000E+00  0.44780845072E+03  0.53042717001E+03  0.28428959556E+03 0.  0.
         25    2    3    3    0    0  0.21459442199E+02 -0.65785977369E+02  0.19022824370E+03  0.23780787553E+03  0.12480984931E+03 0.  0.
         25    2    3    3    0    0 -0.21459442199E+02  0.65785977369E+02  0.25758020702E+03  0.29261929448E+03  0.12037518837E+03 0.  0.
          5    1    4    4  502    0 -0.19151321864E+02  0.20467827359E+02  0.10845778913E+03  0.11211996749E+03  0.47000000000E+01 0. -1.
         -5    1    4    4    0  502  0.40610764063E+02 -0.86253804728E+02  0.81770454571E+02  0.12568790804E+03  0.47000000000E+01 0. -1.
          5    1    5    5  503    0  0.43400705345E+02  0.12331382081E+02  0.14575396463E+03  0.15264990145E+03  0.47000000000E+01 0.  1.
         -5    1    5    5    0  503 -0.64860147544E+02  0.53454595288E+02  0.11182624239E+03  0.13996939302E+03  0.47000000000E+01 0.  1.
<mgrwt>
<rscale>  0 0.28428960E+03</rscale>
<asrwt>0</asrwt>
<pdfrwt beam="1">  1        1 0.75248890E-01 0.28428960E+03</pdfrwt>
<pdfrwt beam="2">  1       -1 0.63552864E-02 0.28428960E+03</pdfrwt>
<totfact> 0.56748052E+03</totfact>
</mgrwt>
</event>
<event>
 9    1  0.7986988E-001  0.2736913E+03  0.7818608E-02  0.1099185E+00
         -3   -1    0    0    0  501 -0.00000000000E+00  0.00000000000E+00  0.42290399157E+02  0.42290399157E+02  0.00000000000E+00 0. -1.
          3   -1    0    0  501    0  0.00000000000E+00 -0.00000000000E+00 -0.44281293101E+03  0.44281293101E+03  0.00000000000E+00 0. -1.
         35    2    1    2    0    0  0.00000000000E+00 -0.35527136788E-14 -0.40052253186E+03  0.48510333017E+03  0.27369132690E+03 0.  0.
         25    2    3    3    0    0  0.51908543756E+02  0.16307241389E+02 -0.15662115478E+03  0.20754083653E+03  0.12483024339E+03 0.  0.
         25    2    3    3    0    0 -0.51908543756E+02 -0.16307241389E+02 -0.24390137707E+03  0.27756249364E+03  0.12079997144E+03 0.  0.
          5    1    4    4  502    0 -0.12785981350E+02 -0.31951105185E+02 -0.10742681539E+03  0.11290245837E+03  0.47000000000E+01 0. -1.
         -5    1    4    4    0  502  0.64694525105E+02  0.48258346574E+02 -0.49194339398E+02  0.94638378164E+02  0.47000000000E+01 0. -1.
          5    1    5    5  503    0 -0.75572905869E+02  0.26458898219E+02 -0.17926177860E+03  0.19638791374E+03  0.47000000000E+01 0. -1.
         -5    1    5    5    0  503  0.23664362113E+02 -0.42766139608E+02 -0.64639598475E+02  0.81174579902E+02  0.47000000000E+01 0. -1.
<mgrwt>
<rscale>  0 0.27369133E+03</rscale>
<asrwt>0</asrwt>
<pdfrwt beam="1">  1        3 0.68125068E-01 0.27369133E+03</pdfrwt>
<pdfrwt beam="2">  1       -3 0.65062151E-02 0.27369133E+03</pdfrwt>
<totfact> 0.80051699E+02</totfact>
</mgrwt>
</event>
<event>
 9    1  0.7986988E-001  0.2734425E+03  0.7818608E-02  0.1099325E+00
         -2   -1    0    0    0  501 -0.00000000000E+00  0.00000000000E+00  0.10959182372E+03  0.10959182372E+03  0.00000000000E+00 0. -1.
          2   -1    0    0  501    0  0.00000000000E+00 -0.00000000000E+00 -0.17056653303E+03  0.17056653303E+03  0.00000000000E+00 0. -1.
         35    2    1    2    0    0  0.21316282073E-13  0.00000000000E+00 -0.60974709302E+02  0.28015835675E+03  0.27344247966E+03 0.  0.
         25    2    3    3    0    0 -0.47612844151E+02  0.10552101228E+02 -0.50922432195E+01  0.13439127231E+03  0.12512694899E+03 0.  0.
         25    2    3    3    0    0  0.47612844151E+02 -0.10552101228E+02 -0.55882466082E+02  0.14576708444E+03  0.12548650574E+03 0.  0.
          5    1    4    4  502    0 -0.75281166541E+02  0.23499205445E+02 -0.39342407679E+02  0.88257474099E+02  0.47000000000E+01 0.  1.
         -5    1    4    4    0  502  0.27668322390E+02 -0.12947104217E+02  0.34250164459E+02  0.46133798207E+02  0.47000000000E+01 0.  1.
          5    1    5    5  503    0  0.64702723171E+02 -0.42159447411E+02  0.20938633418E+01  0.77397258708E+02  0.47000000000E+01 0. -1.
         -5    1    5    5    0  503 -0.17089879020E+02  0.31607346183E+02 -0.57976329424E+02  0.68369825736E+02  0.47000000000E+01 0. -1.
<mgrwt>
<rscale>  0 0.27344248E+03</rscale>
<asrwt>0</asrwt>
<pdfrwt beam="1">  1        2 0.26241005E-01 0.27344248E+03</pdfrwt>
<pdfrwt beam="2">  1       -2 0.16860281E-01 0.27344248E+03</pdfrwt>
<totfact> 0.56865557E+03</totfact>
</mgrwt>
</event>
<event>
 9    1  0.7986988E-001  0.2756309E+03  0.7818608E-02  0.1098099E+00
         -2   -1    0    0    0  501 -0.00000000000E+00  0.00000000000E+00  0.33066002059E+02  0.33066002059E+02  0.00000000000E+00 0. -1.
          2   -1    0    0  501    0  0.00000000000E+00 -0.00000000000E+00 -0.57439960230E+03  0.57439960230E+03  0.00000000000E+00 0. -1.
         35    2    1    2    0    0  0.00000000000E+00  0.14210854715E-13 -0.54133360024E+03  0.60746560435E+03  0.27563090126E+03 0.  0.
         25    2    3    3    0    0 -0.13372130342E+02  0.45982305946E+02 -0.20029913579E+03  0.24113276262E+03  0.12542758501E+03 0.  0.
         25    2    3    3    0    0  0.13372130342E+02 -0.45982305946E+02 -0.34103446445E+03  0.36633284173E+03  0.12490820094E+03 0.  0.
          5    1    4    4  502    0 -0.93646691269E+01 -0.39211371395E+02 -0.10799705771E+03  0.11537193397E+03  0.47000000000E+01 0. -1.
         -5    1    4    4    0  502 -0.40074612147E+01  0.85193677341E+02 -0.92302078083E+02  0.12576082865E+03  0.47000000000E+01 0. -1.
          5    1    5    5  503    0  0.68711631162E+01 -0.87466610699E+02 -0.18706961724E+03  0.20667547645E+03  0.47000000000E+01 0. -1.
         -5    1    5    5    0  503  0.65009672254E+01  0.41484304753E+02 -0.15396484720E+03  0.15965736529E+03  0.47000000000E+01 0. -1.
<mgrwt>
<rscale>  0 0.27563090E+03</rscale>
<asrwt>0</asrwt>
<pdfrwt beam="1">  1        2 0.88369162E-01 0.27563090E+03</pdfrwt>
<pdfrwt beam="2">  1       -2 0.50870777E-02 0.27563090E+03</pdfrwt>
<totfact> 0.10075988E+04</totfact>
</mgrwt>
</event>
<event>
 9    1  0.7986988E-001  0.2737718E+03  0.7818608E-02  0.1099140E+00
         -1   -1    0    0    0  501 -0.00000000000E+00  0.00000000000E+00  0.26837577601E+02  0.26837577601E+02  0.00000000000E+00 0.  1.
          1   -1    0    0  501    0  0.00000000000E+00 -0.00000000000E+00 -0.69819086543E+03  0.69819086543E+03  0.00000000000E+00 0.  1.
         35    2    1    2    0    0  0.71054273576E-14  0.35527136788E-14 -0.67135328783E+03  0.72502844303E+03  0.27377181397E+03 0.  0.
         25    2    3    3    0    0 -0.52788379504E+02 -0.12329721257E+02 -0.36925769991E+03  0.39365873975E+03  0.12520910268E+03 0.  0.
         25    2    3    3    0    0  0.52788379504E+02  0.12329721257E+02 -0.30209558791E+03  0.33136970328E+03  0.12492197958E+03 0.  0.
          5    1    4    4  502    0 -0.75587239042E+02 -0.41311793447E+02 -0.16650243055E+03  0.18752398343E+03  0.47000000000E+01 0. -1.
         -5    1    4    4    0  502  0.22798859538E+02  0.28982072190E+02 -0.20275526937E+03  0.20613475631E+03  0.47000000000E+01 0. -1.
          5    1    5    5  503    0  0.64129571834E+02 -0.29004209006E+02 -0.26582334559E+03  0.27502361205E+03  0.47000000000E+01 0. -1.
         -5    1    5    5    0  503 -0.11341192330E+02  0.41333930263E+02 -0.36272242326E+02  0.56346091238E+02  0.47000000000E+01 0. -1.
<mgrwt>
<rscale>  0 0.27377181E+03</rscale>
<asrwt>0</asrwt>
<pdfrwt beam="1">  1        1 0.10741396E+00 0.27377181E+03</pdfrwt>
<pdfrwt beam="2">  1       -1 0.41288588E-02 0.27377181E+03</pdfrwt>
<totfact> 0.66175196E+03</totfact>
</mgrwt>
</event>
<event>
 9    1  0.7986988E-001  0.2739016E+03  0.7818608E-02  0.1099067E+00
         -1   -1    0    0    0  501 -0.00000000000E+00  0.00000000000E+00  0.10694284194E+02  0.10694284194E+02  0.00000000000E+00 0.  1.
          1   -1    0    0  501    0  0.00000000000E+00 -0.00000000000E+00 -0.17537890358E+04  0.17537890358E+04  0.00000000000E+00 0.  1.
         35    2    1    2    0    0  0.00000000000E+00  0.00000000000E+00 -0.17430947516E+04  0.17644833200E+04  0.27390157623E+03 0.  0.
         25    2    3    3    0    0  0.53564197248E+02  0.10185200459E+02 -0.80577061217E+03  0.81727557783E+03  0.12530055519E+03 0.  0.
         25    2    3    3    0    0 -0.53564197248E+02 -0.10185200459E+02 -0.93732413946E+03  0.94720774219E+03  0.12511236121E+03 0.  0.
          5    1    4    4  502    0  0.30728461723E+02 -0.57179719632E+02 -0.41079525308E+03  0.41591896885E+03  0.47000000000E+01 0. -1.
         -5    1    4    4    0  502  0.22835735524E+02  0.67364920091E+02 -0.39497535910E+03  0.40135660898E+03  0.47000000000E+01 0. -1.
          5    1    5    5  503    0 -0.50719810085E+01 -0.35323415306E+02 -0.77578065632E+03  0.77661521063E+03  0.47000000000E+01 0. -1.
         -5    1    5    5    0  503 -0.48492216239E+02  0.25138214847E+02 -0.16154348314E+03  0.17059253157E+03  0.47000000000E+01 0. -1.
<mgrwt>
<rscale>  0 0.27390158E+03</rscale>
<asrwt>0</asrwt>
<pdfrwt beam="1">  1        1 0.26981355E+00 0.27390158E+03</pdfrwt>
<pdfrwt beam="2">  1       -1 0.16452754E-02 0.27390158E+03</pdfrwt>
<totfact> 0.44479483E+03</totfact>
</mgrwt>
</event>
<event>
 9    1  0.7986988E-001  0.2760866E+03  0.7818608E-02  0.1097846E+00
          1   -1    0    0  501    0  0.00000000000E+00  0.00000000000E+00  0.86362496391E+03  0.86362496391E+03  0.00000000000E+00 0.  1.
         -1   -1    0    0    0  501 -0.00000000000E+00 -0.00000000000E+00 -0.22065085634E+02  0.22065085634E+02  0.00000000000E+00 0.  1.
         35    2    1    2    0    0  0.00000000000E+00  0.00000000000E+00  0.84155987828E+03  0.88569004955E+03  0.27608664426E+03 0.  0.
         25    2    3    3    0    0  0.17523136171E+00 -0.41786811463E+02  0.54929612252E+03  0.56483293633E+03  0.12475514991E+03 0.  0.
         25    2    3    3    0    0 -0.17523136171E+00  0.41786811463E+02  0.29226375576E+03  0.32085711322E+03  0.12563843303E+03 0.  0.
          5    1    4    4  502    0 -0.17884611175E+02 -0.16060882241E+02  0.52302708061E+03  0.52360025621E+03  0.47000000000E+01 0. -1.
         -5    1    4    4    0  502  0.18059842536E+02 -0.25725929222E+02  0.26269041910E+02  0.41232680117E+02  0.47000000000E+01 0. -1.
          5    1    5    5  503    0  0.43424776376E+02  0.28823202586E+02  0.43864499375E+02  0.68283764659E+02  0.47000000000E+01 0.  1.
         -5    1    5    5    0  503 -0.43600007738E+02  0.12963608876E+02  0.24839925638E+03  0.25257334856E+03  0.47000000000E+01 0.  1.
<mgrwt>
<rscale>  0 0.27608664E+03</rscale>
<asrwt>0</asrwt>
<pdfrwt beam="1">  1        1 0.13286535E+00 0.27608664E+03</pdfrwt>
<pdfrwt beam="2">  1       -1 0.33946292E-02 0.27608664E+03</pdfrwt>
<totfact> 0.64038179E+03</totfact>
</mgrwt>
</event>
<event>
 9    1  0.7986988E-001  0.2789130E+03  0.7818608E-02  0.1096284E+00
          1   -1    0    0  501    0  0.00000000000E+00  0.00000000000E+00  0.77582682444E+02  0.77582682444E+02  0.00000000000E+00 0.  1.
         -1   -1    0    0    0  501 -0.00000000000E+00 -0.00000000000E+00 -0.25067604877E+03  0.25067604877E+03  0.00000000000E+00 0.  1.
         35    2    1    2    0    0 -0.35527136788E-14  0.00000000000E+00 -0.17309336632E+03  0.32825873121E+03  0.27891303510E+03 0.  0.
         25    2    3    3    0    0  0.27888263298E+02 -0.31432626196E+02 -0.15346144922E+03  0.20136904205E+03  0.12342329391E+03 0.  0.
         25    2    3    3    0    0 -0.27888263298E+02  0.31432626196E+02 -0.19631917103E+02  0.12688968916E+03  0.11810933844E+03 0.  0.
          5    1    4    4  502    0  0.16826828309E+02 -0.70411970632E+02 -0.14124843799E+03  0.15878979499E+03  0.47000000000E+01 0.  1.
         -5    1    4    4    0  502  0.11061434989E+02  0.38979344435E+02 -0.12213011231E+02  0.42579247057E+02  0.47000000000E+01 0.  1.
          5    1    5    5  503    0 -0.49307162528E+02 -0.29529155533E+02 -0.22842286078E+02  0.62024409198E+02  0.47000000000E+01 0. -1.
         -5    1    5    5    0  503  0.21418899230E+02  0.60961781730E+02  0.32103689745E+01  0.64865279964E+02  0.47000000000E+01 0. -1.
<mgrwt>
<rscale>  0 0.27891304E+03</rscale>
<asrwt>0</asrwt>
<pdfrwt beam="1">  1        1 0.11935798E-01 0.27891304E+03</pdfrwt>
<pdfrwt beam="2">  1       -1 0.38565545E-01 0.27891304E+03</pdfrwt>
<totfact> 0.33170582E+03</totfact>
</mgrwt>
</event>
<event>
 9    1  0.7986988E-001  0.3202645E+03  0.7818608E-02  0.1075528E+00
          2   -1    0    0  501    0  0.00000000000E+00  0.00000000000E+00  0.12003021532E+03  0.12003021532E+03  0.00000000000E+00 0.  1.
         -2   -1    0    0    0  501 -0.00000000000E+00 -0.00000000000E+00 -0.21363233920E+03  0.21363233920E+03  0.00000000000E+00 0.  1.
         35    2    1    2    0    0  0.35527136788E-14  0.00000000000E+00 -0.93602123879E+02  0.33366255451E+03  0.32026448865E+03 0.  0.
         25    2    3    3    0    0  0.15010625749E+02 -0.46879191326E+02 -0.13758254366E+03  0.19256285203E+03  0.12541338923E+03 0.  0.
         25    2    3    3    0    0 -0.15010625749E+02  0.46879191326E+02  0.43980419786E+02  0.14109970248E+03  0.12470714194E+03 0.  0.
          5    1    4    4  502    0 -0.19853645176E+02  0.10373960854E+02  0.13946222880E+02  0.26802489123E+02  0.47000000000E+01 0.  1.
         -5    1    4    4    0  502  0.34864270925E+02 -0.57253152180E+02 -0.15152876654E+03  0.16576036291E+03  0.47000000000E+01 0.  1.
          5    1    5    5  503    0 -0.50196925462E+02 -0.22466782108E+02  0.99415535967E+01  0.56083973754E+02  0.47000000000E+01 0.  1.
         -5    1    5    5    0  503  0.35186299714E+02  0.69345973434E+02  0.34038866189E+02  0.85015728724E+02  0.47000000000E+01 0.  1.
<mgrwt>
<rscale>  0 0.32026449E+03</rscale>
<asrwt>0</asrwt>
<pdfrwt beam="1">  1        2 0.18466187E-01 0.32026449E+03</pdfrwt>
<pdfrwt beam="2">  1       -2 0.32866514E-01 0.32026449E+03</pdfrwt>
<totfact> 0.26374511E+03</totfact>
</mgrwt>
</event>
<event>
 9    1  0.7986988E-001  0.2778415E+03  0.7818608E-02  0.1096874E+00
          1   -1    0    0  501    0  0.00000000000E+00  0.00000000000E+00  0.44158437377E+03  0.44158437377E+03  0.00000000000E+00 0. -1.
         -1   -1    0    0    0  501 -0.00000000000E+00 -0.00000000000E+00 -0.43703942170E+02  0.43703942170E+02  0.00000000000E+00 0. -1.
         35    2    1    2    0    0  0.62172489379E-14  0.00000000000E+00  0.39788043160E+03  0.48528831594E+03  0.27784152270E+03 0.  0.
         25    2    3    3    0    0 -0.45991292715E+00 -0.56228879669E+02  0.22683770785E+03  0.26509097557E+03  0.12512386341E+03 0.  0.
         25    2    3    3    0    0  0.45991292715E+00  0.56228879669E+02  0.17104272375E+03  0.22019734038E+03  0.12676496729E+03 0.  0.
          5    1    4    4  502    0  0.70172883067E+01 -0.73712207821E+02  0.23302342993E+03  0.24455007833E+03  0.47000000000E+01 0.  1.
         -5    1    4    4    0  502 -0.74772012339E+01  0.17483328152E+02 -0.61857220778E+01  0.20540897234E+02  0.47000000000E+01 0.  1.
          5    1    5    5  503    0  0.57062267159E+02 -0.11984879592E+01  0.60693334320E+02  0.83446447124E+02  0.47000000000E+01 0. -1.
         -5    1    5    5    0  503 -0.56602354232E+02  0.57427367628E+02  0.11034938943E+03  0.13675089325E+03  0.47000000000E+01 0. -1.
<mgrwt>
<rscale>  0 0.27784152E+03</rscale>
<asrwt>0</asrwt>
<pdfrwt beam="1">  1        1 0.67936054E-01 0.27784152E+03</pdfrwt>
<pdfrwt beam="2">  1       -1 0.67236837E-02 0.27784152E+03</pdfrwt>
<totfact> 0.59545231E+03</totfact>
</mgrwt>
</event>
<event>
 9    1  0.7986988E-001  0.2683428E+03  0.7818608E-02  0.1102232E+00
         -2   -1    0    0    0  501 -0.00000000000E+00  0.00000000000E+00  0.16188558330E+03  0.16188558330E+03  0.00000000000E+00 0. -1.
          2   -1    0    0  501    0  0.00000000000E+00 -0.00000000000E+00 -0.11120178692E+03  0.11120178692E+03  0.00000000000E+00 0. -1.
         35    2    1    2    0    0  0.00000000000E+00  0.71054273576E-14  0.50683796376E+02  0.27308737022E+03  0.26834281164E+03 0.  0.
         25    2    3    3    0    0 -0.42507773507E+02 -0.26131960809E+02  0.10634481634E+02  0.13278381141E+03  0.12259142788E+03 0.  0.
         25    2    3    3    0    0  0.42507773507E+02  0.26131960809E+02  0.40049314742E+02  0.14030355881E+03  0.12486533073E+03 0.  0.
          5    1    4    4  502    0 -0.28521425479E+02  0.33096559100E+02  0.44866846127E+02  0.62801097260E+02  0.47000000000E+01 0. -1.
         -5    1    4    4    0  502 -0.13986348027E+02 -0.59228519909E+02 -0.34232364492E+02  0.69982714155E+02  0.47000000000E+01 0. -1.
          5    1    5    5  503    0  0.27077508822E+02  0.64573598615E+02  0.61595838195E+02  0.93376005510E+02  0.47000000000E+01 0. -1.
         -5    1    5    5    0  503  0.15430264685E+02 -0.38441637806E+02 -0.21546523453E+02  0.46927553296E+02  0.47000000000E+01 0. -1.
<mgrwt>
<rscale>  0 0.26834281E+03</rscale>
<asrwt>0</asrwt>
<pdfrwt beam="1">  1        2 0.17107967E-01 0.26834281E+03</pdfrwt>
<pdfrwt beam="2">  1       -2 0.24905474E-01 0.26834281E+03</pdfrwt>
<totfact> 0.47331456E+03</totfact>
</mgrwt>
</event>
<event>
 9    1  0.7986988E-001  0.2727088E+03  0.7818608E-02  0.1099739E+00
         -1   -1    0    0    0  501 -0.00000000000E+00  0.00000000000E+00  0.28814177470E+02  0.28814177470E+02  0.00000000000E+00 0. -1.
          1   -1    0    0  501    0  0.00000000000E+00 -0.00000000000E+00 -0.64525625140E+03  0.64525625140E+03  0.00000000000E+00 0. -1.
         35    2    1    2    0    0  0.00000000000E+00  0.00000000000E+00 -0.61644207393E+03  0.67407042887E+03  0.27270884211E+03 0.  0.
         25    2    3    3    0    0 -0.48489544547E+02  0.13522765816E+02 -0.37768935303E+03  0.40013092290E+03  0.12215321095E+03 0.  0.
         25    2    3    3    0    0  0.48489544547E+02 -0.13522765816E+02 -0.23875272090E+03  0.27393950596E+03  0.12452264880E+03 0.  0.
          5    1    4    4  502    0 -0.74544672706E+02 -0.59385231850E+01 -0.12822893074E+03  0.14851573305E+03  0.47000000000E+01 0.  1.
         -5    1    4    4    0  502  0.26055128159E+02  0.19461289001E+02 -0.24946042229E+03  0.25161518985E+03  0.47000000000E+01 0.  1.
          5    1    5    5  503    0 -0.35779125800E+02  0.20340522790E+02 -0.54394190574E+02  0.68371782766E+02  0.47000000000E+01 0.  1.
         -5    1    5    5    0  503  0.84268670347E+02 -0.33863288607E+02 -0.18435853032E+03  0.20556772320E+03  0.47000000000E+01 0.  1.
<mgrwt>
<rscale>  0 0.27270884E+03</rscale>
<asrwt>0</asrwt>
<pdfrwt beam="1">  1        1 0.99270192E-01 0.27270884E+03</pdfrwt>
<pdfrwt beam="2">  1       -1 0.44329504E-02 0.27270884E+03</pdfrwt>
<totfact> 0.66667077E+03</totfact>
</mgrwt>
</event>
<event>
 9    1  0.7986988E-001  0.2787745E+03  0.7818608E-02  0.1096360E+00
         -2   -1    0    0    0  501 -0.00000000000E+00  0.00000000000E+00  0.88139015505E+01  0.88139015505E+01  0.00000000000E+00 0. -1.
          2   -1    0    0  501    0  0.00000000000E+00 -0.00000000000E+00 -0.22043363362E+04  0.22043363362E+04  0.00000000000E+00 0. -1.
         35    2    1    2    0    0  0.71054273576E-14  0.00000000000E+00 -0.21955224347E+04  0.22131502378E+04  0.27877448557E+03 0.  0.
         25    2    3    3    0    0  0.37023787622E+02  0.29165616389E+00 -0.69621684722E+03  0.70828870547E+03  0.12483647713E+03 0.  0.
         25    2    3    3    0    0 -0.37023787622E+02 -0.29165616389E+00 -0.14993055874E+04  0.15048615323E+04  0.12377455694E+03 0.  0.
          5    1    4    4  502    0  0.77517137715E+02  0.21396858580E+02 -0.35669329181E+03  0.36567598583E+03  0.47000000000E+01 0. -1.
         -5    1    4    4    0  502 -0.40493350093E+02 -0.21105202417E+02 -0.33952355542E+03  0.34261271963E+03  0.47000000000E+01 0. -1.
          5    1    5    5  503    0 -0.45091407759E+02  0.53393276028E+02 -0.63786580403E+03  0.64170004748E+03  0.47000000000E+01 0.  1.
         -5    1    5    5    0  503  0.80676201371E+01 -0.53684932192E+02 -0.86143978340E+03  0.86316148481E+03  0.47000000000E+01 0.  1.
<mgrwt>
<rscale>  0 0.27877449E+03</rscale>
<asrwt>0</asrwt>
<pdfrwt beam="1">  1        2 0.33912927E+00 0.27877449E+03</pdfrwt>
<pdfrwt beam="2">  1       -2 0.13559824E-02 0.27877449E+03</pdfrwt>
<totfact> 0.79217497E+03</totfact>
</mgrwt>
</event>
<event>
 9    1  0.7986988E-001  0.2810991E+03  0.7818608E-02  0.1095090E+00
          1   -1    0    0  501    0  0.00000000000E+00  0.00000000000E+00  0.34251619616E+03  0.34251619616E+03  0.00000000000E+00 0. -1.
         -1   -1    0    0    0  501 -0.00000000000E+00 -0.00000000000E+00 -0.57673685791E+02  0.57673685791E+02  0.00000000000E+00 0. -1.
         35    2    1    2    0    0  0.00000000000E+00  0.53290705182E-14  0.28484251037E+03  0.40018988195E+03  0.28109906777E+03 0.  0.
         25    2    3    3    0    0 -0.20893198022E+02  0.15831750425E+02  0.22440418680E+03  0.25817610814E+03  0.12494196140E+03 0.  0.
         25    2    3    3    0    0  0.20893198022E+02 -0.15831750425E+02  0.60438323570E+02  0.14201377381E+03  0.12580918468E+03 0.  0.
          5    1    4    4  502    0 -0.16947005481E+02  0.27269061239E+02 -0.93658720819E+00  0.32461822057E+02  0.47000000000E+01 0.  1.
         -5    1    4    4    0  502 -0.39461925411E+01 -0.11437310815E+02  0.22534077400E+03  0.22571428609E+03  0.47000000000E+01 0.  1.
          5    1    5    5  503    0  0.11002671977E+02 -0.67001648382E+02  0.58339847446E+02  0.89643223260E+02  0.47000000000E+01 0. -1.
         -5    1    5    5    0  503  0.98905260447E+01  0.51169897957E+02  0.20984761236E+01  0.52370550545E+02  0.47000000000E+01 0. -1.
<mgrwt>
<rscale>  0 0.28109907E+03</rscale>
<asrwt>0</asrwt>
<pdfrwt beam="1">  1        1 0.52694798E-01 0.28109907E+03</pdfrwt>
<pdfrwt beam="2">  1       -1 0.88728749E-02 0.28109907E+03</pdfrwt>
<totfact> 0.54022432E+03</totfact>
</mgrwt>
</event>
<event>
 9    1  0.7986988E-001  0.2733572E+03  0.7818608E-02  0.1099373E+00
          1   -1    0    0  501    0  0.00000000000E+00  0.00000000000E+00  0.32704759972E+03  0.32704759972E+03  0.00000000000E+00 0.  1.
         -1   -1    0    0    0  501 -0.00000000000E+00 -0.00000000000E+00 -0.57120235320E+02  0.57120235320E+02  0.00000000000E+00 0.  1.
         35    2    1    2    0    0  0.00000000000E+00  0.00000000000E+00  0.26992736440E+03  0.38416783504E+03  0.27335717190E+03 0.  0.
         25    2    3    3    0    0 -0.13736693212E+01 -0.50293060820E+02  0.18896928258E+03  0.23078162227E+03  0.12255402273E+03 0.  0.
         25    2    3    3    0    0  0.13736693212E+01  0.50293060820E+02  0.80958081820E+02  0.15338621277E+03  0.12017420822E+03 0.  0.
          5    1    4    4  502    0 -0.36904176861E+02 -0.57417240905E+01  0.48083544358E+01  0.37948595991E+02  0.47000000000E+01 0. -1.
         -5    1    4    4    0  502  0.35530507540E+02 -0.44551336729E+02  0.18416092814E+03  0.19283302628E+03  0.47000000000E+01 0. -1.
          5    1    5    5  503    0 -0.49878835191E+02  0.87785394908E+01  0.69739955213E+02  0.86317508703E+02  0.47000000000E+01 0.  1.
         -5    1    5    5    0  503  0.51252504513E+02  0.41514521329E+02  0.11218126607E+02  0.67068704062E+02  0.47000000000E+01 0.  1.
<mgrwt>
<rscale>  0 0.27335717E+03</rscale>
<asrwt>0</asrwt>
<pdfrwt beam="1">  1        1 0.50315014E-01 0.27335717E+03</pdfrwt>
<pdfrwt beam="2">  1       -1 0.87877287E-02 0.27335717E+03</pdfrwt>
<totfact> 0.58076106E+03</totfact>
</mgrwt>
</event>
<event>
 9    1  0.7986988E-001  0.2760271E+03  0.7818608E-02  0.1097879E+00
         -1   -1    0    0    0  501 -0.00000000000E+00  0.00000000000E+00  0.12619681327E+02  0.12619681327E+02  0.00000000000E+00 0.  1.
          1   -1    0    0  501    0  0.00000000000E+00 -0.00000000000E+00 -0.15093672396E+04  0.15093672396E+04  0.00000000000E+00 0.  1.
         35    2    1    2    0    0  0.00000000000E+00 -0.14210854715E-13 -0.14967475583E+04  0.15219869210E+04  0.27602705352E+03 0.  0.
         25    2    3    3    0    0  0.26779747860E+02 -0.45085339250E+02 -0.92003615712E+03  0.92986179571E+03  0.12420380831E+03 0.  0.
         25    2    3    3    0    0 -0.26779747860E+02  0.45085339250E+02 -0.57671140119E+03  0.59212512526E+03  0.12355679255E+03 0.  0.
          5    1    4    4  502    0 -0.25200128512E+02  0.97342596118E+01 -0.54374269048E+02  0.60897072357E+02  0.47000000000E+01 0.  1.
         -5    1    4    4    0  502  0.51979876372E+02 -0.54819598862E+02 -0.86566188807E+03  0.86896472335E+03  0.47000000000E+01 0.  1.
          5    1    5    5  503    0  0.53158680049E+01  0.80927509278E+02 -0.43143888117E+03  0.43902063550E+03  0.47000000000E+01 0.  1.
         -5    1    5    5    0  503 -0.32095615865E+02 -0.35842170028E+02 -0.14527252003E+03  0.15310448976E+03  0.47000000000E+01 0.  1.
<mgrwt>
<rscale>  0 0.27602705E+03</rscale>
<asrwt>0</asrwt>
<pdfrwt beam="1">  1        1 0.23221020E+00 0.27602705E+03</pdfrwt>
<pdfrwt beam="2">  1       -1 0.19414906E-02 0.27602705E+03</pdfrwt>
<totfact> 0.50525330E+03</totfact>
</mgrwt>
</event>
<event>
 9    1  0.7986988E-001  0.2750294E+03  0.7818608E-02  0.1098435E+00
         -1   -1    0    0    0  501 -0.00000000000E+00  0.00000000000E+00  0.57978203576E+03  0.57978203576E+03  0.00000000000E+00 0.  1.
          1   -1    0    0  501    0  0.00000000000E+00 -0.00000000000E+00 -0.32616213868E+02  0.32616213868E+02  0.00000000000E+00 0.  1.
         35    2    1    2    0    0  0.00000000000E+00  0.00000000000E+00  0.54716582189E+03  0.61239824963E+03  0.27502941570E+03 0.  0.
         25    2    3    3    0    0  0.34042861559E+02 -0.43061108718E+02  0.23392849856E+03  0.27068458412E+03  0.12463717797E+03 0.  0.
         25    2    3    3    0    0 -0.34042861559E+02  0.43061108718E+02  0.31323732333E+03  0.34171366551E+03  0.12504972196E+03 0.  0.
          5    1    4    4  502    0 -0.11966709842E+02 -0.34664710654E+01  0.20105170378E+03  0.20149217394E+03  0.47000000000E+01 0.  1.
         -5    1    4    4    0  502  0.46009571401E+02 -0.39594637653E+02  0.32876794785E+02  0.69192410181E+02  0.47000000000E+01 0.  1.
          5    1    5    5  503    0 -0.69650015995E+02 -0.87768702600E+01  0.12838810276E+03  0.14640270868E+03  0.47000000000E+01 0.  1.
         -5    1    5    5    0  503  0.35607154436E+02  0.51837978978E+02  0.18484922057E+03  0.19531095683E+03  0.47000000000E+01 0.  1.
<mgrwt>
<rscale>  0 0.27502942E+03</rscale>
<asrwt>0</asrwt>
<pdfrwt beam="1">  1        1 0.50178795E-02 0.27502942E+03</pdfrwt>
<pdfrwt beam="2">  1       -1 0.89197229E-01 0.27502942E+03</pdfrwt>
<totfact> 0.21423743E+03</totfact>
</mgrwt>
</event>
<event>
 9    1  0.7986988E-001  0.2735230E+03  0.7818608E-02  0.1099280E+00
          1   -1    0    0  501    0  0.00000000000E+00  0.00000000000E+00  0.69852759146E+03  0.69852759146E+03  0.00000000000E+00 0. -1.
         -1   -1    0    0    0  501 -0.00000000000E+00 -0.00000000000E+00 -0.26775895495E+02  0.26775895495E+02  0.00000000000E+00 0. -1.
         35    2    1    2    0    0 -0.71054273576E-14  0.14210854715E-13  0.67175169596E+03  0.72530348695E+03  0.27352295545E+03 0.  0.
         25    2    3    3    0    0  0.85945620042E+01 -0.45240406563E+02  0.25700111884E+03  0.28977544776E+03  0.12569675476E+03 0.  0.
         25    2    3    3    0    0 -0.85945620042E+01  0.45240406563E+02  0.41475057712E+03  0.43552803919E+03  0.12468388356E+03 0.  0.
          5    1    4    4  502    0  0.33344848709E+02  0.30094898290E+02  0.46672098760E+02  0.64945797718E+02  0.47000000000E+01 0. -1.
         -5    1    4    4    0  502 -0.24750286705E+02 -0.75335304853E+02  0.21032902008E+03  0.22482965004E+03  0.47000000000E+01 0. -1.
          5    1    5    5  503    0  0.56910819585E+02  0.32745824837E+02  0.19278402413E+03  0.20371278897E+03  0.47000000000E+01 0. -1.
         -5    1    5    5    0  503 -0.65505381589E+02  0.12494581725E+02  0.22196655299E+03  0.23181525022E+03  0.47000000000E+01 0. -1.
<mgrwt>
<rscale>  0 0.27352296E+03</rscale>
<asrwt>0</asrwt>
<pdfrwt beam="1">  1        1 0.10746577E+00 0.27352296E+03</pdfrwt>
<pdfrwt beam="2">  1       -1 0.41193691E-02 0.27352296E+03</pdfrwt>
<totfact> 0.66353872E+03</totfact>
</mgrwt>
</event>
<event>
 9    1  0.7986988E-001  0.2712918E+03  0.7818608E-02  0.1100543E+00
         -1   -1    0    0    0  501 -0.00000000000E+00  0.00000000000E+00  0.14052112744E+03  0.14052112744E+03  0.00000000000E+00 0.  1.
          1   -1    0    0  501    0  0.00000000000E+00 -0.00000000000E+00 -0.13093979158E+03  0.13093979158E+03  0.00000000000E+00 0.  1.
         35    2    1    2    0    0  0.00000000000E+00 -0.35527136788E-14  0.95813358591E+01  0.27146091902E+03  0.27129177754E+03 0.  0.
         25    2    3    3    0    0  0.47024653959E+02  0.22971153218E+02  0.93432320851E+01  0.13565701349E+03  0.12480599891E+03 0.  0.
         25    2    3    3    0    0 -0.47024653959E+02 -0.22971153218E+02  0.23810377397E+00  0.13580390553E+03  0.12531421350E+03 0.  0.
          5    1    4    4  502    0  0.35242721160E+02 -0.23129961172E+02  0.55060235829E+02  0.69503698234E+02  0.47000000000E+01 0. -1.
         -5    1    4    4    0  502  0.11781932799E+02  0.46101114389E+02 -0.45717003744E+02  0.66153315259E+02  0.47000000000E+01 0. -1.
          5    1    5    5  503    0 -0.46522782397E+01  0.27065994551E+02  0.47342863488E+02  0.54933127319E+02  0.47000000000E+01 0. -1.
         -5    1    5    5    0  503 -0.42372375720E+02 -0.50037147768E+02 -0.47104759714E+02  0.80870778212E+02  0.47000000000E+01 0. -1.
<mgrwt>
<rscale>  0 0.27129178E+03</rscale>
<asrwt>0</asrwt>
<pdfrwt beam="1">  1        1 0.20144583E-01 0.27129178E+03</pdfrwt>
<pdfrwt beam="2">  1       -1 0.21618635E-01 0.27129178E+03</pdfrwt>
<totfact> 0.44558335E+03</totfact>
</mgrwt>
</event>
<event>
 9    1  0.7986988E-001  0.2743307E+03  0.7818608E-02  0.1098826E+00
         -2   -1    0    0    0  501 -0.00000000000E+00  0.00000000000E+00  0.27968639895E+02  0.27968639895E+02  0.00000000000E+00 0.  1.
          2   -1    0    0  501    0  0.00000000000E+00 -0.00000000000E+00 -0.67269390312E+03  0.67269390312E+03  0.00000000000E+00 0.  1.
         35    2    1    2    0    0  0.00000000000E+00 -0.71054273576E-14 -0.64472526322E+03  0.70066254301E+03  0.27433070215E+03 0.  0.
         25    2    3    3    0    0  0.42872735190E+02  0.36259243406E+02 -0.34783909005E+03  0.37366080406E+03  0.12440884120E+03 0.  0.
         25    2    3    3    0    0 -0.42872735190E+02 -0.36259243406E+02 -0.29688617317E+03  0.32700173895E+03  0.12504372556E+03 0.  0.
          5    1    4    4  502    0 -0.35436288279E+02 -0.14568440931E+02 -0.63101031701E+02  0.73971617529E+02  0.47000000000E+01 0.  1.
         -5    1    4    4    0  502  0.78309023468E+02  0.50827684337E+02 -0.28473805835E+03  0.29968918653E+03  0.47000000000E+01 0.  1.
          5    1    5    5  503    0 -0.19763983074E+02  0.49611988392E+01  0.49192257423E+01  0.21482953772E+02  0.47000000000E+01 0.  1.
         -5    1    5    5    0  503 -0.23108752116E+02 -0.41220442245E+02 -0.30180539892E+03  0.30551878518E+03  0.47000000000E+01 0.  1.
<mgrwt>
<rscale>  0 0.27433070E+03</rscale>
<asrwt>0</asrwt>
<pdfrwt beam="1">  1        2 0.10349137E+00 0.27433070E+03</pdfrwt>
<pdfrwt beam="2">  1       -2 0.43028678E-02 0.27433070E+03</pdfrwt>
<totfact> 0.10787078E+04</totfact>
</mgrwt>
</event>
<event>
 9    1  0.7986988E-001  0.2780723E+03  0.7818608E-02  0.1096746E+00
         -1   -1    0    0    0  501 -0.00000000000E+00  0.00000000000E+00  0.37225257279E+03  0.37225257279E+03  0.00000000000E+00 0. -1.
          1   -1    0    0  501    0  0.00000000000E+00 -0.00000000000E+00 -0.51929946952E+02  0.51929946952E+02  0.00000000000E+00 0. -1.
         35    2    1    2    0    0  0.00000000000E+00  0.71054273576E-14  0.32032262584E+03  0.42418251975E+03  0.27807233849E+03 0.  0.
         25    2    3    3    0    0 -0.49386550481E+02  0.27836580594E+02  0.12963057770E+03  0.18915179581E+03  0.12554046597E+03 0.  0.
         25    2    3    3    0    0  0.49386550481E+02 -0.27836580594E+02  0.19069204815E+03  0.23503072394E+03  0.12514822164E+03 0.  0.
          5    1    4    4  502    0 -0.16792003392E+02  0.50585012853E+02  0.13822065191E+03  0.14821556436E+03  0.47000000000E+01 0. -1.
         -5    1    4    4    0  502 -0.32594547089E+02 -0.22748432260E+02 -0.85900742174E+01  0.40936231449E+02  0.47000000000E+01 0. -1.
          5    1    5    5  503    0  0.75236469762E+02 -0.42237575297E+02  0.18547849232E+03  0.20461891472E+03  0.47000000000E+01 0. -1.
         -5    1    5    5    0  503 -0.25849919280E+02  0.14400994704E+02  0.52135558260E+01  0.30411809213E+02  0.47000000000E+01 0. -1.
<mgrwt>
<rscale>  0 0.27807234E+03</rscale>
<asrwt>0</asrwt>
<pdfrwt beam="1">  1        1 0.79892228E-02 0.27807234E+03</pdfrwt>
<pdfrwt beam="2">  1       -1 0.57269625E-01 0.27807234E+03</pdfrwt>
<totfact> 0.27618328E+03</totfact>
</mgrwt>
</event>
<event>
 9    1  0.7986988E-001  0.2693277E+03  0.7818608E-02  0.1101665E+00
         -1   -1    0    0    0  501 -0.00000000000E+00  0.00000000000E+00  0.48766164528E+02  0.48766164528E+02  0.00000000000E+00 0. -1.
          1   -1    0    0  501    0  0.00000000000E+00 -0.00000000000E+00 -0.37186350484E+03  0.37186350484E+03  0.00000000000E+00 0. -1.
         35    2    1    2    0    0  0.35527136788E-14  0.00000000000E+00 -0.32309734031E+03  0.42062966937E+03  0.26932773239E+03 0.  0.
         25    2    3    3    0    0  0.21547167346E+02  0.45089740770E+02 -0.17856499893E+03  0.22310656724E+03  0.12407141638E+03 0.  0.
         25    2    3    3    0    0 -0.21547167346E+02 -0.45089740770E+02 -0.14453234138E+03  0.19752310213E+03  0.12501365135E+03 0.  0.
          5    1    4    4  502    0  0.56975137060E+02 -0.15756014674E+02 -0.10860218908E+03  0.12373739820E+03  0.47000000000E+01 0. -1.
         -5    1    4    4    0  502 -0.35427969714E+02  0.60845755445E+02 -0.69962809848E+02  0.99369169039E+02  0.47000000000E+01 0. -1.
          5    1    5    5  503    0  0.14522697932E+02  0.38700834485E+02 -0.31428643641E+02  0.52139361198E+02  0.47000000000E+01 0.  1.
         -5    1    5    5    0  503 -0.36069865278E+02 -0.83790575255E+02 -0.11310369774E+03  0.14538374093E+03  0.47000000000E+01 0.  1.
<mgrwt>
<rscale>  0 0.26932773E+03</rscale>
<asrwt>0</asrwt>
<pdfrwt beam="1">  1        1 0.57209771E-01 0.26932773E+03</pdfrwt>
<pdfrwt beam="2">  1       -1 0.75024867E-02 0.26932773E+03</pdfrwt>
<totfact> 0.62809462E+03</totfact>
</mgrwt>
</event>
<event>
 9    1  0.7986988E-001  0.2774122E+03  0.7818608E-02  0.1097111E+00
         -2   -1    0    0    0  501 -0.00000000000E+00  0.00000000000E+00  0.11871403648E+02  0.11871403648E+02  0.00000000000E+00 0.  1.
          2   -1    0    0  501    0  0.00000000000E+00 -0.00000000000E+00 -0.16206489347E+04  0.16206489347E+04  0.00000000000E+00 0.  1.
         35    2    1    2    0    0  0.00000000000E+00  0.00000000000E+00 -0.16087775311E+04  0.16325203384E+04  0.27741216755E+03 0.  0.
         25    2    3    3    0    0  0.13960323258E+02 -0.35078031326E+02 -0.10831255131E+04  0.10910945152E+04  0.12609918753E+03 0.  0.
         25    2    3    3    0    0 -0.13960323258E+02  0.35078031326E+02 -0.52565201799E+03  0.54142582317E+03  0.12412299978E+03 0.  0.
          5    1    4    4  502    0  0.14151604478E+02  0.21538176785E+02 -0.50345598993E+02  0.56753240493E+02  0.47000000000E+01 0. -1.
         -5    1    4    4    0  502 -0.19128122045E+00 -0.56616208111E+02 -0.10327799141E+04  0.10343412747E+04  0.47000000000E+01 0. -1.
          5    1    5    5  503    0 -0.19864318410E+02  0.69496044884E+02 -0.47005958353E+03  0.47560739426E+03  0.47000000000E+01 0. -1.
         -5    1    5    5    0  503  0.59039951523E+01 -0.34418013557E+02 -0.55592434453E+02  0.65818428911E+02  0.47000000000E+01 0. -1.
<mgrwt>
<rscale>  0 0.27741217E+03</rscale>
<asrwt>0</asrwt>
<pdfrwt beam="1">  1        2 0.24933049E+00 0.27741217E+03</pdfrwt>
<pdfrwt beam="2">  1       -2 0.18263707E-02 0.27741217E+03</pdfrwt>
<totfact> 0.10400169E+04</totfact>
</mgrwt>
</event>
<event>
 9    1  0.7986988E-001  0.2745894E+03  0.7818608E-02  0.1098681E+00
         -3   -1    0    0    0  501 -0.00000000000E+00  0.00000000000E+00  0.36596622596E+03  0.36596622596E+03  0.00000000000E+00 0.  1.
          3   -1    0    0  501    0  0.00000000000E+00 -0.00000000000E+00 -0.51507041594E+02  0.51507041594E+02  0.00000000000E+00 0.  1.
         35    2    1    2    0    0  0.88817841970E-15 -0.71054273576E-14  0.31445918436E+03  0.41747326755E+03  0.27458942166E+03 0.  0.
         25    2    3    3    0    0 -0.29992834597E+01  0.38692610541E+02  0.21954849477E+03  0.25564631178E+03  0.12508949340E+03 0.  0.
         25    2    3    3    0    0  0.29992834597E+01 -0.38692610541E+02  0.94910689595E+02  0.16182695577E+03  0.12519509097E+03 0.  0.
          5    1    4    4  502    0 -0.93113423994E+01 -0.10457418295E+02  0.20249059639E+03  0.20302854558E+03  0.47000000000E+01 0.  1.
         -5    1    4    4    0  502  0.63120589397E+01  0.49150028836E+02  0.17057898378E+02  0.52617766199E+02  0.47000000000E+01 0.  1.
          5    1    5    5  503    0 -0.31998403024E+02  0.25932701091E+02  0.74747185427E+02  0.85473004576E+02  0.47000000000E+01 0. -1.
         -5    1    5    5    0  503  0.34997686483E+02 -0.64625311632E+02  0.20163504168E+02  0.76353951195E+02  0.47000000000E+01 0. -1.
<mgrwt>
<rscale>  0 0.27458942E+03</rscale>
<asrwt>0</asrwt>
<pdfrwt beam="1">  1        3 0.79241605E-02 0.27458942E+03</pdfrwt>
<pdfrwt beam="2">  1       -3 0.56302495E-01 0.27458942E+03</pdfrwt>
<totfact> 0.86429660E+02</totfact>
</mgrwt>
</event>
<event>
 9    1  0.7986988E-001  0.2762366E+03  0.7818608E-02  0.1097762E+00
          1   -1    0    0  501    0  0.00000000000E+00  0.00000000000E+00  0.48955826597E+03  0.48955826597E+03  0.00000000000E+00 0. -1.
         -1   -1    0    0    0  501 -0.00000000000E+00 -0.00000000000E+00 -0.38967110926E+02  0.38967110926E+02  0.00000000000E+00 0. -1.
         35    2    1    2    0    0 -0.14210854715E-13 -0.71054273576E-14  0.45059115504E+03  0.52852537689E+03  0.27623664677E+03 0.  0.
         25    2    3    3    0    0 -0.35316530630E+02 -0.40843963034E+02  0.19350028531E+03  0.23661785889E+03  0.12502065460E+03 0.  0.
         25    2    3    3    0    0  0.35316530630E+02  0.40843963034E+02  0.25709086973E+03  0.29190751800E+03  0.12727449516E+03 0.  0.
          5    1    4    4  502    0  0.45216940211E+02 -0.27012601012E+02  0.59540867559E+02  0.79633266950E+02  0.47000000000E+01 0.  1.
         -5    1    4    4    0  502 -0.80533470841E+02 -0.13831362022E+02  0.13395941775E+03  0.15698459194E+03  0.47000000000E+01 0.  1.
          5    1    5    5  503    0 -0.96175325960E+01 -0.11416380887E+02  0.20446757383E+03  0.20506562226E+03  0.47000000000E+01 0.  1.
         -5    1    5    5    0  503  0.44934063226E+02  0.52260343921E+02  0.52623295896E+02  0.86841895740E+02  0.47000000000E+01 0.  1.
<mgrwt>
<rscale>  0 0.27623665E+03</rscale>
<asrwt>0</asrwt>
<pdfrwt beam="1">  1        1 0.75316652E-01 0.27623665E+03</pdfrwt>
<pdfrwt beam="2">  1       -1 0.59949405E-02 0.27623665E+03</pdfrwt>
<totfact> 0.61855238E+03</totfact>
</mgrwt>
</event>
<event>
 9    1  0.7986988E-001  0.2761268E+03  0.7818608E-02  0.1097823E+00
         -1   -1    0    0    0  501 -0.00000000000E+00  0.00000000000E+00  0.19646760241E+03  0.19646760241E+03  0.00000000000E+00 0.  1.
          1   -1    0    0  501    0  0.00000000000E+00 -0.00000000000E+00 -0.97021064939E+02  0.97021064939E+02  0.00000000000E+00 0.  1.
         35    2    1    2    0    0 -0.35527136788E-14  0.00000000000E+00  0.99446537475E+02  0.29348866735E+03  0.27612675359E+03 0.  0.
         25    2    3    3    0    0  0.30532480687E+01 -0.40169201323E+02  0.98142818504E+02  0.16146123070E+03  0.12171618273E+03 0.  0.
         25    2    3    3    0    0 -0.30532480687E+01  0.40169201323E+02  0.13037189718E+01  0.13202743665E+03  0.12572452938E+03 0.  0.
          5    1    4    4  502    0  0.25402905466E+02  0.38270123195E+02  0.29869656838E+02  0.54992693470E+02  0.47000000000E+01 0. -1.
         -5    1    4    4    0  502 -0.22349657397E+02 -0.78439324518E+02  0.68273161666E+02  0.10646853723E+03  0.47000000000E+01 0. -1.
          5    1    5    5  503    0 -0.42875817723E+02 -0.12857063312E+02  0.35447687127E+02  0.57291084342E+02  0.47000000000E+01 0. -1.
         -5    1    5    5    0  503  0.39822569655E+02  0.53026264635E+02 -0.34143968155E+02  0.74736352309E+02  0.47000000000E+01 0. -1.
<mgrwt>
<rscale>  0 0.27612675E+03</rscale>
<asrwt>0</asrwt>
<pdfrwt beam="1">  1        1 0.14926318E-01 0.27612675E+03</pdfrwt>
<pdfrwt beam="2">  1       -1 0.30225785E-01 0.27612675E+03</pdfrwt>
<totfact> 0.37636538E+03</totfact>
</mgrwt>
</event>
<event>
 9    1  0.7986988E-001  0.2805547E+03  0.7818608E-02  0.1095386E+00
          2   -1    0    0  501    0  0.00000000000E+00  0.00000000000E+00  0.76712551432E+02  0.76712551432E+02  0.00000000000E+00 0. -1.
         -2   -1    0    0    0  501 -0.00000000000E+00 -0.00000000000E+00 -0.25651256542E+03  0.25651256542E+03  0.00000000000E+00 0. -1.
         35    2    1    2    0    0  0.00000000000E+00  0.00000000000E+00 -0.17980001399E+03  0.33322511685E+03  0.28055468891E+03 0.  0.
         25    2    3    3    0    0 -0.42182595621E+02  0.62322497197E+01 -0.39827622015E+02  0.13794197342E+03  0.12499414485E+03 0.  0.
         25    2    3    3    0    0  0.42182595621E+02 -0.62322497197E+01 -0.13997239197E+03  0.19528314343E+03  0.12932526158E+03 0.  0.
          5    1    4    4  502    0  0.21615209778E+02  0.48220426771E+02 -0.29574309956E+02  0.60738428207E+02  0.47000000000E+01 0.  1.
         -5    1    4    4    0  502 -0.63797805399E+02 -0.41988177051E+02 -0.10253312059E+02  0.77203545216E+02  0.47000000000E+01 0.  1.
          5    1    5    5  503    0  0.52149925881E+02  0.51888130491E+02 -0.98535684304E+02  0.12305837613E+03  0.47000000000E+01 0. -1.
         -5    1    5    5    0  503 -0.99673302604E+01 -0.58120380211E+02 -0.41436707668E+02  0.72224767295E+02  0.47000000000E+01 0. -1.
<mgrwt>
<rscale>  0 0.28055469E+03</rscale>
<asrwt>0</asrwt>
<pdfrwt beam="1">  1        2 0.11801931E-01 0.28055469E+03</pdfrwt>
<pdfrwt beam="2">  1       -2 0.39463470E-01 0.28055469E+03</pdfrwt>
<totfact> 0.31780830E+03</totfact>
</mgrwt>
</event>
<event>
 9    1  0.7986988E-001  0.2639990E+03  0.7818608E-02  0.1104764E+00
          4   -1    0    0  501    0  0.00000000000E+00  0.00000000000E+00  0.96098440989E+02  0.96098440989E+02  0.00000000000E+00 0.  1.
         -4   -1    0    0    0  501 -0.00000000000E+00 -0.00000000000E+00 -0.18131264645E+03  0.18131264645E+03  0.00000000000E+00 0.  1.
         35    2    1    2    0    0  0.00000000000E+00  0.35527136788E-14 -0.85214205456E+02  0.27741108743E+03  0.26399895951E+03 0.  0.
         25    2    3    3    0    0  0.35911251165E+02 -0.26219604956E+02 -0.47137902810E+02  0.14084248203E+03  0.12505013882E+03 0.  0.
         25    2    3    3    0    0 -0.35911251165E+02  0.26219604956E+02 -0.38076302646E+02  0.13656860540E+03  0.12338595347E+03 0.  0.
          5    1    4    4  502    0  0.84127523362E+01 -0.73975786359E+02 -0.41188382493E+02  0.85215985717E+02  0.47000000000E+01 0.  1.
         -5    1    4    4    0  502  0.27498498829E+02  0.47756181403E+02 -0.59495203169E+01  0.55626496313E+02  0.47000000000E+01 0.  1.
          5    1    5    5  503    0 -0.47085291255E+02  0.46237473653E+02 -0.70435262840E+02  0.96634077187E+02  0.47000000000E+01 0.  1.
         -5    1    5    5    0  503  0.11174040089E+02 -0.20017868697E+02  0.32358960194E+02  0.39934528217E+02  0.47000000000E+01 0.  1.
<mgrwt>
<rscale>  0 0.26399896E+03</rscale>
<asrwt>0</asrwt>
<pdfrwt beam="1">  1        4 0.14784376E-01 0.26399896E+03</pdfrwt>
<pdfrwt beam="2">  1       -4 0.27894253E-01 0.26399896E+03</pdfrwt>
<totfact> 0.88000485E+02</totfact>
</mgrwt>
</event>
<event>
 9    1  0.7986988E-001  0.2810423E+03  0.7818608E-02  0.1095121E+00
         -1   -1    0    0    0  501 -0.00000000000E+00  0.00000000000E+00  0.23457011641E+02  0.23457011641E+02  0.00000000000E+00 0.  1.
          1   -1    0    0  501    0  0.00000000000E+00 -0.00000000000E+00 -0.84180320630E+03  0.84180320630E+03  0.00000000000E+00 0.  1.
         35    2    1    2    0    0  0.00000000000E+00 -0.35527136788E-14 -0.81834619466E+03  0.86526021794E+03  0.28104225739E+03 0.  0.
         25    2    3    3    0    0  0.42979063080E+02 -0.25124364120E+02 -0.28986848008E+03  0.32000951551E+03  0.12611074789E+03 0.  0.
         25    2    3    3    0    0 -0.42979063080E+02  0.25124364120E+02 -0.52847771457E+03  0.54525070243E+03  0.12462423587E+03 0.  0.
          5    1    4    4  502    0 -0.27895594102E+02 -0.46055108531E+02 -0.72888423917E+02  0.90741663712E+02  0.47000000000E+01 0.  1.
         -5    1    4    4    0  502  0.70874657182E+02  0.20930744410E+02 -0.21698005617E+03  0.22926785180E+03  0.47000000000E+01 0.  1.
          5    1    5    5  503    0  0.55534640353E+01  0.34598779764E+02 -0.45609872643E+03  0.45746699857E+03  0.47000000000E+01 0.  1.
         -5    1    5    5    0  503 -0.48532527115E+02 -0.94744156443E+01 -0.72378988138E+02  0.87783703863E+02  0.47000000000E+01 0.  1.
<mgrwt>
<rscale>  0 0.28104226E+03</rscale>
<asrwt>0</asrwt>
<pdfrwt beam="1">  1        1 0.12950817E+00 0.28104226E+03</pdfrwt>
<pdfrwt beam="2">  1       -1 0.36087715E-02 0.28104226E+03</pdfrwt>
<totfact> 0.60935902E+03</totfact>
</mgrwt>
</event>
<event>
 9    1  0.7986988E-001  0.2752870E+03  0.7818608E-02  0.1098291E+00
         -1   -1    0    0    0  501 -0.00000000000E+00  0.00000000000E+00  0.32596095956E+03  0.32596095956E+03  0.00000000000E+00 0.  1.
          1   -1    0    0  501    0  0.00000000000E+00 -0.00000000000E+00 -0.58122689952E+02  0.58122689952E+02  0.00000000000E+00 0.  1.
         35    2    1    2    0    0  0.71054273576E-14  0.00000000000E+00  0.26783826961E+03  0.38408364952E+03  0.27528696147E+03 0.  0.
         25    2    3    3    0    0  0.69062867455E+01  0.82339732747E+00  0.52177959872E+02  0.13459577387E+03  0.12387537313E+03 0.  0.
         25    2    3    3    0    0 -0.69062867455E+01 -0.82339732747E+00  0.21566030974E+03  0.24948787565E+03  0.12524558323E+03 0.  0.
          5    1    4    4  502    0 -0.36550356200E+02  0.12707824862E+02  0.74511729647E+02  0.84092242247E+02  0.47000000000E+01 0.  1.
         -5    1    4    4    0  502  0.43456642946E+02 -0.11884427534E+02 -0.22333769775E+02  0.50503531622E+02  0.47000000000E+01 0.  1.
          5    1    5    5  503    0 -0.62600385219E+02  0.15652785619E+02  0.88646791452E+02  0.10974589542E+03  0.47000000000E+01 0. -1.
         -5    1    5    5    0  503  0.55694098474E+02 -0.16476182947E+02  0.12701351829E+03  0.13974198023E+03  0.47000000000E+01 0. -1.
<mgrwt>
<rscale>  0 0.27528696E+03</rscale>
<asrwt>0</asrwt>
<pdfrwt beam="1">  1        1 0.89419525E-02 0.27528696E+03</pdfrwt>
<pdfrwt beam="2">  1       -1 0.50147839E-01 0.27528696E+03</pdfrwt>
<totfact> 0.30402962E+03</totfact>
</mgrwt>
</event>
<event>
 9    1  0.7986988E-001  0.2643165E+03  0.7818608E-02  0.1104577E+00
          1   -1    0    0  501    0  0.00000000000E+00  0.00000000000E+00  0.29524907556E+03  0.29524907556E+03  0.00000000000E+00 0. -1.
         -1   -1    0    0    0  501 -0.00000000000E+00 -0.00000000000E+00 -0.59156185753E+02  0.59156185753E+02  0.00000000000E+00 0. -1.
         35    2    1    2    0    0  0.00000000000E+00 -0.71054273576E-14  0.23609288981E+03  0.35440526132E+03  0.26431654627E+03 0.  0.
         25    2    3    3    0    0 -0.28022462030E+02  0.33331491051E+02  0.12046242780E+03  0.17878537267E+03  0.12472676656E+03 0.  0.
         25    2    3    3    0    0  0.28022462030E+02 -0.33331491051E+02  0.11563046201E+03  0.17561988864E+03  0.12480262365E+03 0.  0.
          5    1    4    4  502    0 -0.28467542660E+02  0.63378223751E+02  0.12951703167E+03  0.14705084741E+03  0.47000000000E+01 0.  1.
         -5    1    4    4    0  502  0.44508063029E+00 -0.30046732700E+02 -0.90546038665E+01  0.31734525267E+02  0.47000000000E+01 0.  1.
          5    1    5    5  503    0  0.44697975746E+02 -0.54372672735E+02  0.16009142866E+02  0.72337260326E+02  0.47000000000E+01 0. -1.
         -5    1    5    5    0  503 -0.16675513716E+02  0.21041181684E+02  0.99621319142E+02  0.10328262832E+03  0.47000000000E+01 0. -1.
<mgrwt>
<rscale>  0 0.26431655E+03</rscale>
<asrwt>0</asrwt>
<pdfrwt beam="1">  1        1 0.45422934E-01 0.26431655E+03</pdfrwt>
<pdfrwt beam="2">  1       -1 0.91009518E-02 0.26431655E+03</pdfrwt>
<totfact> 0.62525747E+03</totfact>
</mgrwt>
</event>
<event>
 9    1  0.7986988E-001  0.2756076E+03  0.7818608E-02  0.1098112E+00
          2   -1    0    0  501    0  0.00000000000E+00  0.00000000000E+00  0.24712641361E+04  0.24712641361E+04  0.00000000000E+00 0. -1.
         -2   -1    0    0    0  501 -0.00000000000E+00 -0.00000000000E+00 -0.76842822236E+01  0.76842822236E+01  0.00000000000E+00 0. -1.
         35    2    1    2    0    0  0.71054273576E-14  0.00000000000E+00  0.24635798539E+04  0.24789484183E+04  0.27560762741E+03 0.  0.
         25    2    3    3    0    0 -0.18002621002E+00 -0.37930712054E+02  0.82681078590E+03  0.83703318766E+03  0.12477864497E+03 0.  0.
         25    2    3    3    0    0  0.18002621002E+00  0.37930712054E+02  0.16367690680E+04  0.16419152307E+04  0.12423313353E+03 0.  0.
          5    1    4    4  502    0  0.52048189858E+02  0.12122799099E+02  0.25045251087E+03  0.25613380590E+03  0.47000000000E+01 0. -1.
         -5    1    4    4    0  502 -0.52228216068E+02 -0.50053511153E+02  0.57635827503E+03  0.58089938176E+03  0.47000000000E+01 0. -1.
          5    1    5    5  503    0  0.35088852200E+02 -0.32408127776E+02  0.45308044548E+03  0.45561551155E+03  0.47000000000E+01 0.  1.
         -5    1    5    5    0  503 -0.34908825990E+02  0.70338839830E+02  0.11836886225E+04  0.11862997191E+04  0.47000000000E+01 0.  1.
<mgrwt>
<rscale>  0 0.27560763E+03</rscale>
<asrwt>0</asrwt>
<pdfrwt beam="1">  1        2 0.38019385E+00 0.27560763E+03</pdfrwt>
<pdfrwt beam="2">  1       -2 0.11821992E-02 0.27560763E+03</pdfrwt>
<totfact> 0.69486842E+03</totfact>
</mgrwt>
</event>
<event>
 9    1  0.7986988E-001  0.2852774E+03  0.7818608E-02  0.1092841E+00
          2   -1    0    0  501    0  0.00000000000E+00  0.00000000000E+00  0.37770809040E+03  0.37770809040E+03  0.00000000000E+00 0.  1.
         -2   -1    0    0    0  501 -0.00000000000E+00 -0.00000000000E+00 -0.53866476430E+02  0.53866476430E+02  0.00000000000E+00 0.  1.
         35    2    1    2    0    0 -0.71054273576E-14  0.35527136788E-14  0.32384161398E+03  0.43157456683E+03  0.28527743654E+03 0.  0.
         25    2    3    3    0    0  0.61002732088E+02 -0.10675200593E+02  0.19371354332E+03  0.23864127994E+03  0.12485764051E+03 0.  0.
         25    2    3    3    0    0 -0.61002732088E+02  0.10675200593E+02  0.13012807066E+03  0.19293328690E+03  0.12827566094E+03 0.  0.
          5    1    4    4  502    0  0.53976319190E+02  0.17176288163E+02  0.16685585561E+02  0.59236531583E+02  0.47000000000E+01 0.  1.
         -5    1    4    4    0  502  0.70264128974E+01 -0.27851488756E+02  0.17702795776E+03  0.17940474835E+03  0.47000000000E+01 0.  1.
          5    1    5    5  503    0  0.17693401970E+02  0.49600882426E+02  0.63423557776E+02  0.82570828334E+02  0.47000000000E+01 0.  1.
         -5    1    5    5    0  503 -0.78696134057E+02 -0.38925681834E+02  0.66704512881E+02  0.11036245857E+03  0.47000000000E+01 0.  1.
<mgrwt>
<rscale>  0 0.28527744E+03</rscale>
<asrwt>0</asrwt>
<pdfrwt beam="1">  1        2 0.58108935E-01 0.28527744E+03</pdfrwt>
<pdfrwt beam="2">  1       -2 0.82871505E-02 0.28527744E+03</pdfrwt>
<totfact> 0.75678736E+03</totfact>
</mgrwt>
</event>
<event>
 9    1  0.7986988E-001  0.2807849E+03  0.7818608E-02  0.1095261E+00
          1   -1    0    0  501    0  0.00000000000E+00  0.00000000000E+00  0.37179220713E+03  0.37179220713E+03  0.00000000000E+00 0.  1.
         -1   -1    0    0    0  501 -0.00000000000E+00 -0.00000000000E+00 -0.53013587407E+02  0.53013587407E+02  0.00000000000E+00 0.  1.
         35    2    1    2    0    0  0.00000000000E+00 -0.14210854715E-13  0.31877861972E+03  0.42480579454E+03  0.28078489040E+03 0.  0.
         25    2    3    3    0    0 -0.19615367188E+02 -0.40130377062E+02  0.88797761062E+02  0.15916901994E+03  0.12431622882E+03 0.  0.
         25    2    3    3    0    0  0.19615367188E+02  0.40130377062E+02  0.22998085866E+03  0.26563677459E+03  0.12520579409E+03 0.  0.
          5    1    4    4  502    0 -0.16380047306E+02 -0.71502843744E+02  0.10023606389E+02  0.74185748619E+02  0.47000000000E+01 0. -1.
         -5    1    4    4    0  502 -0.32353198819E+01  0.31372466682E+02  0.78774154673E+02  0.84983271324E+02  0.47000000000E+01 0. -1.
          5    1    5    5  503    0  0.66859882172E+01  0.68755973495E+02  0.56768536355E+02  0.89536825103E+02  0.47000000000E+01 0. -1.
         -5    1    5    5    0  503  0.12929378971E+02 -0.28625596433E+02  0.17321232230E+03  0.17609994949E+03  0.47000000000E+01 0. -1.
<mgrwt>
<rscale>  0 0.28078489E+03</rscale>
<asrwt>0</asrwt>
<pdfrwt beam="1">  1        1 0.57198799E-01 0.28078489E+03</pdfrwt>
<pdfrwt beam="2">  1       -1 0.81559368E-02 0.28078489E+03</pdfrwt>
<totfact> 0.55382649E+03</totfact>
</mgrwt>
</event>
<event>
 9    1  0.7986988E-001  0.2802548E+03  0.7818608E-02  0.1095550E+00
          2   -1    0    0  501    0  0.00000000000E+00  0.00000000000E+00  0.14619163164E+04  0.14619163164E+04  0.00000000000E+00 0.  1.
         -2   -1    0    0    0  501 -0.00000000000E+00 -0.00000000000E+00 -0.13431469703E+02  0.13431469703E+02  0.00000000000E+00 0.  1.
         35    2    1    2    0    0 -0.35527136788E-14  0.00000000000E+00  0.14484848467E+04  0.14753477861E+04  0.28025477489E+03 0.  0.
         25    2    3    3    0    0 -0.15583648100E+02 -0.46016819889E+01  0.38644855530E+03  0.40613813861E+03  0.12386152014E+03 0.  0.
         25    2    3    3    0    0  0.15583648100E+02  0.46016819889E+01  0.10620362914E+04  0.10692096475E+04  0.12257308226E+03 0.  0.
          5    1    4    4  502    0  0.18531724877E+02 -0.24389304597E+02  0.35258396546E+03  0.35394322384E+03  0.47000000000E+01 0. -1.
         -5    1    4    4    0  502 -0.34115372977E+02  0.19787622609E+02  0.33864589842E+02  0.52194914762E+02  0.47000000000E+01 0. -1.
          5    1    5    5  503    0 -0.10297743352E+02 -0.13678848978E+02  0.20252135513E+02  0.26933128677E+02  0.47000000000E+01 0.  1.
         -5    1    5    5    0  503  0.25881391452E+02  0.18280530967E+02  0.10417841559E+04  0.10422765188E+04  0.47000000000E+01 0.  1.
<mgrwt>
<rscale>  0 0.28025477E+03</rscale>
<asrwt>0</asrwt>
<pdfrwt beam="1">  1        2 0.22491008E+00 0.28025477E+03</pdfrwt>
<pdfrwt beam="2">  1       -2 0.20663811E-02 0.28025477E+03</pdfrwt>
<totfact> 0.10541801E+04</totfact>
</mgrwt>
</event>
<event>
 9    1  0.7986988E-001  0.2745005E+03  0.7818608E-02  0.1098731E+00
         -1   -1    0    0    0  501 -0.00000000000E+00  0.00000000000E+00  0.17076498711E+02  0.17076498711E+02  0.00000000000E+00 0. -1.
          1   -1    0    0  501    0  0.00000000000E+00 -0.00000000000E+00 -0.11031319646E+04  0.11031319646E+04  0.00000000000E+00 0. -1.
         35    2    1    2    0    0  0.14210854715E-13  0.35527136788E-14 -0.10860554659E+04  0.11202084633E+04  0.27450050325E+03 0.  0.
         25    2    3    3    0    0  0.45007091430E+02  0.24192840600E+02 -0.38293278369E+03  0.40628775880E+03  0.12578272659E+03 0.  0.
         25    2    3    3    0    0 -0.45007091430E+02 -0.24192840600E+02 -0.70312268221E+03  0.71392070452E+03  0.11265138391E+03 0.  0.
          5    1    4    4  502    0 -0.30143851121E+02 -0.30155820226E+02 -0.12274909679E+03  0.13002867383E+03  0.47000000000E+01 0.  1.
         -5    1    4    4    0  502  0.75150942551E+02  0.54348660826E+02 -0.26018368690E+03  0.27625908497E+03  0.47000000000E+01 0.  1.
          5    1    5    5  503    0  0.30140024317E+02 -0.69865430670E+01 -0.77980368529E+02  0.84025357635E+02  0.47000000000E+01 0.  1.
         -5    1    5    5    0  503 -0.75147115747E+02 -0.17206297533E+02 -0.62514231368E+03  0.62989534689E+03  0.47000000000E+01 0.  1.
<mgrwt>
<rscale>  0 0.27450050E+03</rscale>
<asrwt>0</asrwt>
<pdfrwt beam="1">  1        1 0.16971261E+00 0.27450050E+03</pdfrwt>
<pdfrwt beam="2">  1       -1 0.26271536E-02 0.27450050E+03</pdfrwt>
<totfact> 0.61580871E+03</totfact>
</mgrwt>
</event>
<event>
 9    1  0.7986988E-001  0.2737925E+03  0.7818608E-02  0.1099128E+00
         -2   -1    0    0    0  501 -0.00000000000E+00  0.00000000000E+00  0.87514759880E+01  0.87514759880E+01  0.00000000000E+00 0.  1.
          2   -1    0    0  501    0  0.00000000000E+00 -0.00000000000E+00 -0.21414198654E+04  0.21414198654E+04  0.00000000000E+00 0.  1.
         35    2    1    2    0    0  0.35527136788E-14  0.71054273576E-14 -0.21326683894E+04  0.21501713414E+04  0.27379250926E+03 0.  0.
         25    2    3    3    0    0 -0.60145656563E+01  0.36270229486E+02 -0.10570846018E+04  0.10650613855E+04  0.12480462724E+03 0.  0.
         25    2    3    3    0    0  0.60145656563E+01 -0.36270229486E+02 -0.10755837876E+04  0.10851099558E+04  0.13867742296E+03 0.  0.
          5    1    4    4  502    0 -0.25410309791E+02  0.35411628031E+02 -0.11987993719E+03  0.12764386622E+03  0.47000000000E+01 0.  1.
         -5    1    4    4    0  502  0.19395744135E+02  0.85860145528E+00 -0.93720466462E+03  0.93741751929E+03  0.47000000000E+01 0.  1.
          5    1    5    5  503    0  0.25364852780E+02  0.42194250309E+02 -0.20981241706E+03  0.21556222041E+03  0.47000000000E+01 0. -1.
         -5    1    5    5    0  503 -0.19350287124E+02 -0.78464479796E+02 -0.86577137051E+03  0.86954773543E+03  0.47000000000E+01 0. -1.
<mgrwt>
<rscale>  0 0.27379251E+03</rscale>
<asrwt>0</asrwt>
<pdfrwt beam="1">  1        2 0.32944938E+00 0.27379251E+03</pdfrwt>
<pdfrwt beam="2">  1       -2 0.13463802E-02 0.27379251E+03</pdfrwt>
<totfact> 0.86438591E+03</totfact>
</mgrwt>
</event>
<event>
 9    1  0.7986988E-001  0.2753163E+03  0.7818608E-02  0.1098275E+00
          1   -1    0    0  501    0  0.00000000000E+00  0.00000000000E+00  0.23157039699E+02  0.23157039699E+02  0.00000000000E+00 0.  1.
         -1   -1    0    0    0  501 -0.00000000000E+00 -0.00000000000E+00 -0.81831538392E+03  0.81831538392E+03  0.00000000000E+00 0.  1.
         35    2    1    2    0    0 -0.35527136788E-14  0.00000000000E+00 -0.79515834422E+03  0.84147242362E+03  0.27531626782E+03 0.  0.
         25    2    3    3    0    0 -0.11770990314E+02  0.55186757568E+02 -0.41528846482E+03  0.43767928955E+03  0.12615275289E+03 0.  0.
         25    2    3    3    0    0  0.11770990314E+02 -0.55186757568E+02 -0.37986987940E+03  0.40379313407E+03  0.12475430022E+03 0.  0.
          5    1    4    4  502    0  0.52321786338E+02  0.10572595035E+02 -0.23698754549E+03  0.24297023647E+03  0.47000000000E+01 0. -1.
         -5    1    4    4    0  502 -0.64092776651E+02  0.44614162533E+02 -0.17830091933E+03  0.19470905308E+03  0.47000000000E+01 0. -1.
          5    1    5    5  503    0 -0.11519602053E+02 -0.92132814288E+02 -0.26167826232E+03  0.27770264614E+03  0.47000000000E+01 0. -1.
         -5    1    5    5    0  503  0.23290592366E+02  0.36946056720E+02 -0.11819161707E+03  0.12609048793E+03  0.47000000000E+01 0. -1.
<mgrwt>
<rscale>  0 0.27531627E+03</rscale>
<asrwt>0</asrwt>
<pdfrwt beam="1">  1        1 0.35626217E-02 0.27531627E+03</pdfrwt>
<pdfrwt beam="2">  1       -1 0.12589467E+00 0.27531627E+03</pdfrwt>
<totfact> 0.15749657E+03</totfact>
</mgrwt>
</event>
<event>
 9    1  0.7986988E-001  0.2813681E+03  0.7818608E-02  0.1094944E+00
          1   -1    0    0  501    0  0.00000000000E+00  0.00000000000E+00  0.17111094829E+03  0.17111094829E+03  0.00000000000E+00 0.  1.
         -1   -1    0    0    0  501 -0.00000000000E+00 -0.00000000000E+00 -0.11566762389E+03  0.11566762389E+03  0.00000000000E+00 0.  1.
         35    2    1    2    0    0  0.00000000000E+00  0.00000000000E+00  0.55443324401E+02  0.28677857217E+03  0.28136806364E+03 0.  0.
         25    2    3    3    0    0  0.48661268683E+02  0.41422442692E+02  0.24730197595E+02  0.14304757912E+03  0.12556786767E+03 0.  0.
         25    2    3    3    0    0 -0.48661268683E+02 -0.41422442692E+02  0.30713126805E+02  0.14373099305E+03  0.12502625475E+03 0.  0.
          5    1    4    4  502    0  0.19727751236E+02 -0.31293161476E+02  0.48447972601E+02  0.61137076910E+02  0.47000000000E+01 0. -1.
         -5    1    4    4    0  502  0.28933517447E+02  0.72715604168E+02 -0.23717775006E+02  0.81910502212E+02  0.47000000000E+01 0. -1.
          5    1    5    5  503    0  0.11593622190E+02 -0.71162728096E+02  0.82411785157E+01  0.72722437864E+02  0.47000000000E+01 0. -1.
         -5    1    5    5    0  503 -0.60254890873E+02  0.29740285404E+02  0.22471948290E+02  0.71008555189E+02  0.47000000000E+01 0. -1.
<mgrwt>
<rscale>  0 0.28136806E+03</rscale>
<asrwt>0</asrwt>
<pdfrwt beam="1">  1        1 0.26324761E-01 0.28136806E+03</pdfrwt>
<pdfrwt beam="2">  1       -1 0.17795019E-01 0.28136806E+03</pdfrwt>
<totfact> 0.43454443E+03</totfact>
</mgrwt>
</event>
<event>
 9    1  0.7986988E-001  0.2765351E+03  0.7818608E-02  0.1097597E+00
          2   -1    0    0  501    0  0.00000000000E+00  0.00000000000E+00  0.70773161200E+03  0.70773161200E+03  0.00000000000E+00 0. -1.
         -2   -1    0    0    0  501 -0.00000000000E+00 -0.00000000000E+00 -0.27012936255E+02  0.27012936255E+02  0.00000000000E+00 0. -1.
         35    2    1    2    0    0  0.00000000000E+00  0.71054273576E-14  0.68071867575E+03  0.73474454826E+03  0.27653505326E+03 0.  0.
         25    2    3    3    0    0 -0.20331292823E+02 -0.36614685416E+00  0.18749100616E+03  0.22609980140E+03  0.12471867251E+03 0.  0.
         25    2    3    3    0    0  0.20331292823E+02  0.36614685416E+00  0.49322766959E+03  0.50864474686E+03  0.12260688774E+03 0.  0.
          5    1    4    4  502    0 -0.12613975897E+01 -0.61535681939E+02  0.10078385297E+03  0.11818505106E+03  0.47000000000E+01 0. -1.
         -5    1    4    4    0  502 -0.19069895234E+02  0.61169535085E+02  0.86707153188E+02  0.10791475034E+03  0.47000000000E+01 0. -1.
          5    1    5    5  503    0  0.22917192912E+02  0.51088493883E+02  0.12690613122E+03  0.13878936588E+03  0.47000000000E+01 0. -1.
         -5    1    5    5    0  503 -0.25859000881E+01 -0.50722347029E+02  0.36632153837E+03  0.36985538098E+03  0.47000000000E+01 0. -1.
<mgrwt>
<rscale>  0 0.27653505E+03</rscale>
<asrwt>0</asrwt>
<pdfrwt beam="1">  1        2 0.10888177E+00 0.27653505E+03</pdfrwt>
<pdfrwt beam="2">  1       -2 0.41558369E-02 0.27653505E+03</pdfrwt>
<totfact> 0.10694450E+04</totfact>
</mgrwt>
</event>
<event>
 9    1  0.7986988E-001  0.2676552E+03  0.7818608E-02  0.1102629E+00
          1   -1    0    0  501    0  0.00000000000E+00  0.00000000000E+00  0.17287836824E+02  0.17287836824E+02  0.00000000000E+00 0.  1.
         -1   -1    0    0    0  501 -0.00000000000E+00 -0.00000000000E+00 -0.10359787533E+04  0.10359787533E+04  0.00000000000E+00 0.  1.
         35    2    1    2    0    0  0.00000000000E+00 -0.71054273576E-14 -0.10186909165E+04  0.10532665901E+04  0.26765523825E+03 0.  0.
         25    2    3    3    0    0  0.16756619549E+01 -0.58642672442E+01 -0.68129894400E+03  0.69299640938E+03  0.12664349504E+03 0.  0.
         25    2    3    3    0    0 -0.16756619549E+01  0.58642672442E+01 -0.33739197250E+03  0.36027018077E+03  0.12619058037E+03 0.  0.
          5    1    4    4  502    0  0.11687533768E+02  0.57788104548E+02 -0.40166703917E+03  0.40599823132E+03  0.47000000000E+01 0. -1.
         -5    1    4    4    0  502 -0.10011871813E+02 -0.63652371792E+02 -0.27963190483E+03  0.28699817806E+03  0.47000000000E+01 0. -1.
          5    1    5    5  503    0  0.85428565139E+01 -0.58516866576E+02 -0.18980100565E+03  0.19885601780E+03  0.47000000000E+01 0. -1.
         -5    1    5    5    0  503 -0.10218518469E+02  0.64381133820E+02 -0.14759096685E+03  0.16141416297E+03  0.47000000000E+01 0. -1.
<mgrwt>
<rscale>  0 0.26765524E+03</rscale>
<asrwt>0</asrwt>
<pdfrwt beam="1">  1        1 0.26596677E-02 0.26765524E+03</pdfrwt>
<pdfrwt beam="2">  1       -1 0.15938132E+00 0.26765524E+03</pdfrwt>
<totfact> 0.12978035E+03</totfact>
</mgrwt>
</event>
<event>
 9    1  0.7986988E-001  0.2761601E+03  0.7818608E-02  0.1097805E+00
          3   -1    0    0  501    0  0.00000000000E+00  0.00000000000E+00  0.11874353511E+04  0.11874353511E+04  0.00000000000E+00 0.  1.
         -3   -1    0    0    0  501 -0.00000000000E+00 -0.00000000000E+00 -0.16056533402E+02  0.16056533402E+02  0.00000000000E+00 0.  1.
         35    2    1    2    0    0  0.00000000000E+00  0.71054273576E-14  0.11713788177E+04  0.12034918846E+04  0.27616006502E+03 0.  0.
         25    2    3    3    0    0 -0.49439088170E+02  0.22915897963E+02  0.48111903590E+03  0.50004133138E+03  0.12488572602E+03 0.  0.
         25    2    3    3    0    0  0.49439088170E+02 -0.22915897963E+02  0.69025978185E+03  0.70345055317E+03  0.12415616175E+03 0.  0.
          5    1    4    4  502    0 -0.59401386776E+02 -0.34480896708E+02  0.34665714095E+03  0.35342710756E+03  0.47000000000E+01 0.  1.
         -5    1    4    4    0  502  0.99622986057E+01  0.57396794672E+02  0.13446189495E+03  0.14661422382E+03  0.47000000000E+01 0.  1.
          5    1    5    5  503    0  0.46362892777E+02 -0.30283129962E+02  0.69182601951E+03  0.69405469313E+03  0.47000000000E+01 0. -1.
         -5    1    5    5    0  503  0.30761953935E+01  0.73672319987E+01 -0.15662376643E+01  0.93958600374E+01  0.47000000000E+01 0. -1.
<mgrwt>
<rscale>  0 0.27616007E+03</rscale>
<asrwt>0</asrwt>
<pdfrwt beam="1">  1        3 0.18268229E+00 0.27616007E+03</pdfrwt>
<pdfrwt beam="2">  1       -3 0.24702368E-02 0.27616007E+03</pdfrwt>
<totfact> 0.35885525E+02</totfact>
</mgrwt>
</event>
<event>
 9    1  0.7986988E-001  0.2732543E+03  0.7818608E-02  0.1099431E+00
         -2   -1    0    0    0  501 -0.00000000000E+00  0.00000000000E+00  0.15341258506E+03  0.15341258506E+03  0.00000000000E+00 0.  1.
          2   -1    0    0  501    0  0.00000000000E+00 -0.00000000000E+00 -0.12167823042E+03  0.12167823042E+03  0.00000000000E+00 0.  1.
         35    2    1    2    0    0 -0.71054273576E-14 -0.71054273576E-14  0.31734354635E+02  0.27509081548E+03  0.27325425431E+03 0.  0.
         25    2    3    3    0    0 -0.10197080469E+02  0.54065241928E+02  0.12288928362E+02  0.13667555904E+03  0.12450766982E+03 0.  0.
         25    2    3    3    0    0  0.10197080469E+02 -0.54065241928E+02  0.19445426274E+02  0.13841525644E+03  0.12551345656E+03 0.  0.
          5    1    4    4  502    0  0.49515356758E+02  0.12507193838E+02  0.32880030966E+02  0.60921153050E+02  0.47000000000E+01 0. -1.
         -5    1    4    4    0  502 -0.59712437227E+02  0.41558048090E+02 -0.20591102605E+02  0.75754405992E+02  0.47000000000E+01 0. -1.
          5    1    5    5  503    0  0.55416394049E+02 -0.37358782882E+02  0.47789798472E+02  0.82295870041E+02  0.47000000000E+01 0.  1.
         -5    1    5    5    0  503 -0.45219313579E+02 -0.16706459046E+02 -0.28344372198E+02  0.56119386398E+02  0.47000000000E+01 0.  1.
<mgrwt>
<rscale>  0 0.27325425E+03</rscale>
<asrwt>0</asrwt>
<pdfrwt beam="1">  1        2 0.18719728E-01 0.27325425E+03</pdfrwt>
<pdfrwt beam="2">  1       -2 0.23601936E-01 0.27325425E+03</pdfrwt>
<totfact> 0.46886582E+03</totfact>
</mgrwt>
</event>
<event>
 9    1  0.7986988E-001  0.2746398E+03  0.7818608E-02  0.1098653E+00
         -3   -1    0    0    0  501 -0.00000000000E+00  0.00000000000E+00  0.78672481204E+02  0.78672481204E+02  0.00000000000E+00 0. -1.
          3   -1    0    0  501    0  0.00000000000E+00 -0.00000000000E+00 -0.23968677249E+03  0.23968677249E+03  0.00000000000E+00 0. -1.
         35    2    1    2    0    0  0.00000000000E+00  0.00000000000E+00 -0.16101429128E+03  0.31835925369E+03  0.27463978665E+03 0.  0.
         25    2    3    3    0    0  0.20039248193E+02 -0.23413584774E+02 -0.13659996341E+03  0.18741532118E+03  0.12455996623E+03 0.  0.
         25    2    3    3    0    0 -0.20039248193E+02  0.23413584774E+02 -0.24414327871E+02  0.13094393251E+03  0.12490190806E+03 0.  0.
          5    1    4    4  502    0  0.30562823330E+02  0.43885198620E+02 -0.31987094424E+02  0.62492087799E+02  0.47000000000E+01 0.  1.
         -5    1    4    4    0  502 -0.10523575137E+02 -0.67298783394E+02 -0.10461286899E+03  0.12492323338E+03  0.47000000000E+01 0.  1.
          5    1    5    5  503    0 -0.63991577781E+01  0.57985664732E+02  0.29304162380E+02  0.65453116561E+02  0.47000000000E+01 0.  1.
         -5    1    5    5    0  503 -0.13640090415E+02 -0.34572079959E+02 -0.53718490250E+02  0.65490815951E+02  0.47000000000E+01 0.  1.
<mgrwt>
<rscale>  0 0.27463979E+03</rscale>
<asrwt>0</asrwt>
<pdfrwt beam="1">  1        3 0.36874887E-01 0.27463979E+03</pdfrwt>
<pdfrwt beam="2">  1       -3 0.12103459E-01 0.27463979E+03</pdfrwt>
<totfact> 0.98959497E+02</totfact>
</mgrwt>
</event>
<event>
 9    1  0.7986988E-001  0.2794028E+03  0.7818608E-02  0.1096016E+00
         -3   -1    0    0    0  501 -0.00000000000E+00  0.00000000000E+00  0.20528231224E+03  0.20528231224E+03  0.00000000000E+00 0.  1.
          3   -1    0    0  501    0  0.00000000000E+00 -0.00000000000E+00 -0.95071438965E+02  0.95071438965E+02  0.00000000000E+00 0.  1.
         35    2    1    2    0    0  0.71054273576E-14 -0.35527136788E-14  0.11021087327E+03  0.30035375120E+03  0.27940282617E+03 0.  0.
         25    2    3    3    0    0  0.46168997079E+02 -0.30177239029E+02  0.29747801283E+02  0.14005123350E+03  0.12524845020E+03 0.  0.
         25    2    3    3    0    0 -0.46168997079E+02  0.30177239029E+02  0.80463071992E+02  0.16030251770E+03  0.12720200148E+03 0.  0.
          5    1    4    4  502    0  0.37911195149E+02 -0.62963104359E+02 -0.23059880279E+02  0.77171622418E+02  0.47000000000E+01 0. -1.
         -5    1    4    4    0  502  0.82578019293E+01  0.32785865330E+02  0.52807681562E+02  0.62879611084E+02  0.47000000000E+01 0. -1.
          5    1    5    5  503    0 -0.36207595967E+02  0.85638363666E+01 -0.29488125886E+02  0.47707115479E+02  0.47000000000E+01 0. -1.
         -5    1    5    5    0  503 -0.99614011116E+01  0.21613402663E+02  0.10995119788E+03  0.11259540222E+03  0.47000000000E+01 0. -1.
<mgrwt>
<rscale>  0 0.27940283E+03</rscale>
<asrwt>0</asrwt>
<pdfrwt beam="1">  1        3 0.14626375E-01 0.27940283E+03</pdfrwt>
<pdfrwt beam="2">  1       -3 0.31581894E-01 0.27940283E+03</pdfrwt>
<totfact> 0.96293021E+02</totfact>
</mgrwt>
</event>
<event>
 9    1  0.7986988E-001  0.2730486E+03  0.7818608E-02  0.1099547E+00
         -2   -1    0    0    0  501 -0.00000000000E+00  0.00000000000E+00  0.36672977004E+02  0.36672977004E+02  0.00000000000E+00 0. -1.
          2   -1    0    0  501    0  0.00000000000E+00 -0.00000000000E+00 -0.50824585712E+03  0.50824585712E+03  0.00000000000E+00 0. -1.
         35    2    1    2    0    0  0.71054273576E-14  0.35527136788E-14 -0.47157288012E+03  0.54491883412E+03  0.27304863033E+03 0.  0.
         25    2    3    3    0    0  0.43992631596E+02 -0.81660128104E+01 -0.28851315716E+03  0.31878732200E+03  0.12799796644E+03 0.  0.
         25    2    3    3    0    0 -0.43992631596E+02  0.81660128104E+01 -0.18305972295E+03  0.22613151212E+03  0.12499025245E+03 0.  0.
          5    1    4    4  502    0  0.14593478764E+02 -0.54687545216E+02 -0.23542064262E+03  0.24217486698E+03  0.47000000000E+01 0.  1.
         -5    1    4    4    0  502  0.29399152833E+02  0.46521532405E+02 -0.53092514545E+02  0.76612455027E+02  0.47000000000E+01 0.  1.
          5    1    5    5  503    0  0.43955381466E+02  0.14038534860E+00 -0.56660702790E+02  0.71865294187E+02  0.47000000000E+01 0.  1.
         -5    1    5    5    0  503 -0.87948013062E+02  0.80256274618E+01 -0.12639902016E+03  0.15426621793E+03  0.47000000000E+01 0.  1.
<mgrwt>
<rscale>  0 0.27304863E+03</rscale>
<asrwt>0</asrwt>
<pdfrwt beam="1">  1        2 0.78191664E-01 0.27304863E+03</pdfrwt>
<pdfrwt beam="2">  1       -2 0.56419969E-02 0.27304863E+03</pdfrwt>
<totfact> 0.98827862E+03</totfact>
</mgrwt>
</event>
<event>
 9    1  0.7986988E-001  0.2743591E+03  0.7818608E-02  0.1098810E+00
          2   -1    0    0  501    0  0.00000000000E+00  0.00000000000E+00  0.13584650352E+02  0.13584650352E+02  0.00000000000E+00 0.  1.
         -2   -1    0    0    0  501 -0.00000000000E+00 -0.00000000000E+00 -0.13852568939E+04  0.13852568939E+04  0.00000000000E+00 0.  1.
         35    2    1    2    0    0  0.71054273576E-14  0.00000000000E+00 -0.13716722436E+04  0.13988415443E+04  0.27435911177E+03 0.  0.
         25    2    3    3    0    0 -0.41520571692E+02  0.96576595154E+01 -0.46777633532E+03  0.48533784704E+03  0.12215112617E+03 0.  0.
         25    2    3    3    0    0  0.41520571692E+02 -0.96576595154E+01 -0.90389590827E+03  0.91350369725E+03  0.12507583158E+03 0.  0.
          5    1    4    4  502    0  0.39424285047E+01  0.10421871767E+02 -0.41637591947E+03  0.41655150278E+03  0.47000000000E+01 0.  1.
         -5    1    4    4    0  502 -0.45463000197E+02 -0.76421225140E+00 -0.51400415842E+02  0.68786344255E+02  0.47000000000E+01 0.  1.
          5    1    5    5  503    0  0.52871334138E+01 -0.60711284398E+02 -0.28789191680E+03  0.29430878273E+03  0.47000000000E+01 0. -1.
         -5    1    5    5    0  503  0.36233438278E+02  0.51053624883E+02 -0.61600399147E+03  0.61919491452E+03  0.47000000000E+01 0. -1.
<mgrwt>
<rscale>  0 0.27435911E+03</rscale>
<asrwt>0</asrwt>
<pdfrwt beam="1">  1        2 0.20899460E-02 0.27435911E+03</pdfrwt>
<pdfrwt beam="2">  1       -2 0.21311647E+00 0.27435911E+03</pdfrwt>
<totfact> 0.61534157E+02</totfact>
</mgrwt>
</event>
<event>
 9    1  0.7986988E-001  0.2777584E+03  0.7818608E-02  0.1096920E+00
         -2   -1    0    0    0  501 -0.00000000000E+00  0.00000000000E+00  0.79521032184E+02  0.79521032184E+02  0.00000000000E+00 0. -1.
          2   -1    0    0  501    0  0.00000000000E+00 -0.00000000000E+00 -0.24254497990E+03  0.24254497990E+03  0.00000000000E+00 0. -1.
         35    2    1    2    0    0  0.35527136788E-14  0.71054273576E-14 -0.16302394772E+03  0.32206601208E+03  0.27775836371E+03 0.  0.
         25    2    3    3    0    0 -0.45997006497E+01 -0.59151147224E+02 -0.70722469415E+02  0.15533250425E+03  0.12492599302E+03 0.  0.
         25    2    3    3    0    0  0.45997006497E+01  0.59151147224E+02 -0.92301478302E+02  0.16673350784E+03  0.12554076738E+03 0.  0.
          5    1    4    4  502    0  0.30302040319E+02 -0.84262857517E+02 -0.26566421945E+02  0.93521695769E+02  0.47000000000E+01 0. -1.
         -5    1    4    4    0  502 -0.34901740969E+02  0.25111710293E+02 -0.44156047470E+02  0.61810808478E+02  0.47000000000E+01 0. -1.
          5    1    5    5  503    0 -0.55067100977E+02  0.56120522148E+02 -0.56374877368E+02  0.96861320528E+02  0.47000000000E+01 0. -1.
         -5    1    5    5    0  503  0.59666801627E+02  0.30306250766E+01 -0.35926600934E+02  0.69872187309E+02  0.47000000000E+01 0. -1.
<mgrwt>
<rscale>  0 0.27775836E+03</rscale>
<asrwt>0</asrwt>
<pdfrwt beam="1">  1        2 0.37314612E-01 0.27775836E+03</pdfrwt>
<pdfrwt beam="2">  1       -2 0.12234005E-01 0.27775836E+03</pdfrwt>
<totfact> 0.65586179E+03</totfact>
</mgrwt>
</event>
<event>
 9    1  0.7986988E-001  0.2717440E+03  0.7818608E-02  0.1100286E+00
          3   -1    0    0  501    0  0.00000000000E+00  0.00000000000E+00  0.63942501109E+03  0.63942501109E+03  0.00000000000E+00 0.  1.
         -3   -1    0    0    0  501 -0.00000000000E+00 -0.00000000000E+00 -0.28871556542E+02  0.28871556542E+02  0.00000000000E+00 0.  1.
         35    2    1    2    0    0 -0.71054273576E-14 -0.71054273576E-14  0.61055345455E+03  0.66829656763E+03  0.27174396304E+03 0.  0.
         25    2    3    3    0    0 -0.11492126802E+02 -0.52940242593E+02  0.27051260721E+03  0.30196192167E+03  0.12275664225E+03 0.  0.
         25    2    3    3    0    0  0.11492126802E+02  0.52940242593E+02  0.34004084734E+03  0.36633464596E+03  0.12505421507E+03 0.  0.
          5    1    4    4  502    0 -0.52076609560E+02 -0.57139134315E+02  0.23577353214E+03  0.24816950335E+03  0.47000000000E+01 0.  1.
         -5    1    4    4    0  502  0.40584482759E+02  0.41988917222E+01  0.34739075065E+02  0.53792418321E+02  0.47000000000E+01 0.  1.
          5    1    5    5  503    0 -0.32601770437E+01 -0.26574745043E+02  0.14385950536E+02  0.30755347523E+02  0.47000000000E+01 0. -1.
         -5    1    5    5    0  503  0.14752303845E+02  0.79514987636E+02  0.32565489680E+03  0.33557929843E+03  0.47000000000E+01 0. -1.
<mgrwt>
<rscale>  0 0.27174396E+03</rscale>
<asrwt>0</asrwt>
<pdfrwt beam="1">  1        3 0.98373068E-01 0.27174396E+03</pdfrwt>
<pdfrwt beam="2">  1       -3 0.44417784E-02 0.27174396E+03</pdfrwt>
<totfact> 0.65670804E+02</totfact>
</mgrwt>
</event>
<event>
 9    1  0.7986988E-001  0.2631669E+03  0.7818608E-02  0.1105255E+00
          1   -1    0    0  501    0  0.00000000000E+00  0.00000000000E+00  0.22119749368E+02  0.22119749368E+02  0.00000000000E+00 0.  1.
         -1   -1    0    0    0  501 -0.00000000000E+00 -0.00000000000E+00 -0.78274838838E+03  0.78274838838E+03  0.00000000000E+00 0.  1.
         35    2    1    2    0    0 -0.35527136788E-14 -0.35527136788E-14 -0.76062863901E+03  0.80486813775E+03  0.26316685330E+03 0.  0.
         25    2    3    3    0    0 -0.20723561627E+02 -0.31115835531E+02 -0.42959466632E+03  0.44914900666E+03  0.12564072438E+03 0.  0.
         25    2    3    3    0    0  0.20723561627E+02  0.31115835531E+02 -0.33103397269E+03  0.35571913109E+03  0.12471947691E+03 0.  0.
          5    1    4    4  502    0 -0.66262612118E+01  0.28073707078E+02 -0.20915827919E+02  0.35938867877E+02  0.47000000000E+01 0. -1.
         -5    1    4    4    0  502 -0.14097300416E+02 -0.59189542609E+02 -0.40867883840E+03  0.41321013878E+03  0.47000000000E+01 0. -1.
          5    1    5    5  503    0 -0.30446425221E+01  0.62767883994E+01 -0.31882393730E+03  0.31893488507E+03  0.47000000000E+01 0. -1.
         -5    1    5    5    0  503  0.23768204149E+02  0.24839047132E+02 -0.12210035391E+02  0.36784246019E+02  0.47000000000E+01 0. -1.
<mgrwt>
<rscale>  0 0.26316685E+03</rscale>
<asrwt>0</asrwt>
<pdfrwt beam="1">  1        1 0.34030385E-02 0.26316685E+03</pdfrwt>
<pdfrwt beam="2">  1       -1 0.12042282E+00 0.26316685E+03</pdfrwt>
<totfact> 0.18674105E+03</totfact>
</mgrwt>
</event>
<event>
 9    1  0.7986988E-001  0.2776233E+03  0.7818608E-02  0.1096994E+00
          1   -1    0    0  501    0  0.00000000000E+00  0.00000000000E+00  0.39712973081E+03  0.39712973081E+03  0.00000000000E+00 0. -1.
         -1   -1    0    0    0  501 -0.00000000000E+00 -0.00000000000E+00 -0.48519851537E+02  0.48519851537E+02  0.00000000000E+00 0. -1.
         35    2    1    2    0    0  0.35527136788E-14  0.00000000000E+00  0.34860987928E+03  0.44564958235E+03  0.27762331012E+03 0.  0.
         25    2    3    3    0    0 -0.10490491558E+02 -0.46129421828E+02  0.11354259292E+03  0.17556812820E+03  0.12527678660E+03 0.  0.
         25    2    3    3    0    0  0.10490491558E+02  0.46129421828E+02  0.23506728636E+03  0.27008145415E+03  0.12429557028E+03 0.  0.
          5    1    4    4  502    0 -0.30724660281E+02 -0.84189142689E+02  0.85350746200E+02  0.12384932932E+03  0.47000000000E+01 0.  1.
         -5    1    4    4    0  502  0.20234168723E+02  0.38059720860E+02  0.28191846718E+02  0.51718798877E+02  0.47000000000E+01 0.  1.
          5    1    5    5  503    0  0.29117926458E+02 -0.34547369762E+02  0.51632966563E+02  0.68770834187E+02  0.47000000000E+01 0. -1.
         -5    1    5    5    0  503 -0.18627434900E+02  0.80676791591E+02  0.18343431980E+03  0.20131061997E+03  0.47000000000E+01 0. -1.
<mgrwt>
<rscale>  0 0.27762331E+03</rscale>
<asrwt>0</asrwt>
<pdfrwt beam="1">  1        1 0.61096880E-01 0.27762331E+03</pdfrwt>
<pdfrwt beam="2">  1       -1 0.74645928E-02 0.27762331E+03</pdfrwt>
<totfact> 0.58255866E+03</totfact>
</mgrwt>
</event>
<event>
 9    1  0.7986988E-001  0.2711593E+03  0.7818608E-02  0.1100618E+00
         -3   -1    0    0    0  501 -0.00000000000E+00  0.00000000000E+00  0.25787037869E+02  0.25787037869E+02  0.00000000000E+00 0. -1.
          3   -1    0    0  501    0  0.00000000000E+00 -0.00000000000E+00 -0.71283248806E+03  0.71283248806E+03  0.00000000000E+00 0. -1.
         35    2    1    2    0    0 -0.35527136788E-14  0.35527136788E-14 -0.68704545019E+03  0.73861952593E+03  0.27115927691E+03 0.  0.
         25    2    3    3    0    0 -0.50343390732E+01 -0.50526012219E+01 -0.20688931542E+03  0.24246799788E+03  0.12624051572E+03 0.  0.
         25    2    3    3    0    0  0.50343390732E+01  0.50526012219E+01 -0.48015613477E+03  0.49615152805E+03  0.12476198013E+03 0.  0.
          5    1    4    4  502    0  0.36484271937E+02  0.12385831021E+02 -0.95110126489E+01  0.39963236486E+02  0.47000000000E+01 0. -1.
         -5    1    4    4    0  502 -0.41518611010E+02 -0.17438432243E+02 -0.19737830277E+03  0.20250476139E+03  0.47000000000E+01 0. -1.
          5    1    5    5  503    0 -0.20692418876E+02  0.45957488927E+02 -0.92307874242E+02  0.10527630614E+03  0.47000000000E+01 0.  1.
         -5    1    5    5    0  503  0.25726757949E+02 -0.40904887705E+02 -0.38784826052E+03  0.39087522191E+03  0.47000000000E+01 0.  1.
<mgrwt>
<rscale>  0 0.27115928E+03</rscale>
<asrwt>0</asrwt>
<pdfrwt beam="1">  1        3 0.10966653E+00 0.27115928E+03</pdfrwt>
<pdfrwt beam="2">  1       -3 0.39672369E-02 0.27115928E+03</pdfrwt>
<totfact> 0.61050403E+02</totfact>
</mgrwt>
</event>
<event>
 9    1  0.7986988E-001  0.2753822E+03  0.7818608E-02  0.1098238E+00
         -3   -1    0    0    0  501 -0.00000000000E+00  0.00000000000E+00  0.65673356056E+02  0.65673356056E+02  0.00000000000E+00 0.  1.
          3   -1    0    0  501    0  0.00000000000E+00 -0.00000000000E+00 -0.28868391462E+03  0.28868391462E+03  0.00000000000E+00 0.  1.
         35    2    1    2    0    0  0.10658141036E-13  0.14210854715E-13 -0.22301055857E+03  0.35435727068E+03  0.27538221811E+03 0.  0.
         25    2    3    3    0    0 -0.26039617473E+02 -0.45006822968E+02 -0.79894626375E+02  0.15735960268E+03  0.12520070862E+03 0.  0.
         25    2    3    3    0    0  0.26039617473E+02  0.45006822968E+02 -0.14311593219E+03  0.19699766800E+03  0.12498894095E+03 0.  0.
          5    1    4    4  502    0  0.17987992014E+02 -0.45560398910E+02 -0.97889491474E+02  0.10956167371E+03  0.47000000000E+01 0.  1.
         -5    1    4    4    0  502 -0.44027609487E+02  0.55357594207E+00  0.17994865099E+02  0.47797928966E+02  0.47000000000E+01 0.  1.
          5    1    5    5  503    0  0.19310111680E+02  0.59886303683E+02 -0.16063966969E+03  0.17258749450E+03  0.47000000000E+01 0. -1.
         -5    1    5    5    0  503  0.67295057934E+01 -0.14879480715E+02  0.17523737493E+02  0.24410173500E+02  0.47000000000E+01 0. -1.
<mgrwt>
<rscale>  0 0.27538222E+03</rscale>
<asrwt>0</asrwt>
<pdfrwt beam="1">  1        3 0.44412909E-01 0.27538222E+03</pdfrwt>
<pdfrwt beam="2">  1       -3 0.10103593E-01 0.27538222E+03</pdfrwt>
<totfact> 0.93340704E+02</totfact>
</mgrwt>
</event>
<event>
 9    1  0.7986988E-001  0.2706432E+03  0.7818608E-02  0.1100912E+00
         -1   -1    0    0    0  501 -0.00000000000E+00  0.00000000000E+00  0.78655989434E+01  0.78655989434E+01  0.00000000000E+00 0.  1.
          1   -1    0    0  501    0  0.00000000000E+00 -0.00000000000E+00 -0.23281045844E+04  0.23281045844E+04  0.00000000000E+00 0.  1.
         35    2    1    2    0    0  0.00000000000E+00  0.00000000000E+00 -0.23202389855E+04  0.23359701834E+04  0.27064321133E+03 0.  0.
         25    2    3    3    0    0 -0.94964918468E+01 -0.44329440237E+02 -0.13970592063E+04  0.14033874341E+04  0.12516621610E+03 0.  0.
         25    2    3    3    0    0  0.94964918468E+01  0.44329440237E+02 -0.92317977919E+03  0.93258274927E+03  0.12407415893E+03 0.  0.
          5    1    4    4  502    0 -0.37889920415E+02  0.14813147090E+02 -0.18206042372E+03  0.18660965485E+03  0.47000000000E+01 0.  1.
         -5    1    4    4    0  502  0.28393428568E+02 -0.59142587327E+02 -0.12149987826E+04  0.12167777793E+04  0.47000000000E+01 0.  1.
          5    1    5    5  503    0 -0.79891219600E+01  0.33088462350E+02 -0.60023825234E+02  0.69163733315E+02  0.47000000000E+01 0.  1.
         -5    1    5    5    0  503  0.17485613807E+02  0.11240977887E+02 -0.86315595395E+03  0.86341901596E+03  0.47000000000E+01 0.  1.
<mgrwt>
<rscale>  0 0.27064321E+03</rscale>
<asrwt>0</asrwt>
<pdfrwt beam="1">  1        1 0.35817001E+00 0.27064321E+03</pdfrwt>
<pdfrwt beam="2">  1       -1 0.12100919E-02 0.27064321E+03</pdfrwt>
<totfact> 0.29393056E+03</totfact>
</mgrwt>
</event>
<event>
 9    1  0.7986988E-001  0.2750208E+03  0.7818608E-02  0.1098440E+00
          2   -1    0    0  501    0  0.00000000000E+00  0.00000000000E+00  0.18266564259E+03  0.18266564259E+03  0.00000000000E+00 0.  1.
         -2   -1    0    0    0  501 -0.00000000000E+00 -0.00000000000E+00 -0.10351760569E+03  0.10351760569E+03  0.00000000000E+00 0.  1.
         35    2    1    2    0    0 -0.14210854715E-13 -0.14210854715E-13  0.79148036897E+02  0.28618324829E+03  0.27502079895E+03 0.  0.
         25    2    3    3    0    0 -0.35358565068E+02 -0.40362443695E+02  0.58934913042E+02  0.14831550557E+03  0.12507921583E+03 0.  0.
         25    2    3    3    0    0  0.35358565068E+02  0.40362443695E+02  0.20213123854E+02  0.13786774271E+03  0.12537778559E+03 0.  0.
          5    1    4    4  502    0  0.11691486266E+02  0.39401930191E+02  0.67545709783E+01  0.41915595940E+02  0.47000000000E+01 0. -1.
         -5    1    4    4    0  502 -0.47050051333E+02 -0.79764373886E+02  0.52180342064E+02  0.10639990963E+03  0.47000000000E+01 0. -1.
          5    1    5    5  503    0  0.42991953316E+02 -0.14931544606E+02  0.55297516632E+02  0.71771612911E+02  0.47000000000E+01 0. -1.
         -5    1    5    5    0  503 -0.76333882486E+01  0.55293988300E+02 -0.35084392777E+02  0.66096129802E+02  0.47000000000E+01 0. -1.
<mgrwt>
<rscale>  0 0.27502080E+03</rscale>
<asrwt>0</asrwt>
<pdfrwt beam="1">  1        2 0.28102406E-01 0.27502080E+03</pdfrwt>
<pdfrwt beam="2">  1       -2 0.15925786E-01 0.27502080E+03</pdfrwt>
<totfact> 0.57980712E+03</totfact>
</mgrwt>
</event>
<event>
 9    1  0.7986988E-001  0.2751583E+03  0.7818608E-02  0.1098363E+00
         -2   -1    0    0    0  501 -0.00000000000E+00  0.00000000000E+00  0.41462979996E+02  0.41462979996E+02  0.00000000000E+00 0.  1.
          2   -1    0    0  501    0  0.00000000000E+00 -0.00000000000E+00 -0.45650406342E+03  0.45650406342E+03  0.00000000000E+00 0.  1.
         35    2    1    2    0    0  0.00000000000E+00  0.00000000000E+00 -0.41504108342E+03  0.49796704341E+03  0.27515827336E+03 0.  0.
         25    2    3    3    0    0 -0.49386034784E+02 -0.56347560735E+01 -0.18962607949E+03  0.23262282794E+03  0.12523816969E+03 0.  0.
         25    2    3    3    0    0  0.49386034784E+02  0.56347560735E+01 -0.22541500393E+03  0.26534421547E+03  0.13086213272E+03 0.  0.
          5    1    4    4  502    0 -0.49164527782E+02  0.34298905222E+02 -0.18202649735E+03  0.19170107311E+03  0.47000000000E+01 0. -1.
         -5    1    4    4    0  502 -0.22150700199E+00 -0.39933661296E+02 -0.75995821364E+01  0.40921754832E+02  0.47000000000E+01 0. -1.
          5    1    5    5  503    0 -0.34778530151E+01 -0.28631770256E+02 -0.19135603457E+03  0.19357452233E+03  0.47000000000E+01 0.  1.
         -5    1    5    5    0  503  0.52863887799E+02  0.34266526329E+02 -0.34058969362E+02  0.71769693143E+02  0.47000000000E+01 0.  1.
<mgrwt>
<rscale>  0 0.27515827E+03</rscale>
<asrwt>0</asrwt>
<pdfrwt beam="1">  1        2 0.70231395E-01 0.27515827E+03</pdfrwt>
<pdfrwt beam="2">  1       -2 0.63789200E-02 0.27515827E+03</pdfrwt>
<totfact> 0.92272441E+03</totfact>
</mgrwt>
</event>
<event>
 9    1  0.7986988E-001  0.2712387E+03  0.7818608E-02  0.1100573E+00
         -2   -1    0    0    0  501 -0.00000000000E+00  0.00000000000E+00  0.20533426514E+02  0.20533426514E+02  0.00000000000E+00 0. -1.
          2   -1    0    0  501    0  0.00000000000E+00 -0.00000000000E+00 -0.89573988359E+03  0.89573988359E+03  0.00000000000E+00 0. -1.
         35    2    1    2    0    0  0.71054273576E-14 -0.71054273576E-14 -0.87520645708E+03  0.91627331011E+03  0.27123870724E+03 0.  0.
         25    2    3    3    0    0  0.42503742059E+02 -0.23627358650E+02 -0.51255071427E+03  0.52973668754E+03  0.12469123170E+03 0.  0.
         25    2    3    3    0    0 -0.42503742059E+02  0.23627358650E+02 -0.36265574281E+03  0.38653662256E+03  0.12460558826E+03 0.  0.
          5    1    4    4  502    0  0.47723289679E+02 -0.49298408764E+02 -0.13747872257E+03  0.15372161411E+03  0.47000000000E+01 0. -1.
         -5    1    4    4    0  502 -0.52195476197E+01  0.25671050114E+02 -0.37507199170E+03  0.37601507343E+03  0.47000000000E+01 0. -1.
          5    1    5    5  503    0 -0.15600799374E+01 -0.40268520264E+02 -0.48119864724E+02  0.62941234137E+02  0.47000000000E+01 0.  1.
         -5    1    5    5    0  503 -0.40943662122E+02  0.63895878913E+02 -0.31453587808E+03  0.32359538843E+03  0.47000000000E+01 0.  1.
<mgrwt>
<rscale>  0 0.27123871E+03</rscale>
<asrwt>0</asrwt>
<pdfrwt beam="1">  1        2 0.13780612E+00 0.27123871E+03</pdfrwt>
<pdfrwt beam="2">  1       -2 0.31589891E-02 0.27123871E+03</pdfrwt>
<totfact> 0.11943833E+04</totfact>
</mgrwt>
</event>
<event>
 9    1  0.7986988E-001  0.2737815E+03  0.7818608E-02  0.1099135E+00
          2   -1    0    0  501    0  0.00000000000E+00  0.00000000000E+00  0.11927115616E+04  0.11927115616E+04  0.00000000000E+00 0. -1.
         -2   -1    0    0    0  501 -0.00000000000E+00 -0.00000000000E+00 -0.15711318547E+02  0.15711318547E+02  0.00000000000E+00 0. -1.
         35    2    1    2    0    0  0.00000000000E+00  0.00000000000E+00  0.11770002431E+04  0.12084228802E+04  0.27378145503E+03 0.  0.
         25    2    3    3    0    0 -0.37287659010E+02 -0.13640155718E+02  0.76010290969E+03  0.77138108317E+03  0.12528335396E+03 0.  0.
         25    2    3    3    0    0  0.37287659010E+02  0.13640155718E+02  0.41689733338E+03  0.43704179701E+03  0.12500288950E+03 0.  0.
          5    1    4    4  502    0 -0.40594691336E+01 -0.47244193918E+02  0.11430752557E+03  0.12384180857E+03  0.47000000000E+01 0. -1.
         -5    1    4    4    0  502 -0.33228189876E+02  0.33604038200E+02  0.64579538413E+03  0.64753927460E+03  0.47000000000E+01 0. -1.
          5    1    5    5  503    0  0.44513654790E+02 -0.42128180952E+02  0.11997669478E+03  0.13480632917E+03  0.47000000000E+01 0. -1.
         -5    1    5    5    0  503 -0.72259957804E+01  0.55768336670E+02  0.29692063861E+03  0.30223546784E+03  0.47000000000E+01 0. -1.
<mgrwt>
<rscale>  0 0.27378146E+03</rscale>
<asrwt>0</asrwt>
<pdfrwt beam="1">  1        2 0.18349402E+00 0.27378146E+03</pdfrwt>
<pdfrwt beam="2">  1       -2 0.24171269E-02 0.27378146E+03</pdfrwt>
<totfact> 0.11768592E+04</totfact>
</mgrwt>
</event>
<event>
 9    1  0.7986988E-001  0.2725033E+03  0.7818608E-02  0.1099855E+00
         -2   -1    0    0    0  501 -0.00000000000E+00  0.00000000000E+00  0.12992985542E+02  0.12992985542E+02  0.00000000000E+00 0. -1.
          2   -1    0    0  501    0  0.00000000000E+00 -0.00000000000E+00 -0.14288105900E+04  0.14288105900E+04  0.00000000000E+00 0. -1.
         35    2    1    2    0    0  0.71054273576E-14 -0.71054273576E-14 -0.14158176045E+04  0.14418035755E+04  0.27250332356E+03 0.  0.
         25    2    3    3    0    0  0.16827523501E+02 -0.32524423082E+02 -0.50181497100E+03  0.51851796676E+03  0.12530607762E+03 0.  0.
         25    2    3    3    0    0 -0.16827523501E+02  0.32524423082E+02 -0.91400263345E+03  0.92328560878E+03  0.12535747993E+03 0.  0.
          5    1    4    4  502    0  0.66824606343E+02 -0.40434158532E+02 -0.26514149807E+03  0.27644629350E+03  0.47000000000E+01 0. -1.
         -5    1    4    4    0  502 -0.49997082842E+02  0.79097354501E+01 -0.23667347293E+03  0.24207167326E+03  0.47000000000E+01 0. -1.
          5    1    5    5  503    0 -0.40528925169E+02  0.68391922028E+02 -0.42672441365E+03  0.43409199944E+03  0.47000000000E+01 0.  1.
         -5    1    5    5    0  503  0.23701401668E+02 -0.35867498946E+02 -0.48727821980E+03  0.48919360933E+03  0.47000000000E+01 0.  1.
<mgrwt>
<rscale>  0 0.27250332E+03</rscale>
<asrwt>0</asrwt>
<pdfrwt beam="1">  1        2 0.21981676E+00 0.27250332E+03</pdfrwt>
<pdfrwt beam="2">  1       -2 0.19989232E-02 0.27250332E+03</pdfrwt>
<totfact> 0.11527236E+04</totfact>
</mgrwt>
</event>
<event>
 9    1  0.7986988E-001  0.2744488E+03  0.7818608E-02  0.1098760E+00
         -2   -1    0    0    0  501 -0.00000000000E+00  0.00000000000E+00  0.13137553324E+02  0.13137553324E+02  0.00000000000E+00 0. -1.
          2   -1    0    0  501    0  0.00000000000E+00 -0.00000000000E+00 -0.14333365961E+04  0.14333365961E+04  0.00000000000E+00 0. -1.
         35    2    1    2    0    0  0.00000000000E+00  0.71054273576E-14 -0.14201990428E+04  0.14464741495E+04  0.27444880006E+03 0.  0.
         25    2    3    3    0    0 -0.33579840560E+02  0.40935199692E+02 -0.84176262595E+03  0.85235881899E+03  0.12307697430E+03 0.  0.
         25    2    3    3    0    0  0.33579840560E+02 -0.40935199692E+02 -0.57843641688E+03  0.59411533048E+03  0.12482404127E+03 0.  0.
          5    1    4    4  502    0 -0.35843045121E+02 -0.20157394808E+02 -0.64354160848E+03  0.64487125559E+03  0.47000000000E+01 0. -1.
         -5    1    4    4    0  502  0.22632045607E+01  0.61092594501E+02 -0.19822101747E+03  0.20748756340E+03  0.47000000000E+01 0. -1.
          5    1    5    5  503    0 -0.23176806279E+02 -0.11181540234E+02 -0.22576662920E+02  0.34554115528E+02  0.47000000000E+01 0.  1.
         -5    1    5    5    0  503  0.56756646839E+02 -0.29753659458E+02 -0.55585975396E+03  0.55956121495E+03  0.47000000000E+01 0.  1.
<mgrwt>
<rscale>  0 0.27444880E+03</rscale>
<asrwt>0</asrwt>
<pdfrwt beam="1">  1        2 0.22051323E+00 0.27444880E+03</pdfrwt>
<pdfrwt beam="2">  1       -2 0.20211629E-02 0.27444880E+03</pdfrwt>
<totfact> 0.11279262E+04</totfact>
</mgrwt>
</event>
<event>
 9    1  0.7986988E-001  0.2743983E+03  0.7818608E-02  0.1098788E+00
          1   -1    0    0  501    0  0.00000000000E+00  0.00000000000E+00  0.70589153567E+03  0.70589153567E+03  0.00000000000E+00 0. -1.
         -1   -1    0    0    0  501 -0.00000000000E+00 -0.00000000000E+00 -0.26666422786E+02  0.26666422786E+02  0.00000000000E+00 0. -1.
         35    2    1    2    0    0 -0.71054273576E-14  0.71054273576E-14  0.67922511288E+03  0.73255795846E+03  0.27439826626E+03 0.  0.
         25    2    3    3    0    0  0.37291825452E+02  0.36506134724E+02  0.39906543978E+03  0.42136513781E+03  0.12478772382E+03 0.  0.
         25    2    3    3    0    0 -0.37291825452E+02 -0.36506134724E+02  0.28015967310E+03  0.31119282065E+03  0.12501260365E+03 0.  0.
          5    1    4    4  502    0 -0.94055105177E+01  0.73461041730E+02  0.24980983685E+03  0.26059937235E+03  0.47000000000E+01 0.  1.
         -5    1    4    4    0  502  0.46697335970E+02 -0.36954907006E+02  0.14925560293E+03  0.16076576546E+03  0.47000000000E+01 0.  1.
          5    1    5    5  503    0  0.43558705611E+02 -0.29477556093E+02  0.89332574748E+02  0.10377227982E+03  0.47000000000E+01 0. -1.
         -5    1    5    5    0  503 -0.80850531064E+02 -0.70285786306E+01  0.19082709835E+03  0.20742054083E+03  0.47000000000E+01 0. -1.
<mgrwt>
<rscale>  0 0.27439827E+03</rscale>
<asrwt>0</asrwt>
<pdfrwt beam="1">  1        1 0.10859868E+00 0.27439827E+03</pdfrwt>
<pdfrwt beam="2">  1       -1 0.41025271E-02 0.27439827E+03</pdfrwt>
<totfact> 0.65750379E+03</totfact>
</mgrwt>
</event>
<event>
 9    1  0.7986988E-001  0.2751011E+03  0.7818608E-02  0.1098395E+00
          2   -1    0    0  501    0  0.00000000000E+00  0.00000000000E+00  0.23079226710E+03  0.23079226710E+03  0.00000000000E+00 0. -1.
         -2   -1    0    0    0  501 -0.00000000000E+00 -0.00000000000E+00 -0.81979170201E+02  0.81979170201E+02  0.00000000000E+00 0. -1.
         35    2    1    2    0    0 -0.71054273576E-14  0.00000000000E+00  0.14881309689E+03  0.31277143730E+03  0.27510113446E+03 0.  0.
         25    2    3    3    0    0  0.36099113256E+02 -0.34025998191E+02  0.10733991358E+03  0.17180244181E+03  0.12463269007E+03 0.  0.
         25    2    3    3    0    0 -0.36099113256E+02  0.34025998191E+02  0.41473183314E+02  0.14096899549E+03  0.12526499201E+03 0.  0.
          5    1    4    4  502    0 -0.30143285935E+02 -0.64206826019E+01  0.93505679061E+02  0.98565941728E+02  0.47000000000E+01 0.  1.
         -5    1    4    4    0  502  0.66242399191E+02 -0.27605315589E+02  0.13834234520E+02  0.73236500081E+02  0.47000000000E+01 0.  1.
          5    1    5    5  503    0  0.29414489083E+02 -0.17690258356E+02 -0.17353034097E+02  0.38747583164E+02  0.47000000000E+01 0. -1.
         -5    1    5    5    0  503 -0.65513602338E+02  0.51716256547E+02  0.58826217411E+02  0.10222141232E+03  0.47000000000E+01 0. -1.
<mgrwt>
<rscale>  0 0.27510113E+03</rscale>
<asrwt>0</asrwt>
<pdfrwt beam="1">  1        2 0.35506502E-01 0.27510113E+03</pdfrwt>
<pdfrwt beam="2">  1       -2 0.12612180E-01 0.27510113E+03</pdfrwt>
<totfact> 0.65858993E+03</totfact>
</mgrwt>
</event>
<event>
 9    1  0.7986988E-001  0.2795263E+03  0.7818608E-02  0.1095948E+00
          4   -1    0    0  501    0  0.00000000000E+00  0.00000000000E+00  0.21148814124E+03  0.21148814124E+03  0.00000000000E+00 0.  1.
         -4   -1    0    0    0  501 -0.00000000000E+00 -0.00000000000E+00 -0.92363283393E+02  0.92363283393E+02  0.00000000000E+00 0.  1.
         35    2    1    2    0    0  0.00000000000E+00  0.00000000000E+00  0.11912485785E+03  0.30385142464E+03  0.27952630734E+03 0.  0.
         25    2    3    3    0    0  0.19732927820E+02 -0.39567420245E+02  0.95371973349E+01  0.13224339159E+03  0.12426740240E+03 0.  0.
         25    2    3    3    0    0 -0.19732927820E+02  0.39567420245E+02  0.10958766051E+03  0.17160803305E+03  0.12443830795E+03 0.  0.
          5    1    4    4  502    0  0.34550710395E+02  0.58763961602E+00 -0.48649034777E+02  0.59857459801E+02  0.47000000000E+01 0.  1.
         -5    1    4    4    0  502 -0.14817782575E+02 -0.40155059861E+02  0.58186232112E+02  0.72385931784E+02  0.47000000000E+01 0.  1.
          5    1    5    5  503    0 -0.66478267523E+02  0.49900487057E+02  0.77808756242E+02  0.11395486479E+03  0.47000000000E+01 0.  1.
         -5    1    5    5    0  503  0.46745339704E+02 -0.10333066812E+02  0.31778904272E+02  0.57653168261E+02  0.47000000000E+01 0.  1.
<mgrwt>
<rscale>  0 0.27952631E+03</rscale>
<asrwt>0</asrwt>
<pdfrwt beam="1">  1        4 0.32536637E-01 0.27952631E+03</pdfrwt>
<pdfrwt beam="2">  1       -4 0.14209736E-01 0.27952631E+03</pdfrwt>
<totfact> 0.70897040E+02</totfact>
</mgrwt>
</event>
<event>
 9    1  0.7986988E-001  0.2745552E+03  0.7818608E-02  0.1098700E+00
         -1   -1    0    0    0  501 -0.00000000000E+00  0.00000000000E+00  0.26167461950E+03  0.26167461950E+03  0.00000000000E+00 0. -1.
          1   -1    0    0  501    0  0.00000000000E+00 -0.00000000000E+00 -0.72017460840E+02  0.72017460840E+02  0.00000000000E+00 0. -1.
         35    2    1    2    0    0  0.00000000000E+00  0.35527136788E-14  0.18965715866E+03  0.33369208034E+03  0.27455521603E+03 0.  0.
         25    2    3    3    0    0 -0.31792217459E+02  0.49608374705E+01  0.14971650376E+03  0.19833103299E+03  0.12603496399E+03 0.  0.
         25    2    3    3    0    0  0.31792217459E+02 -0.49608374705E+01  0.39940654901E+02  0.13536104735E+03  0.12526772221E+03 0.  0.
          5    1    4    4  502    0 -0.75611768849E+02 -0.16330144565E+02  0.68118264366E+02  0.10317946089E+03  0.47000000000E+01 0.  1.
         -5    1    4    4    0  502  0.43819551390E+02  0.21290982035E+02  0.81598239395E+02  0.95151572096E+02  0.47000000000E+01 0.  1.
          5    1    5    5  503    0  0.15014863932E+02  0.58466744609E+02  0.46755559636E+01  0.60726906620E+02  0.47000000000E+01 0.  1.
         -5    1    5    5    0  503  0.16777353528E+02 -0.63427582079E+02  0.35265098938E+02  0.74634140733E+02  0.47000000000E+01 0.  1.
<mgrwt>
<rscale>  0 0.27455522E+03</rscale>
<asrwt>0</asrwt>
<pdfrwt beam="1">  1        1 0.11079609E-01 0.27455522E+03</pdfrwt>
<pdfrwt beam="2">  1       -1 0.40257633E-01 0.27455522E+03</pdfrwt>
<totfact> 0.33935625E+03</totfact>
</mgrwt>
</event>
<event>
 9    1  0.7986988E-001  0.3126288E+03  0.7818608E-02  0.1079093E+00
          1   -1    0    0  501    0  0.00000000000E+00  0.00000000000E+00  0.82798380330E+02  0.82798380330E+02  0.00000000000E+00 0.  1.
         -1   -1    0    0    0  501 -0.00000000000E+00 -0.00000000000E+00 -0.29510472625E+03  0.29510472625E+03  0.00000000000E+00 0.  1.
         35    2    1    2    0    0  0.00000000000E+00  0.35527136788E-14 -0.21230634592E+03  0.37790310658E+03  0.31262881096E+03 0.  0.
         25    2    3    3    0    0 -0.95316828997E+02 -0.16453823549E+02 -0.90690373399E+02  0.18189601378E+03  0.12452064007E+03 0.  0.
         25    2    3    3    0    0  0.95316828997E+02  0.16453823549E+02 -0.12161597252E+03  0.19600709280E+03  0.11946677134E+03 0.  0.
          5    1    4    4  502    0 -0.61135914286E+01 -0.48580312504E+02  0.19875734000E+01  0.49228682809E+02  0.47000000000E+01 0.  1.
         -5    1    4    4    0  502 -0.89203237569E+02  0.32126488955E+02 -0.92677946799E+02  0.13266733098E+03  0.47000000000E+01 0.  1.
          5    1    5    5  503    0  0.11314653626E+03  0.32651725886E+02 -0.12433114949E+03  0.17131432691E+03  0.47000000000E+01 0. -1.
         -5    1    5    5    0  503 -0.17829707261E+02 -0.16197902337E+02  0.27151769705E+01  0.24692765886E+02  0.47000000000E+01 0. -1.
<mgrwt>
<rscale>  0 0.31262881E+03</rscale>
<asrwt>0</asrwt>
<pdfrwt beam="1">  1        1 0.12738212E-01 0.31262881E+03</pdfrwt>
<pdfrwt beam="2">  1       -1 0.45400727E-01 0.31262881E+03</pdfrwt>
<totfact> 0.22758746E+03</totfact>
</mgrwt>
</event>
<event>
 9    1  0.7986988E-001  0.2765251E+03  0.7818608E-02  0.1097602E+00
         -2   -1    0    0    0  501 -0.00000000000E+00  0.00000000000E+00  0.30034527495E+03  0.30034527495E+03  0.00000000000E+00 0.  1.
          2   -1    0    0  501    0  0.00000000000E+00 -0.00000000000E+00 -0.63648533107E+02  0.63648533107E+02  0.00000000000E+00 0.  1.
         35    2    1    2    0    0 -0.71054273576E-14  0.00000000000E+00  0.23669674184E+03  0.36399380806E+03  0.27652512491E+03 0.  0.
         25    2    3    3    0    0  0.32086574095E+02  0.52774420060E+02  0.12178682767E+03  0.18331759297E+03  0.12230544081E+03 0.  0.
         25    2    3    3    0    0 -0.32086574095E+02 -0.52774420060E+02  0.11490991417E+03  0.18067621508E+03  0.12499967468E+03 0.  0.
          5    1    4    4  502    0 -0.37209857892E+02  0.49516708904E+02  0.83090904284E+02  0.10374327140E+03  0.47000000000E+01 0.  1.
         -5    1    4    4    0  502  0.69296431987E+02  0.32577111563E+01  0.38695923381E+02  0.79574321577E+02  0.47000000000E+01 0.  1.
          5    1    5    5  503    0  0.20596347663E+02  0.58826888238E+01  0.97318104922E+02  0.99758303466E+02  0.47000000000E+01 0. -1.
         -5    1    5    5    0  503 -0.52682921758E+02 -0.58657108884E+02  0.17591809253E+02  0.80917911617E+02  0.47000000000E+01 0. -1.
<mgrwt>
<rscale>  0 0.27652512E+03</rscale>
<asrwt>0</asrwt>
<pdfrwt beam="1">  1        2 0.97920822E-02 0.27652512E+03</pdfrwt>
<pdfrwt beam="2">  1       -2 0.46206964E-01 0.27652512E+03</pdfrwt>
<totfact> 0.29471288E+03</totfact>
</mgrwt>
</event>
